/*--------------------------------*- C++ -*----------------------------------*\
| =========                 |                                                 |
| \\      /  F ield         | OpenFOAM: The Open Source CFD Toolbox           |
|  \\    /   O peration     | Version:  2.4.0                                 |
|   \\  /    A nd           | Web:      www.OpenFOAM.org                      |
|    \\/     M anipulation  |                                                 |
\*---------------------------------------------------------------------------*/
FoamFile
{
    version     2.0;
    format      ascii;
    class       volVectorField;
    location    "0.35";
    object      U.oil;
}
// * * * * * * * * * * * * * * * * * * * * * * * * * * * * * * * * * * * * * //

dimensions      [0 1 -1 0 0 0 0];

internalField   nonuniform List<vector> 
2268
(
(0.0198054 -0.00925069 0)
(0.0581025 -0.00930687 0)
(0.0996208 -0.00910139 0)
(0.134496 -0.00996778 0)
(0.181284 -0.00786918 0)
(0.208714 -0.0115016 0)
(0.266553 -0.00865848 0)
(0.294546 -0.00812216 0)
(0.326764 -0.010264 0)
(0.378192 -0.0120738 0)
(0.433329 -0.00858971 0)
(0.45941 -0.00774007 0)
(0.48366 -0.0061013 0)
(0.5125 -0.00559628 0)
(0.533079 -0.00644794 0)
(0.573607 -0.00724412 0)
(0.580646 0.00292087 0)
(0.567108 0.00717717 0)
(0.529123 0.0156437 0)
(0.450088 0.021017 0)
(0.321595 0.0251745 0)
(0.168537 0.0451047 0)
(0.0264 0.0414143 0)
(0.0198087 -0.0277604 0)
(0.0581327 -0.0279837 0)
(0.0997849 -0.0271361 0)
(0.134157 -0.0305957 0)
(0.181811 -0.0223505 0)
(0.210804 -0.0359083 0)
(0.263377 -0.0256421 0)
(0.295612 -0.023188 0)
(0.329187 -0.031831 0)
(0.380711 -0.0354081 0)
(0.431878 -0.0300725 0)
(0.45657 -0.0198933 0)
(0.48352 -0.0170362 0)
(0.516775 -0.0198088 0)
(0.545653 -0.0225602 0)
(0.578879 -0.0168809 0)
(0.592216 0.0037512 0)
(0.5778 0.022934 0)
(0.52907 0.0456532 0)
(0.450563 0.0834971 0)
(0.304638 0.103034 0)
(0.218349 0.108857 0)
(0.03407 0.110092 0)
(0.0197803 -0.0462506 0)
(0.0581657 -0.046596 0)
(0.0996225 -0.0453408 0)
(0.134021 -0.0501486 0)
(0.181994 -0.0398969 0)
(0.212161 -0.056182 0)
(0.259563 -0.0433876 0)
(0.297277 -0.0415388 0)
(0.334123 -0.0534892 0)
(0.382366 -0.0566775 0)
(0.42478 -0.0464199 0)
(0.448343 -0.0337478 0)
(0.494948 -0.0358479 0)
(0.52892 -0.0348107 0)
(0.560233 -0.0390562 0)
(0.587949 -0.0274541 0)
(0.59435 0.00355556 0)
(0.58449 0.0397009 0)
(0.533265 0.0785921 0)
(0.454485 0.12102 0)
(0.328531 0.141923 0)
(0.186844 0.157589 0)
(0.0824374 0.176023 0)
(0.0197424 -0.0649543 0)
(0.0582429 -0.0653494 0)
(0.0992323 -0.0637599 0)
(0.134401 -0.0701991 0)
(0.181447 -0.0569107 0)
(0.213222 -0.0770071 0)
(0.258089 -0.0617132 0)
(0.296647 -0.0608284 0)
(0.338297 -0.0741302 0)
(0.385876 -0.0746101 0)
(0.408324 -0.0623221 0)
(0.454333 -0.0550721 0)
(0.502537 -0.0527436 0)
(0.540961 -0.0533038 0)
(0.580136 -0.0481996 0)
(0.591627 -0.0240478 0)
(0.594284 0.0191993 0)
(0.582422 0.0632823 0)
(0.542581 0.13601 0)
(0.472957 0.19058 0)
(0.33 0.228395 0)
(0.170461 0.217226 0)
(0.0407072 0.244169 0)
(0.0197288 -0.0830837 0)
(0.0582973 -0.083384 0)
(0.0990302 -0.0817336 0)
(0.134566 -0.0884378 0)
(0.181424 -0.0749717 0)
(0.212429 -0.0940311 0)
(0.258707 -0.0789455 0)
(0.296515 -0.0798583 0)
(0.342958 -0.0937422 0)
(0.38075 -0.083587 0)
(0.407703 -0.0799124 0)
(0.463022 -0.0718096 0)
(0.506481 -0.0738585 0)
(0.548143 -0.0597925 0)
(0.589416 -0.0572665 0)
(0.606159 -0.0171087 0)
(0.605969 0.0467024 0)
(0.602973 0.110316 0)
(0.586964 0.185769 0)
(0.531374 0.254187 0)
(0.42252 0.303215 0)
(0.22348 0.294823 0)
(0.0774146 0.2951 0)
(0.0198087 -0.0990077 0)
(0.0585069 -0.099203 0)
(0.0993001 -0.097509 0)
(0.135583 -0.104866 0)
(0.180222 -0.0897889 0)
(0.214691 -0.109947 0)
(0.25566 -0.0971743 0)
(0.305071 -0.0979813 0)
(0.342291 -0.111208 0)
(0.375905 -0.108313 0)
(0.421233 -0.112431 0)
(0.469408 -0.117387 0)
(0.503262 -0.126009 0)
(0.5483 -0.134007 0)
(0.578009 -0.138104 0)
(0.59866 -0.101968 0)
(0.621476 -0.0136672 0)
(0.593427 0.102522 0)
(0.566637 0.217812 0)
(0.506219 0.313066 0)
(0.445498 0.38871 0)
(0.262622 0.374289 0)
(0.0547317 0.390745 0)
(0.0200245 -0.132493 0)
(0.0589589 -0.133335 0)
(0.100372 -0.133271 0)
(0.137332 -0.142133 0)
(0.177624 -0.131396 0)
(0.222853 -0.151373 0)
(0.248562 -0.147579 0)
(0.31045 -0.152142 0)
(0.335796 -0.166012 0)
(0.374172 -0.174495 0)
(0.407038 -0.185906 0)
(0.434532 -0.182294 0)
(0.441632 -0.187063 0)
(0.438618 -0.167476 0)
(0.399248 -0.102394 0)
(0.363407 -0.00237017 0)
(0.308021 0.156792 0)
(0.296046 0.225179 0)
(0.383142 0.3983 0)
(0.363468 0.470935 0)
(0.362813 0.495863 0)
(0.300452 0.458017 0)
(0.124613 0.457501 0)
(0.0197844 -0.181574 0)
(0.0581619 -0.182474 0)
(0.0989606 -0.183214 0)
(0.135768 -0.188941 0)
(0.16986 -0.187678 0)
(0.221726 -0.20087 0)
(0.235848 -0.21405 0)
(0.270853 -0.214021 0)
(0.29621 -0.223378 0)
(0.302083 -0.226872 0)
(0.282469 -0.200676 0)
(0.251351 -0.151073 0)
(0.221406 -0.107104 0)
(0.173992 -0.099388 0)
(0.159174 -0.124575 0)
(0.168497 -0.105654 0)
(0.193564 -0.0723908 0)
(0.199655 -0.0167416 0)
(0.327543 0.100581 0)
(0.0557836 0.50969 0)
(0.214476 0.576436 0)
(0.248904 0.571603 0)
(0.111464 0.627105 0)
(-0.280036 0.120249 0)
(-0.760994 0.125385 0)
(-1.04865 0.0257471 0)
(-1.20058 0.0303168 0)
(-1.25006 0.0107289 0)
(-1.20266 -0.0148956 0)
(-1.12602 -0.0359561 0)
(-0.980551 -0.0621601 0)
(-0.64859 -0.101838 0)
(-0.313081 -0.17504 0)
(0.22416 -0.210207 0)
(0.637318 -0.144517 0)
(0.97796 -0.0916274 0)
(1.02291 -0.0446106 0)
(0.965542 -0.0589078 0)
(0.738422 -0.0586523 0)
(0.39515 -0.0366909 0)
(0.045249 -0.0265052 0)
(0.0177304 -0.03982 0)
(-0.236723 0.292309 0)
(-0.69249 0.217857 0)
(-1.02113 0.167582 0)
(-1.154 0.0658393 0)
(-1.17928 0.00852165 0)
(-1.0808 -0.0478286 0)
(-1.0131 -0.057498 0)
(-0.845341 -0.147049 0)
(-0.446776 -0.21201 0)
(-0.143888 -0.21028 0)
(0.375261 -0.205143 0)
(0.801471 -0.143304 0)
(1.07118 0.0110885 0)
(1.11693 0.112506 0)
(1.00707 0.20778 0)
(0.683647 0.279527 0)
(0.392015 0.277879 0)
(0.0505226 0.179797 0)
(0.023736 0.0605435 0)
(-0.271571 0.45941 0)
(-0.678809 0.424504 0)
(-0.975574 0.260131 0)
(-1.07618 0.0993105 0)
(-1.07135 -0.0154025 0)
(-0.972155 -0.0803427 0)
(-0.933771 -0.128257 0)
(-0.576824 -0.284754 0)
(-0.263065 -0.400587 0)
(0.13387 -0.446839 0)
(0.581381 -0.50908 0)
(0.937396 -0.363754 0)
(1.17568 -0.142644 0)
(1.17389 0.0757616 0)
(0.982265 0.226548 0)
(0.663095 0.28923 0)
(0.483853 0.301715 0)
(0.166454 0.19121 0)
(0.0736647 -0.0203892 0)
(-0.195874 0.664605 0)
(-0.572426 0.563315 0)
(-0.875541 0.330635 0)
(-0.901236 0.0883777 0)
(-0.865229 -0.00982993 0)
(-0.734195 -0.125995 0)
(-0.718512 -0.238957 0)
(-0.343316 -0.452449 0)
(-0.114102 -0.530683 0)
(0.351504 -0.607522 0)
(0.752614 -0.642381 0)
(1.0391 -0.417269 0)
(1.26041 -0.154299 0)
(1.15448 0.147906 0)
(0.978651 0.314931 0)
(0.658973 0.376682 0)
(0.474144 0.382733 0)
(0.203694 0.301797 0)
(0.122426 0.088425 0)
(-0.134671 0.747165 0)
(-0.494453 0.657464 0)
(-0.714871 0.431852 0)
(-0.490452 0.120022 0)
(-0.479219 -0.12131 0)
(-0.378243 -0.185713 0)
(-0.413393 -0.281109 0)
(-0.176164 -0.571596 0)
(0.0715513 -0.738314 0)
(0.498441 -0.816954 0)
(0.820424 -0.845013 0)
(1.03411 -0.626269 0)
(1.20168 -0.0902445 0)
(1.1466 0.250596 0)
(0.923744 0.43798 0)
(0.646766 0.493604 0)
(0.496461 0.479377 0)
(0.271678 0.379362 0)
(0.148703 0.160924 0)
(-0.0854967 0.892984 0)
(-0.392944 0.846807 0)
(-0.444972 0.419312 0)
(-0.125581 -0.126131 0)
(-0.139494 -0.417121 0)
(0.0727238 -0.467636 0)
(0.0317809 -0.39739 0)
(0.0849547 -0.6055 0)
(0.227763 -0.840078 0)
(0.586534 -0.963 0)
(0.839425 -1.01848 0)
(1.01733 -0.990457 0)
(0.990382 -0.570245 0)
(0.950886 0.24219 0)
(0.845558 0.516893 0)
(0.601315 0.586446 0)
(0.49942 0.553233 0)
(0.255809 0.450462 0)
(0.0831976 0.243114 0)
(-0.0182569 0.941871 0)
(-0.238209 0.851001 0)
(-0.108498 0.218436 0)
(0.0415316 -0.179782 0)
(0.366686 -0.430621 0)
(0.602529 -0.841829 0)
(0.596596 -0.868011 0)
(0.385395 -0.822199 0)
(0.395353 -0.920767 0)
(0.615981 -1.08195 0)
(0.829938 -1.20827 0)
(0.897918 -1.3134 0)
(0.900806 -1.36853 0)
(0.787667 0.142656 0)
(0.733063 0.574187 0)
(0.544039 0.613388 0)
(0.431249 0.621789 0)
(0.219351 0.522759 0)
(0.0759681 0.327301 0)
(0.0750584 0.995708 0)
(-0.0648123 0.909018 0)
(0.123995 0.15343 0)
(0.171216 -0.0808821 0)
(0.728327 -0.578324 0)
(1.02616 -0.312518 0)
(1.13982 -0.453248 0)
(0.613592 -0.95274 0)
(0.559817 -1.05479 0)
(0.667695 -1.1614 0)
(0.818083 -1.30244 0)
(0.86563 -1.38061 0)
(0.888703 -1.40747 0)
(0.553579 -0.172775 0)
(0.646069 0.547809 0)
(0.497319 0.678812 0)
(0.42611 0.674273 0)
(0.246876 0.615957 0)
(0.102893 0.406417 0)
(0.0153276 -0.223593 0)
(0.0451487 -0.223199 0)
(0.0738824 -0.22267 0)
(0.100515 -0.220688 0)
(0.112354 -0.221652 0)
(0.143222 -0.2121 0)
(0.147479 -0.195358 0)
(0.155072 -0.192152 0)
(0.176077 -0.192284 0)
(0.181624 -0.191997 0)
(0.192067 -0.203607 0)
(0.225465 -0.203705 0)
(0.28479 -0.173951 0)
(0.3258 -0.107876 0)
(0.358116 -0.010102 0)
(0.358172 0.0779796 0)
(0.295835 0.251795 0)
(0.205931 0.300098 0)
(0.150794 0.347106 0)
(0.130932 0.378635 0)
(0.101134 0.537007 0)
(0.269697 0.641351 0)
(0.381644 0.697512 0)
(0.00785129 -0.222313 0)
(0.0239881 -0.223645 0)
(0.0416656 -0.221756 0)
(0.0621358 -0.219573 0)
(0.0822699 -0.220911 0)
(0.109129 -0.220379 0)
(0.135251 -0.20728 0)
(0.165243 -0.215141 0)
(0.204247 -0.197369 0)
(0.232577 -0.172302 0)
(0.271166 -0.152896 0)
(0.30481 -0.141435 0)
(0.319255 -0.117168 0)
(0.331106 -0.103307 0)
(0.315274 -0.0909084 0)
(0.324862 -0.0819618 0)
(0.33959 -0.0419953 0)
(0.394855 0.0770904 0)
(0.309213 0.219071 0)
(0.420635 0.341624 0)
(0.258737 0.533848 0)
(0.282251 0.540445 0)
(0.349683 0.570123 0)
(0.0135186 -0.214848 0)
(0.0399985 -0.215018 0)
(0.0670226 -0.210947 0)
(0.0946207 -0.206662 0)
(0.120841 -0.20089 0)
(0.146606 -0.198267 0)
(0.174183 -0.18209 0)
(0.197711 -0.195689 0)
(0.232573 -0.185069 0)
(0.253533 -0.180578 0)
(0.297919 -0.185188 0)
(0.330174 -0.181259 0)
(0.36172 -0.164683 0)
(0.400651 -0.134455 0)
(0.427703 -0.0540706 0)
(0.472396 -0.00584501 0)
(0.479258 0.0947652 0)
(0.496474 0.158972 0)
(0.489185 0.289656 0)
(0.505511 0.386053 0)
(0.566727 0.608075 0)
(0.503224 0.600176 0)
(0.4546 0.522594 0)
(0.0142886 -0.220372 0)
(0.0427219 -0.221568 0)
(0.0708664 -0.220637 0)
(0.0985815 -0.219325 0)
(0.12525 -0.21802 0)
(0.149003 -0.22162 0)
(0.176603 -0.212523 0)
(0.19802 -0.233613 0)
(0.228576 -0.21953 0)
(0.253748 -0.229317 0)
(0.307026 -0.229646 0)
(0.34369 -0.213188 0)
(0.383985 -0.16043 0)
(0.409073 -0.0944863 0)
(0.452243 -0.0378616 0)
(0.494926 -0.0160266 0)
(0.532557 0.0569797 0)
(0.571816 0.13192 0)
(0.624028 0.230376 0)
(0.675555 0.360758 0)
(0.687906 0.492435 0)
(0.823859 0.685874 0)
(0.779401 0.656451 0)
(0.014571 -0.274554 0)
(0.0444435 -0.275115 0)
(0.0731726 -0.272666 0)
(0.100821 -0.268776 0)
(0.1285 -0.264153 0)
(0.150106 -0.260331 0)
(0.177502 -0.254506 0)
(0.192562 -0.264112 0)
(0.223919 -0.260585 0)
(0.252262 -0.284152 0)
(0.310439 -0.255576 0)
(0.350353 -0.186939 0)
(0.394509 -0.170647 0)
(0.425982 -0.14583 0)
(0.486394 -0.0933865 0)
(0.525717 -0.0483146 0)
(0.5578 0.0415453 0)
(0.615249 0.128234 0)
(0.64673 0.19185 0)
(0.742136 0.305585 0)
(0.772631 0.391449 0)
(0.894514 0.539178 0)
(1.03778 0.624343 0)
(0.0157584 -0.288032 0)
(0.0465223 -0.288408 0)
(0.0768523 -0.284723 0)
(0.105001 -0.279912 0)
(0.132597 -0.273326 0)
(0.153846 -0.26685 0)
(0.176944 -0.261812 0)
(0.184821 -0.26809 0)
(0.205536 -0.274895 0)
(0.225082 -0.276738 0)
(0.286198 -0.264736 0)
(0.327726 -0.240913 0)
(0.351819 -0.237293 0)
(0.35238 -0.212665 0)
(0.366603 -0.171568 0)
(0.362371 -0.121807 0)
(0.389088 -0.0567165 0)
(0.464936 0.000722486 0)
(0.503871 0.0896671 0)
(0.641008 0.217384 0)
(0.69692 0.353395 0)
(0.814951 0.375274 0)
(1.00692 0.482934 0)
(0.0173191 -0.338889 0)
(0.0503711 -0.340022 0)
(0.0826669 -0.336756 0)
(0.112988 -0.331489 0)
(0.140448 -0.322402 0)
(0.159513 -0.309417 0)
(0.169215 -0.290518 0)
(0.150569 -0.28578 0)
(0.113246 -0.27768 0)
(0.153651 -0.307488 0)
(0.192926 -0.303554 0)
(0.181674 -0.271585 0)
(0.0975764 -0.229783 0)
(0.0120376 -0.189678 0)
(-0.0296733 -0.160239 0)
(-0.0325876 -0.151435 0)
(-1.29554e-05 -0.116118 0)
(0.0384749 -0.0805516 0)
(0.129031 -0.0263802 0)
(0.260089 0.0508868 0)
(0.438106 0.194104 0)
(0.576235 0.185621 0)
(0.788028 0.274746 0)
(0.0177485 -0.569522 0)
(0.051506 -0.572106 0)
(0.0841102 -0.572024 0)
(0.11652 -0.570334 0)
(0.147879 -0.56431 0)
(0.176029 -0.551657 0)
(0.194628 -0.519632 0)
(0.0340891 -0.542759 0)
(0.00636373 -0.454562 0)
(-0.0276883 -0.428042 0)
(-0.0824569 -0.34725 0)
(-0.177803 -0.217378 0)
(-0.241611 -0.161098 0)
(-0.227001 -0.152582 0)
(-0.206421 -0.157015 0)
(-0.168179 -0.156097 0)
(-0.119024 -0.147768 0)
(-0.0673941 -0.173102 0)
(-0.00376442 -0.151549 0)
(0.0474991 -0.152206 0)
(0.187112 -0.0449144 0)
(0.302461 -0.0406034 0)
(0.47473 -0.00754907 0)
(0.0149946 -0.669061 0)
(0.0375996 -0.649344 0)
(0.0641663 -0.621707 0)
(0.0864485 -0.582556 0)
(0.114507 -0.53564 0)
(0.14293 -0.475627 0)
(0.0593382 -0.55655 0)
(-0.306676 -0.839295 0)
(-0.271321 -0.739192 0)
(-0.361857 -0.563564 0)
(-0.493802 -0.440184 0)
(-0.46724 -0.439095 0)
(-0.373574 -0.525062 0)
(-0.278849 -0.493661 0)
(-0.223366 -0.465935 0)
(-0.175848 -0.417244 0)
(-0.123738 -0.340495 0)
(-0.0753757 -0.279938 0)
(-0.0381126 -0.193838 0)
(0.0288429 -0.18087 0)
(0.10927 -0.0985571 0)
(0.210471 -0.143297 0)
(0.281796 -0.159941 0)
(-0.0365038 -0.720772 0)
(-0.102327 -0.738827 0)
(-0.149104 -0.762129 0)
(-0.176746 -0.790531 0)
(-0.177598 -0.824438 0)
(-0.1458 -0.827294 0)
(-0.333017 -0.803253 0)
(-0.435545 -0.815601 0)
(-0.513588 -0.781001 0)
(-0.617144 -0.809663 0)
(-0.603942 -0.983718 0)
(-0.424001 -1.081 0)
(-0.3045 -1.06005 0)
(-0.204815 -0.944778 0)
(-0.106575 -0.878253 0)
(-0.0367564 -0.804973 0)
(-0.00521199 -0.766547 0)
(0.0433878 -0.6766 0)
(0.0291753 -0.515289 0)
(0.088371 -0.46037 0)
(0.115047 -0.303334 0)
(0.183286 -0.245098 0)
(0.226191 -0.201048 0)
(-0.027997 -0.211724 0)
(-0.0760535 -0.215101 0)
(-0.110293 -0.218342 0)
(-0.136928 -0.231149 0)
(-0.152057 -0.260875 0)
(-0.171812 -0.389094 0)
(-0.225302 -0.551265 0)
(-0.272701 -0.438348 0)
(-0.0937475 -0.484617 0)
(-0.0253339 -0.0925856 0)
(0.0441071 -0.640919 0)
(0.183067 -0.853657 0)
(0.265835 -0.87925 0)
(0.382545 -0.829356 0)
(0.51065 -0.719678 0)
(0.568387 -0.528691 0)
(0.496047 -0.337657 0)
(0.272 -1.10403 0)
(0.16656 -0.991573 0)
(0.27913 -0.90028 0)
(0.281939 -0.729599 0)
(0.285817 -0.67898 0)
(0.354714 -0.578254 0)
(-0.0219563 -0.152018 0)
(-0.056196 -0.187741 0)
(-0.0776096 -0.227749 0)
(-0.0905814 -0.275916 0)
(-0.0961108 -0.325424 0)
(-0.0973239 -0.355914 0)
(-0.0969012 -0.34336 0)
(-0.0845481 -0.215627 0)
(-0.0844221 0.265478 0)
(-0.0509385 0.415037 0)
(0.136295 0.0216604 0)
(0.0867522 -0.214213 0)
(0.123144 -0.233035 0)
(0.129005 -0.251949 0)
(0.142254 -0.318181 0)
(0.147471 -0.409127 0)
(0.182513 -0.509205 0)
(0.286555 -0.596147 0)
(0.524675 -0.609487 0)
(0.703307 -0.601043 0)
(0.728962 -0.354463 0)
(0.617812 -0.586162 0)
(0.494248 -0.991434 0)
(-0.000598562 -0.334835 0)
(-0.000673416 -0.361566 0)
(-0.00506943 -0.384783 0)
(-0.0166278 -0.41081 0)
(-0.0389148 -0.435763 0)
(-0.0754203 -0.455103 0)
(-0.130124 -0.457535 0)
(-0.189124 -0.438988 0)
(-0.144255 -0.366417 0)
(0.109543 -0.249636 0)
(0.270538 -0.489892 0)
(0.238166 -0.567298 0)
(0.206137 -0.568634 0)
(0.204279 -0.503489 0)
(0.20718 -0.41881 0)
(0.217255 -0.313802 0)
(0.222418 -0.187553 0)
(0.169904 -0.118665 0)
(0.140136 -0.144179 0)
(0.0321087 -0.277558 0)
(-0.0398146 -0.46865 0)
(-0.0209181 -0.566301 0)
(0.0926191 -0.56605 0)
(0.000739608 -0.166432 0)
(0.00468964 -0.201585 0)
(0.00667628 -0.230964 0)
(0.00169137 -0.262418 0)
(-0.00921136 -0.28878 0)
(-0.026627 -0.300787 0)
(-0.0486548 -0.289691 0)
(-0.0598239 -0.243428 0)
(-0.0722205 -0.153005 0)
(0.0308078 -0.125315 0)
(0.0794489 -0.284439 0)
(0.0664234 -0.365679 0)
(0.0425904 -0.436765 0)
(0.0459928 -0.492077 0)
(0.0595442 -0.504001 0)
(0.0798777 -0.467212 0)
(0.111583 -0.390984 0)
(0.140572 -0.328297 0)
(0.156853 -0.256514 0)
(0.147106 -0.174752 0)
(0.0455469 -0.0633216 0)
(-0.104113 -0.0317836 0)
(-0.207019 0.11533 0)
(0.00570833 -0.260977 0)
(0.0151714 -0.287561 0)
(0.0184467 -0.302176 0)
(0.0139421 -0.318402 0)
(0.00231352 -0.332651 0)
(-0.0170538 -0.340841 0)
(-0.0396797 -0.340202 0)
(-0.0566895 -0.330351 0)
(-0.0546027 -0.320461 0)
(-0.00258027 -0.302283 0)
(0.0161008 -0.368659 0)
(-0.0137612 -0.402688 0)
(-0.03229 -0.435781 0)
(-0.0718692 -0.459086 0)
(-0.0991763 -0.450668 0)
(-0.13207 -0.402939 0)
(-0.153329 -0.336778 0)
(-0.168765 -0.293806 0)
(-0.199139 -0.273796 0)
(-0.230439 -0.237052 0)
(-0.226656 -0.216012 0)
(-0.255541 -0.231021 0)
(-0.22273 -0.246301 0)
(0.0051108 -0.252533 0)
(0.0129994 -0.278229 0)
(0.0154723 -0.290062 0)
(0.0116875 -0.302029 0)
(0.000754172 -0.309988 0)
(-0.016843 -0.310495 0)
(-0.0346955 -0.305666 0)
(-0.0490049 -0.298273 0)
(-0.0537023 -0.29163 0)
(-0.0351159 -0.29234 0)
(-0.0312943 -0.351139 0)
(-0.0596085 -0.385544 0)
(-0.09466 -0.413916 0)
(-0.143383 -0.423951 0)
(-0.190765 -0.406332 0)
(-0.224603 -0.347443 0)
(-0.242371 -0.28008 0)
(-0.254373 -0.226462 0)
(-0.276548 -0.169623 0)
(-0.275908 -0.127637 0)
(-0.268714 -0.10882 0)
(-0.261751 -0.111309 0)
(-0.256131 -0.0621101 0)
(0.00231311 -0.25528 0)
(0.00434644 -0.276048 0)
(0.00347122 -0.282525 0)
(-0.0040247 -0.287295 0)
(-0.0148963 -0.288802 0)
(-0.0270883 -0.289188 0)
(-0.0383437 -0.288356 0)
(-0.048437 -0.286932 0)
(-0.0540473 -0.288962 0)
(-0.051576 -0.294182 0)
(-0.0637996 -0.317186 0)
(-0.0946657 -0.336513 0)
(-0.134932 -0.352004 0)
(-0.17983 -0.373991 0)
(-0.223312 -0.376466 0)
(-0.260505 -0.335605 0)
(-0.28356 -0.28834 0)
(-0.294928 -0.255398 0)
(-0.2952 -0.225752 0)
(-0.277273 -0.194638 0)
(-0.268211 -0.176628 0)
(-0.274614 -0.165315 0)
(-0.268973 -0.152697 0)
(0.000308147 -0.257377 0)
(-0.00260075 -0.276138 0)
(-0.00761862 -0.277692 0)
(-0.0155785 -0.280283 0)
(-0.0229479 -0.28226 0)
(-0.030817 -0.283552 0)
(-0.0383244 -0.283765 0)
(-0.0431643 -0.2836 0)
(-0.0467997 -0.285896 0)
(-0.0541772 -0.28994 0)
(-0.066195 -0.294479 0)
(-0.094989 -0.302771 0)
(-0.12574 -0.317038 0)
(-0.163469 -0.332237 0)
(-0.210065 -0.332214 0)
(-0.249144 -0.308097 0)
(-0.257509 -0.272538 0)
(-0.254382 -0.251159 0)
(-0.249268 -0.228058 0)
(-0.23545 -0.193926 0)
(-0.228748 -0.174928 0)
(-0.225245 -0.16996 0)
(-0.221235 -0.147423 0)
(-0.0014984 -0.254367 0)
(-0.00583136 -0.269994 0)
(-0.0113149 -0.270446 0)
(-0.0158935 -0.272481 0)
(-0.02188 -0.275472 0)
(-0.02723 -0.277007 0)
(-0.0323298 -0.278322 0)
(-0.037524 -0.280021 0)
(-0.0422718 -0.280157 0)
(-0.0494281 -0.279215 0)
(-0.0630602 -0.282766 0)
(-0.0773816 -0.283685 0)
(-0.09219 -0.288339 0)
(-0.117221 -0.285921 0)
(-0.149521 -0.279588 0)
(-0.171543 -0.274176 0)
(-0.187218 -0.25519 0)
(-0.199831 -0.232627 0)
(-0.205662 -0.213361 0)
(-0.209287 -0.183079 0)
(-0.208745 -0.152602 0)
(-0.216323 -0.136809 0)
(-0.22558 -0.121664 0)
(-0.0019668 -0.248256 0)
(-0.00676726 -0.264398 0)
(-0.0105008 -0.265677 0)
(-0.0155291 -0.268342 0)
(-0.0213933 -0.269923 0)
(-0.028122 -0.271454 0)
(-0.0349589 -0.272011 0)
(-0.04186 -0.272632 0)
(-0.0492187 -0.273506 0)
(-0.0567352 -0.2738 0)
(-0.0659891 -0.271939 0)
(-0.07135 -0.274976 0)
(-0.0846904 -0.275559 0)
(-0.100813 -0.274759 0)
(-0.12046 -0.274373 0)
(-0.138024 -0.26573 0)
(-0.161606 -0.258192 0)
(-0.178785 -0.241818 0)
(-0.185997 -0.224943 0)
(-0.189403 -0.20677 0)
(-0.190196 -0.182636 0)
(-0.191102 -0.159971 0)
(-0.197101 -0.142975 0)
(-0.00163901 -0.245285 0)
(-0.00596798 -0.260679 0)
(-0.0116582 -0.260782 0)
(-0.0177043 -0.261177 0)
(-0.0240898 -0.262196 0)
(-0.0311392 -0.263416 0)
(-0.0385074 -0.264727 0)
(-0.0461354 -0.264977 0)
(-0.0543401 -0.264066 0)
(-0.063895 -0.263147 0)
(-0.0705313 -0.263404 0)
(-0.0813252 -0.260289 0)
(-0.0926281 -0.258996 0)
(-0.102866 -0.257142 0)
(-0.116097 -0.250853 0)
(-0.129022 -0.238775 0)
(-0.143713 -0.224993 0)
(-0.156475 -0.212968 0)
(-0.165981 -0.20047 0)
(-0.173706 -0.182551 0)
(-0.180905 -0.155044 0)
(-0.18661 -0.133817 0)
(-0.18855 -0.126094 0)
(-0.00225225 -0.240263 0)
(-0.00760137 -0.254568 0)
(-0.0131072 -0.254354 0)
(-0.0185986 -0.25501 0)
(-0.0244849 -0.255313 0)
(-0.0307559 -0.255017 0)
(-0.037747 -0.254684 0)
(-0.0455389 -0.254359 0)
(-0.0543601 -0.254501 0)
(-0.0631993 -0.255001 0)
(-0.074204 -0.25357 0)
(-0.0839241 -0.252362 0)
(-0.0937631 -0.248384 0)
(-0.107885 -0.244779 0)
(-0.119583 -0.237659 0)
(-0.129389 -0.228583 0)
(-0.137559 -0.218524 0)
(-0.144032 -0.210824 0)
(-0.154808 -0.202643 0)
(-0.16472 -0.186257 0)
(-0.165198 -0.16202 0)
(-0.168248 -0.145809 0)
(-0.165255 -0.139051 0)
(-0.00191207 -0.237236 0)
(-0.00647437 -0.251044 0)
(-0.0114761 -0.250622 0)
(-0.0168732 -0.25074 0)
(-0.0226875 -0.250651 0)
(-0.0288165 -0.250514 0)
(-0.0351069 -0.250046 0)
(-0.0418258 -0.249325 0)
(-0.0492365 -0.248354 0)
(-0.0582925 -0.24712 0)
(-0.0668445 -0.246274 0)
(-0.073919 -0.24442 0)
(-0.0831335 -0.239931 0)
(-0.0933469 -0.234427 0)
(-0.104139 -0.229095 0)
(-0.115272 -0.222372 0)
(-0.124039 -0.21285 0)
(-0.133289 -0.199216 0)
(-0.142564 -0.184095 0)
(-0.146625 -0.172229 0)
(-0.153808 -0.156175 0)
(-0.152263 -0.140595 0)
(-0.150018 -0.135497 0)
(-0.00241692 -0.230547 0)
(-0.00795522 -0.243854 0)
(-0.0134504 -0.243344 0)
(-0.0190089 -0.243298 0)
(-0.0247535 -0.243006 0)
(-0.0307115 -0.242504 0)
(-0.0369524 -0.241772 0)
(-0.0434583 -0.240689 0)
(-0.0501499 -0.239092 0)
(-0.0563637 -0.236796 0)
(-0.063328 -0.234895 0)
(-0.0738057 -0.23147 0)
(-0.0837457 -0.227203 0)
(-0.0908437 -0.222399 0)
(-0.0985394 -0.215658 0)
(-0.108718 -0.207799 0)
(-0.116643 -0.199029 0)
(-0.123955 -0.190869 0)
(-0.129083 -0.1863 0)
(-0.132824 -0.173255 0)
(-0.137973 -0.155058 0)
(-0.138433 -0.143439 0)
(-0.136653 -0.137476 0)
(-0.00219339 -0.227611 0)
(-0.007132 -0.240547 0)
(-0.0123268 -0.23999 0)
(-0.0175175 -0.239774 0)
(-0.0228182 -0.239305 0)
(-0.0281581 -0.238605 0)
(-0.0336337 -0.237595 0)
(-0.0394112 -0.236282 0)
(-0.0457099 -0.234678 0)
(-0.0528256 -0.232471 0)
(-0.0610013 -0.22897 0)
(-0.0687218 -0.225487 0)
(-0.0762576 -0.222685 0)
(-0.0853103 -0.21662 0)
(-0.0932977 -0.211022 0)
(-0.0981409 -0.206142 0)
(-0.104761 -0.19826 0)
(-0.111658 -0.188517 0)
(-0.117896 -0.17507 0)
(-0.125321 -0.161937 0)
(-0.127117 -0.153488 0)
(-0.126447 -0.146333 0)
(-0.126818 -0.135696 0)
(-0.00214222 -0.221381 0)
(-0.00696401 -0.233743 0)
(-0.0120369 -0.233018 0)
(-0.0172482 -0.232525 0)
(-0.0227686 -0.231758 0)
(-0.0286551 -0.230794 0)
(-0.0348941 -0.229664 0)
(-0.0413899 -0.2283 0)
(-0.0479039 -0.226412 0)
(-0.0541761 -0.223695 0)
(-0.0595229 -0.220101 0)
(-0.0646827 -0.217115 0)
(-0.0709652 -0.212337 0)
(-0.0771747 -0.208044 0)
(-0.0842169 -0.20225 0)
(-0.0929019 -0.193669 0)
(-0.101864 -0.186013 0)
(-0.106835 -0.177718 0)
(-0.110384 -0.171 0)
(-0.111942 -0.16624 0)
(-0.113652 -0.153399 0)
(-0.117625 -0.14184 0)
(-0.118283 -0.135543 0)
(-0.00210803 -0.218641 0)
(-0.00673811 -0.23071 0)
(-0.011502 -0.229964 0)
(-0.016212 -0.229392 0)
(-0.0209926 -0.228526 0)
(-0.0258315 -0.22737 0)
(-0.0308312 -0.225893 0)
(-0.0361059 -0.22408 0)
(-0.0417747 -0.221946 0)
(-0.0478692 -0.219493 0)
(-0.0546844 -0.21654 0)
(-0.0620942 -0.212092 0)
(-0.0690903 -0.207621 0)
(-0.0758421 -0.202229 0)
(-0.0818727 -0.196581 0)
(-0.0863456 -0.191923 0)
(-0.0894165 -0.186699 0)
(-0.0944116 -0.179026 0)
(-0.0983799 -0.168002 0)
(-0.103826 -0.156664 0)
(-0.107452 -0.150083 0)
(-0.108408 -0.142912 0)
(-0.109422 -0.134123 0)
(-0.00204819 -0.212481 0)
(-0.00660614 -0.224149 0)
(-0.0113196 -0.223374 0)
(-0.0160452 -0.222674 0)
(-0.0208984 -0.22167 0)
(-0.0258563 -0.220371 0)
(-0.0309 -0.218731 0)
(-0.0360089 -0.216688 0)
(-0.041161 -0.214171 0)
(-0.046354 -0.211126 0)
(-0.051445 -0.207626 0)
(-0.0562894 -0.204374 0)
(-0.0612599 -0.200428 0)
(-0.0663713 -0.195679 0)
(-0.0716101 -0.190238 0)
(-0.0773594 -0.183473 0)
(-0.0839187 -0.175981 0)
(-0.0895468 -0.168952 0)
(-0.0934412 -0.163341 0)
(-0.0954123 -0.15721 0)
(-0.0975465 -0.148631 0)
(-0.100523 -0.14031 0)
(-0.101936 -0.133074 0)
(-0.00191061 -0.210247 0)
(-0.00598414 -0.221669 0)
(-0.0102744 -0.220903 0)
(-0.014509 -0.220162 0)
(-0.0188862 -0.219107 0)
(-0.0234102 -0.217752 0)
(-0.0281193 -0.216075 0)
(-0.0330089 -0.214049 0)
(-0.0380336 -0.211644 0)
(-0.0431158 -0.208788 0)
(-0.0482 -0.205202 0)
(-0.0534093 -0.200722 0)
(-0.0587712 -0.196183 0)
(-0.0640295 -0.19152 0)
(-0.0690024 -0.186333 0)
(-0.0733925 -0.180873 0)
(-0.0771219 -0.175159 0)
(-0.0805856 -0.168323 0)
(-0.0843247 -0.160409 0)
(-0.0879194 -0.152596 0)
(-0.0907904 -0.145852 0)
(-0.0931052 -0.138926 0)
(-0.0947438 -0.131704 0)
(-0.00180178 -0.20464 0)
(-0.00573444 -0.215637 0)
(-0.0098096 -0.214838 0)
(-0.0138478 -0.213939 0)
(-0.0179717 -0.2127 0)
(-0.022152 -0.211127 0)
(-0.0263915 -0.209206 0)
(-0.0306996 -0.206928 0)
(-0.0351052 -0.204294 0)
(-0.0396453 -0.201342 0)
(-0.044296 -0.198206 0)
(-0.0488288 -0.194774 0)
(-0.0531855 -0.190637 0)
(-0.0575549 -0.185842 0)
(-0.0619557 -0.18069 0)
(-0.06635 -0.1751 0)
(-0.0706978 -0.169036 0)
(-0.0748 -0.162922 0)
(-0.0782424 -0.15676 0)
(-0.0810158 -0.150302 0)
(-0.08357 -0.143522 0)
(-0.0862058 -0.136792 0)
(-0.0881763 -0.130149 0)
(-0.0016963 -0.2024 0)
(-0.00523837 -0.213283 0)
(-0.00898938 -0.212534 0)
(-0.0126734 -0.211646 0)
(-0.0164617 -0.210426 0)
(-0.0203312 -0.208872 0)
(-0.02429 -0.20696 0)
(-0.0283259 -0.204668 0)
(-0.0324104 -0.201958 0)
(-0.0365082 -0.19879 0)
(-0.0406322 -0.195142 0)
(-0.0448395 -0.191076 0)
(-0.0490883 -0.186769 0)
(-0.0532407 -0.182194 0)
(-0.0572442 -0.177202 0)
(-0.0610876 -0.171832 0)
(-0.0647238 -0.166154 0)
(-0.0681643 -0.160062 0)
(-0.0714453 -0.153664 0)
(-0.0744255 -0.147206 0)
(-0.0770949 -0.1409 0)
(-0.0797176 -0.134621 0)
(-0.0819503 -0.128295 0)
(-0.00152808 -0.198226 0)
(-0.00475075 -0.208719 0)
(-0.00816853 -0.20795 0)
(-0.0115151 -0.206937 0)
(-0.0149581 -0.205575 0)
(-0.0184681 -0.203875 0)
(-0.0220559 -0.201841 0)
(-0.0257224 -0.199478 0)
(-0.0294616 -0.196791 0)
(-0.0332531 -0.193779 0)
(-0.0370568 -0.190429 0)
(-0.0408252 -0.186701 0)
(-0.04455 -0.182538 0)
(-0.0482557 -0.17796 0)
(-0.0519192 -0.173044 0)
(-0.0554894 -0.167808 0)
(-0.0589411 -0.162268 0)
(-0.0622381 -0.156505 0)
(-0.0653267 -0.150545 0)
(-0.0681604 -0.144434 0)
(-0.0708046 -0.138293 0)
(-0.0734999 -0.132214 0)
(-0.0759884 -0.126144 0)
(-0.0013992 -0.195746 0)
(-0.00426174 -0.206111 0)
(-0.00734125 -0.205376 0)
(-0.0103407 -0.204336 0)
(-0.0134395 -0.202947 0)
(-0.0165987 -0.201207 0)
(-0.0198293 -0.19911 0)
(-0.0231271 -0.196655 0)
(-0.0264806 -0.193838 0)
(-0.0298764 -0.19066 0)
(-0.0333023 -0.187125 0)
(-0.0367457 -0.183251 0)
(-0.0401807 -0.179059 0)
(-0.0435707 -0.174551 0)
(-0.0468953 -0.169715 0)
(-0.0501428 -0.16457 0)
(-0.0532931 -0.159149 0)
(-0.0563388 -0.153477 0)
(-0.0592759 -0.14761 0)
(-0.062066 -0.141621 0)
(-0.0647214 -0.135619 0)
(-0.0674474 -0.129663 0)
(-0.070134 -0.123715 0)
(-0.00121124 -0.192856 0)
(-0.00369827 -0.202963 0)
(-0.00642693 -0.202226 0)
(-0.00906055 -0.201104 0)
(-0.011803 -0.199632 0)
(-0.0146066 -0.197806 0)
(-0.0174887 -0.195629 0)
(-0.0204496 -0.193122 0)
(-0.0234763 -0.190295 0)
(-0.0265488 -0.18715 0)
(-0.0296431 -0.18368 0)
(-0.0327378 -0.179877 0)
(-0.0358194 -0.175735 0)
(-0.0388793 -0.171264 0)
(-0.0419023 -0.166486 0)
(-0.0448721 -0.16142 0)
(-0.0477782 -0.156091 0)
(-0.0506153 -0.150536 0)
(-0.0533863 -0.144787 0)
(-0.0560822 -0.138892 0)
(-0.058716 -0.132934 0)
(-0.0614543 -0.126995 0)
(-0.0642831 -0.121058 0)
(-0.00101127 -0.190716 0)
(-0.00311533 -0.200627 0)
(-0.00550057 -0.199898 0)
(-0.00776336 -0.198716 0)
(-0.0101379 -0.197184 0)
(-0.0125629 -0.195285 0)
(-0.0150621 -0.193025 0)
(-0.0176492 -0.190435 0)
(-0.0203186 -0.187529 0)
(-0.0230563 -0.184315 0)
(-0.0258388 -0.180792 0)
(-0.0286394 -0.176957 0)
(-0.0314369 -0.172815 0)
(-0.0342131 -0.168368 0)
(-0.0369561 -0.163625 0)
(-0.0396608 -0.158603 0)
(-0.0423235 -0.153325 0)
(-0.0449477 -0.147818 0)
(-0.047547 -0.142109 0)
(-0.0501302 -0.136237 0)
(-0.0527128 -0.130263 0)
(-0.0554267 -0.12426 0)
(-0.0583264 -0.118233 0)
(-0.000762031 -0.188799 0)
(-0.00250064 -0.198416 0)
(-0.00459009 -0.197688 0)
(-0.00649441 -0.196451 0)
(-0.0085033 -0.194874 0)
(-0.0105399 -0.192937 0)
(-0.0125858 -0.190614 0)
(-0.0146718 -0.187937 0)
(-0.0168536 -0.184939 0)
(-0.0191861 -0.181654 0)
(-0.0216793 -0.178113 0)
(-0.0242612 -0.174297 0)
(-0.0268417 -0.170172 0)
(-0.0294144 -0.165746 0)
(-0.0319491 -0.161026 0)
(-0.0344387 -0.15603 0)
(-0.036889 -0.150783 0)
(-0.0393071 -0.145297 0)
(-0.0417195 -0.139592 0)
(-0.044155 -0.133697 0)
(-0.0466417 -0.127652 0)
(-0.0492864 -0.12152 0)
(-0.0521839 -0.115317 0)
(-0.000470594 -0.187329 0)
(-0.00193909 -0.196522 0)
(-0.00388203 -0.195806 0)
(-0.00551984 -0.194557 0)
(-0.00724557 -0.192973 0)
(-0.00893423 -0.191027 0)
(-0.0105157 -0.188675 0)
(-0.0120435 -0.185927 0)
(-0.013551 -0.182773 0)
(-0.0151274 -0.179268 0)
(-0.016873 -0.175466 0)
(-0.0189176 -0.171467 0)
(-0.021276 -0.167314 0)
(-0.0238361 -0.162982 0)
(-0.0264558 -0.158435 0)
(-0.0289558 -0.153599 0)
(-0.0313107 -0.148445 0)
(-0.0335904 -0.142993 0)
(-0.0358332 -0.137268 0)
(-0.0381011 -0.131314 0)
(-0.040445 -0.125155 0)
(-0.0429654 -0.11884 0)
(-0.0457806 -0.112394 0)
(-0.000186376 -0.186475 0)
(-0.00160237 -0.194922 0)
(-0.0037133 -0.19423 0)
(-0.00532028 -0.193025 0)
(-0.00700719 -0.191494 0)
(-0.00862029 -0.189651 0)
(-0.0101783 -0.187455 0)
(-0.0116517 -0.184841 0)
(-0.0130253 -0.181791 0)
(-0.0142428 -0.178257 0)
(-0.0153392 -0.174302 0)
(-0.0164043 -0.17 0)
(-0.0175344 -0.165428 0)
(-0.0188192 -0.160654 0)
(-0.0204366 -0.155759 0)
(-0.0224927 -0.150802 0)
(-0.0249051 -0.145768 0)
(-0.0274005 -0.14056 0)
(-0.0296998 -0.13502 0)
(-0.0318645 -0.129098 0)
(-0.0340572 -0.122821 0)
(-0.0364071 -0.116291 0)
(-0.0390697 -0.109561 0)
(-1.30907e-05 -0.186154 0)
(-0.00177368 -0.19352 0)
(-0.00445225 -0.192876 0)
(-0.00640636 -0.191799 0)
(-0.00839076 -0.19033 0)
(-0.0101528 -0.188451 0)
(-0.0118928 -0.186259 0)
(-0.013473 -0.183685 0)
(-0.0148622 -0.180737 0)
(-0.016026 -0.17742 0)
(-0.0168865 -0.17366 0)
(-0.0174724 -0.169475 0)
(-0.0179172 -0.164946 0)