/*--------------------------------*- C++ -*----------------------------------*\
| =========                 |                                                 |
| \\      /  F ield         | OpenFOAM: The Open Source CFD Toolbox           |
|  \\    /   O peration     | Version:  2.4.0                                 |
|   \\  /    A nd           | Web:      www.OpenFOAM.org                      |
|    \\/     M anipulation  |                                                 |
\*---------------------------------------------------------------------------*/
FoamFile
{
    version     2.0;
    format      ascii;
    class       volVectorField;
    location    "0.35";
    object      U.water;
}
// * * * * * * * * * * * * * * * * * * * * * * * * * * * * * * * * * * * * * //

dimensions      [0 1 -1 0 0 0 0];

internalField   nonuniform List<vector> 
2268
(
(0.0198054 -0.00924992 0)
(0.0581025 -0.00930628 0)
(0.0996208 -0.00910082 0)
(0.134496 -0.00996704 0)
(0.181284 -0.00786852 0)
(0.208714 -0.0115001 0)
(0.266553 -0.00865711 0)
(0.294546 -0.00812011 0)
(0.326765 -0.0102599 0)
(0.378193 -0.0120678 0)
(0.433329 -0.00858289 0)
(0.45941 -0.00773248 0)
(0.48366 -0.00609364 0)
(0.5125 -0.00559302 0)
(0.533079 -0.00645284 0)
(0.573608 -0.00725737 0)
(0.580648 0.0029001 0)
(0.567116 0.00714309 0)
(0.529144 0.0155867 0)
(0.450199 0.020891 0)
(0.322781 0.0245151 0)
(0.171305 0.0369771 0)
(0.0282697 0.0136158 0)
(0.0198088 -0.0277546 0)
(0.0581327 -0.027979 0)
(0.0997849 -0.0271314 0)
(0.134157 -0.0305896 0)
(0.181811 -0.0223447 0)
(0.210805 -0.0358976 0)
(0.263377 -0.0256315 0)
(0.295613 -0.0231737 0)
(0.329188 -0.0318064 0)
(0.380712 -0.0353762 0)
(0.431879 -0.0300373 0)
(0.456571 -0.0198551 0)
(0.483521 -0.0169976 0)
(0.516775 -0.0197991 0)
(0.545653 -0.0225999 0)
(0.578881 -0.0169935 0)
(0.592224 0.0036147 0)
(0.577822 0.0227658 0)
(0.529125 0.0454279 0)
(0.450723 0.0831335 0)
(0.305915 0.102138 0)
(0.221269 0.100508 0)
(0.0361567 0.0805153 0)
(0.0197804 -0.0462189 0)
(0.0581659 -0.0465699 0)
(0.0996229 -0.0453138 0)
(0.134022 -0.0501155 0)
(0.181995 -0.0398642 0)
(0.212162 -0.0561374 0)
(0.259565 -0.0433433 0)
(0.29728 -0.0414868 0)
(0.334129 -0.05341 0)
(0.382373 -0.0565617 0)
(0.424787 -0.0462382 0)
(0.448351 -0.0334187 0)
(0.494953 -0.0349308 0)
(0.528921 -0.0324153 0)
(0.560234 -0.0329467 0)
(0.587967 -0.0202784 0)
(0.594409 0.00826703 0)
(0.584608 0.0415033 0)
(0.533483 0.0787448 0)
(0.454874 0.120559 0)
(0.329987 0.140767 0)
(0.190097 0.149344 0)
(0.0847748 0.143747 0)
(0.0197428 -0.0645084 0)
(0.058244 -0.0648676 0)
(0.0992342 -0.0632117 0)
(0.134404 -0.0692192 0)
(0.181451 -0.0560827 0)
(0.213227 -0.0746604 0)
(0.258096 -0.0589227 0)
(0.296654 -0.0566033 0)
(0.338309 -0.06562 0)
(0.385895 -0.0623355 0)
(0.408359 -0.0460658 0)
(0.454421 -0.0354974 0)
(0.502779 -0.0305972 0)
(0.541497 -0.0273238 0)
(0.58077 -0.00933959 0)
(0.590919 0.0188285 0)
(0.592512 0.050733 0)
(0.581072 0.0878634 0)
(0.542234 0.15623 0)
(0.473253 0.201662 0)
(0.331393 0.230666 0)
(0.173809 0.210454 0)
(0.0433171 0.209476 0)
(0.0197371 -0.0630583 0)
(0.0583184 -0.062966 0)
(0.0990763 -0.0607473 0)
(0.134653 -0.0660353 0)
(0.181578 -0.0531757 0)
(0.212819 -0.0677723 0)
(0.259339 -0.0512828 0)
(0.297905 -0.0475632 0)
(0.345874 -0.043947 0)
(0.385676 -0.0121879 0)
(0.416317 0.0270756 0)
(0.473942 0.0776093 0)
(0.518256 0.101074 0)
(0.560495 0.116234 0)
(0.599205 0.120332 0)
(0.606812 0.150677 0)
(0.593522 0.20108 0)
(0.576459 0.264848 0)
(0.546282 0.335216 0)
(0.508774 0.319974 0)
(0.415686 0.3328 0)
(0.224863 0.297204 0)
(0.0798438 0.262339 0)
(0.0206252 0.0485291 0)
(0.0608451 0.0536718 0)
(0.103469 0.0637034 0)
(0.141225 0.0649259 0)
(0.187247 0.0797532 0)
(0.224165 0.0611361 0)
(0.266285 0.0739216 0)
(0.318101 0.0739005 0)
(0.355879 0.0617844 0)
(0.390056 0.0649748 0)
(0.436048 0.0602281 0)
(0.484553 0.0540534 0)
(0.516405 0.0442103 0)
(0.560409 0.0355023 0)
(0.587783 0.0336118 0)
(0.600579 0.0617268 0)
(0.621196 0.120966 0)
(0.584631 0.196463 0)
(0.534409 0.316659 0)
(0.454797 0.439104 0)
(0.373567 0.539182 0)
(0.246876 0.416398 0)
(0.0554819 0.365323 0)
(0.0209641 0.036092 0)
(0.0616601 0.035179 0)
(0.105103 0.0351651 0)
(0.1432 0.0266621 0)
(0.184993 0.0373362 0)
(0.232328 0.019194 0)
(0.2591 0.0233836 0)
(0.323148 0.0181406 0)
(0.349663 0.00429294 0)
(0.386956 -0.00244974 0)
(0.418616 -0.0102205 0)
(0.439769 -0.00614157 0)
(0.437535 -0.00626829 0)
(0.432325 0.0226273 0)
(0.386547 0.0590239 0)
(0.353096 0.081057 0)
(0.314528 0.149777 0)
(0.277963 0.230087 0)
(0.360949 0.384133 0)
(0.358604 0.461429 0)
(0.32338 0.575827 0)
(0.256185 0.601389 0)
(0.122595 0.442469 0)
(0.0206921 -0.0135481 0)
(0.0608617 -0.0144184 0)
(0.103803 -0.0152383 0)
(0.142391 -0.019773 0)
(0.179754 -0.0184635 0)
(0.235498 -0.0259686 0)
(0.247991 -0.0336534 0)
(0.281246 -0.0334364 0)
(0.303022 -0.0368409 0)
(0.305174 -0.034401 0)
(0.283675 -0.0238881 0)
(0.247574 -0.017832 0)
(0.215422 -0.0465541 0)
(0.170917 -0.0843607 0)
(0.15922 -0.126703 0)
(0.170427 -0.117177 0)
(0.196022 -0.113948 0)
(0.207988 -0.0817255 0)
(0.31423 0.0415955 0)
(0.124294 0.392917 0)
(0.221283 0.566751 0)
(0.21836 0.666243 0)
(0.114874 0.615743 0)
(-0.286552 0.116599 0)
(-0.767879 0.118019 0)
(-1.05064 0.0182931 0)
(-1.19733 0.0188074 0)
(-1.2396 -0.00481749 0)
(-1.18156 -0.0383347 0)
(-1.08112 -0.0779569 0)
(-0.8555 -0.16257 0)
(-0.408411 -0.333921 0)
(-0.00475201 -0.575957 0)
(0.433727 -0.642539 0)
(0.705945 -0.55322 0)
(0.992083 -0.516736 0)
(1.04177 -0.448557 0)
(1.04246 -0.436938 0)
(0.912609 -0.418226 0)
(0.659966 -0.349101 0)
(0.306198 -0.251473 0)
(0.118093 -0.129433 0)
(-0.239852 0.289709 0)
(-0.69436 0.216531 0)
(-1.02162 0.166791 0)
(-1.15406 0.065353 0)
(-1.17906 0.00799114 0)
(-1.07942 -0.0495982 0)
(-1.0023 -0.0676341 0)
(-0.750558 -0.198258 0)
(-0.290018 -0.346768 0)
(0.09507 -0.538697 0)
(0.575395 -0.677105 0)
(0.903247 -0.643107 0)
(1.06432 -0.466321 0)
(1.13751 -0.380584 0)
(1.07997 -0.263311 0)
(0.817444 -0.0303463 0)
(0.509767 0.117828 0)
(0.117616 0.120954 0)
(0.0287639 0.0563294 0)
(-0.272182 0.458674 0)
(-0.679207 0.424178 0)
(-0.975754 0.259802 0)
(-1.07621 0.098972 0)
(-1.07116 -0.0159284 0)
(-0.970538 -0.0822067 0)
(-0.921384 -0.138628 0)
(-0.484836 -0.334431 0)
(-0.10694 -0.525186 0)
(0.323521 -0.724008 0)
(0.73661 -0.869911 0)
(0.993706 -0.78752 0)
(1.18338 -0.62615 0)
(1.20643 -0.444986 0)
(1.06072 -0.148039 0)
(0.73037 0.135376 0)
(0.511821 0.253101 0)
(0.171992 0.184984 0)
(0.073727 -0.0179641 0)
(-0.196075 0.664314 0)
(-0.572615 0.563122 0)
(-0.87565 0.330393 0)
(-0.901281 0.0881507 0)
(-0.865166 -0.01024 0)
(-0.73318 -0.127445 0)
(-0.708491 -0.245463 0)
(-0.258957 -0.485311 0)
(0.0475003 -0.641887 0)
(0.512331 -0.855656 0)
(0.8513 -0.948232 0)
(1.07739 -0.839801 0)
(1.24311 -0.65801 0)
(1.19275 -0.315458 0)
(1.02645 0.0700794 0)
(0.691786 0.300376 0)
(0.487736 0.360948 0)
(0.206508 0.298438 0)
(0.122351 0.0910942 0)
(-0.134808 0.746987 0)
(-0.494619 0.657288 0)
(-0.714935 0.431728 0)
(-0.490505 0.119932 0)
(-0.479184 -0.120999 0)
(-0.377951 -0.185703 0)
(-0.404889 -0.286639 0)
(-0.0983354 -0.597189 0)
(0.227173 -0.814185 0)
(0.627935 -0.992271 0)
(0.903196 -1.0633 0)
(1.0815 -0.95598 0)
(1.20616 -0.601366 0)
(1.17024 -0.118002 0)
(0.95102 0.30404 0)
(0.655973 0.468826 0)
(0.500625 0.471839 0)
(0.27269 0.378639 0)
(0.1484 0.163472 0)
(-0.0856038 0.892867 0)
(-0.393064 0.846685 0)
(-0.444998 0.41928 0)
(-0.124695 -0.123896 0)
(-0.138847 -0.397289 0)
(0.0679954 -0.449715 0)
(0.0308258 -0.394277 0)
(0.143643 -0.627635 0)
(0.386544 -0.898392 0)
(0.706375 -1.0838 0)
(0.929344 -1.1515 0)
(1.08853 -1.1482 0)
(1.08716 -0.87414 0)
(1.00248 -0.0207134 0)
(0.856402 0.471562 0)
(0.604744 0.578028 0)
(0.501202 0.550085 0)
(0.255943 0.450897 0)
(0.0830117 0.244688 0)
(-0.0183718 0.941797 0)
(-0.2383 0.850958 0)
(-0.108427 0.218492 0)
(0.0817583 -0.160578 0)
(-0.0309891 0.127289 0)
(-0.233128 -0.00626901 0)
(0.517592 -0.792403 0)
(0.422231 -0.824531 0)
(0.537141 -0.954244 0)
(0.745609 -1.15309 0)
(0.933018 -1.24266 0)
(1.05849 -1.28445 0)
(1.13945 -1.10689 0)
(0.850344 -0.0342559 0)
(0.740424 0.55092 0)
(0.547089 0.60732 0)
(0.432859 0.619191 0)
(0.219357 0.523386 0)
(0.0759349 0.327631 0)
(0.0750629 0.993705 0)
(-0.0648406 0.908346 0)
(0.12986 0.154238 0)
(-0.0937801 -0.0295011 0)
(-0.277417 -0.244831 0)
(0.327578 -0.542746 0)
(-0.0328425 -0.370303 0)
(0.645345 -0.909911 0)
(0.67429 -1.03468 0)
(0.797668 -1.18696 0)
(0.940582 -1.28547 0)
(1.04912 -1.3089 0)
(1.15535 -1.07062 0)
(0.677772 -0.370758 0)
(0.648605 0.539422 0)
(0.498865 0.676277 0)
(0.427323 0.672583 0)
(0.24712 0.615813 0)
(0.102891 0.406461 0)
(0.0151113 -0.0337411 0)
(0.0445534 -0.0337497 0)
(0.072707 -0.0339202 0)
(0.0988955 -0.0334953 0)
(0.111197 -0.0401098 0)
(0.138782 -0.0468195 0)
(0.141043 -0.0537261 0)
(0.147331 -0.0778712 0)
(0.167995 -0.106639 0)
(0.174909 -0.13304 0)
(0.188283 -0.168101 0)
(0.22429 -0.184685 0)
(0.284822 -0.16794 0)
(0.325705 -0.107662 0)
(0.358227 -0.0122099 0)
(0.359281 0.0658042 0)
(0.305778 0.212593 0)
(0.237569 0.231357 0)
(0.171733 0.268512 0)
(0.152118 0.31076 0)
(0.109093 0.489983 0)
(0.267044 0.636211 0)
(0.37703 0.724445 0)
(0.00779696 -0.211757 0)
(0.0238897 -0.214071 0)
(0.0415278 -0.21376 0)
(0.062043 -0.213687 0)
(0.0822213 -0.217269 0)
(0.109116 -0.218664 0)
(0.135276 -0.206714 0)
(0.165253 -0.215022 0)
(0.20425 -0.197336 0)
(0.232576 -0.172289 0)
(0.271164 -0.152896 0)
(0.304811 -0.141457 0)
(0.319288 -0.117252 0)
(0.331265 -0.103818 0)
(0.315876 -0.0924164 0)
(0.32593 -0.0858664 0)
(0.34193 -0.0552515 0)
(0.409461 0.022452 0)
(0.354118 0.113713 0)
(0.419304 0.244091 0)
(0.254062 0.434637 0)
(0.282858 0.51598 0)
(0.347247 0.56287 0)
(0.0135185 -0.214848 0)
(0.0399984 -0.215018 0)
(0.0670224 -0.210947 0)
(0.0946203 -0.206662 0)
(0.120841 -0.20089 0)
(0.146605 -0.198267 0)
(0.174182 -0.182089 0)
(0.19771 -0.195688 0)
(0.232571 -0.185069 0)
(0.253532 -0.180584 0)
(0.297918 -0.185248 0)
(0.330175 -0.182235 0)
(0.361731 -0.167292 0)
(0.400548 -0.138419 0)
(0.427484 -0.0590029 0)
(0.472501 -0.0143506 0)
(0.480872 0.0813247 0)
(0.499788 0.133848 0)
(0.507723 0.231164 0)
(0.522181 0.307667 0)
(0.560156 0.505013 0)
(0.482876 0.52161 0)
(0.452878 0.498229 0)
(0.0142886 -0.220372 0)
(0.0427218 -0.221568 0)
(0.0708663 -0.220637 0)
(0.0985813 -0.219325 0)
(0.125249 -0.21802 0)
(0.149002 -0.22162 0)
(0.176602 -0.212522 0)
(0.19802 -0.233612 0)
(0.228575 -0.219542 0)
(0.253748 -0.230235 0)
(0.306993 -0.232157 0)
(0.343291 -0.22067 0)
(0.38259 -0.190578 0)
(0.408527 -0.166595 0)
(0.449576 -0.113447 0)
(0.494512 -0.0999177 0)
(0.536139 -0.0324589 0)
(0.574982 0.0423432 0)
(0.623024 0.138781 0)
(0.674117 0.26644 0)
(0.701648 0.382153 0)
(0.80526 0.593517 0)
(0.754246 0.589303 0)
(0.014571 -0.274554 0)
(0.0444435 -0.275115 0)
(0.0731726 -0.272665 0)
(0.100821 -0.268776 0)
(0.1285 -0.264153 0)
(0.150106 -0.26033 0)
(0.177502 -0.254505 0)
(0.192564 -0.264139 0)
(0.223974 -0.262283 0)
(0.252485 -0.29003 0)
(0.310656 -0.289747 0)
(0.351824 -0.260038 0)
(0.397836 -0.24926 0)
(0.434327 -0.231983 0)
(0.496896 -0.185331 0)
(0.535906 -0.146824 0)
(0.567588 -0.060708 0)
(0.621307 0.0250805 0)
(0.648128 0.0893491 0)
(0.742462 0.208569 0)
(0.761472 0.303664 0)
(0.870959 0.452465 0)
(0.994294 0.550632 0)
(0.0157584 -0.288032 0)
(0.0465224 -0.288407 0)
(0.0768523 -0.284723 0)
(0.105001 -0.279911 0)
(0.132597 -0.273326 0)
(0.153845 -0.26685 0)
(0.176949 -0.261823 0)
(0.185242 -0.269848 0)
(0.214655 -0.286543 0)
(0.245303 -0.33444 0)
(0.300425 -0.333859 0)
(0.340342 -0.322292 0)
(0.370878 -0.329455 0)
(0.380538 -0.316793 0)
(0.39478 -0.287225 0)
(0.391836 -0.243994 0)
(0.414541 -0.180025 0)
(0.491067 -0.123259 0)
(0.512175 -0.026017 0)
(0.657597 0.114281 0)
(0.701285 0.270633 0)
(0.797146 0.298876 0)
(0.972767 0.434835 0)
(0.0173185 -0.339068 0)
(0.0503698 -0.34021 0)
(0.0826657 -0.336953 0)
(0.112988 -0.331697 0)
(0.140451 -0.322618 0)
(0.159523 -0.309637 0)
(0.169854 -0.290801 0)
(0.164417 -0.275158 0)
(0.169387 -0.289028 0)
(0.18576 -0.357386 0)
(0.216516 -0.383608 0)
(0.206389 -0.376885 0)
(0.131245 -0.359336 0)
(0.012946 -0.333666 0)
(-0.0490541 -0.297895 0)
(-0.0500436 -0.282082 0)
(-0.0214736 -0.235536 0)
(0.0184636 -0.192562 0)
(0.0964719 -0.13726 0)
(0.348453 -0.0297274 0)
(0.512075 0.14807 0)
(0.61226 0.124059 0)
(0.7838 0.222067 0)
(0.0177167 -0.575166 0)
(0.0514311 -0.577893 0)
(0.0840173 -0.577952 0)
(0.11643 -0.576464 0)
(0.14782 -0.570655 0)
(0.17607 -0.558261 0)
(0.196277 -0.525396 0)
(0.175329 -0.473529 0)
(0.105154 -0.458869 0)
(0.0123307 -0.501 0)
(-0.0562503 -0.442978 0)
(-0.157133 -0.32873 0)
(-0.234518 -0.272557 0)
(-0.207604 -0.264001 0)
(-0.182597 -0.264182 0)
(-0.149936 -0.258993 0)
(-0.114388 -0.242212 0)
(-0.0636163 -0.231078 0)
(0.00444885 -0.218702 0)
(0.0549014 -0.225524 0)
(0.28289 -0.0575563 0)
(0.35818 -0.0925183 0)
(0.502362 -0.0586397 0)
(0.0186584 -1.10007 0)
(0.0484354 -1.10342 0)
(0.0826578 -1.10138 0)
(0.112448 -1.09904 0)
(0.146188 -1.08928 0)
(0.176501 -1.07866 0)
(0.222671 -1.03448 0)
(0.238692 -0.900512 0)
(0.126095 -0.817403 0)
(-0.237297 -0.768263 0)
(-0.530917 -0.679746 0)
(-0.470705 -0.597214 0)
(-0.345148 -0.602848 0)
(-0.280247 -0.542104 0)
(-0.224812 -0.492751 0)
(-0.179256 -0.432397 0)
(-0.124732 -0.343026 0)
(-0.0754378 -0.281238 0)
(-0.0380066 -0.19452 0)
(0.0289301 -0.181995 0)
(0.111513 -0.104488 0)
(0.212325 -0.177558 0)
(0.276721 -0.212745 0)
(0.0861702 -0.678888 0)
(-0.102114 -0.67934 0)
(-0.149757 -0.709978 0)
(-0.16987 -0.755982 0)
(-0.168169 -0.809281 0)
(-0.137301 -0.879538 0)
(-0.0732018 -0.895353 0)
(-0.0188758 -0.616122 0)
(0.116025 -0.174243 0)
(-0.218245 -0.0962018 0)
(-0.434184 0.12742 0)
(-0.199008 0.234243 0)
(-0.129844 0.0765097 0)
(-0.10469 -0.204593 0)
(-0.0689102 -0.415131 0)
(-0.0234807 -0.6118 0)
(-0.00470948 -0.694654 0)
(0.0420877 -0.648178 0)
(0.0282997 -0.504201 0)
(0.0870842 -0.453869 0)
(0.11449 -0.301311 0)
(0.18311 -0.243592 0)
(0.22083 -0.205977 0)
(-0.0294624 -0.253155 0)
(-0.0754069 -0.243 0)
(-0.10946 -0.241675 0)
(-0.136653 -0.244938 0)
(-0.152818 -0.248263 0)
(-0.167594 -0.262313 0)
(-0.216543 -0.283835 0)
(-0.294788 -0.31456 0)
(-0.196147 -0.339424 0)
(-0.141369 -0.0912134 0)
(0.0192627 -0.644443 0)
(0.182763 -0.853231 0)
(0.268195 -0.878161 0)
(0.397519 -0.829103 0)
(0.557845 -0.717898 0)
(0.69663 -0.491573 0)
(0.759514 -0.0975781 0)
(0.681902 0.327209 0)
(0.411501 0.121478 0)
(0.309771 -0.307028 0)
(0.287731 -0.622741 0)
(0.286838 -0.644856 0)
(0.354185 -0.563675 0)
(-0.0220682 -0.147944 0)
(-0.0563818 -0.185638 0)
(-0.0778246 -0.226208 0)
(-0.0906431 -0.275359 0)
(-0.0956775 -0.327959 0)
(-0.0963239 -0.359071 0)
(-0.0966404 -0.342947 0)
(-0.0844108 -0.215293 0)
(-0.0836688 0.264006 0)
(-0.0477362 0.416891 0)
(0.136742 0.0222571 0)
(0.0867281 -0.21406 0)
(0.123115 -0.23246 0)
(0.128913 -0.250231 0)
(0.14164 -0.31248 0)
(0.146905 -0.403562 0)
(0.181133 -0.50624 0)
(0.283519 -0.596751 0)
(0.530335 -0.608229 0)
(0.735041 -0.589676 0)
(0.905007 -0.261385 0)
(0.941463 0.166092 0)
(0.799488 0.22421 0)
(-0.000654049 -0.337318 0)
(-0.000748786 -0.362884 0)
(-0.00514669 -0.385736 0)
(-0.0166979 -0.411475 0)
(-0.0389225 -0.43554 0)
(-0.0754135 -0.454581 0)
(-0.130112 -0.457317 0)
(-0.189121 -0.438798 0)
(-0.144359 -0.365767 0)
(0.109434 -0.248097 0)
(0.270666 -0.490005 0)
(0.238182 -0.567285 0)
(0.206596 -0.568402 0)
(0.206545 -0.501904 0)
(0.213358 -0.414284 0)
(0.223431 -0.306286 0)
(0.225738 -0.181509 0)
(0.172205 -0.113698 0)
(0.143358 -0.131596 0)
(0.035013 -0.262941 0)
(-0.0385225 -0.454196 0)
(-0.021054 -0.555296 0)
(0.0836429 -0.558087 0)
(0.000731422 -0.167208 0)
(0.00468232 -0.201891 0)
(0.0066722 -0.231141 0)
(0.00168843 -0.262546 0)
(-0.00921342 -0.288808 0)
(-0.0266292 -0.300795 0)
(-0.0486569 -0.289696 0)
(-0.0598239 -0.243408 0)
(-0.0722198 -0.152944 0)
(0.0308075 -0.12494 0)
(0.0794495 -0.284319 0)
(0.0664454 -0.365543 0)
(0.0430269 -0.433188 0)
(0.0477572 -0.477757 0)
(0.0637726 -0.488085 0)
(0.0831797 -0.452479 0)
(0.113007 -0.380948 0)
(0.140448 -0.326153 0)
(0.157052 -0.25503 0)
(0.148277 -0.173533 0)
(0.0481478 -0.0626708 0)
(-0.100328 -0.0301545 0)
(-0.203664 0.1171 0)
(0.00570718 -0.261164 0)
(0.0151697 -0.287627 0)
(0.0184465 -0.302196 0)
(0.0139421 -0.318412 0)
(0.00231347 -0.332657 0)
(-0.0170538 -0.340846 0)
(-0.0396798 -0.340207 0)
(-0.0566895 -0.330352 0)
(-0.0546028 -0.320458 0)
(-0.00257998 -0.302278 0)
(0.0161019 -0.368654 0)
(-0.0137124 -0.402513 0)
(-0.0309003 -0.431148 0)
(-0.0674183 -0.446176 0)
(-0.0938115 -0.436991 0)
(-0.127154 -0.390056 0)
(-0.150799 -0.328856 0)
(-0.168431 -0.291989 0)
(-0.198902 -0.272508 0)
(-0.230201 -0.235614 0)
(-0.226413 -0.214371 0)
(-0.255461 -0.229265 0)
(-0.222867 -0.245208 0)
(0.00511079 -0.252548 0)
(0.0129993 -0.278241 0)
(0.0154722 -0.290064 0)
(0.0116874 -0.30203 0)
(0.000754165 -0.309988 0)
(-0.016843 -0.310495 0)
(-0.0346955 -0.305666 0)
(-0.0490048 -0.298273 0)
(-0.0537022 -0.291627 0)
(-0.0351155 -0.292334 0)
(-0.0312933 -0.351131 0)
(-0.059567 -0.385287 0)
(-0.09376 -0.409453 0)
(-0.140254 -0.410768 0)
(-0.186634 -0.393688 0)
(-0.222181 -0.342699 0)
(-0.241791 -0.278264 0)
(-0.254046 -0.225474 0)
(-0.27629 -0.168865 0)
(-0.275632 -0.126963 0)
(-0.268217 -0.107911 0)
(-0.261287 -0.110237 0)
(-0.255925 -0.0612008 0)
(0.00231311 -0.255281 0)
(0.00434643 -0.27605 0)
(0.00347122 -0.282525 0)
(-0.0040247 -0.287296 0)
(-0.0148963 -0.288802 0)
(-0.0270883 -0.289188 0)
(-0.0383437 -0.288356 0)
(-0.048437 -0.286932 0)
(-0.0540471 -0.288959 0)
(-0.0515755 -0.294176 0)
(-0.0637983 -0.317175 0)
(-0.0946373 -0.336329 0)
(-0.134594 -0.350302 0)
(-0.178364 -0.369497 0)
(-0.220908 -0.368245 0)
(-0.259927 -0.333097 0)
(-0.283197 -0.286801 0)
(-0.294597 -0.254016 0)
(-0.294968 -0.22478 0)
(-0.277128 -0.194006 0)
(-0.268119 -0.176098 0)
(-0.274555 -0.164898 0)
(-0.268927 -0.15244 0)
(0.000308147 -0.257377 0)
(-0.00260075 -0.276138 0)
(-0.00761862 -0.277692 0)
(-0.0155785 -0.280284 0)
(-0.0229479 -0.28226 0)
(-0.0308169 -0.283552 0)
(-0.0383244 -0.283765 0)
(-0.0431643 -0.2836 0)
(-0.0467995 -0.285894 0)
(-0.0541768 -0.289934 0)
(-0.0661934 -0.294466 0)
(-0.0949629 -0.302645 0)
(-0.125596 -0.316273 0)
(-0.163112 -0.330371 0)
(-0.209526 -0.329472 0)
(-0.248357 -0.305041 0)
(-0.256898 -0.269957 0)
(-0.253868 -0.249017 0)
(-0.248915 -0.226631 0)
(-0.235245 -0.193106 0)
(-0.228663 -0.17451 0)
(-0.22521 -0.169743 0)
(-0.221224 -0.147299 0)
(-0.0014984 -0.254367 0)
(-0.00583136 -0.269994 0)
(-0.0113149 -0.270446 0)
(-0.0158935 -0.272481 0)
(-0.02188 -0.275472 0)
(-0.02723 -0.277007 0)
(-0.0323298 -0.278322 0)
(-0.037524 -0.280021 0)
(-0.0422716 -0.280156 0)
(-0.0494277 -0.27921 0)
(-0.0630588 -0.282755 0)
(-0.0773778 -0.283634 0)
(-0.0921361 -0.287959 0)
(-0.117013 -0.284771 0)
(-0.149138 -0.277623 0)
(-0.170769 -0.270886 0)
(-0.186441 -0.25199 0)
(-0.199206 -0.2301 0)
(-0.205274 -0.211712 0)
(-0.209079 -0.18218 0)
(-0.208656 -0.152201 0)
(-0.216294 -0.136655 0)
(-0.225571 -0.121607 0)
(-0.0019668 -0.248256 0)
(-0.00676726 -0.264398 0)
(-0.0105008 -0.265677 0)
(-0.0155291 -0.268342 0)
(-0.0213933 -0.269923 0)
(-0.028122 -0.271454 0)
(-0.0349589 -0.272011 0)
(-0.04186 -0.272631 0)
(-0.0492187 -0.273505 0)
(-0.056735 -0.273797 0)
(-0.0659886 -0.271933 0)
(-0.0713492 -0.274965 0)
(-0.084669 -0.275394 0)
(-0.100681 -0.27399 0)
(-0.120142 -0.272663 0)
(-0.137581 -0.26332 0)
(-0.161064 -0.255537 0)
(-0.178295 -0.239547 0)
(-0.185653 -0.223358 0)
(-0.189211 -0.205865 0)
(-0.190114 -0.182223 0)
(-0.191076 -0.159825 0)
(-0.197095 -0.142931 0)
(-0.00163901 -0.245285 0)
(-0.00596798 -0.260679 0)
(-0.0116582 -0.260782 0)
(-0.0177043 -0.261177 0)
(-0.0240898 -0.262196 0)
(-0.0311392 -0.263416 0)
(-0.0385074 -0.264727 0)
(-0.0461354 -0.264977 0)
(-0.0543401 -0.264066 0)
(-0.0638949 -0.263146 0)
(-0.0705311 -0.263402 0)
(-0.0813251 -0.260287 0)
(-0.0926261 -0.258953 0)
(-0.102834 -0.25684 0)
(-0.115969 -0.249979 0)
(-0.12882 -0.237514 0)
(-0.143475 -0.223585 0)
(-0.156236 -0.21164 0)
(-0.165793 -0.199452 0)
(-0.17359 -0.181923 0)
(-0.18085 -0.154741 0)
(-0.186592 -0.133707 0)
(-0.188546 -0.126065 0)
(-0.00225225 -0.240263 0)
(-0.00760137 -0.254568 0)
(-0.0131072 -0.254354 0)
(-0.0185986 -0.25501 0)
(-0.0244849 -0.255313 0)
(-0.0307559 -0.255017 0)
(-0.037747 -0.254684 0)
(-0.0455389 -0.254359 0)
(-0.0543601 -0.254501 0)
(-0.0631993 -0.255001 0)
(-0.074204 -0.25357 0)
(-0.0839241 -0.252361 0)
(-0.093763 -0.248381 0)
(-0.107883 -0.24472 0)
(-0.119566 -0.237418 0)
(-0.129332 -0.228124 0)
(-0.137487 -0.217981 0)
(-0.143956 -0.210267 0)
(-0.154745 -0.202189 0)
(-0.164677 -0.185961 0)
(-0.165176 -0.161865 0)
(-0.16824 -0.145748 0)
(-0.165253 -0.139036 0)
(-0.00191207 -0.237236 0)
(-0.00647437 -0.251044 0)
(-0.0114761 -0.250622 0)
(-0.0168732 -0.25074 0)
(-0.0226875 -0.250651 0)
(-0.0288165 -0.250514 0)
(-0.0351069 -0.250046 0)
(-0.0418258 -0.249325 0)
(-0.0492365 -0.248354 0)
(-0.0582925 -0.24712 0)
(-0.0668445 -0.246274 0)
(-0.073919 -0.24442 0)
(-0.0831334 -0.239931 0)
(-0.0933469 -0.234423 0)
(-0.104139 -0.229069 0)
(-0.115269 -0.222275 0)
(-0.124028 -0.212706 0)
(-0.133274 -0.199054 0)
(-0.14255 -0.183961 0)
(-0.146618 -0.172145 0)
(-0.153805 -0.156128 0)
(-0.152261 -0.140574 0)
(-0.150018 -0.135492 0)
(-0.00241692 -0.230547 0)
(-0.00795522 -0.243854 0)
(-0.0134504 -0.243344 0)
(-0.0190089 -0.243298 0)
(-0.0247535 -0.243006 0)
(-0.0307115 -0.242504 0)
(-0.0369524 -0.241772 0)
(-0.0434583 -0.240689 0)
(-0.0501499 -0.239092 0)
(-0.0563637 -0.236796 0)
(-0.063328 -0.234895 0)
(-0.0738057 -0.23147 0)
(-0.0837457 -0.227203 0)
(-0.0908437 -0.222399 0)
(-0.0985394 -0.215658 0)
(-0.108718 -0.207793 0)
(-0.116642 -0.199007 0)
(-0.123953 -0.190838 0)
(-0.129081 -0.186272 0)
(-0.132823 -0.173241 0)
(-0.137973 -0.155051 0)
(-0.138433 -0.143435 0)
(-0.136653 -0.137475 0)
(-0.00219339 -0.227611 0)
(-0.007132 -0.240547 0)
(-0.0123268 -0.23999 0)
(-0.0175175 -0.239774 0)
(-0.0228182 -0.239305 0)
(-0.0281581 -0.238605 0)
(-0.0336337 -0.237595 0)
(-0.0394112 -0.236282 0)
(-0.0457099 -0.234678 0)
(-0.0528256 -0.232471 0)
(-0.0610013 -0.22897 0)
(-0.0687218 -0.225487 0)
(-0.0762576 -0.222685 0)
(-0.0853103 -0.21662 0)
(-0.0932977 -0.211022 0)
(-0.0981409 -0.206141 0)
(-0.10476 -0.198258 0)
(-0.111658 -0.188513 0)
(-0.117896 -0.175066 0)
(-0.125321 -0.161935 0)
(-0.127117 -0.153487 0)
(-0.126447 -0.146333 0)
(-0.126818 -0.135696 0)
(-0.00214222 -0.221381 0)
(-0.00696401 -0.233743 0)
(-0.0120369 -0.233018 0)
(-0.0172482 -0.232525 0)
(-0.0227686 -0.231758 0)
(-0.0286551 -0.230794 0)
(-0.0348941 -0.229664 0)
(-0.0413899 -0.2283 0)
(-0.0479039 -0.226412 0)
(-0.0541761 -0.223695 0)
(-0.0595229 -0.220101 0)
(-0.0646827 -0.217115 0)
(-0.0709652 -0.212337 0)
(-0.0771747 -0.208044 0)
(-0.0842169 -0.20225 0)
(-0.0929019 -0.193669 0)
(-0.101864 -0.186013 0)
(-0.106835 -0.177718 0)
(-0.110384 -0.171 0)
(-0.111942 -0.16624 0)
(-0.113652 -0.153398 0)
(-0.117625 -0.14184 0)
(-0.118283 -0.135543 0)
(-0.00210803 -0.218641 0)
(-0.00673811 -0.23071 0)
(-0.011502 -0.229964 0)
(-0.016212 -0.229392 0)
(-0.0209926 -0.228526 0)
(-0.0258315 -0.22737 0)
(-0.0308312 -0.225893 0)
(-0.0361059 -0.22408 0)
(-0.0417747 -0.221946 0)
(-0.0478692 -0.219493 0)
(-0.0546844 -0.21654 0)
(-0.0620942 -0.212092 0)
(-0.0690903 -0.207621 0)
(-0.0758421 -0.202229 0)
(-0.0818727 -0.196581 0)
(-0.0863456 -0.191923 0)
(-0.0894165 -0.186699 0)
(-0.0944116 -0.179026 0)
(-0.0983799 -0.168002 0)
(-0.103826 -0.156664 0)
(-0.107452 -0.150082 0)
(-0.108408 -0.142912 0)
(-0.109422 -0.134123 0)
(-0.00204819 -0.212481 0)
(-0.00660614 -0.224149 0)
(-0.0113196 -0.223374 0)
(-0.0160452 -0.222674 0)
(-0.0208984 -0.22167 0)
(-0.0258563 -0.220371 0)
(-0.0309 -0.218731 0)
(-0.0360089 -0.216688 0)
(-0.041161 -0.214171 0)
(-0.046354 -0.211126 0)
(-0.051445 -0.207626 0)
(-0.0562894 -0.204374 0)
(-0.0612599 -0.200428 0)
(-0.0663713 -0.195679 0)
(-0.0716101 -0.190238 0)
(-0.0773594 -0.183473 0)
(-0.0839187 -0.175981 0)
(-0.0895468 -0.168952 0)
(-0.0934412 -0.163341 0)
(-0.0954123 -0.15721 0)
(-0.0975465 -0.148631 0)
(-0.100523 -0.14031 0)
(-0.101936 -0.133074 0)
(-0.00191061 -0.210247 0)
(-0.00598414 -0.221669 0)
(-0.0102744 -0.220903 0)
(-0.014509 -0.220162 0)
(-0.0188862 -0.219107 0)
(-0.0234102 -0.217752 0)
(-0.0281193 -0.216075 0)
(-0.0330089 -0.214049 0)
(-0.0380336 -0.211644 0)
(-0.0431158 -0.208788 0)
(-0.0482 -0.205202 0)
(-0.0534093 -0.200722 0)
(-0.0587712 -0.196183 0)
(-0.0640295 -0.19152 0)
(-0.0690024 -0.186333 0)
(-0.0733925 -0.180873 0)
(-0.0771219 -0.175159 0)
(-0.0805856 -0.168323 0)
(-0.0843247 -0.160409 0)
(-0.0879194 -0.152596 0)
(-0.0907904 -0.145852 0)
(-0.0931052 -0.138926 0)
(-0.0947438 -0.131704 0)
(-0.00180178 -0.20464 0)
(-0.00573444 -0.215637 0)
(-0.0098096 -0.214838 0)
(-0.0138478 -0.213939 0)
(-0.0179717 -0.2127 0)
(-0.022152 -0.211127 0)
(-0.0263915 -0.209206 0)
(-0.0306996 -0.206928 0)
(-0.0351052 -0.204294 0)
(-0.0396453 -0.201342 0)
(-0.044296 -0.198206 0)
(-0.0488288 -0.194774 0)
(-0.0531855 -0.190637 0)
(-0.0575549 -0.185842 0)
(-0.0619557 -0.18069 0)
(-0.06635 -0.1751 0)
(-0.0706978 -0.169036 0)
(-0.0748 -0.162922 0)
(-0.0782424 -0.15676 0)
(-0.0810158 -0.150302 0)
(-0.08357 -0.143522 0)
(-0.0862058 -0.136792 0)
(-0.0881763 -0.130149 0)
(-0.0016963 -0.2024 0)
(-0.00523837 -0.213283 0)
(-0.00898938 -0.212534 0)
(-0.0126734 -0.211646 0)
(-0.0164617 -0.210426 0)
(-0.0203312 -0.208872 0)
(-0.02429 -0.20696 0)
(-0.0283259 -0.204668 0)
(-0.0324104 -0.201958 0)
(-0.0365082 -0.19879 0)
(-0.0406322 -0.195142 0)
(-0.0448395 -0.191076 0)
(-0.0490883 -0.186769 0)
(-0.0532407 -0.182194 0)
(-0.0572442 -0.177202 0)
(-0.0610876 -0.171832 0)
(-0.0647238 -0.166154 0)
(-0.0681643 -0.160062 0)
(-0.0714453 -0.153664 0)
(-0.0744255 -0.147206 0)
(-0.0770949 -0.1409 0)
(-0.0797176 -0.134621 0)
(-0.0819503 -0.128295 0)
(-0.00152808 -0.198226 0)
(-0.00475075 -0.208719 0)
(-0.00816853 -0.20795 0)
(-0.0115151 -0.206937 0)
(-0.0149581 -0.205575 0)
(-0.0184681 -0.203875 0)
(-0.0220559 -0.201841 0)
(-0.0257224 -0.199478 0)
(-0.0294616 -0.196791 0)
(-0.0332531 -0.193779 0)
(-0.0370568 -0.190429 0)
(-0.0408252 -0.186701 0)
(-0.04455 -0.182538 0)
(-0.0482557 -0.17796 0)
(-0.0519192 -0.173044 0)
(-0.0554894 -0.167808 0)
(-0.0589411 -0.162268 0)
(-0.0622381 -0.156505 0)
(-0.0653267 -0.150545 0)
(-0.0681604 -0.144434 0)
(-0.0708046 -0.138293 0)
(-0.0734999 -0.132214 0)
(-0.0759884 -0.126144 0)
(-0.0013992 -0.195746 0)
(-0.00426174 -0.206111 0)
(-0.00734125 -0.205376 0)
(-0.0103407 -0.204336 0)
(-0.0134395 -0.202947 0)
(-0.0165987 -0.201207 0)
(-0.0198293 -0.19911 0)
(-0.0231271 -0.196655 0)
(-0.0264806 -0.193838 0)
(-0.0298764 -0.19066 0)
(-0.0333023 -0.187125 0)
(-0.0367457 -0.183251 0)
(-0.0401807 -0.179059 0)
(-0.0435707 -0.174551 0)
(-0.0468953 -0.169715 0)
(-0.0501428 -0.16457 0)
(-0.0532931 -0.159149 0)
(-0.0563388 -0.153477 0)
(-0.0592759 -0.14761 0)
(-0.062066 -0.141621 0)
(-0.0647214 -0.135619 0)
(-0.0674474 -0.129663 0)
(-0.070134 -0.123715 0)
(-0.00121124 -0.192856 0)
(-0.00369827 -0.202963 0)
(-0.00642693 -0.202226 0)
(-0.00906055 -0.201104 0)
(-0.011803 -0.199632 0)
(-0.0146066 -0.197806 0)
(-0.0174887 -0.195629 0)
(-0.0204496 -0.193122 0)
(-0.0234763 -0.190295 0)
(-0.0265488 -0.18715 0)
(-0.0296431 -0.18368 0)
(-0.0327378 -0.179877 0)
(-0.0358194 -0.175735 0)
(-0.0388793 -0.171264 0)
(-0.0419023 -0.166486 0)
(-0.0448721 -0.16142 0)
(-0.0477782 -0.156091 0)
(-0.0506153 -0.150536 0)
(-0.0533863 -0.144787 0)
(-0.0560822 -0.138892 0)
(-0.058716 -0.132934 0)
(-0.0614543 -0.126995 0)
(-0.0642831 -0.121058 0)
(-0.00101127 -0.190716 0)
(-0.00311533 -0.200627 0)
(-0.00550057 -0.199898 0)
(-0.00776336 -0.198716 0)
(-0.0101379 -0.197184 0)
(-0.0125629 -0.195285 0)
(-0.0150621 -0.193025 0)
(-0.0176492 -0.190435 0)
(-0.0203186 -0.187529 0)
(-0.0230563 -0.184315 0)
(-0.0258388 -0.180792 0)
(-0.0286394 -0.176957 0)
(-0.0314369 -0.172815 0)
(-0.0342131 -0.168368 0)
(-0.0369561 -0.163625 0)
(-0.0396608 -0.158603 0)
(-0.0423235 -0.153325 0)
(-0.0449477 -0.147818 0)
(-0.047547 -0.142109 0)
(-0.0501302 -0.136237 0)
(-0.0527128 -0.130263 0)
(-0.0554267 -0.12426 0)
(-0.0583264 -0.118233 0)
(-0.000762031 -0.188799 0)
(-0.00250064 -0.198416 0)
(-0.00459009 -0.197688 0)
(-0.00649441 -0.196451 0)
(-0.0085033 -0.194874 0)
(-0.0105399 -0.192937 0)
(-0.0125858 -0.190614 0)
(-0.0146718 -0.187937 0)
(-0.0168536 -0.184939 0)
(-0.0191861 -0.181654 0)
(-0.0216793 -0.178113 0)
(-0.0242612 -0.174297 0)
(-0.0268417 -0.170172 0)
(-0.0294144 -0.165746 0)
(-0.0319491 -0.161026 0)
(-0.0344387 -0.15603 0)
(-0.036889 -0.150783 0)
(-0.0393071 -0.145297 0)
(-0.0417195 -0.139592 0)
(-0.044155 -0.133697 0)
(-0.0466417 -0.127652 0)
(-0.0492864 -0.12152 0)
(-0.0521839 -0.115317 0)
(-0.000470594 -0.187329 0)
(-0.00193909 -0.196522 0)
(-0.00388203 -0.195806 0)
(-0.00551984 -0.194557 0)
(-0.00724557 -0.192973 0)
(-0.00893423 -0.191027 0)
(-0.0105157 -0.188675 0)
(-0.0120435 -0.185927 0)
(-0.013551 -0.182773 0)
(-0.0151274 -0.179268 0)
(-0.016873 -0.175466 0)
(-0.0189176 -0.171467 0)
(-0.021276 -0.167314 0)
(-0.0238361 -0.162982 0)
(-0.0264558 -0.158435 0)
(-0.0289558 -0.153599 0)
(-0.0313107 -0.148445 0)
(-0.0335904 -0.142993 0)
(-0.0358332 -0.137268 0)
(-0.0381011 -0.131314 0)
(-0.040445 -0.125155 0)
(-0.0429654 -0.11884 0)
(-0.0457806 -0.112394 0)
(-0.000186376 -0.186475 0)
(-0.00160237 -0.194922 0)
(-0.0037133 -0.19423 0)
(-0.00532028 -0.193025 0)
(-0.00700719 -0.191494 0)
(-0.00862029 -0.189651 0)
(-0.0101783 -0.187455 0)
(-0.0116517 -0.184841 0)
(-0.0130253 -0.181791 0)
(-0.0142428 -0.178257 0)
(-0.0153392 -0.174302 0)
(-0.0164043 -0.17 0)
(-0.0175344 -0.165428 0)
(-0.0188192 -0.160654 0)
(-0.0204366 -0.155759 0)
(-0.0224927 -0.150802 0)
(-0.0249051 -0.145768 0)
(-0.0274005 -0.14056 0)
(-0.0296998 -0.13502 0)
(-0.0318645 -0.129098 0)
(-0.0340572 -0.122821 0)
(-0.0364071 -0.116291 0)
(-0.0390697 -0.109561 0)
(-1.30907e-05 -0.186154 0)
(-0.00177368 -0.19352 0)
(-0.00445225 -0.192876 0)
(-0.00640636 -0.191799 0)
(-0.00839076 -0.19033 0)
(-0.0101528 -0.188451 0)
(-0.0118928 -0.186259 0)
(-0.013473 -0.183685 0)
(-0.0148622 -0.180737 0)
(-0.016026 -0.17742 0)
(-0.0168865 -0.17366 0)
(-0.0174724 -0.169475 0)