/*--------------------------------*- C++ -*----------------------------------*\
| =========                 |                                                 |
| \\      /  F ield         | OpenFOAM: The Open Source CFD Toolbox           |
|  \\    /   O peration     | Version:  2.4.0                                 |
|   \\  /    A nd           | Web:      www.OpenFOAM.org                      |
|    \\/     M anipulation  |                                                 |
\*---------------------------------------------------------------------------*/
FoamFile
{
    version     2.0;
    format      ascii;
    class       volScalarField;
    location    "0.5";
    object      alphas;
}
// * * * * * * * * * * * * * * * * * * * * * * * * * * * * * * * * * * * * * //

dimensions      [0 0 0 0 0 0 0];

internalField   nonuniform List<scalar> 
2268
(
2
2
2
2
2
2
2
2
2
2
2
2
2
2
2
2
2
2
2
2
2
2
1.99999
2
2
2
2
2
2
2
2
2
2
2
2
2
2
2
2
2
2
2
2
2
2
1.99998
2
2
2
2
2
2
1.99999
1.99999
1.99999
1.99999
1.99999
1.99999
1.99999
2
2
2
2
2
2
2
2
2
1.99998
1.99785
1.99755
1.99804
1.99641
1.99736
1.99665
1.99424
1.99447
1.99367
1.9933
1.99049
1.99129
1.99291
1.99656
1.9993
1.99989
1.99998
2
2
2
2
2
1.99998
1.79556
1.78304
1.79577
1.74486
1.76145
1.72924
1.6639
1.65035
1.61097
1.58059
1.51782
1.5064
1.51567
1.59335
1.7709
1.94074
1.99473
1.99976
1.99998
2
2
2
1.99998
0.445394
0.423457
0.432855
0.363821
0.370792
0.32517
0.25225
0.222831
0.184929
0.153521
0.114088
0.0906016
0.0733991
0.0813716
0.1223
0.424935
1.13664
1.85375
1.99205
1.99978
1.99999
2
1.99998
0.000388214
0.000342367
0.000330928
0.000232064
0.000212837
0.000160544
0.000107649
8.15674e-05
6.22445e-05
4.72009e-05
3.61457e-05
2.84248e-05
2.3227e-05
1.98477e-05
6.89366e-05
0.00425318
0.0916204
0.873892
1.8725
1.99581
1.99992
1.99999
1.99998
2.60672e-05
2.54728e-05
2.4501e-05
2.4014e-05
2.24133e-05
2.03071e-05
2.0117e-05
1.87063e-05
1.6834e-05
1.66163e-05
1.69499e-05
1.70827e-05
1.72073e-05
1.7327e-05
1.78961e-05
2.22083e-05
0.000838525
0.110113
1.32348
1.97562
1.99959
1.99999
1.99998
1.00392
1.00399
1.00511
1.01144
1.02002
1.03267
1.05035
1.06768
1.0804
1.0938
1.10766
1.12492
1.16823
1.23153
1.32974
1.38111
1.38602
1.38854
1.39014
1.0032
1.00259
1.00201
1.00163
1.00172
1.00397
1.009
1.01601
1.01975
1.01703
1.01769
1.02654
1.02938
1.0284
1.00909
1.04607
1.19079
1.38666
1.39082
1.00774
1.01303
1.01163
1.00945
1.01156
1.02111
1.03405
1.04872
1.06025
1.0532
1.03891
1.77911
2.34712
1.82222
1.07616
1.03924
1.05556
1.2458
1.39109
1.02116
1.03539
1.03326
1.03161
1.03928
1.05567
1.07173
1.08623
1.10311
1.13219
1.58202
2.71187
2.98301
2.99681
2.84254
1.47117
1.06169
1.08118
1.39083
1.04766
1.07875
1.07998
1.0806
1.09376
1.11442
1.1204
1.12018
1.12878
1.19347
1.97485
2.84506
2.99251
2.99751
2.9925
2.72481
1.20495
1.04349
1.3438
1.10228
1.14956
1.15781
1.16074
1.17785
1.18946
1.17805
1.15662
1.15433
1.18579
1.45664
2.56201
2.98559
2.99752
2.99204
2.86492
1.4607
1.03566
1.28747
1.26385
1.30336
1.26832
1.25625
1.26194
1.2498
1.22006
1.18362
1.15745
1.16421
1.29719
2.54247
2.99359
2.99752
2.99615
2.68283
1.4424
1.0206
1.23001
1.7266
1.67325
1.49003
1.36704
1.31873
1.27816
1.23555
1.19357
1.16117
1.16306
1.24666
2.24561
2.96656
2.99685
2.99525
2.63272
1.37966
0.995389
1.17501
2.23398e-05
2.20091e-05
2.12622e-05
2.18043e-05
2.04943e-05
1.80259e-05
1.81778e-05
1.62929e-05
1.51852e-05
1.52951e-05
1.61459e-05
1.6446e-05
1.71127e-05
1.71726e-05
1.88414e-05
2.23538e-05
4.55718e-05
0.00588424
0.278816
1.51738
1.97986
1.99833
1.99983
2.8648e-06
2.78414e-06
2.63279e-06
2.59515e-06
2.50103e-06
2.35252e-06
2.49608e-06
3.2161e-06
1.16337e-05
4.66058e-05
5.79721e-05
4.01795e-05
1.29017e-05
5.07195e-06
4.7598e-06
6.1323e-06
1.74119e-05
0.00011746
0.0113442
0.312818
1.2524
1.81607
1.96543
3.4565e-06
2.85365e-06
1.64231e-06
9.64175e-07
1.00554e-06
9.9204e-07
6.48886e-06
0.000475211
0.0031823
0.00858846
0.00973511
0.00758014
0.00342487
0.00133183
0.000363346
0.000111702
4.12135e-05
6.55963e-05
0.000398074
0.0194635
0.176483
0.457681
0.817299
0.00553171
0.00458818
0.00229393
0.000503736
9.88733e-05
0.000161523
0.00145863
0.0269552
0.0949752
0.168235
0.180294
0.158087
0.108661
0.0693234
0.0313358
0.0109681
0.00339203
0.00120225
0.000530316
0.00102848
0.00698417
0.022594
0.0304547
0.631604
0.564894
0.38313
0.146024
0.0492126
0.0584985
0.0710919
0.245384
0.508852
0.649543
0.669258
0.652244
0.602638
0.537802
0.446277
0.302497
0.170934
0.0905621
0.0428546
0.0250637
0.0131221
0.0157153
0.0226197
2.94084
2.92432
2.86257
2.673
2.25795
1.7718
1.40648
1.50535
1.40242
1.21984
1.04878
0.985224
0.97171
0.967618
0.963542
0.942477
0.831517
0.682165
0.481968
0.432678
0.332949
0.370108
0.409316
3
3
3
3
3
2.99982
2.99682
2.98481
2.92853
2.74301
2.32815
1.82997
1.44443
1.20268
1.09467
1.04557
1.02845
1.01369
0.983739
1.0151
0.983736
0.980394
0.981429
3
3
3
3
3
2.99999
2.99998
2.99995
2.99997
2.99998
2.99962
2.99257
2.93621
2.76637
2.5314
2.28368
2.06829
1.81798
1.6716
1.74719
1.65517
1.89371
2.00885
3
3
3
3
3
3
3
3
3
3
3
3
3
3
3
2.99999
2.99993
2.99893
2.99519
2.99414
2.98455
2.9946
2.99679
3
3
3
3
3
3
3
3
3
3
3
3
3
3
3
3
3
3
3
3
3
3
3
3
3
3
3
3
3
3
3
3
3
3
3
3
3
3
3
3
3
3
3
3
3
3
3
3
3
3
3
3
3
3
3
3
3
3
3
3
3
3
3
3
3
3
3
3
3
3
3
3
3
3
3
3
3
3
3
3
3
3
3
3
3
3
3
3
3
3
3
3
3
3
3
3
3
3
3
3
3
3
3
3
3
3
3
3
3
3
3
3
3
3
3
3
3
3
3
3
3
3
3
3
3
3
3
3
3
3
3
3
3
3
3
3
3
3
3
3
3
3
3
3
3
3
3
3
3
3
3
3
3
3
3
3
3
3
3
3
3
3
3
3
3
3
3
3
3
3
3
3
3
3
3
3
3
3
3
3
3
3
3
3
3
3
3
3
3
3
3
3
3
3
3
3
3
3
3
3
3
3
3
3
3
3
3
3
3
3
3
3
3
3
3
3
3
3
3
3
3
3
3
3
3
3
3
3
3
3
3
3
3
3
3
3
3
3
3
3
3
3
3
3
3
3
3
3
3
3
3
3
3
3
3
3
3
3
3
3
3
3
3
3
3
3
3
3
3
3
3
3
3
3
3
3
3
3
3
3
3
3
3
3
3
3
3
3
3
3
3
3
3
3
3
3
3
3
3
3
3
3
3
3
3
3
3
3
3
3
3
3
3
3
3
3
3
3
3
3
3
3
3
3
3
3
3
3
3
3
3
3
3
3
3
3
3
3
3
3
3
3
2.99999
2.99999
3
3
3
3
3
3
3
3
3
3
3
3
3
3
3
3
3
3
3
3
2.99999
2.99999
2.99999
2.99999
3
3
3
3
3
3
3
3
3
3
3
3
3
3
3
3
3
3
3
2.99999
2.99999
2.99999
2.99999
3
3
3
3
3
3
3
3
3
3
3
3
3
3
3
3
3
3
3
3
2.99999
2.99999
2.99999
3
3
3
3
3
3
3
3
3
3
3
3
3
3
3
3
3
3
3
3
2.99999
2.99999
2.99999
3
3
3
3
3
3
3
3
3
3
3
3
3
3
3
3
3
3
3
3
3
2.99999
2.99999
3
3
3
3
3
3
3
3
3
3
3
3
3
3
3
3
3
3
3
3
3
2.99999
2.99999
3
3
3
3
3
3
3
3
3
3
3
3
3
3
3
3
3
3
3
3
3
3
2.99999
3
3
3
3
3
3
3
3
3
3
3
3
3
3
3
3
3
3
3
3
3
3
3
3
3
3
3
3
3
3
3
3
3
3
3
3
3
3
3
3
3
3
3
3
3
3
3
3
3
3
3
3
3
3
3
3
3
3
3
3
3
3
3
3
3
3
3
3
3
3
3
3
3
3
3
3
3
3
3
3
3
3
3
3
3
3
3
3
3
3
3
3
3
3
3
3
3
3
3
3
3
3
3
3
3
3
3
3
3
3
3
3
3
3
3
3
3
3
3
3
3
3
3
3
3
3
3
3
3
3
3
3
3
3
3
3
3
3
3
3
3
3
3
3
3
3
3
3
3
3
3
3
3
3
3
3
3
3
3
3
3
3
3
3
3
3
3
3
3
3
3
3
3
3
3
3
3
3
3
3
3
3
3
3
3
3
3
3
3
3
3
3
3
3
3
3
3
3
3
3
3
3
3
3
3
3
3
3
3
3
3
3
3
3
3
3
3
3
3
3
3
3
3
3
3
3
3
3
3
3
3
3
3
3
3
3
3
3
3
3
3
3
3
3
3
3
3
3
3
3
3
3
3
1.99901
1.9967
1.9927
1.98655
1.97674
1.96501
1.93153
1.87642
0.968886
1.022
0.977696
0.879905
0.0366082
0.0405904
0.0448828
0.0502063
0.0338132
0.047169
0.0657272
0.0868275
0.447816
0.478516
0.510924
0.543914
0.992838
1.00607
1.04415
1.10982
2.10195
2.21402
2.39113
2.57888
2.99761
2.99861
2.99957
2.99993
3
3
3
3
3
3
3
3
3
3
3
3
3
3
3
3
3
3
3
3
3
3
3
3
3
3
3
3
3
3
3
3
3
3
3
3
3
3
3
3
3
3
3
3
3
3
3
3
3
3
3
3
3
3
3
3
3
3
3
3
3
3
3
3
3
3
3
3
2.99999
3
3
2.99999
3
3
2.99999
2.99999
2.99999
2.99999
2.99999
2.99999
3
3
2.99999
2.99999
3
3
3
2.99999
3
3
3
2.99999
3
3
3
2.99999
3
3
3
3
3
3
3
3
3
3
3
3
3
3
3
3
3
3
3
3
3
3
3
3
3
3
3
3
3
3
3
3
3
3
3
3
1.9571
1.80756
1.62069
1.43267
1.23881
1.13998
1.10021
1.08855
1.07751
1.07792
1.12653
1.43379
2.08739
2.3108
2.24749
1.74943
1.11182
0.957489
1.11545
1.71807
1.43524
1.17432
0.946252
0.802006
0.670289
0.628131
0.662926
0.705309
0.739787
0.797221
0.869512
0.89048
0.90639
0.903078
0.87632
0.890285
0.941268
1.0628
0.640477
0.411025
0.312853
0.298433
0.301497
0.317035
0.301372
0.302443
0.3414
0.380288
0.41605
0.460286
0.512101
0.580355
0.692258
0.79087
0.875923
0.941228
1.02819
0.0639727
0.0974762
0.157601
0.25302
0.302571
0.294906
0.286945
0.285678
0.290467
0.303361
0.340187
0.404712
0.471615
0.571186
0.726542
0.822961
0.951499
0.955479
1.0082
0.154921
0.312902
0.477405
0.675959
0.731472
0.701857
0.621293
0.532585
0.478204
0.482903
0.501521
0.575805
0.647495
0.739695
0.822273
1.10873
1.29997
1.02834
1.00215
0.656406
0.900177
1.28584
1.79696
1.87073
1.65172
1.33211
1.03797
0.950418
0.98722
1.16313
1.52124
1.36545
1.10889
1.29459
1.32874
1.3313
1.17633
1.00226
1.34298
1.89507
2.75498
2.97649
2.9783
2.92497
2.7266
2.45627
2.46489
2.59343
2.49662
1.80584
1.14277
1.0759
1.31168
1.35014
1.34533
1.10108
1.00214
2.85092
2.99016
2.99993
3
3
3
2.99996
2.99922
2.99772
2.9693
2.08939
1.13261
1.00753
1.00874
1.08291
1.21284
1.09032
1.01688
1.0017
2.99999
3
3
3
3
3
3
3
2.99672
2.70564
1.48212
1.01413
1.0021
1.00212
1.01053
1.02979
1.01749
1.00391
1.00245
3
3
3
3
3
3
3
3
2.99736
2.82701
1.84254
1.07635
1.00429
1.00182
1.00188
1.00604
1.00828
1.00579
1.00437
3
3
3
3
3
3
3
3
2.99981
2.98283
2.71981
1.82794
1.13731
1.0043
1.00099
1.00086
1.00219
1.00296
1.00205
3
3
3
3
3
3
3
3.00001
3
2.99972
2.98673
2.84594
2.22937
1.29369
1.0038
1.00032
1.00029
1.0003
1.00021
3
3
3
3
3
3
3.00001
3.00001
3.00001
3
2.99989
2.99656
2.95315
2.6022
1.64523
1.07743
1.00137
1.00006
1.00003
3
3
3
3
3
3
3.00001
3.00001
3.00001
3.00001
3
2.99999
2.99957
2.98776
2.86337
2.40838
1.60883
1.03763
1.00074
3
3
3
3
3
3
3
3.00001
3.00001
3.00001
3.00001
3
3
2.99997
2.99885
2.98659
2.88376
2.084
1.08503
3
3
3
3
3
3
3
3
3.00001
3.00001
3.00001
3
3
3
3
2.99999
2.99593
2.73447
1.28
3
3
3
3
3
3
3
3
3
3.00001
3
3
3
3
3
3
2.99501
2.43873
1.18467
3
3
3
2.99999
3
3
3
3
3
3
3.00001
3
3
3
3
3
2.9994
1.91345
1.08977
3
3
2.99999
2.99999
3
3
3
3
3
3
3
3
3
3
3
3
3
1.987
1.06707
3
3
3
2.99999
2.99999
3
3
3
3
3
3
3
3
3
3
3
3
2.58105
1.14022
3
3
3
3
3
3
3
3
3
3
3
3
3
3
3
3
3
2.92199
1.32142
3
3
3
3
3
3
3
3
3
3
3
3
3
3
3
3
3
2.9888
1.44264
3
3
3
3
3
3
3
3
3
3
3
3
3
3
3
3
3
2.99832
1.45622
3
3
3
3
3
3
3
3
3
3
3
3
3
3
3
3
3
2.99971
1.5338
3
3
3
3
3
3
3
3
3
3
3
3
3
3
3
3
3
2.99994
1.67619
3
3
3
3
3
3
3
3
3
3
3
3
3
3
3
3
3
2.99997
1.71557
2.99999
2.99999
2.99999
2.99999
2.99999
3
3
3
3
3
3
3
3
3
3
3
3
2.99997
1.76065
2.99999
2.99999
2.99999
2.99999
2.99999
2.99999
3
3
3
3
3
3
3
3
3
2.99999
3
2.99992
1.86831
2.99999
2.99999
2.99999
2.99999
2.99999
2.99999
3
3
3
3
3
3
3
3
3
2.99997
2.99998
2.99925
2.29862
2.99999
2.99999
2.99999
2.99999
2.99999
2.99999
3
3
3
3
3
3
3
3
3
2.99991
2.99997
2.99698
2.8202
2.99999
2.99999
2.99999
2.99999
2.99999
2.99999
3
3
3
3
3
3
3
3
2.99999
2.99969
2.99997
2.9983
2.98684
2.99999
2.99999
2.99999
2.99999
2.99999
2.99999
3
3
3
3
3
3
3
3
2.99999
2.99954
2.99933
2.99904
2.99902
2.99999
2.99999
2.99999
2.99999
2.99999
3
3
3
3
3
3
3
3
3
3
2.99962
2.99632
2.99537
2.99187
2.99999
2.99999
2.99999
2.99999
2.99999
3
3
3
3
3
3
3
3
3
3
2.99972
2.99168
2.91996
2.5235
2.99999
2.99999
2.99999
2.99999
3
3
3
3
3
3
3
3
3
3
3
2.9993
2.96401
2.5796
1.34961
3
2.99999
2.99999
2.99999
3
3
3
3
3
3
3
3
3
3
3
2.99894
2.90512
1.96578
1.03208
3
3
3
3
3
3
3
3
3
3
3
3
3
3
3
2.99967
2.93533
1.79224
1.02835
3
3
3
3
3
3
3
3
3
3
3
3
3
3
3
2.99999
2.99083
1.98024
1.02835
3
3
3
3
3
3
3
3
3
3
3
3
3
3
3
3
2.99983
2.49952
1.02944
3
3
3
3
3
3
3
3
3
3
3
3
3
3
3
3
3
2.89082
1.0919
3
3
3
3
3
3
3
3
3
3
3
3
3
3
3
3
3
2.98896
1.40543
3
3
3
3
3
3
3
3
3
3
3
3
3
3
3
3
3
2.99974
2.2134
)
;

boundaryField
{
    leftWall
    {
        type            zeroGradient;
    }
    rightWall
    {
        type            zeroGradient;
    }
    lowerWall
    {
        type            zeroGradient;
    }
    atmosphere
    {
        type            zeroGradient;
    }
    defaultFaces
    {
        type            empty;
    }
}


// ************************************************************************* //
