/*--------------------------------*- C++ -*----------------------------------*\
| =========                 |                                                 |
| \\      /  F ield         | OpenFOAM: The Open Source CFD Toolbox           |
|  \\    /   O peration     | Version:  2.4.0                                 |
|   \\  /    A nd           | Web:      www.OpenFOAM.org                      |
|    \\/     M anipulation  |                                                 |
\*---------------------------------------------------------------------------*/
FoamFile
{
    version     2.0;
    format      ascii;
    class       volScalarField;
    location    "0.5";
    object      alpha.water;
}
// * * * * * * * * * * * * * * * * * * * * * * * * * * * * * * * * * * * * * //

dimensions      [0 0 0 0 0 0 0];

internalField   nonuniform List<scalar> 
2268
(
2.95995e-09
3.15156e-09
2.43323e-09
4.24732e-09
3.16217e-09
3.22138e-09
5.02572e-09
5.45638e-09
5.04333e-09
4.37992e-09
5.24532e-09
6.81478e-09
7.5073e-09
7.19566e-09
5.84292e-09
4.06696e-09
2.91615e-09
2.73865e-09
2.73586e-09
2.6786e-09
2.28145e-09
9.91955e-10
1.73145e-10
2.45404e-08
2.38766e-08
2.06703e-08
2.82457e-08
2.40063e-08
2.46523e-08
3.22245e-08
3.40964e-08
3.29663e-08
3.11308e-08
3.48422e-08
3.93705e-08
4.07505e-08
3.92491e-08
3.38263e-08
2.75181e-08
2.038e-08
1.55272e-08
1.26028e-08
9.81315e-09
5.95448e-09
1.60487e-09
3.2969e-10
6.84214e-07
8.47236e-07
5.19929e-07
1.76491e-06
8.4128e-07
1.13009e-06
3.3019e-06
2.82695e-06
2.96492e-06
2.68935e-06
5.41942e-06
4.95424e-06
3.48631e-06
1.37268e-06
4.01237e-07
1.25883e-07
6.65141e-08
5.05811e-08
3.43397e-08
2.44269e-08
1.30969e-08
5.09229e-09
1.70328e-09
0.00107588
0.00122355
0.000982406
0.00179471
0.00131974
0.00167273
0.00288005
0.00276442
0.00316689
0.00334776
0.00475245
0.00435427
0.00354347
0.00171896
0.000349928
5.63756e-05
9.32408e-06
2.26032e-06
9.03561e-07
4.52447e-07
1.2309e-07
4.04611e-08
6.79392e-09
0.102221
0.108482
0.102113
0.127571
0.119273
0.135378
0.168052
0.174827
0.194513
0.209706
0.241092
0.246798
0.242166
0.203324
0.114551
0.029632
0.00263476
0.00011764
8.55826e-06
1.5535e-06
2.50975e-07
1.09424e-07
2.53875e-08
0.777303
0.788272
0.783572
0.818089
0.814604
0.837415
0.873875
0.888584
0.907535
0.923239
0.942956
0.954699
0.9633
0.959314
0.93885
0.787532
0.431681
0.0731231
0.00397515
0.000107708
2.46619e-06
3.36652e-07
5.34121e-08
0.999806
0.999829
0.999834
0.999884
0.999893
0.99992
0.999946
0.999959
0.999969
0.999976
0.999982
0.999986
0.999988
0.99999
0.999965
0.997873
0.954188
0.563041
0.0637397
0.00208662
3.94243e-05
1.69097e-06
2.94098e-07
0.999987
0.999987
0.999988
0.999988
0.999989
0.99999
0.99999
0.999991
0.999992
0.999992
0.999991
0.999991
0.999991
0.999991
0.999991
0.999987
0.999577
0.94493
0.33819
0.0121702
0.000203112
1.35171e-06
8.63501e-07
1.23884e-07
6.77165e-07
1.12763e-06
1.3278e-06
1.43005e-06
1.68869e-06
1.96252e-06
2.24379e-06
2.90625e-06
7.7616e-06
3.69366e-05
0.000196904
0.000851357
0.00246269
0.00432478
0.00383811
0.00175637
0.000844261
0.000378846
6.44346e-08
3.2682e-07
4.90134e-07
4.37775e-07
4.35602e-07
4.61064e-07
5.9411e-07
7.06777e-07
7.019e-07
1.33562e-06
1.10667e-05
1.87465e-05
5.11198e-05
0.000606989
0.00487783
0.00989069
0.00805463
0.00239707
0.000551331
2.45091e-08
2.01196e-07
5.77734e-07
7.41875e-07
7.41803e-07
7.28894e-07
8.48532e-07
1.11504e-06
1.18173e-06
1.17979e-06
2.2743e-06
7.99209e-06
1.91899e-05
5.08874e-05
0.000443319
0.00989826
0.0133298
0.00613189
0.00106182
9.14491e-09
6.29869e-08
2.99328e-07
5.78784e-07
5.12989e-07
4.01842e-07
5.15347e-07
9.02745e-07
1.33742e-06
1.41924e-06
8.24541e-07
3.34879e-07
2.39342e-07
1.36445e-06
0.000104011
0.00994349
0.0153136
0.0112534
0.00182834
6.51125e-09
2.0297e-08
8.8028e-08
2.04205e-07
1.66003e-07
1.25674e-07
1.64297e-07
3.55696e-07
3.4689e-06
1.1596e-05
8.00114e-06
6.81664e-07
1.71504e-07
6.71744e-07
6.0348e-05
0.00465369
0.0235248
0.0169325
0.00279466
8.42246e-08
3.24443e-08
3.14162e-08
2.97534e-08
2.94979e-08
3.07013e-08
4.43244e-08
1.48514e-07
1.81451e-05
0.000124739
0.000505443
5.55857e-05
3.98372e-07
3.83679e-07
4.34668e-05
0.00362249
0.0281936
0.022862
0.00408647
5.57702e-06
2.15034e-05
2.83853e-06
3.36884e-08
2.34984e-07
2.16473e-06
9.43379e-07
2.14339e-07
3.62486e-05
0.000671379
0.00532547
0.000740811
1.92758e-06
4.10856e-07
1.99262e-05
0.00816409
0.0345696
0.0288671
0.006136
5.57535e-06
0.00307327
0.00154223
1.79841e-05
0.000679513
0.00147976
0.000926072
0.000236056
5.36661e-05
0.00338061
0.0231744
0.00515791
7.51088e-05
1.64563e-06
5.58754e-05
0.0112342
0.0469083
0.0388011
0.00875447
0.999989
0.999989
0.999989
0.999989
0.99999
0.999991
0.999991
0.999992
0.999992
0.999992
0.999991
0.999991
0.999991
0.999991
0.999991
0.999988
0.99997
0.997037
0.860444
0.240988
0.0098711
0.000813569
7.37806e-05
0.999999
0.999999
0.999999
0.999999
0.999999
0.999999
0.999999
0.999998
0.999989
0.999954
0.999943
0.999961
0.999988
0.999996
0.999997
0.999996
0.999986
0.999908
0.994201
0.842812
0.372734
0.0914023
0.0171091
0.999999
0.999999
0.999999
1
1
1
0.999994
0.999525
0.996818
0.991412
0.990265
0.99242
0.996575
0.998668
0.999637
0.999889
0.99996
0.999935
0.999699
0.989813
0.910792
0.769184
0.588018
0.998156
0.99847
0.999235
0.999832
0.999967
0.999932
0.99864
0.973151
0.905111
0.831796
0.819708
0.841913
0.891339
0.930677
0.968664
0.989032
0.996608
0.998798
0.999481
0.999142
0.995951
0.987643
0.983117
0.789465
0.811702
0.87229
0.951325
0.983595
0.980176
0.96062
0.785175
0.517796
0.363762
0.331433
0.347921
0.397446
0.46224
0.553737
0.697504
0.829066
0.909438
0.957146
0.974954
0.987261
0.985503
0.978506
0.0197191
0.0252266
0.0458107
0.108999
0.24735
0.408861
0.491597
0.258334
0.0787631
0.0472387
0.0490587
0.0502468
0.0452056
0.0419434
0.0428688
0.0596133
0.169253
0.317852
0.518032
0.567347
0.667062
0.629929
0.590799
2.26299e-07
1.33734e-07
1.07496e-07
7.15086e-08
1.02761e-06
1.41529e-05
0.000210825
0.000292212
0.000157382
0.000226413
0.000320385
0.00028171
0.000249488
0.000254964
0.000274307
0.000396568
0.00144421
0.00626114
0.0262642
0.0158015
0.0304708
0.0460124
0.0627468
7.038e-08
3.90141e-08
1.1686e-08
7.19689e-09
2.51862e-08
1.46428e-08
6.11588e-08
2.37039e-07
5.25826e-07
2.76807e-07
4.67615e-07
1.47279e-06
3.72018e-06
6.6743e-06
8.36452e-06
9.25218e-06
9.85852e-06
1.71615e-05
4.07056e-05
0.000106967
0.000301519
0.000358701
0.0004318
6.00597e-08
4.69746e-08
2.07346e-08
3.54332e-09
1.29337e-09
7.40743e-10
3.18426e-09
2.36763e-09
4.9391e-09
1.11215e-08
5.85322e-09
2.33813e-09
1.1471e-09
5.96198e-10
5.61875e-10
1.28006e-09
2.05875e-09
5.22026e-09
2.09558e-08
9.17427e-08
4.76264e-07
4.20979e-07
5.25373e-07
5.44296e-08
3.12486e-08
2.39528e-08
9.79673e-09
1.3986e-09
5.19325e-10
6.71975e-10
8.49651e-10
4.52582e-09
7.93463e-09
3.80679e-09
1.8016e-09
6.06962e-10
1.9974e-10
7.71328e-11
4.61624e-11
2.8408e-11
1.26135e-11
8.38188e-12
6.71905e-12
5.40608e-12
3.83383e-12
6.02593e-12
4.72843e-08
2.54279e-08
1.50445e-08
4.95752e-09
9.88102e-10
5.18683e-10
9.17415e-10
1.73274e-09
3.98425e-09
1.1934e-08
1.0898e-08
5.22012e-09
1.40823e-09
4.08954e-10
5.69221e-11
1.63045e-11
9.76157e-12
7.1832e-12
8.01e-12
9.30929e-12
6.49664e-12
3.5568e-12
1.83226e-12
3.63437e-08
1.09124e-08
3.89533e-09
1.19302e-09
4.96273e-10
2.65458e-10
5.89103e-10
1.82911e-09
5.21868e-09
1.295e-08
8.39197e-09
2.84672e-09
3.21121e-10
3.16803e-11
1.73228e-11
9.84402e-12
6.01314e-12
3.8521e-12
2.59032e-12
1.58434e-12
1.26208e-12
7.66159e-13
3.98387e-13
4.61931e-09
2.35313e-09
2.58578e-10
6.48774e-11
5.30701e-11
5.17044e-11
4.52678e-11
4.98552e-11
1.04093e-10
1.01495e-09
3.62734e-10
4.01277e-11
1.22319e-11
4.52563e-12
2.3329e-12
1.26229e-12
6.29594e-13
3.45254e-13
2.28967e-13
1.6428e-13
1.1785e-13
8.5997e-14
7.39281e-14
4.29794e-10
1.35586e-10
3.36764e-11
2.1329e-11
1.63174e-11
2.03e-11
2.70723e-11
2.47763e-11
1.89274e-11
2.25368e-11
1.18452e-11
9.4386e-12
4.98871e-12
1.15229e-12
2.00552e-13
4.01437e-14
1.35204e-14
1.0573e-14
1.54357e-14
2.31386e-14
3.06945e-14
3.41963e-14
3.94923e-14
2.73087e-11
3.05812e-11
1.7014e-11
9.00928e-12
6.57032e-12
7.20515e-12
9.2369e-12
1.19902e-11
1.18644e-11
1.16718e-11
8.13968e-12
4.48181e-12
1.48996e-12
2.55366e-13
1.62162e-14
1.11892e-15
2.28932e-15
4.50084e-15
7.5704e-15
1.02132e-14
1.09252e-14
9.18159e-15
7.21559e-15
8.06154e-12
1.11963e-11
5.86374e-12
3.35928e-12
2.46939e-12
2.45729e-12
3.03955e-12
3.93843e-12
4.09905e-12
3.94374e-12
2.6438e-12
1.40695e-12
4.47745e-13
7.93085e-14
5.2764e-15
2.43476e-16
4.93635e-16
8.86891e-16
1.39155e-15
1.79768e-15
1.86234e-15
1.53095e-15
1.0319e-15
2.07634e-12
2.76559e-12
1.45278e-12
9.25624e-13
6.94105e-13
6.8694e-13
8.75459e-13
1.11813e-12
1.15913e-12
1.0456e-12
7.79093e-13
4.23445e-13
1.45049e-13
2.8347e-14
2.10973e-15
2.38119e-17
4.93269e-17
9.23445e-17
1.52734e-16
2.12405e-16
2.34099e-16
2.14953e-16
1.88805e-16
3.70327e-13
4.60743e-13
2.33319e-13
1.50825e-13
1.12317e-13
1.18016e-13
1.71439e-13
2.34594e-13
2.56476e-13
2.31127e-13
1.79616e-13
1.0396e-13
3.87303e-14
8.3963e-15
6.85963e-16
9.90006e-19
2.33379e-18
4.94594e-18
9.3313e-18
1.58138e-17
2.32708e-17
3.05191e-17
3.90481e-17
2.38727e-14
3.33667e-14
1.70243e-14
1.06577e-14
6.84004e-15
9.32774e-15
1.88718e-14
2.96266e-14
3.36654e-14
2.98569e-14
2.33478e-14
1.4207e-14
5.56135e-15
1.26805e-15
1.05632e-16
6.14267e-20
1.7311e-19
4.33211e-19
9.93044e-19
2.07006e-18
3.78996e-18
6.02483e-18
8.81504e-18
1.66836e-21
5.91484e-20
1.09482e-18
1.12618e-17
6.87013e-17
2.62329e-16
6.34211e-16
9.71118e-16
9.12696e-16
5.11923e-16
1.89774e-16
5.95468e-17
1.05302e-17
8.84738e-19
1.72853e-21
6.07447e-21
1.87647e-20
5.27173e-20
1.34651e-19
3.06174e-19
6.09881e-19
1.06139e-18
1.69094e-18
2.696e-37
3.29063e-35
1.54906e-33
4.07242e-32
7.36705e-31
9.97005e-30
1.07057e-28
9.49682e-28
7.16269e-27
4.76057e-26
2.8872e-25
1.62894e-24
8.54854e-24
4.07704e-23
1.74451e-22
6.64371e-22
2.31352e-21
7.27501e-21
2.0004e-20
4.78135e-20
9.87696e-20
1.79803e-19
3.03046e-19
1.48606e-38
1.1467e-36
4.49741e-35
1.17259e-33
2.21616e-32
3.23507e-31
3.83566e-30
3.81212e-29
3.31709e-28
2.63441e-27
1.86759e-26
1.19272e-25
6.8405e-25
3.51127e-24
1.58826e-23
6.42463e-23
2.33624e-22
7.53213e-22
2.13903e-21
5.39543e-21
1.21212e-20
2.46928e-20
4.68055e-20
1.77033e-40
1.8643e-38
9.03957e-37
2.67241e-35
5.48584e-34
8.55834e-33
1.08648e-31
1.17822e-30
1.13818e-29
1.00209e-28
8.12258e-28
5.876e-27
3.73366e-26
2.13528e-25
1.09064e-24
4.96234e-24
1.96678e-23
6.74379e-23
2.07001e-22
5.71766e-22
1.41659e-21
3.2259e-21
6.81828e-21
7.19673e-42
6.25809e-40
2.67927e-38
7.46216e-37
1.54989e-35
2.59438e-34
3.66705e-33
4.52307e-32
4.99067e-31
4.97245e-30
4.38588e-29
3.32986e-28
2.22324e-27
1.30585e-26
6.78421e-26
3.12614e-25
1.29187e-24
4.89707e-24
1.67986e-23
5.17309e-23
1.45112e-22
3.74318e-22
8.699e-22
3.84421e-44
4.16226e-42
2.20802e-40
7.56362e-39
1.92374e-37
3.91534e-36
6.67988e-35
9.78762e-34
1.23498e-32
1.32403e-31
1.22858e-30
1.03177e-29
7.84909e-29
5.26958e-28
3.13432e-27
1.67097e-26
8.03309e-26
3.42491e-25
1.28477e-24
4.37993e-24
1.37609e-23
3.91277e-23
9.82982e-23
6.22015e-46
7.12169e-44
4.02546e-42
1.49258e-40
4.09509e-39
8.86472e-38
1.57619e-36
2.38313e-35
3.13803e-34
3.67616e-33
3.87474e-32
3.64994e-31
3.02695e-30
2.24322e-29
1.46561e-28
8.32278e-28
4.22041e-27
1.94706e-26
8.31424e-26
3.25031e-25
1.14274e-24
3.56189e-24
9.81035e-24
3.83108e-48
4.72868e-46
2.89663e-44
1.17901e-42
3.65027e-41
9.25101e-40
1.9878e-38
3.66272e-37
5.82305e-36
8.02829e-35
9.56032e-34
9.77796e-33
8.69405e-32
6.83551e-31
4.86526e-30
3.22469e-29
1.95152e-28
1.06215e-27
5.12613e-27
2.18111e-26
8.31542e-26
2.85484e-25
8.66264e-25
2.86401e-50
4.13823e-48
2.97135e-46
1.40961e-44
4.95762e-43
1.3712e-41
3.11037e-40
5.9533e-39
9.78061e-38
1.40078e-36
1.79131e-35
2.09024e-34
2.22847e-33
2.13324e-32
1.81394e-31
1.33877e-30
8.62693e-30
4.9652e-29
2.59458e-28
1.2426e-27
5.35998e-27
2.03731e-26
6.80019e-26
1.07083e-52
1.74686e-50
1.42801e-48
7.8114e-47
3.23178e-45
1.07805e-43
2.99615e-42
7.06668e-41
1.43317e-39
2.51687e-38
3.81846e-37
4.98435e-36
5.63221e-35
5.6064e-34
4.98053e-33
4.02895e-32
2.99453e-31
2.01766e-30
1.21721e-29
6.48601e-29
3.05492e-28
1.28507e-27
4.80034e-27
5.62064e-55
1.06542e-52
9.97708e-51
6.18534e-49
2.84974e-47
1.0382e-45
3.10616e-44
7.81889e-43
1.6838e-41
3.1444e-40
5.17146e-39
7.61543e-38
1.01056e-36
1.20475e-35
1.28643e-34
1.21987e-33
1.01643e-32
7.48156e-32
4.91322e-31
2.9069e-30
1.54416e-29
7.28331e-29
3.07298e-28
1.39394e-57
3.07942e-55
3.41492e-53
2.53134e-51
1.40485e-49
6.19019e-48
2.23914e-46
6.79492e-45
1.75784e-43
3.92249e-42
7.60096e-41
1.28434e-39
1.90299e-38
2.48731e-37
2.88486e-36
2.98881e-35
2.78614e-34
2.33694e-33
1.75481e-32
1.17164e-31
6.95773e-31
3.70637e-30
1.82696e-29
3.77489e-60
9.88889e-58
1.27686e-55
1.09248e-53
6.93542e-52
3.47504e-50
1.42599e-48
4.90804e-47
1.4402e-45
3.64464e-44
8.02057e-43
1.54797e-41
2.64466e-40
4.01554e-39
5.42e-38
6.50092e-37
6.9198e-36
6.53755e-35
5.50108e-34
4.13899e-33
2.79403e-32
1.72293e-31
1.06024e-30
5.66735e-63
1.82447e-60
2.84318e-58
2.92944e-56
2.2372e-54
1.34716e-52
6.62938e-51
2.7228e-49
9.48005e-48
2.83241e-46
7.33465e-45
1.6561e-43
3.27192e-42
5.68582e-41
8.73751e-40
1.19131e-38
1.44478e-37
1.56109e-36
1.50311e-35
1.29253e-34
1.00648e-33
7.52943e-33
6.5576e-32
5.89198e-66
2.43967e-63
4.66802e-61
5.82087e-59
5.33098e-57
3.82942e-55
2.24626e-53
1.10243e-51
4.59915e-50
1.64632e-48
5.08009e-47
1.35841e-45
3.16754e-44
6.47135e-43
1.16279e-41
1.84351e-40
2.58518e-39
3.21456e-38
3.55804e-37
3.54087e-36
3.29123e-35
3.27763e-34
4.62825e-33
3.52983e-69
2.13359e-66
5.15539e-64
7.77518e-62
8.44871e-60
7.12613e-58
4.90472e-56
2.8646e-54
1.44618e-52
6.35149e-51
2.42865e-49
8.05853e-48
2.31294e-46
5.74305e-45
1.23554e-43
2.31786e-42
3.81717e-41
5.55111e-40
7.1899e-39
8.49988e-38
1.00534e-36
1.51964e-35
3.59414e-34
1.17892e-72
1.52525e-69
4.87237e-67
8.95264e-65
1.16276e-62
1.16648e-60
9.49762e-59
6.49014e-57
3.80638e-55
1.94256e-53
8.70565e-52
3.43757e-50
1.19446e-48
3.64096e-47
9.67967e-46
2.23395e-44
4.47458e-43
7.82099e-42
1.21599e-40
1.78592e-39
2.97567e-38
7.45365e-37
2.69282e-35
9.25145e-76
2.3127e-72
8.91625e-70
1.84312e-67
2.63718e-65
2.8874e-63
2.55171e-61
1.88364e-59
1.19123e-57
6.57832e-56
3.21281e-54
1.39624e-52
5.40653e-51
1.86415e-49
5.74873e-48
1.58287e-46
3.87477e-45
8.41067e-44
1.65018e-42
3.27366e-41
8.65872e-40
3.54808e-38
1.77231e-36
1.29003e-77
2.38476e-74
8.54394e-72
1.64552e-69
2.17484e-67
2.18774e-65
1.77117e-63
1.19754e-61
6.96227e-60
3.56553e-58
1.64319e-56
6.9336e-55
2.70451e-53
9.75676e-52
3.23855e-50
9.81286e-49
2.70441e-47
6.88308e-46
1.71452e-44
5.02022e-43
2.24152e-41
1.39252e-39
9.13714e-38
1.04994e-78
1.15607e-75
3.30308e-73
5.30001e-71
5.89727e-69
5.0203e-67
3.46826e-65
2.01667e-63
1.01208e-61
4.47582e-60
1.77686e-58
6.44901e-57
2.17856e-55
6.96186e-54
2.12988e-52
6.30267e-51
1.81943e-49
5.24672e-48
1.69556e-46
7.9241e-45
5.77199e-43
5.06911e-41
4.35681e-39
7.47985e-80
5.50308e-77
1.3138e-74
1.84152e-72
1.81065e-70
1.36607e-68
8.36947e-67
4.32716e-65
1.94401e-63
7.76265e-62
2.7996e-60
9.24124e-59
2.82821e-57
8.12851e-56
2.2243e-54
5.90948e-53
1.58661e-51
4.76423e-50
1.97635e-48
1.32554e-46
1.23642e-44
1.29052e-42
1.35465e-40
8.52819e-82
5.16636e-79
1.18517e-76
1.65538e-74
1.64687e-72
1.26512e-70
7.89272e-69
4.14568e-67
1.88268e-65
7.54546e-64
2.71773e-62
8.9396e-61
2.72933e-59
7.89488e-58
2.24314e-56
6.8282e-55
2.65513e-53
1.52701e-51
1.19835e-49
1.10031e-47
1.10285e-45
1.18736e-43
1.35245e-41
2.03045e-84
1.21313e-81
2.84398e-79
4.06136e-77
4.12403e-75
3.23087e-73
2.05496e-71
1.09993e-69
5.09152e-68
2.08345e-66
7.67752e-65
2.59032e-63
8.13235e-62
2.42477e-60
7.12406e-59
2.23724e-57
8.8607e-56
5.19614e-54
4.26387e-52
4.16968e-50
4.45677e-48
5.08209e-46
6.15924e-44
0.000360198
0.000940278
0.00158102
0.0025716
0.0112359
0.0166721
0.0325123
0.0580901
0.511215
0.484487
0.506313
0.554257
0.979107
0.976081
0.972565
0.968151
0.967079
0.953498
0.934773
0.913552
0.552461
0.521994
0.490044
0.45847
0.073108
0.0834118
0.0848631
0.0785656
0.000403179
0.000342535
0.000242937
0.000163756
5.512e-07
4.67541e-07
2.53769e-07
9.84862e-08
1.4232e-11
3.7418e-11
7.18961e-11
1.41641e-10
1.1961e-12
7.30292e-13
5.39355e-13
7.71268e-13
2.62082e-13
2.23043e-13
3.72149e-13
1.36559e-12
8.73928e-14
1.65732e-13
4.63227e-13
2.06046e-12
8.8827e-14
2.23936e-13
5.79479e-13
1.3985e-12
1.13591e-14
2.44441e-14
5.43454e-14
1.16215e-13
8.31506e-16
1.14397e-15
1.91128e-15
3.8507e-15
1.92254e-16
2.16195e-16
2.50049e-16
3.20079e-16
5.00866e-17
5.55829e-17
6.01602e-17
6.47189e-17
1.20745e-17
1.34911e-17
1.4699e-17
1.57558e-17
2.50983e-18
2.93005e-18
3.32825e-18
3.70534e-18
4.81812e-19
5.89208e-19
6.96676e-19
8.01975e-19
8.21169e-20
1.0588e-19
1.30477e-19
1.5557e-19
1.29585e-20
1.73523e-20
2.21243e-20
2.7249e-20
1.78147e-21
2.49178e-21
3.32309e-21
4.29274e-21
2.17093e-22
3.1861e-22
4.48655e-22
6.21604e-22
2.36686e-23
3.67589e-23
5.52733e-23
8.50575e-23
2.28665e-24
3.81329e-24
6.34458e-24
1.17683e-23
2.00378e-25
3.68971e-25
7.26104e-25
1.82412e-24
1.6075e-26
3.45409e-26
9.0374e-26
3.39953e-25
1.22578e-27
3.41986e-27
1.35178e-26
7.50023e-26
9.52944e-29
3.97509e-28
2.42653e-27
1.80101e-26
8.36613e-30
5.54803e-29
4.74588e-28
4.33886e-27
8.72677e-31
8.52652e-30
9.25078e-29
1.00107e-27
9.94281e-32
1.27944e-30
1.67247e-29
2.11417e-28
1.09914e-32
1.7448e-31
2.69851e-30
3.97664e-29
1.06671e-33
2.03813e-32
3.72132e-31
6.41871e-30
8.75104e-35
2.00897e-33
4.35808e-32
8.87012e-31
5.60045e-36
1.5634e-34
4.09092e-33
9.98002e-32
3.37616e-37
1.17302e-35
3.79302e-34
1.13748e-32
1.35565e-38
6.16346e-37
2.62994e-35
1.0427e-33
1.57435e-39
8.58504e-38
4.54714e-36
2.30791e-34
7.8564e-42
4.74717e-40
2.8289e-38
1.64544e-36
0.0216297
0.0718252
0.104451
0.101651
0.11556
0.12443
0.115275
0.0969858
0.0808381
0.0811075
0.0847045
0.0701092
0.031301
0.0239576
0.031512
0.0687441
0.0803834
0.0560626
0.0137837
0.134706
0.270812
0.384722
0.475304
0.505367
0.507533
0.482863
0.437697
0.393298
0.359803
0.321316
0.278787
0.259165
0.240415
0.21203
0.181007
0.126589
0.0622178
0.0190786
0.671234
0.779252
0.812584
0.800789
0.791459
0.766185
0.752281
0.728321
0.694894
0.662505
0.625817
0.576044
0.514232
0.433915
0.314477
0.213475
0.127849
0.0606361
0.0214987
0.954973
0.917961
0.854224
0.756363
0.703515
0.709554
0.722136
0.725663
0.72353
0.716348
0.679401
0.611601
0.539102
0.433454
0.275288
0.181304
0.106793
0.0535555
0.0197914
0.845468
0.690376
0.544193
0.413686
0.36238
0.372408
0.409472
0.476379
0.53054
0.527407
0.516027
0.47587
0.408374
0.279014
0.198276
0.101558
0.0421813
0.0352978
0.0146113
0.368565
0.278332
0.150257
0.0638084
0.0481592
0.0625184
0.125936
0.223278
0.254775
0.25613
0.228585
0.162374
0.109714
0.0647703
0.0447342
0.0330266
0.0312124
0.0149193
0.00813295
0.0514937
0.0158122
0.00174704
7.43728e-05
2.89914e-05
0.000146226
0.00295469
0.0177577
0.023688
0.021009
0.0147266
0.00658896
0.00844609
0.00812705
0.0103722
0.0121484
0.00804615
0.00653055
0.0032158
0.000102805
1.03661e-05
2.58537e-07
9.33594e-09
1.33887e-08
3.90493e-08
2.45336e-07
1.99425e-06
5.78008e-06
2.2136e-05
0.000167666
0.000469994
0.000739151
0.000488362
0.000519566
0.000680547
0.000666493
0.00157027
0.000768574
2.11502e-08
1.53883e-09
1.00631e-09
3.19487e-09
1.24225e-08
3.08821e-08
5.95648e-08
8.205e-08
6.74151e-08
1.69265e-06
2.97285e-05
6.47963e-05
5.76516e-05
2.01018e-05
5.71384e-06
4.97956e-06
1.76918e-05
0.000175514
0.000389134
1.15427e-10
1.16165e-10
7.83739e-10
7.18415e-09
3.79197e-08
9.44238e-08
1.35501e-07
1.23934e-07
4.35934e-08
9.06857e-08
1.52617e-06
7.03012e-06
1.10014e-05
4.42821e-06
1.404e-07
2.88432e-08
4.68023e-07
1.50591e-05
7.63702e-05
1.8192e-11
2.36187e-10
3.11912e-09
1.54202e-08
5.92087e-08
1.16571e-07
1.15861e-07
4.36173e-08
2.06194e-08
1.80263e-08
3.22284e-08
2.15135e-07
5.05848e-07
4.81882e-07
4.40388e-09
2.21909e-09
1.01197e-08
5.32318e-07
5.06119e-06
3.66474e-11
4.87185e-10
3.40913e-09
6.99248e-09
8.58338e-09
1.72794e-08
2.37104e-08
7.05845e-09
4.32654e-09
1.08524e-08
9.82573e-09
2.78698e-09
3.66326e-09
7.00378e-09
4.78984e-10
6.13611e-10
6.00172e-10
2.33812e-09
2.83477e-08
1.18291e-11
5.06534e-11
2.87552e-10
8.58292e-10
1.52404e-09
1.77347e-09
1.39777e-09
8.48256e-10
1.41839e-09
4.39515e-09
1.50783e-08
2.28943e-09
1.78162e-10
1.50683e-10
1.6664e-10
2.68769e-10
3.49936e-10
3.50307e-10
3.43827e-10
3.06764e-12
9.66385e-12
2.58511e-11
6.42766e-11
1.61056e-10
2.02855e-10
2.10594e-10
2.79882e-10
6.6402e-10
1.89109e-09
1.20287e-08
7.16401e-09
6.60429e-10
1.37202e-10
1.07579e-10
1.08814e-10
1.58438e-10
2.59207e-10
2.68615e-10
2.35179e-13
7.03522e-13
1.94147e-12
4.81549e-12
1.0488e-11
2.06132e-11
4.65625e-11
1.38197e-10
4.35498e-10
1.25577e-09
5.5068e-09
1.10236e-08
2.36699e-09
3.10881e-10
2.03421e-10
7.62767e-11
3.95389e-11
1.46886e-10
2.27314e-10
8.88656e-15
3.61824e-14
1.37085e-13
4.45078e-13
1.32162e-12
4.49222e-12
1.91861e-11
8.36924e-11
3.16751e-10
1.00565e-09
3.04805e-09
1.10264e-08
6.45064e-09
9.88974e-10
8.48264e-10
3.12701e-10
3.69941e-11
6.54445e-11
1.80814e-10
5.13489e-16
1.72973e-15
7.36256e-15
3.31996e-14
1.79725e-13
1.2211e-12
8.32717e-12
4.79212e-11
2.18547e-10
7.94673e-10
2.55364e-09
8.76808e-09
8.17762e-09
2.721e-09
2.20116e-09
8.42768e-10
5.07545e-11
4.65422e-11
1.58135e-10
7.38661e-17
1.38508e-16
5.70395e-16
3.95074e-15
3.63069e-14
3.58305e-13
3.14019e-12
2.2419e-11
1.24677e-10
5.24604e-10
1.73075e-09
5.20545e-09
7.33971e-09
4.49852e-09
2.65014e-09
8.63953e-10
5.20459e-11
2.96635e-11
1.31513e-10
1.67155e-17
2.05149e-17
5.0473e-17
4.12069e-16
5.37563e-15
6.96303e-14
7.77575e-13
7.07295e-12
5.01557e-11
2.64146e-10
1.00572e-09
2.94783e-09
5.88153e-09
4.09291e-09
2.3658e-09
6.60039e-10
3.83152e-11
1.52698e-11
1.05624e-10
4.0066e-18
4.6026e-18
7.10463e-18
4.17023e-17
5.94648e-16
8.99743e-15
1.20349e-13
1.34991e-12
1.20774e-11
8.21984e-11
4.07105e-10
1.49028e-09
3.72428e-09
2.99305e-09
1.65559e-09
4.09869e-10
2.44729e-11
6.95006e-12
8.26053e-11
8.91958e-19
1.07143e-18
1.51752e-18
5.20556e-18
5.1943e-17
7.80047e-16
1.18702e-14
1.58712e-13
1.74662e-12
1.53549e-11
1.03593e-10
5.07276e-10
1.63558e-09
1.70691e-09
8.33194e-10
1.94443e-10
1.39699e-11
4.06989e-12
6.40726e-11
1.79623e-19
2.37823e-19
4.00646e-19
1.30864e-18
7.2751e-18
6.40358e-17
8.5619e-16
1.27038e-14
1.70058e-13
1.92268e-12
1.69455e-11
1.07957e-10
4.58997e-10
6.99774e-10
2.88782e-10
6.93925e-11
7.17861e-12
3.05334e-12
5.27559e-11
3.29135e-20
5.05618e-20
1.15914e-19
4.73023e-19
2.37897e-18
1.25425e-17
8.16856e-17
8.42126e-16
1.17338e-14
1.665e-13
1.7879e-12
1.43399e-11
7.75583e-11
1.8244e-10
6.06091e-11
1.94284e-11
4.00333e-12
2.35023e-12
4.28219e-11
5.57077e-21
1.08825e-20
3.6247e-20
1.83832e-19
9.9355e-19
5.05518e-18
2.40292e-17
1.1957e-16
8.77684e-16
1.06345e-14
1.25981e-13
1.21225e-12
7.83773e-12
2.64439e-11
6.29282e-12
2.76443e-12
2.18601e-12
1.88203e-12
3.1222e-11
9.1005e-22
2.51334e-21
1.19839e-20
7.19593e-20
4.23872e-19
2.29915e-18
1.12804e-17
5.03588e-17
2.15629e-16
1.07629e-15
7.81608e-15
7.14395e-14
5.07276e-13
1.97477e-12
4.52295e-13
9.02509e-13
1.24411e-12
1.55012e-12
2.12759e-11
1.52538e-22
6.45079e-22
4.10501e-21
2.81713e-20
1.81893e-19
1.07393e-18
5.73904e-18
2.76746e-17
1.20525e-16
4.73175e-16
1.76109e-15
7.13017e-15
3.45237e-14
1.06245e-13
1.36716e-13
3.96682e-13
7.93576e-13
1.32194e-12
1.48803e-11
2.89699e-23
1.8581e-22
1.46729e-21
1.13958e-20
8.19435e-20
5.37972e-19
3.19555e-18
1.70794e-17
8.17366e-17
3.45612e-16
1.30441e-15
4.37125e-15
1.40498e-14
4.25905e-14
1.30942e-13
2.98251e-13
5.82923e-13
1.15895e-12
1.02966e-11
6.52644e-24
5.81523e-23
5.45462e-22
4.82823e-21
3.93354e-20
2.91926e-19
1.95594e-18
1.17581e-17
6.29728e-17
2.97006e-16
1.24161e-15
4.55791e-15
1.48357e-14
5.31916e-14
1.50086e-13
3.05553e-13
4.8301e-13
1.02049e-12
7.47368e-12
1.70396e-24
1.92131e-23
2.10314e-22
2.13539e-21
1.98634e-20
1.67787e-19
1.27678e-18
8.70617e-18
5.28546e-17
2.82737e-16
1.33187e-15
5.52119e-15
1.89969e-14
7.13838e-14
1.92116e-13
3.7633e-13
4.61072e-13
9.20839e-13
5.77317e-12
4.81088e-25
6.5077e-24
8.25096e-23
9.61196e-22
1.02111e-20
9.82393e-20
8.50768e-19
6.60085e-18
4.56367e-17
2.78082e-16
1.48422e-15
6.94266e-15
2.66302e-14
9.6941e-14
2.65318e-13
5.29828e-13
5.30456e-13
9.02521e-13
5.18744e-12
1.39032e-25
2.20248e-24
3.21795e-23
4.29073e-22
5.19327e-21
5.67514e-20
5.56972e-19
4.88451e-18
3.81739e-17
2.62646e-16
1.57396e-15
8.15738e-15
3.47366e-14
1.3086e-13
3.61985e-13
7.36195e-13
7.17775e-13
1.00519e-12
5.70038e-12
3.9142e-26
7.18555e-25
1.20537e-23
1.83541e-22
2.52637e-21
3.13132e-20
3.47334e-19
3.42957e-18
2.99949e-17
2.29869e-16
1.52193e-15
8.59608e-15
4.00491e-14
1.57224e-13
4.61362e-13
9.42814e-13
1.07062e-12
1.28245e-12
6.4058e-12
1.04363e-26
2.2092e-25
4.24327e-24
7.36125e-23
1.14901e-21
1.60694e-20
2.00114e-19
2.20448e-18
2.12855e-17
1.78039e-16
1.26513e-15
7.55535e-15
3.71261e-14
1.51715e-13
4.79539e-13
1.09807e-12
1.56522e-12
1.9291e-12
6.91438e-12
2.54397e-27
6.21233e-26
1.36803e-24
2.70598e-23
4.79057e-22
7.54845e-21
1.05191e-19
1.2848e-18
1.35829e-17
1.22159e-16
9.15149e-16
5.61108e-15
2.77145e-14
1.13778e-13
3.82372e-13
1.02904e-12
1.8695e-12
2.89888e-12
7.13016e-12
5.53519e-28
1.56343e-26
3.95859e-25
8.95299e-24
1.80101e-22
3.20418e-21
5.00336e-20
6.78032e-19
7.86856e-18
7.67516e-17
6.09967e-16
3.86006e-15
1.88779e-14
7.48719e-14
2.51634e-13
7.5929e-13
1.63072e-12
2.89599e-12
6.97077e-12
1.0396e-28
3.41444e-27
9.98831e-26
2.59373e-24
5.95077e-23
1.19868e-21
2.10256e-20
3.17456e-19
4.07059e-18
4.31992e-17
3.68767e-16
2.4678e-15
1.2433e-14
4.76719e-14
1.46079e-13
4.51337e-13
1.10419e-12
2.43041e-12
6.49464e-12
1.68586e-29
6.48516e-28
2.20583e-26
6.6151e-25
1.74143e-23
3.99821e-22
7.93386e-21
1.34896e-19
1.92345e-18
2.24733e-17
2.09862e-16
1.51931e-15
8.28501e-15
3.23165e-14
9.56888e-14
2.51333e-13
6.06335e-13
1.91483e-12
5.81746e-12
2.26053e-30
1.0322e-28
4.13334e-27
1.4479e-25
4.42287e-24
1.17163e-22
2.67118e-21
5.16975e-20
8.29628e-19
1.08222e-17
1.12408e-16
8.95879e-16
5.50375e-15
2.25663e-14
7.71071e-14
1.7386e-13
3.31665e-13
1.44551e-12
4.99532e-12
3.152e-31
1.75068e-29
8.44555e-28
3.53735e-26
1.2803e-24
3.9815e-23
1.05675e-21
2.34782e-20
4.28577e-19
6.31085e-18
7.34484e-17
6.51661e-16
4.52545e-15
2.01457e-14
8.34e-14
1.65265e-13
2.44696e-13
1.11346e-12
4.04212e-12
3.81354e-32
2.77841e-30
1.74108e-28
9.38591e-27
4.35183e-25
1.73025e-23
5.8205e-22
1.62451e-20
3.68928e-19
6.64434e-18
9.20041e-17
9.46001e-16
6.96251e-15
3.50788e-14
1.10216e-13
2.08649e-13
2.427e-13
9.63072e-13
3.00957e-12
1.10516e-32
1.07757e-30
8.96487e-29
6.28062e-27
3.66741e-25
1.76718e-23
6.9955e-22
2.2459e-20
5.72719e-19
1.12526e-17
1.62983e-16
1.65661e-15
1.05021e-14
4.32439e-14
1.02769e-13
1.08507e-13
2.67222e-13
7.56992e-13
2.01987e-12
9.24773e-35
1.1467e-32
1.29182e-30
1.29686e-28
1.15974e-26
8.81048e-25
5.19415e-23
2.39894e-21
8.6158e-20
2.32364e-18
4.43218e-17
5.51884e-16
4.22684e-15
1.49202e-14
4.47828e-14
2.43656e-14
2.59952e-13
6.10581e-13
1.46256e-12
)
;

boundaryField
{
    leftWall
    {
        type            zeroGradient;
    }
    rightWall
    {
        type            zeroGradient;
    }
    lowerWall
    {
        type            zeroGradient;
    }
    atmosphere
    {
        type            inletOutlet;
        inletValue      uniform 0;
        value           nonuniform List<scalar> 
46
(
0
0
0
0
0
0
0
0
0
0
0
0
0
0
0
0
0
0
0
0
0
0
0
0
0
0
0
0
0
0
0
1.15974e-26
8.81048e-25
5.19415e-23
2.39894e-21
8.6158e-20
2.32364e-18
4.43218e-17
5.51884e-16
4.22684e-15
0
4.47828e-14
0
2.59952e-13
6.10581e-13
1.46256e-12
)
;
    }
    defaultFaces
    {
        type            empty;
    }
}


// ************************************************************************* //
