/*--------------------------------*- C++ -*----------------------------------*\
| =========                 |                                                 |
| \\      /  F ield         | OpenFOAM: The Open Source CFD Toolbox           |
|  \\    /   O peration     | Version:  2.4.0                                 |
|   \\  /    A nd           | Web:      www.OpenFOAM.org                      |
|    \\/     M anipulation  |                                                 |
\*---------------------------------------------------------------------------*/
FoamFile
{
    version     2.0;
    format      ascii;
    class       volScalarField;
    location    "0.5";
    object      alpha.mercury;
}
// * * * * * * * * * * * * * * * * * * * * * * * * * * * * * * * * * * * * * //

dimensions      [0 0 0 0 0 0 0];

internalField   nonuniform List<scalar> 
2268
(
1
1
1
1
1
1
1
1
1
1
1
1
1
1
1
1
1
1
1
1
1
0.999999
0.999986
1
1
1
1
1
1
1
1
1
1
1
1
1
1
1
1
1
1
1
1
1
0.999999
0.999984
0.999999
0.999999
0.999999
0.999998
0.999999
0.999999
0.999997
0.999997
0.999997
0.999997
0.999994
0.999995
0.999996
0.999999
1
1
1
1
1
1
1
0.999999
0.999985
0.998924
0.998776
0.999018
0.998205
0.99868
0.998327
0.99712
0.997236
0.996833
0.996652
0.995247
0.995646
0.996456
0.998281
0.99965
0.999944
0.999991
0.999998
0.999999
0.999999
1
0.999999
0.999985
0.897779
0.891518
0.897887
0.872429
0.880727
0.864622
0.831948
0.825173
0.805487
0.790294
0.758908
0.753202
0.757834
0.796676
0.885449
0.970368
0.997365
0.999882
0.999991
0.999998
0.999999
0.999999
0.999984
0.222697
0.211728
0.216427
0.181911
0.185396
0.162585
0.126125
0.111415
0.0924647
0.0767605
0.0570439
0.0453008
0.0366996
0.0406858
0.0611501
0.212467
0.568318
0.926871
0.996021
0.99989
0.999997
0.999998
0.999982
0.000194107
0.000171183
0.000165464
0.000116032
0.000106418
8.02717e-05
5.38246e-05
4.07837e-05
3.11222e-05
2.36003e-05
1.80727e-05
1.42122e-05
1.16133e-05
9.92328e-06
3.44477e-05
0.00212649
0.0458088
0.436933
0.936239
0.9979
0.999957
0.999996
0.999978
1.30334e-05
1.27362e-05
1.22503e-05
1.20069e-05
1.12065e-05
1.01535e-05
1.00584e-05
9.35311e-06
8.41657e-06
8.30706e-06
8.47323e-06
8.53899e-06
8.60144e-06
8.66017e-06
8.85667e-06
8.87503e-06
0.00041535
0.0550426
0.661671
0.987794
0.99979
0.999996
0.999976
0.0038837
0.00398309
0.00511121
0.0114351
0.0200099
0.0326631
0.0503294
0.0675631
0.0801741
0.0935631
0.107484
0.124557
0.168217
0.233785
0.334049
0.384937
0.387772
0.389369
0.390154
0.00315726
0.0025733
0.00199604
0.00157698
0.0016216
0.0038608
0.0088773
0.0157613
0.0190521
0.0147226
0.0106953
0.000668374
0.000107181
0.00041639
0.00790283
0.0558145
0.198821
0.389027
0.390936
0.00769357
0.0130136
0.01162
0.00941585
0.0114601
0.0206278
0.0332082
0.0476601
0.0589617
0.0513999
0.0210282
0.00225304
0.000133811
0.000284593
0.00265391
0.0422319
0.0686155
0.251886
0.391716
0.021142
0.0353831
0.0332584
0.0316065
0.0392635
0.0555899
0.071111
0.0842716
0.098926
0.108611
0.0756628
0.0155484
0.0012596
0.000290094
0.00373639
0.059497
0.068633
0.092198
0.392497
0.0476552
0.0787494
0.0799793
0.0805942
0.093757
0.114416
0.120307
0.119365
0.12479
0.140589
0.126955
0.0432572
0.00350478
0.000375377
0.00499198
0.0483882
0.0800027
0.0585247
0.346562
0.102165
0.148759
0.157667
0.160734
0.177846
0.189451
0.178013
0.155434
0.146534
0.157656
0.166076
0.0768087
0.004144
0.000392236
0.00574541
0.0424761
0.0851229
0.0507307
0.291489
0.21276
0.245286
0.25554
0.255343
0.261924
0.249801
0.22005
0.183604
0.157344
0.162076
0.166898
0.0749994
0.00179916
0.000390561
0.00171295
0.0732078
0.0852388
0.0397846
0.235983
0.440768
0.390448
0.34254
0.341292
0.318995
0.279633
0.236466
0.193796
0.161155
0.163915
0.166374
0.122603
0.013753
0.00106425
0.00214166
0.0681843
0.076994
0.0255542
0.183565
1.1169e-05
1.10037e-05
1.06304e-05
1.09015e-05
1.02464e-05
9.01175e-06
9.08676e-06
8.14297e-06
7.29584e-06
6.98787e-06
7.30409e-06
7.53542e-06
8.19841e-06
8.4886e-06
9.34352e-06
1.07206e-05
1.60174e-05
0.00292091
0.13926
0.758371
0.989729
0.99914
0.9999
1.31942e-06
1.29943e-06
1.27166e-06
1.282e-06
1.23153e-06
1.12852e-06
1.13346e-06
1.05481e-06
9.08475e-07
8.75989e-07
9.01184e-07
9.24833e-07
1.01701e-06
1.10026e-06
1.33653e-06
2.17853e-06
3.13596e-06
2.50556e-05
0.00554512
0.15563
0.625137
0.907471
0.982536
1.65882e-07
1.59131e-07
1.57649e-07
1.55096e-07
1.47672e-07
1.12407e-07
9.88879e-08
6.88485e-08
5.23728e-08
4.40452e-08
4.49086e-08
4.72751e-08
5.81095e-08
7.46017e-08
1.0269e-07
2.05774e-07
9.41874e-07
1.02288e-06
9.72802e-05
0.00927656
0.0872745
0.226865
0.405317
6.13183e-09
5.86897e-09
5.9739e-09
6.04921e-09
5.97138e-09
4.59858e-09
3.37688e-09
1.8563e-09
1.3281e-09
1.08214e-09
1.04732e-09
1.15512e-09
1.5913e-09
2.31295e-09
3.85229e-09
7.51628e-09
5.80426e-08
1.34461e-07
1.0935e-05
0.000170826
0.0029351
0.0102371
0.013572
3.15347e-11
3.10535e-11
3.31782e-11
3.51347e-11
3.3285e-11
2.3674e-11
1.34416e-11
6.82716e-12
5.18622e-12
4.6004e-12
6.90161e-12
9.90141e-12
1.24875e-11
1.91295e-11
2.84025e-11
6.8929e-11
5.32004e-10
3.88275e-09
1.64059e-07
1.80232e-05
0.000382703
0.00121776
0.00112513
1.54211e-14
6.73419e-15
4.03473e-15
3.76805e-15
4.79772e-15
5.20067e-15
3.6645e-15
4.09374e-15
9.27197e-15
1.99708e-14
4.04873e-14
8.11646e-14
1.57614e-13
2.84451e-13
5.03551e-13
1.16555e-12
1.72036e-12
4.92236e-11
2.65547e-10
2.52824e-07
4.33338e-06
6.57233e-06
9.08222e-06
2.23302e-24
6.14289e-23
9.68274e-22
9.8167e-21
1.97965e-18
6.07551e-18
1.09513e-15
8.24886e-15
2.03031e-14
3.85663e-14
8.19027e-14
1.8677e-13
4.11965e-13
8.8293e-13
1.76382e-12
3.30061e-12
5.85223e-12
1.03891e-11
1.97938e-11
3.10232e-10
9.09318e-09
1.12961e-07
5.97744e-07
3.24883e-23
8.12404e-22
1.01918e-20
7.82401e-20
3.93318e-19
2.23885e-18
1.47944e-16
1.01918e-15
1.16832e-15
6.87509e-15
3.23989e-14
1.06356e-13
2.42665e-13
5.66452e-13
1.265e-12
2.72979e-12
5.12378e-12
1.06483e-11
2.98673e-11
1.01967e-09
1.26527e-08
5.49067e-08
1.61235e-07
1.13536e-23
2.27854e-22
2.60699e-21
2.08454e-20
1.1437e-19
8.04906e-19
5.6203e-18
1.12478e-16
1.15946e-15
4.36464e-16
8.60398e-17
2.38006e-17
5.5812e-17
4.63926e-16
2.81775e-15
1.21529e-14
4.0233e-14
8.49306e-14
1.66541e-13
5.13133e-13
5.38011e-11
1.33485e-10
4.25957e-10
1.04973e-26
2.22232e-25
2.98452e-24
3.87541e-23
8.70945e-22
6.61364e-20
2.56896e-18
4.07562e-17
5.8509e-16
1.87778e-16
2.04957e-17
2.2991e-19
2.16722e-19
1.48764e-18
1.85524e-17
2.65903e-16
5.71986e-16
1.27424e-16
3.26881e-17
4.94527e-17
2.81295e-16
3.98215e-15
1.34457e-14
1.25364e-28
1.33613e-26
9.33035e-25
4.5824e-23
1.53197e-21
3.31499e-20
5.77816e-19
5.09396e-18
1.70344e-16
4.97075e-17
8.71998e-18
1.15896e-18
1.20644e-19
4.62044e-20
2.28623e-19
1.02612e-18
3.5315e-18
1.15545e-17
2.93089e-17
8.30216e-17
2.49659e-16
1.46899e-15
6.92935e-15
1.2209e-32
5.62259e-31
9.17412e-29
1.34058e-26
3.10228e-24
3.28569e-22
1.77444e-20
4.33015e-19
1.30182e-17
3.77687e-18
3.27401e-19
3.17317e-20
1.03423e-20
9.14266e-20
6.53079e-19
3.27888e-18
1.26075e-17
3.91813e-17
9.81127e-17
2.17787e-16
6.20084e-16
3.01091e-15
1.34279e-14
4.55962e-35
2.8263e-34
2.88805e-33
2.05546e-31
6.98936e-29
2.42877e-27
2.25988e-26
1.08276e-25
3.28601e-25
9.55477e-21
2.61729e-22
1.10296e-21
1.80693e-20
2.0392e-19
1.42593e-18
7.35008e-18
3.09517e-17
1.04074e-16
2.91964e-16
7.56844e-16
2.17316e-15
7.48963e-15
2.60072e-14
7.50058e-38
3.89408e-36
7.52091e-34
1.10541e-31
2.00739e-29
1.51605e-27
2.12084e-26
1.52385e-25
7.59411e-25
5.40602e-24
1.02633e-22
2.3689e-21
3.61169e-20
4.0324e-19
2.66059e-18
1.29258e-17
5.03636e-17
1.67749e-16
5.0525e-16
1.46494e-15
4.37578e-15
1.35698e-14
4.22099e-14
9.76326e-39
1.10651e-35
2.2165e-33
3.07227e-31
2.89163e-29
1.12477e-27
1.70127e-26
1.56379e-25
1.17141e-24
9.97606e-24
1.74157e-22
3.69743e-21
5.19205e-20
4.12122e-19
2.32142e-18
1.02017e-17
3.75188e-17
1.19513e-16
3.42495e-16
9.15231e-16
2.49327e-15
7.21593e-15
2.10265e-14
2.90044e-38
3.03177e-35
5.32139e-33
6.87115e-31
2.90757e-29
6.6174e-28
9.75444e-27
1.07497e-25
1.09694e-24
1.17075e-23
1.77684e-22
2.23001e-21
2.03036e-20
1.23523e-19
5.4267e-19
1.93448e-18
6.16327e-18
1.84841e-17
5.47223e-17
1.60045e-16
4.6283e-16
1.31579e-15
3.60083e-15
7.03799e-38
5.63648e-35
8.78681e-33
4.71334e-31
1.3605e-29
2.55129e-28
3.57933e-27
4.28836e-26
4.90893e-25
5.29536e-24
5.85408e-23
4.86019e-22
3.18364e-21
1.723e-20
6.97449e-20
2.30385e-19
6.95851e-19
2.04624e-18
5.96572e-18
1.71987e-17
4.72666e-17
1.24891e-16
3.21507e-16
1.09586e-37
2.96606e-35
2.23586e-33
9.00629e-32
2.42247e-30
4.60474e-29
6.9197e-28
8.74779e-27
9.89922e-26
9.2555e-25
7.70707e-24
5.06384e-23
2.76351e-22
1.23132e-21
4.27362e-21
1.33019e-20
3.97014e-20
1.15772e-19
3.30721e-19
9.40936e-19
2.55115e-18
6.28965e-18
1.42927e-17
2.04494e-38
2.44123e-36
1.57612e-34
6.84384e-33
2.09922e-31
4.58308e-30
7.49261e-29
9.52184e-28
9.46516e-27
7.43647e-26
5.02457e-25
3.07171e-24
1.74558e-23
8.4884e-23
3.75179e-22
1.52772e-21
5.39107e-21
1.69973e-20
4.95468e-20
1.32132e-19
3.11531e-19
6.40025e-19
1.20665e-18
1.08622e-39
1.8411e-37
1.51216e-35
6.89918e-34
1.97344e-32
4.00689e-31
5.94728e-30
6.86101e-29
6.38949e-28
5.07251e-27
3.66557e-26
2.47454e-25
1.51775e-24
8.33534e-24
4.10342e-23
1.73584e-22
6.37559e-22
2.11172e-21
6.31294e-21
1.67583e-20
3.92361e-20
8.14431e-20
1.56655e-19
7.85957e-41
1.40679e-38
9.22474e-37
3.41036e-35
8.8263e-34
1.73403e-32
2.74338e-31
3.60335e-30
3.98843e-29
3.79237e-28
3.15877e-27
2.34127e-26
1.54414e-25
8.91482e-25
4.49721e-24
1.99133e-23
8.01235e-23
2.89636e-22
9.12318e-22
2.50389e-21
5.99973e-21
1.28763e-20
2.58897e-20
5.39881e-42
6.03154e-40
3.43972e-38
1.33565e-36
3.78074e-35
8.25211e-34
1.44827e-32
2.08322e-31
2.53834e-30
2.70443e-29
2.44753e-28
1.90765e-27
1.29193e-26
7.68518e-26
3.98362e-25
1.83808e-24
7.6122e-24
2.79856e-23
9.11523e-23
2.66122e-22
7.01645e-22
1.70301e-21
3.87435e-21
9.14728e-44
1.47788e-41
1.05784e-39
4.57711e-38
1.3616e-36
3.03937e-35
5.40938e-34
7.98837e-33
1.01361e-31
1.12685e-30
1.10997e-29
9.44925e-29
6.9305e-28
4.53398e-27
2.64236e-26
1.37284e-25
6.22934e-25
2.45969e-24
8.76747e-24
2.83562e-23
8.30802e-23
2.25306e-22
5.6751e-22
6.56845e-45
8.23933e-43
4.99398e-41
1.96186e-39
5.68658e-38
1.30206e-36
2.4425e-35
3.85238e-34
5.22995e-33
6.19725e-32
6.34494e-31
5.51456e-30
4.1842e-29
2.78397e-28
1.64182e-27
8.6327e-27
4.10287e-26
1.80429e-25
7.22521e-25
2.61281e-24
8.65126e-24
2.63655e-23
7.2327e-23
4.41692e-47
7.10872e-45
5.37507e-43
2.56472e-41
8.82783e-40
2.35103e-38
5.06874e-37
9.08491e-36
1.36448e-34
1.70673e-33
1.82586e-32
1.7572e-31
1.52656e-30
1.16999e-29
7.95599e-29
4.86256e-28
2.69057e-27
1.32521e-26
5.76735e-26
2.28925e-25
8.38432e-25
2.7817e-24
8.2066e-24
1.26216e-48
1.97241e-46
1.47068e-44
7.04873e-43
2.44504e-41
6.54467e-40
1.40887e-38
2.53114e-37
3.89796e-36
5.27339e-35
6.35473e-34
6.79416e-33
6.37364e-32
5.34618e-31
3.96448e-30
2.56619e-29
1.48914e-28
7.88886e-28
3.87922e-27
1.74773e-26
7.09214e-26
2.56516e-25
8.32575e-25
9.90099e-51
1.62118e-48
1.27991e-46
6.60422e-45
2.54328e-43
7.85066e-42
2.01131e-40
4.33495e-39
7.94081e-38
1.24849e-36
1.68544e-35
1.94978e-34
1.96169e-33
1.74748e-32
1.41189e-31
1.06353e-30
7.31561e-30
4.52762e-29
2.48687e-28
1.20718e-27
5.27717e-27
2.10009e-26
7.60741e-26
1.08283e-52
2.0043e-50
1.78741e-48
1.03186e-46
4.32984e-45
1.40428e-43
3.68414e-42
8.07174e-41
1.50699e-39
2.44122e-38
3.5213e-37
4.62687e-36
5.54641e-35
5.96044e-34
5.68335e-33
4.70309e-32
3.4042e-31
2.207e-30
1.30389e-29
7.09362e-29
3.50332e-28
1.55524e-27
6.4284e-27
5.2445e-55
1.06335e-52
1.05204e-50
6.85333e-49
3.32691e-47
1.28512e-45
4.08889e-44
1.09365e-42
2.49638e-41
4.90573e-40
8.29355e-39
1.20346e-37
1.51083e-36
1.67242e-35
1.6553e-34
1.49536e-33
1.24361e-32
9.39432e-32
6.37419e-31
3.84395e-30
2.07941e-29
1.0463e-28
5.25742e-28
3.80012e-57
8.59732e-55
9.39948e-53
6.71235e-51
3.52091e-49
1.44648e-47
4.84424e-46
1.3577e-44
3.24438e-43
6.71119e-42
1.22201e-40
1.9927e-39
2.92901e-38
3.8685e-37
4.57763e-36
4.81293e-35
4.45265e-34
3.65026e-33
2.68517e-32
1.80059e-31
1.11652e-30
6.68715e-30
4.44954e-29
1.15264e-59
2.97268e-57
3.78181e-55
3.18303e-53
1.98838e-51
9.7917e-50
3.93619e-48
1.32177e-46
3.77175e-45
9.26254e-44
1.97231e-42
3.65906e-41
5.9526e-40
8.54823e-39
1.09075e-37
1.24579e-36
1.2841e-35
1.19634e-34
1.00653e-33
7.69305e-33
5.56173e-32
4.26769e-31
4.17468e-30
3.86224e-62
1.15152e-59
1.66942e-57
1.59181e-55
1.11936e-53
6.1834e-52
2.7875e-50
1.05135e-48
3.3752e-47
9.33654e-46
2.24528e-44
4.73631e-43
8.8494e-42
1.47082e-40
2.17598e-39
2.86623e-38
3.36124e-37
3.52107e-36
3.33733e-35
2.95799e-34
2.67373e-33
2.9285e-32
4.3627e-31
6.69618e-65
2.42334e-62
4.19483e-60
4.77354e-58
4.0081e-56
2.64424e-54
1.42183e-52
6.36833e-51
2.41479e-49
7.85137e-48
2.21185e-46
5.43384e-45
1.16867e-43
2.21302e-42
3.71181e-41
5.53805e-40
7.38512e-39
8.87259e-38
9.80306e-37
1.06273e-35
1.32115e-34
2.22258e-33
4.78634e-32
7.88451e-68
3.63554e-65
7.65723e-63
1.04592e-60
1.0455e-58
8.1757e-57
5.21169e-55
2.77676e-53
1.25686e-51
4.88004e-50
1.63326e-48
4.73788e-47
1.1992e-45
2.66217e-44
5.20674e-43
9.0147e-42
1.39083e-40
1.94311e-39
2.57871e-38
3.69417e-37
6.93966e-36
1.75742e-34
5.04133e-33
5.20104e-71
3.49155e-68
9.21555e-66
1.51066e-63
1.77959e-61
1.62511e-59
1.21041e-57
7.65026e-56
4.18011e-54
1.98742e-52
8.22956e-51
2.95836e-49
9.20394e-48
2.47941e-46
5.79749e-45
1.18741e-43
2.163e-42
3.62744e-41
6.16463e-40
1.28883e-38
3.75145e-37
1.32687e-35
4.80648e-34
1.90731e-74
2.75966e-71
9.55854e-69
1.89564e-66
2.65302e-64
2.86561e-62
2.51091e-60
1.84624e-58
1.16542e-56
6.40569e-55
3.09469e-53
1.31884e-51
4.95264e-50
1.63457e-48
4.72025e-47
1.19252e-45
2.6795e-44
5.69993e-43
1.35481e-41
4.41022e-40
1.88999e-38
8.75101e-37
3.90836e-35
1.80941e-77
4.91689e-74
2.02284e-71
4.45138e-69
6.77487e-67
7.88887e-65
7.41622e-63
5.82689e-61
3.92579e-59
2.31268e-57
1.20705e-55
5.6182e-54
2.33616e-52
8.67921e-51
2.90057e-49
8.78183e-48
2.47817e-46
7.2146e-45
2.66741e-43
1.36989e-41
8.16982e-40
4.81725e-38
2.64521e-36
3.20685e-79
6.19234e-76
2.31586e-73
4.65878e-71
6.43814e-69
6.781e-67
5.75774e-65
4.0908e-63
2.50443e-61
1.35364e-59
6.60016e-58
2.95468e-56
1.22685e-54
4.73503e-53
1.69854e-51
5.72107e-50
1.91755e-48
7.60009e-47
4.33994e-45
3.29878e-43
2.65766e-41
2.00633e-39
1.37311e-37
3.08751e-80
3.50842e-77
1.0356e-74
1.71881e-72
1.9809e-70
1.74928e-68
1.25572e-66
7.60123e-65
3.9797e-63
1.84048e-61
7.66192e-60
2.92612e-58
1.04535e-56
3.56715e-55
1.19459e-53
4.16224e-52
1.72327e-50
1.01095e-48
8.33915e-47
8.02339e-45
7.90942e-43
7.51058e-41
6.5495e-39
2.44109e-81
1.84697e-78
4.53822e-76
6.55322e-74
6.64518e-72
5.17701e-70
3.27993e-68
1.75652e-66
8.18995e-65
3.40208e-63
1.2803e-61
4.43088e-60
1.43529e-58
4.47169e-57
1.41729e-55
5.16276e-54
2.56558e-52
1.8246e-50
1.64505e-48
1.66967e-46
1.783e-44
1.92096e-42
2.02669e-40
2.88269e-83
1.79696e-80
4.24491e-78
6.11163e-76
6.2743e-74
4.97986e-72
3.21442e-70
1.74986e-68
8.25569e-67
3.45187e-65
1.3095e-63
4.65489e-62
1.65045e-60
6.61261e-59
3.48192e-57
2.4469e-55
2.03177e-53
1.8111e-51
1.67803e-49
1.61642e-47
1.6389e-45
1.76765e-43
2.01226e-41
6.20361e-86
3.80082e-83
9.15074e-81
1.34416e-78
1.40644e-76
1.13764e-74
7.48789e-73
4.15857e-71
2.00399e-69
8.57972e-68
3.34047e-66
1.22028e-64
4.43657e-63
1.81041e-61
9.70654e-60
7.05617e-58
6.17589e-56
5.87607e-54
5.85067e-52
6.06605e-50
6.58229e-48
7.52944e-46
9.12628e-44
0.999371
0.997631
0.994094
0.987884
0.98798
0.981682
0.964021
0.933335
0.480101
0.50649
0.483998
0.433968
0.0157151
0.0166715
0.0174481
0.0183574
0.000892409
0.000666931
0.000499904
0.000377455
9.78567e-06
9.92663e-06
1.04946e-05
1.16493e-05
1.10373e-06
1.52823e-06
1.94891e-06
2.29986e-06
1.89066e-07
1.81335e-07
1.72666e-07
1.7134e-07
5.61399e-10
4.08757e-10
1.67075e-10
6.22749e-11
2.20489e-14
3.98632e-14
7.21663e-14
1.36176e-13
1.6946e-14
4.48579e-14
1.11923e-13
2.74332e-13
4.14999e-14
1.13457e-13
2.78585e-13
6.76173e-13
8.31216e-14
1.92e-13
4.23071e-13
1.00511e-12
1.30869e-13
2.61108e-13
5.11545e-13
9.93955e-13
5.80452e-14
1.03845e-13
1.85599e-13
3.45335e-13
9.43051e-15
1.68181e-14
3.14986e-14
6.60123e-14
8.0255e-16
1.3788e-15
2.51526e-15
5.35303e-15
3.0963e-17
4.99417e-17
9.65043e-17
2.56808e-16
2.15791e-18
3.03249e-18
5.21106e-18
1.38619e-17
2.84962e-19
3.86278e-19
5.52118e-19
1.02002e-18
4.96189e-20
6.89449e-20
9.47843e-20
1.38117e-19
8.18039e-21
1.19679e-20
1.70052e-20
2.44593e-20
1.28866e-21
1.96292e-21
2.92893e-21
4.52808e-21
1.7659e-22
2.85031e-22
4.6376e-22
8.28139e-22
2.1804e-23
3.82026e-23
7.12462e-23
1.58493e-22
2.47767e-24
4.9186e-24
1.12576e-23
3.29256e-23
2.61942e-25
6.32839e-25
1.92947e-24
7.51361e-24
2.7717e-26
8.9205e-26
3.72471e-25
1.83275e-24
3.1183e-27
1.40601e-26
7.72951e-26
4.57992e-25
3.939e-28
2.42917e-27
1.65929e-26
1.15201e-25
5.48292e-29
4.3435e-28
3.55202e-27
2.86807e-26
7.88722e-30
7.64057e-29
7.35965e-28
6.89741e-27
1.10838e-30
1.28231e-29
1.44662e-28
1.57223e-27
1.43558e-31
1.96704e-30
2.59757e-29
3.27816e-28
1.65529e-32
2.68211e-31
4.15178e-30
6.09995e-29
1.62119e-33
3.1148e-32
5.67718e-31
9.76336e-30
1.32827e-34
3.05064e-33
6.60282e-32
1.34045e-30
8.46574e-36
2.36061e-34
6.16382e-33
1.50051e-31
5.07948e-37
1.76197e-35
5.68683e-34
1.70246e-32
2.02699e-38
9.20177e-37
3.9205e-35
1.5523e-33
2.33991e-39
1.27458e-37
6.74417e-36
3.41998e-34
1.16343e-41
7.02523e-40
4.18381e-38
2.43217e-36
0.781012
0.600399
0.445784
0.397082
0.327154
0.260713
0.215166
0.185379
0.158015
0.156057
0.167251
0.166549
0.166819
0.157924
0.156603
0.128569
0.0490243
0.0100745
0.129098
0.834405
0.653465
0.478235
0.287142
0.173704
0.121482
0.103792
0.0993417
0.0979838
0.0979254
0.116783
0.147187
0.145838
0.124843
0.0737442
0.029421
0.00893177
0.00317365
0.0818378
0.311611
0.190112
0.124843
0.084159
0.0408547
0.0279031
0.0228741
0.026692
0.0359945
0.0427073
0.0417817
0.0362451
0.0262476
0.0141781
0.00661386
0.00348109
0.00212797
0.00152563
0.0495592
0.0189441
0.0154234
0.0117294
0.00842952
0.00481982
0.00309872
0.00344002
0.00679936
0.0129534
0.0195607
0.0195005
0.0160768
0.0103646
0.00451711
0.00173451
0.00149888
0.00135702
0.000902278
0.026657
0.000284213
0.000286183
0.000367983
0.00051353
0.000495279
0.000446454
0.000565633
0.00151692
0.00565987
0.007125
0.00758348
0.00633907
0.00341371
0.0011061
0.00133587
0.00138837
0.000779402
0.000505331
0.0122642
1.57232e-05
3.02439e-05
3.49878e-05
3.0861e-05
2.66144e-05
2.94127e-05
9.3947e-05
0.000726172
0.00171711
0.00282521
0.00236029
0.0012577
0.0005307
0.000264722
0.000433813
0.00146513
0.00170516
0.000394267
0.00463942
2.52084e-06
1.88066e-06
7.3957e-07
2.06547e-07
1.62124e-07
3.46571e-07
2.55352e-06
2.67428e-05
7.65312e-05
9.26642e-05
8.75724e-05
5.44023e-05
4.4477e-05
8.69248e-05
0.000315237
0.0010731
0.00106339
0.000418059
0.00148061
1.12811e-07
2.52499e-08
1.47611e-09
5.10584e-10
9.59972e-10
2.37295e-09
6.7647e-09
3.17044e-08
7.85793e-08
4.2746e-07
2.46107e-06
1.20816e-05
2.81458e-05
4.30922e-05
9.38665e-05
0.00015982
0.000193037
0.000342656
0.000720781
1.14228e-11
9.08402e-12
4.01894e-11
1.82504e-10
8.68666e-10
2.45045e-09
4.31929e-09
1.14882e-08
1.87791e-08
3.42923e-08
1.23475e-06
9.38632e-06
2.00464e-05
2.91082e-05
3.57698e-05
3.87297e-05
7.25024e-05
0.000284511
0.000788952
7.5499e-13
5.58088e-12
4.3519e-11
4.17538e-10
2.63444e-09
7.2291e-09
1.54665e-08
2.83371e-08
3.33479e-08
3.24476e-08
2.02902e-07
3.75898e-06
1.46102e-05
2.47829e-05
3.04406e-05
3.62294e-05
5.55725e-05
0.00018152
0.000462619
1.51877e-12
1.08549e-11
1.35594e-10
1.08261e-09
4.82818e-09
1.13224e-08
2.30251e-08
3.86382e-08
5.17172e-08
3.98718e-08
4.1936e-08
5.31806e-07
5.40194e-06
1.52898e-05
2.23373e-05
2.67317e-05
3.08954e-05
5.03794e-05
9.66424e-05
2.76418e-12
2.26645e-11
1.70629e-10
1.18754e-09
4.13694e-09
8.78277e-09
1.64732e-08
2.91645e-08
4.04526e-08
5.15988e-08
3.25427e-08
2.44983e-08
5.09498e-07
3.70053e-06
8.25563e-06
9.99336e-06
8.38484e-06
5.70124e-06
5.32048e-06
3.2632e-12
1.44694e-11
7.68537e-11
4.26968e-10
2.42982e-09
5.25632e-09
8.17616e-09
1.22359e-08
1.9069e-08
3.37342e-08
4.32224e-08
1.01429e-08
1.07386e-08
1.54254e-07
8.30973e-07
1.33539e-06
1.44013e-06
1.13459e-06
1.10596e-06
2.06062e-12
8.41924e-12
4.17955e-11
2.1153e-10
9.49688e-10
1.84771e-09
3.36604e-09
6.15311e-09
1.09541e-08
1.92333e-08
4.32779e-08
1.10416e-08
7.47154e-09
7.47159e-09
1.43148e-08
4.06311e-08
8.86486e-08
1.70471e-07
2.2217e-07
7.23487e-13
2.99086e-12
1.41132e-11
5.93046e-11
1.97418e-10
5.52454e-10
1.41583e-09
3.34431e-09
7.14986e-09
1.36124e-08
2.96074e-08
2.70475e-08
8.55574e-09
7.47144e-09
7.47153e-09
8.43315e-09
6.89379e-09
1.27294e-08
3.12815e-08
1.61055e-13
7.53683e-13
3.50007e-12
1.46187e-11
5.50522e-11
1.9271e-10
6.39176e-10
1.91086e-09
4.8949e-09
1.05024e-08
2.05467e-08
3.25499e-08
1.55434e-08
7.74872e-09
1.06499e-08
1.98226e-08
5.39994e-09
3.12628e-09
1.5541e-08
1.38645e-14
7.38049e-14
4.05169e-13
2.15045e-12
1.12161e-11
5.72105e-11
2.65038e-10
1.03659e-09
3.25002e-09
8.02752e-09
1.66255e-08
3.23192e-08
2.05741e-08
7.68813e-09
9.8921e-09
2.21143e-08
1.32598e-08
1.94198e-09
1.08802e-08
8.96152e-16
6.69772e-15
4.96539e-14
3.56459e-13
2.49029e-12
1.64674e-11
9.84357e-11
4.84083e-10
1.87936e-09
5.48814e-09
1.22514e-08
2.38002e-08
1.88772e-08
7.68354e-09
1.03815e-08
2.0416e-08
1.33849e-08
1.16796e-09
7.39241e-09
5.45588e-17
4.9286e-16
4.5594e-15
4.27413e-14
3.99804e-13
3.48147e-12
2.65299e-11
1.67526e-10
8.30956e-10
3.04922e-09
7.97811e-09
1.55719e-08
1.74571e-08
9.4734e-09
1.55429e-08
1.86279e-08
1.17674e-08
1.16442e-09
5.13859e-09
3.19223e-18
3.06615e-17
3.54008e-16
4.22633e-15
4.93509e-14
5.25673e-13
4.91152e-12
3.87669e-11
2.45052e-10
1.17197e-09
4.00438e-09
9.79148e-09
1.49909e-08
1.30002e-08
1.59951e-08
1.73317e-08
1.08743e-08
1.71399e-09
3.62675e-09
2.64041e-19
1.72609e-18
2.12536e-17
3.01067e-16
4.18532e-15
5.33796e-14
6.0367e-13
5.83622e-12
4.60887e-11
2.88324e-10
1.3683e-09
4.59055e-09
9.79794e-09
1.08961e-08
1.19496e-08
1.32363e-08
9.40812e-09
2.48325e-09
2.57972e-09
3.90656e-20
1.46556e-19
1.25971e-18
1.69477e-17
2.55339e-16
3.74389e-15
5.03081e-14
5.90385e-13
5.85558e-12
4.81037e-11
3.03159e-10
1.36687e-09
4.0728e-09
6.44103e-09
5.87658e-09
7.94862e-09
7.10845e-09
2.24181e-09
1.8224e-09
7.983e-21
3.03166e-20
1.75522e-19
1.35627e-18
1.44402e-17
2.00216e-16
2.97427e-15
4.12481e-14
5.06464e-13
5.46044e-12
4.29027e-11
2.49756e-10
9.83589e-10
2.34198e-09
1.69848e-09
4.51814e-09
4.89367e-09
1.44216e-09
1.20311e-09
1.81723e-21
9.13352e-21
5.59712e-20
3.45898e-19
2.13704e-18
1.53772e-17
1.57797e-16
2.17113e-15
3.19395e-14
4.16137e-13
3.93596e-12
2.83932e-11
1.37736e-10
4.56381e-10
2.48775e-10
1.07501e-09
3.16119e-09
8.69972e-10
6.44089e-10
4.52258e-22
2.9255e-21
2.0159e-20
1.31319e-19
7.85943e-19
4.3627e-18
2.37736e-17
1.57403e-16
1.67899e-15
2.23846e-14
2.40441e-13
2.06054e-12
1.17848e-11
4.3826e-11
1.98176e-11
1.00168e-10
2.43228e-09
6.69619e-10
2.61145e-10
1.19855e-22
9.36989e-22
7.17632e-21
5.08671e-20
3.28973e-19
1.93696e-18
1.03526e-17
5.09093e-17
2.5072e-16
1.53564e-15
1.21304e-14
1.02206e-13
6.76453e-13
2.08169e-12
1.4836e-12
1.45811e-11
1.43823e-09
4.80874e-10
7.2498e-11
3.34191e-23
3.02181e-22
2.57506e-21
2.01789e-20
1.44629e-19
9.44593e-19
5.58087e-18
2.96838e-17
1.41842e-16
6.08626e-16
2.45239e-15
9.91128e-15
4.70956e-14
1.10137e-13
2.95929e-13
4.41049e-12
6.41461e-10
2.86812e-10
2.23208e-11
9.4842e-24
9.80979e-23
9.42588e-22
8.33143e-21
6.74833e-20
4.97573e-19
3.31164e-18
1.97725e-17
1.05157e-16
4.92213e-16
2.04061e-15
7.4297e-15
2.4345e-14
8.21832e-14
2.3291e-13
1.32551e-12
2.09847e-10
1.49495e-10
1.78928e-11
2.7254e-24
3.23173e-23
3.54845e-22
3.58314e-21
3.31017e-20
2.77605e-19
2.09666e-18
1.41832e-17
8.53613e-17
4.52206e-16
2.10457e-15
8.58827e-15
2.90694e-14
1.04653e-13
2.73067e-13
6.33527e-13
8.82557e-11
7.33938e-11
1.36338e-11
7.85477e-25
1.07465e-23
1.35703e-22
1.57057e-21
1.65697e-20
1.58284e-19
1.36054e-18
1.047e-17
7.17139e-17
4.32125e-16
2.27398e-15
1.04345e-14
3.9032e-14
1.3647e-13
3.58492e-13
7.20488e-13
2.01789e-11
2.5314e-11
9.88402e-12
2.24945e-25
3.55865e-24
5.16965e-23
6.84994e-22
8.23882e-21
8.9462e-20
8.7219e-19
7.59332e-18
5.88371e-17
4.00415e-16
2.36382e-15
1.19882e-14
4.95347e-14
1.79759e-13
4.91945e-13
1.18009e-12
7.15523e-12
7.39171e-12
8.74632e-12
6.2277e-26
1.13806e-24
1.89845e-23
2.8748e-22
3.93575e-21
4.85223e-20
5.35298e-19
5.25444e-18
4.56335e-17
3.46425e-16
2.26117e-15
1.24874e-14
5.63292e-14
2.14311e-13
6.43444e-13
1.66555e-12
4.66696e-12
5.88207e-12
8.67922e-12
1.63381e-26
3.44196e-25
6.57899e-24
1.13602e-22
1.76534e-21
2.45834e-20
3.04849e-19
3.34362e-18
3.21235e-17
2.6689e-16
1.87596e-15
1.0987e-14
5.22675e-14
2.05815e-13
6.51237e-13
1.68504e-12
3.49018e-12
5.0616e-12
8.81932e-12
3.92946e-27
9.55516e-26
2.09566e-24
4.12946e-23
7.28451e-22
1.14394e-20
1.589e-19
1.9347e-18
2.03866e-17
1.82618e-16
1.3596e-15
8.23416e-15
3.96374e-14
1.55911e-13
5.06475e-13
1.40901e-12
2.92609e-12
4.80533e-12
8.88403e-12
8.46103e-28
2.38144e-26
6.0099e-25
1.35507e-23
2.7181e-22
4.82289e-21
7.51229e-20
1.01566e-18
1.17604e-17
1.14448e-16
9.06827e-16
5.70717e-15
2.75367e-14
1.05643e-13
3.36521e-13
9.85753e-13
2.18974e-12
3.98513e-12
8.69212e-12
1.57665e-28
5.16347e-27
1.50648e-25
3.9024e-24
8.93303e-23
1.79565e-21
3.14365e-20
4.73808e-19
6.06555e-18
6.42699e-17
5.47743e-16
3.65777e-15
1.83474e-14
6.93877e-14
2.04383e-13
5.89934e-13
1.40082e-12
3.04836e-12
8.21895e-12
2.54153e-29
9.7544e-28
3.31084e-26
9.9098e-25
2.60413e-23
5.96917e-22
1.18273e-20
2.00823e-19
2.85986e-18
3.3374e-17
3.11294e-16
2.25102e-15
1.22575e-14
4.76599e-14
1.39455e-13
3.46998e-13
7.8167e-13
2.33175e-12
7.50809e-12
3.39213e-30
1.54611e-28
6.18101e-27
2.16193e-25
6.59489e-24
1.74479e-22
3.97337e-21
7.68187e-20
1.23153e-18
1.60493e-17
1.66545e-16
1.32614e-15
8.1396e-15
3.33403e-14
1.13697e-13
2.52036e-13
4.55424e-13
1.77931e-12
6.57388e-12
4.7103e-31
2.61248e-29
1.25869e-27
5.26582e-26
1.9039e-24
5.91512e-23
1.5686e-21
3.48215e-20
6.35133e-19
9.34509e-18
1.08678e-16
9.63473e-16
6.68536e-15
2.97341e-14
1.22919e-13
2.4298e-13
3.52806e-13
1.3945e-12
5.40848e-12
5.67073e-32
4.12722e-30
2.58397e-28
1.39186e-26
6.44881e-25
2.56233e-23
8.61436e-22
2.40283e-20
5.45355e-19
9.81554e-18
1.35822e-16
1.39538e-15
1.02583e-14
5.15918e-14
1.61629e-13
3.04024e-13
3.55032e-13
1.21682e-12
4.07515e-12
1.63641e-32
1.59448e-30
1.32575e-28
9.2832e-27
5.41821e-25
2.60971e-23
1.03263e-21
3.31372e-20
8.44573e-19
1.65831e-17
2.39971e-16
2.43576e-15
1.54053e-14
6.31487e-14
1.48804e-13
1.54915e-13
3.93157e-13
9.7706e-13
2.75289e-12
1.36627e-34
1.69344e-32
1.9071e-30
1.91405e-28
1.71141e-26
1.29995e-24
7.66181e-23
3.53747e-21
1.26999e-19
3.4236e-18
6.52687e-17
8.1218e-16
6.21511e-15
2.19245e-14
6.56331e-14
3.56104e-14
3.80179e-13
8.08068e-13
2.00591e-12
)
;

boundaryField
{
    leftWall
    {
        type            zeroGradient;
    }
    rightWall
    {
        type            zeroGradient;
    }
    lowerWall
    {
        type            zeroGradient;
    }
    atmosphere
    {
        type            inletOutlet;
        inletValue      uniform 0;
        value           nonuniform List<scalar> 
46
(
0
0
0
0
0
0
0
0
0
0
0
0
0
0
0
0
0
0
0
0
0
0
0
0
0
0
0
0
0
0
0
1.71141e-26
1.29995e-24
7.66181e-23
3.53747e-21
1.26999e-19
3.4236e-18
6.52687e-17
8.1218e-16
6.21511e-15
0
6.56331e-14
0
3.80179e-13
8.08068e-13
2.00591e-12
)
;
    }
    defaultFaces
    {
        type            empty;
    }
}


// ************************************************************************* //
