/*--------------------------------*- C++ -*----------------------------------*\
| =========                 |                                                 |
| \\      /  F ield         | OpenFOAM: The Open Source CFD Toolbox           |
|  \\    /   O peration     | Version:  2.4.0                                 |
|   \\  /    A nd           | Web:      www.OpenFOAM.org                      |
|    \\/     M anipulation  |                                                 |
\*---------------------------------------------------------------------------*/
FoamFile
{
    version     2.0;
    format      ascii;
    class       volScalarField;
    location    "0.5";
    object      alpha.air;
}
// * * * * * * * * * * * * * * * * * * * * * * * * * * * * * * * * * * * * * //

dimensions      [0 0 0 0 0 0 0];

internalField   nonuniform List<scalar> 
2268
(
5.26731e-14
5.77871e-14
4.14856e-14
8.66509e-14
5.1056e-14
5.08722e-14
7.36463e-14
6.83125e-14
5.4051e-14
3.88557e-14
4.27483e-14
5.41897e-14
5.59921e-14
4.55706e-14
2.96232e-14
1.85837e-14
1.17576e-14
7.97211e-15
5.96143e-15
4.53985e-15
3.08489e-15
1.57402e-15
3.64047e-16
6.66238e-13
7.34511e-13
5.63574e-13
1.03721e-12
6.64138e-13
6.77194e-13
8.48331e-13
7.24272e-13
5.49982e-13
4.03157e-13
4.09738e-13
4.42264e-13
4.27104e-13
3.56219e-13
2.54089e-13
1.75359e-13
1.17683e-13
8.01096e-14
5.63331e-14
4.01034e-14
2.44569e-14
1.06004e-14
2.6089e-15
4.99106e-12
5.44621e-12
4.67256e-12
6.96167e-12
5.21264e-12
5.30997e-12
5.59174e-12
4.41156e-12
3.11935e-12
2.18025e-12
1.90593e-12
1.74993e-12
1.60287e-12
1.38342e-12
1.08953e-12
8.07678e-13
5.72533e-13
3.941e-13
2.72396e-13
1.8241e-13
1.04851e-13
4.44592e-14
1.35969e-14
2.47022e-11
2.60691e-11
2.54858e-11
2.96127e-11
2.63143e-11
2.62508e-11
2.62508e-11
2.02565e-11
1.25644e-11
8.16243e-12
6.01018e-12
4.77807e-12
4.11738e-12
3.55474e-12
2.96228e-12
2.34185e-12
1.74287e-12
1.22605e-12
8.50048e-13
5.57198e-13
2.96392e-13
1.12143e-13
2.78603e-14
1.34705e-10
1.41364e-10
1.36859e-10
1.58573e-10
1.49004e-10
1.58214e-10
1.60261e-10
1.23151e-10
6.16815e-11
2.08864e-11
1.48088e-11
1.16525e-11
9.78789e-12
8.46282e-12
6.79777e-12
5.32059e-12
3.87301e-12
2.69515e-12
1.82619e-12
1.16732e-12
6.13409e-13
2.15688e-13
5.08249e-14
2.81738e-10
2.81681e-10
2.81592e-10
2.81513e-10
2.81455e-10
2.78195e-10
2.18326e-10
1.494e-10
8.29196e-11
3.57032e-11
3.49205e-11
3.28207e-11
2.94969e-11
2.58395e-11
1.82233e-11
1.24327e-11
8.12193e-12
5.02652e-12
3.10408e-12
1.88461e-12
1.00112e-12
3.6263e-13
7.63166e-14
1.25487e-10
1.47677e-10
1.68092e-10
1.78962e-10
1.63467e-10
7.69389e-11
3.83098e-11
3.8265e-11
3.88166e-11
8.31885e-11
1.34012e-10
1.60539e-10
1.22669e-10
1.07654e-10
7.02134e-11
3.7646e-11
1.84701e-11
9.109e-12
4.42423e-12
2.4812e-12
1.33894e-12
5.39618e-13
1.26037e-13
1.13278e-10
1.12565e-10
1.11852e-10
1.11124e-10
1.01864e-10
3.87608e-11
3.85387e-11
3.8508e-11
2.87799e-10
7.35624e-10
1.13425e-09
1.5745e-09
1.47003e-09
1.46361e-09
9.57127e-10
3.433e-10
4.63263e-11
4.6108e-12
4.45956e-12
2.55992e-12
1.4629e-12
6.89144e-13
2.0556e-13
1.55633e-05
2.19172e-06
1.41327e-06
4.99629e-06
6.27818e-06
5.98364e-06
1.24382e-05
6.13413e-05
0.000115661
0.000120425
0.00010703
0.000280742
0.000429525
0.000103128
6.76918e-06
2.23876e-06
2.21292e-06
8.62315e-06
0.000181511
2.23361e-05
6.79654e-06
5.75729e-06
2.50384e-05
4.62218e-05
5.43687e-05
6.1192e-05
0.000123413
0.000347619
0.00115288
0.00350158
0.0129428
0.0146607
0.0142935
0.00303005
7.41319e-05
1.0976e-05
1.68509e-05
0.000217902
2.23361e-05
7.91221e-06
6.56663e-06
1.66631e-05
4.7004e-05
0.000240111
0.000422037
0.000531399
0.000642738
0.00089991
0.00894096
0.388431
0.673504
0.410994
0.0369731
0.0034525
0.000135137
2.1268e-05
0.00021801
8.04624e-06
1.44326e-06
1.44326e-06
1.4574e-06
6.60649e-06
3.86957e-05
0.000307643
0.000976287
0.00209079
0.011791
0.253177
0.848159
0.990872
0.998258
0.919451
0.210809
0.00418675
0.000118953
7.97378e-05
1.61048e-06
1.60362e-06
1.44326e-06
1.44326e-06
1.44326e-06
3.10601e-06
4.30824e-05
0.000408552
0.00199351
0.0264446
0.423949
0.900899
0.994502
0.998567
0.993782
0.840537
0.0742328
0.000950145
1.61795e-05
5.66206e-05
0.000398436
7.17432e-05
4.51722e-06
1.50215e-06
1.69465e-06
1.96815e-05
0.000592997
0.00390413
0.0141287
0.145533
0.742626
0.990723
0.998561
0.993168
0.913033
0.201885
0.00389698
3.38914e-05
0.0255498
0.0290471
0.00638972
0.000455323
7.62313e-06
1.74141e-06
2.75876e-06
8.13038e-06
6.88885e-05
0.00140351
0.0678071
0.734105
0.995899
0.998562
0.997225
0.80889
0.195863
0.00484059
7.90583e-05
0.142918
0.14294
0.0745131
0.0128831
0.000208852
2.03367e-06
2.11515e-06
2.20131e-06
3.14985e-05
0.00126407
0.0517298
0.564081
0.976441
0.997891
0.996581
0.787883
0.174785
0.00431693
9.66626e-05
5.99985e-10
5.70315e-10
4.69341e-10
4.30036e-10
4.70142e-10
7.87665e-10
1.2629e-09
1.26794e-09
1.86206e-09
2.15474e-09
2.7963e-09
4.00771e-09
4.97269e-09
6.78875e-09
6.61436e-09
5.64091e-09
2.65953e-09
4.05212e-10
3.30019e-11
1.00639e-11
2.03448e-12
1.28812e-12
5.68265e-13
7.53236e-08
6.17565e-08
2.98243e-08
1.03853e-08
1.26571e-08
3.14566e-08
2.34045e-08
7.10046e-09
3.13489e-09
2.54194e-09
3.04082e-09
4.15522e-09
6.17916e-09
1.08426e-08
1.27322e-08
1.27314e-08
1.06738e-08
3.80885e-09
5.9404e-10
2.52275e-10
8.04221e-11
1.06841e-11
3.73344e-12
1.04158e-06
8.45129e-07
4.42335e-07
2.1799e-07
2.3672e-07
2.38182e-07
9.31126e-08
4.24047e-08
1.75728e-08
8.08934e-09
6.02588e-09
5.48741e-09
5.49339e-09
5.49833e-09
5.71821e-09
9.01967e-09
1.08078e-08
1.07132e-08
6.20119e-09
2.12546e-09
7.74637e-10
3.21909e-10
8.63534e-11
0.0018439
0.00152939
0.000764639
0.000167908
3.29478e-05
4.66726e-05
4.91277e-05
5.29014e-05
4.3229e-05
1.54906e-05
1.11555e-06
3.44922e-07
9.52191e-08
2.24586e-08
5.07896e-09
4.72672e-09
4.73201e-09
5.2973e-09
5.33162e-09
3.53266e-09
1.85676e-09
9.14432e-10
4.3489e-10
0.210535
0.188298
0.12771
0.0486746
0.016404
0.0193373
0.0158561
0.0152797
0.013324
0.00665257
0.000345441
8.25222e-05
4.2217e-05
2.11477e-05
6.87536e-06
4.24243e-07
1.69202e-08
6.49237e-09
4.49837e-09
4.00441e-09
2.59092e-09
3.26224e-09
8.57532e-09
0.980281
0.974773
0.954189
0.891001
0.752649
0.59033
0.449036
0.381843
0.240593
0.133539
0.0489202
0.0177356
0.00845762
0.00478051
0.0032051
0.00104516
0.000384961
8.48469e-06
3.84577e-08
1.22407e-05
3.52659e-06
1.5022e-05
5.32706e-05
0.999999
0.999999
0.999999
0.999999
0.999999
0.999918
0.998514
0.99255
0.964345
0.871617
0.664234
0.415126
0.222339
0.101466
0.0474708
0.0229812
0.0149495
0.00997691
0.0050015
0.0154507
0.00710316
0.0132031
0.0220876
0.999999
0.999999
0.999999
0.999999
0.999998
0.999993
0.999992
0.999977
0.999983
0.999989
0.99981
0.996288
0.968106
0.883189
0.765704
0.641845
0.53415
0.408999
0.335819
0.37365
0.327737
0.447033
0.504643
0.999999
0.999999
0.999999
0.999998
0.999998
0.999999
0.999999
0.999999
1
1
1
1
1
0.999999
0.999999
0.999996
0.999966
0.999464
0.997596
0.99707
0.992276
0.9973
0.998393
0.999999
0.999999
0.999999
0.999999
0.999999
0.999999
0.999999
1
1
1
1
1
0.999999
0.999999
0.999999
0.999999
0.999999
0.999999
0.999999
0.999999
0.999999
0.999999
1
0.999999
0.999999
0.999999
0.999999
0.999999
0.999999
0.999999
0.999999
1
1
1
1
0.999999
0.999999
0.999999
0.999999
0.999999
0.999999
0.999999
0.999999
1
1
1
0.999999
0.999999
0.999999
0.999999
0.999999
0.999999
0.999999
0.999999
0.999999
1
1
1
0.999999
0.999999
0.999999
0.999999
0.999999
0.999999
0.999999
0.999999
1
1
1
0.999998
0.999999
0.999999
0.999999
0.999999
0.999999
0.999999
0.999999
0.999999
1
1
1
0.999999
0.999999
0.999999
0.999999
0.999999
0.999999
0.999999
1
1
0.999999
1
0.999999
0.999999
0.999999
0.999999
0.999999
0.999999
0.999999
1
1
1
1
1
0.999999
0.999999
1
1
1
1
1
1
1
0.999999
0.999999
0.999999
0.999999
0.999999
0.999999
0.999999
0.999999
1
1
1
1
1
1
1
1
1
1
1
1
1
1
0.999999
0.999999
0.999999
0.999999
0.999999
0.999999
0.999999
0.999999
1
1
1
1
1
1
1
1
1
1
1
1
1
1
1
1
0.999999
1
0.999999
0.999999
0.999999
0.999999
1
1
1
1
1
1
1
1
0.999999
0.999999
1
1
1
1
1
1
1
1
0.999999
0.999999
0.999999
0.999999
0.999999
1
1
1
1
1
1
1
1
0.999999
0.999999
1
1
1
1
1
1
1
1
1
0.999999
0.999999
0.999999
1
1
1
1
1
1
1
1
1
0.999999
0.999999
0.999999
1
1
1
1
1
1
1
1
0.999999
0.999999
0.999999
1
1
1
1
1
1
1
1
1
0.999999
0.999999
0.999999
0.999999
1
1
1
1
1
1
1
0.999999
0.999999
0.999999
1
1
1
1
1
1
1
1
1
0.999999
0.999999
0.999999
0.999999
0.999999
1
1
1
1
1
1
0.999999
0.999999
1
1
1
1
1
1
1
1
1
1
1
0.999999
0.999999
0.999999
0.999999
0.999999
0.999999
0.999999
1
1
1
0.999999
0.999999
1
1
1
1
1
1
1
1
1
1
1
0.999999
0.999999
0.999999
0.999999
0.999999
0.999999
0.999999
0.999999
0.999999
0.999999
0.999999
0.999999
1
1
1
1
1
1
1
1
1
1
1
1
0.999999
0.999999
0.999999
0.999999
0.999999
0.999998
0.999998
0.999998
0.999999
0.999999
1
1
1
1
1
1
1
1
1
1
1
1
1
1
0.999999
0.999999
0.999999
0.999999
0.999998
0.999998
0.999998
0.999998
1
1
1
1
1
1
1
1
1
1
1
1
1
1
0.999999
0.999999
0.999999
0.999999
0.999999
0.999998
0.999998
0.999998
0.999998
1
1
1
1
1
1
1
1
1
1
1
1
1
1
1
0.999999
0.999999
0.999999
0.999999
0.999998
0.999998
0.999997
0.999997
1
1
1
1
1
1
1
1
1
1
1
1
1
1
1
1
0.999999
0.999999
0.999999
0.999999
0.999998
0.999998
0.999997
1
1
1
1
1
1
1
1
1
1
1
1
1
1
1
1
1
0.999999
0.999999
0.999999
0.999998
0.999998
0.999998
1
1
1
1
1
1
1
1
1
1
1
1
1
1
1
1
1
0.999999
0.999999
0.999999
0.999999
0.999998
0.999998
1
1
1
1
1
1
1
1
1
1
1
1
1
1
1
1
1
0.999999
0.999999
0.999999
0.999999
0.999999
0.999998
1
1
1
1
1
1
1
1
1
1
1
1
1
1
1
1
0.999999
0.999999
0.999999
0.999999
0.999999
0.999999
0.999999
1
1
1
1
1
1
1
1
1
1
1
1
1
1
1
0.999999
0.999999
0.999999
0.999999
0.999999
0.999999
0.999999
0.999999
1
1
1
1
1
1
1
1
1
1
1
1
1
1
1
1
0.999999
0.999999
0.999999
0.999999
1
1
0.999999
1
1
1
1
1
1
1
1
1
1
1
1
1
1
1
0.999999
0.999999
0.999999
0.999999
0.999999
1
1
1
1
1
1
1
1
1
1
1
1
1
1
1
1
1
0.999999
0.999999
0.999999
0.999999
0.999999
0.999999
1
1
1
1
1
1
1
1
1
1
1
1
1
1
1
1
1
1
0.999999
0.999999
0.999999
0.999999
0.999999
1
1
1
1
1
1
1
1
1
1
1
1
1
1
1
1
1
0.999999
0.999999
0.999999
0.999999
0.999999
0.999999
1
1
1
1
1
1
1
1
1
1
1
1
1
1
1
1
1
1
0.999999
0.999999
0.999999
0.999999
0.999999
1
1
1
1
1
1
1
1
1
1
1
1
1
1
1
1
1
1
1
0.999999
0.999999
0.999999
1
1
1
1
1
1
1
1
1
1
1
1
1
1
1
1
1
1
1
1
1
1
1
1
1
1
1
1
1
1
1
1
1
1
1
1
1
1
1
1
1
1
1
1
1
1
1
1
1
1
1.99912e-09
6.98306e-06
9.13961e-05
0.000617593
8.39879e-09
5.27437e-07
1.09452e-05
0.000587926
2.75631e-10
2.18625e-09
5.56406e-06
9.70719e-05
1.1194e-09
4.34039e-09
1.96466e-08
3.05853e-08
3.52255e-08
1.08495e-07
3.09533e-07
7.35243e-07
0.000133335
0.000250032
0.000479001
0.0011862
0.0329725
0.044739
0.0645031
0.0941929
0.551174
0.60718
0.695687
0.78952
0.998806
0.999306
0.999787
0.999963
1
1
1
1
1
1
1
1
1
1
1
1
1
1
1
1
1
1
1
1
1
1
1
1
1
1
1
0.999999
1
1
0.999999
0.999999
0.999999
0.999999
0.999999
0.999999
1
1
0.999999
0.999999
1
1
1
1
1
1
1
1
1
1
1
1
1
1
1
1
1
1
1
1
0.999999
1
1
0.999999
0.999999
0.999999
0.999999
0.999999
0.999998
0.999999
0.999999
0.999998
0.999999
0.999998
0.999998
0.999998
0.999998
0.999998
0.999998
0.999998
0.999999
0.999999
0.999998
0.999998
0.999998
0.999999
0.999999
0.999998
0.999999
0.999999
0.999999
0.999998
0.999999
0.999999
0.999999
0.999998
1
1
0.999999
0.999999
1
1
1
0.999999
1
1
1
0.999999
1
1
1
0.999999
1
1
1
1
1
1
1
1
1
1
1
1
1
1
1
1
1
1
1
1
0.0988576
0.139492
0.13968
0.0686194
0.0136059
0.00184982
0.000156684
7.66893e-05
0.000166986
0.00148517
0.0219887
0.168674
0.475936
0.588414
0.561196
0.344801
0.0715889
0.00173759
6.69552e-05
0.00918525
0.0262945
0.0404046
0.0672063
0.0668343
0.0281693
0.0036008
0.00064035
0.000311146
0.00083158
0.00087643
0.000555356
0.0019031
0.0109801
0.0206814
0.0139524
0.00397025
0.000155527
1.93724e-05
5.01407e-05
8.24498e-05
0.000297107
0.00753148
0.0260504
0.0276579
0.0153892
0.00203577
0.000149378
4.25619e-05
4.25622e-05
4.25619e-05
4.25622e-05
4.55048e-05
6.02336e-05
0.000431733
0.000821618
0.00016834
6.38925e-05
6.74906e-07
6.63609e-06
4.79167e-05
0.000476752
0.000633481
0.000680875
0.0028203
0.00227086
0.000521497
7.39733e-05
4.35524e-05
0.000117677
0.000175831
6.12333e-05
4.77751e-05
0.0013825
0.0284672
0.00406545
0.000666728
5.21279e-05
0.00149629
0.0106152
0.0445656
0.0466783
0.0369092
0.0150995
0.00372381
0.00154201
0.00159219
0.00498162
0.0226682
0.0262276
0.00880099
0.00960608
0.10445
0.170687
0.0315647
0.0022465
0.0124777
0.0892391
0.218031
0.430369
0.459433
0.357105
0.228975
0.130258
0.101737
0.120262
0.194679
0.341177
0.237318
0.0866985
0.169446
0.180151
0.180405
0.0954264
0.00287572
0.197235
0.455441
0.878365
0.988281
0.989166
0.962558
0.864777
0.737001
0.744252
0.807174
0.755628
0.406186
0.0755855
0.041968
0.160869
0.180605
0.176154
0.0535972
0.00193882
0.92551
0.995084
0.999963
0.999999
0.999999
0.999998
0.999978
0.99961
0.998864
0.984663
0.544778
0.0665316
0.00412243
0.00459379
0.0416692
0.106678
0.0453938
0.00905122
0.000872513
0.999995
0.999999
1
1
1
1
1
1
0.998358
0.852821
0.241076
0.0070945
0.00106699
0.00105564
0.00524777
0.014875
0.00871925
0.00189817
0.00102496
1
1
1
1
1
1
1
1
0.998681
0.913503
0.421272
0.0381743
0.00214388
0.000897426
0.000922126
0.00300183
0.00411418
0.00281245
0.00199159
1
1
1
1
1
1
1
1
0.999905
0.991414
0.859904
0.413971
0.0686539
0.00214005
0.000483121
0.000414659
0.001077
0.0014564
0.000978898
1
1
1
1
1
1
1
1
1
0.999857
0.993363
0.922967
0.614681
0.146841
0.00189494
0.000153625
0.000138322
0.000147086
0.000103218
1
1
1
1
1
1
1
1
1
1
0.999946
0.998279
0.976572
0.8011
0.322614
0.0387118
0.000685899
2.83987e-05
1.5916e-05
1
1
1
1
1
1
1
1
1
1
1
0.999996
0.999784
0.993879
0.931685
0.704187
0.304413
0.0188159
0.000369407
1
1
1
1
1
1
1
1
1
1
1
1
1
0.999983
0.999425
0.993296
0.941878
0.541998
0.0425139
0.999999
0.999999
0.999999
1
1
1
1
1
1
1
1
1
1
1
1
0.999994
0.997961
0.867235
0.139998
0.999999
0.999999
0.999999
0.999999
0.999999
1
1
1
1
1
1
1
1
1
1
1
0.997503
0.719363
0.092333
0.999999
0.999998
0.999998
0.999998
0.999999
0.999999
1
1
1
1
1
1
1
1
1
1
0.999698
0.456722
0.0448854
0.999999
0.999999
0.999998
0.999998
0.999998
0.999999
1
1
1
1
1
1
1
1
1
1
0.999999
0.493499
0.0335361
0.999999
0.999999
0.999998
0.999998
0.999998
0.999999
0.999999
1
1
1
1
1
1
1
1
1
1
0.790525
0.0701089
1
0.999999
0.999999
0.999998
0.999998
0.999999
0.999999
0.999999
1
1
1
1
1
1
1
1
1
0.960995
0.160708
1
1
0.999999
0.999999
0.999999
0.999999
0.999999
0.999999
1
1
1
1
1
1
1
1
1
0.994397
0.221321
1
1
0.999999
0.999999
0.999999
0.999999
0.999999
0.999999
0.999999
1
1
1
1
1
1
1
1
0.999157
0.228107
1
0.999999
0.999999
0.999999
0.999999
0.999999
0.999999
0.999999
0.999999
1
1
1
1
1
1
1
1
0.999851
0.2669
0.999999
0.999999
0.999999
0.999999
0.999999
0.999999
0.999999
0.999999
0.999999
1
1
1
1
1
1
1
1
0.999968
0.338095
0.999999
0.999999
0.999999
0.999998
0.999998
0.999999
0.999999
0.999999
0.999999
1
1
1
1
1
1
1
1
0.999986
0.357783
0.999998
0.999998
0.999998
0.999998
0.999998
0.999998
0.999999
0.999999
0.999999
1
1
1
1
1
1
1
1
0.999985
0.380322
0.999998
0.999998
0.999998
0.999998
0.999998
0.999998
0.999999
0.999999
0.999999
1
1
1
1
1
1
0.999997
0.999998
0.999958
0.434154
0.999997
0.999997
0.999997
0.999997
0.999998
0.999998
0.999999
0.999999
0.999999
1
1
1
1
1
1
0.999985
0.999991
0.999623
0.649309
0.999997
0.999997
0.999997
0.999997
0.999997
0.999998
0.999999
0.999999
0.999999
1
1
1
1
1
0.999998
0.999957
0.999986
0.998489
0.910097
0.999997
0.999997
0.999997
0.999997
0.999997
0.999998
0.999999
0.999999
1
1
1
1
1
1
0.999993
0.999844
0.999983
0.999148
0.993421
0.999997
0.999997
0.999997
0.999997
0.999998
0.999998
0.999999
0.999999
1
1
1
1
1
1
0.999992
0.999769
0.999663
0.999521
0.999508
0.999998
0.999997
0.999997
0.999997
0.999998
0.999998
0.999999
0.999999
0.999999
1
1
1
1
1
0.999999
0.999811
0.998157
0.997681
0.995933
0.999998
0.999997
0.999997
0.999997
0.999998
0.999999
0.999999
0.999999
0.999999
0.999999
0.999999
1
1
1
0.999999
0.999861
0.995839
0.959979
0.76175
0.999998
0.999998
0.999998
0.999998
0.999998
0.999999
0.999999
0.999999
0.999999
0.999999
0.999999
1
1
1
0.999999
0.999649
0.982004
0.789797
0.174804
0.999999
0.999998
0.999998
0.999998
0.999999
0.999999
0.999999
0.999999
0.999999
0.999999
0.999999
1
1
1
1
0.999469
0.952559
0.482889
0.0160385
0.999999
0.999999
0.999998
0.999999
0.999999
0.999999
0.999999
0.999999
0.999999
0.999999
0.999999
1
1
1
1
0.999834
0.967667
0.396121
0.0141736
0.999999
0.999999
0.999999
0.999999
0.999999
0.999999
0.999999
0.999999
0.999999
0.999999
0.999999
0.999999
1
1
1
0.999995
0.995416
0.49012
0.0141736
0.999999
0.999999
0.999999
0.999999
0.999999
0.999999
0.999999
0.999999
0.999999
0.999999
0.999999
0.999999
0.999999
0.999999
0.999999
0.999999
0.999917
0.749758
0.0147177
0.999999
0.999999
0.999999
0.999999
0.999999
0.999999
0.999998
0.999998
0.999998
0.999999
0.999999
0.999999
0.999999
0.999999
0.999999
0.999999
0.999998
0.945412
0.0459484
0.999999
0.999999
0.999999
0.999999
0.999999
0.999999
0.999999
0.999999
0.999999
0.999999
0.999999
0.999999
0.999999
1
1
1
1
0.994477
0.202713
1
1
1
1
1
0.999999
0.999999
0.999999
0.999999
0.999999
1
1
1
1
1
1
1
0.99987
0.606699
)
;

boundaryField
{
    leftWall
    {
        type            alphaContactAngle;
        thetaProperties 6 ( ( water mercury ) 90 0 0 0 ( water air ) 90 0 0 0 ( water oil ) 90 0 0 0 ( mercury air ) 90 0 0 0 ( oil mercury ) 90 0 0 0 ( oil air ) 90 0 0 0 );
        value           nonuniform List<scalar> 
50
(
5.26731e-14
6.66238e-13
4.99106e-12
2.47022e-11
1.34705e-10
2.81738e-10
1.25487e-10
1.13278e-10
5.99985e-10
7.53236e-08
1.04158e-06
0.0018439
0.210535
0.980281
0.999999
0.999999
0.999999
0.999999
0.999999
0.999999
0.999998
0.999999
0.999999
0.999999
0.999999
0.999999
0.999999
0.999999
0.999999
0.999999
0.999999
0.999999
0.999999
1
1
1
1
1
1
1
1
1
1
1
1
1
1
1
1
1
)
;
    }
    rightWall
    {
        type            alphaContactAngle;
        thetaProperties 6 ( ( water mercury ) 90 0 0 0 ( water air ) 90 0 0 0 ( water oil ) 90 0 0 0 ( mercury air ) 90 0 0 0 ( oil mercury ) 90 0 0 0 ( oil air ) 90 0 0 0 );
        value           nonuniform List<scalar> 
50
(
0.000181511
0.000217902
0.00021801
7.97378e-05
1.61795e-05
3.38914e-05
7.90583e-05
9.66626e-05
6.69552e-05
1.93724e-05
6.38925e-05
0.000666728
0.0022465
0.00287572
0.00193882
0.000872513
0.00102496
0.00199159
0.000978898
0.000103218
1.5916e-05
0.000369407
0.0425139
0.139998
0.092333
0.0448854
0.0335361
0.0701089
0.160708
0.221321
0.228107
0.2669
0.338095
0.357783
0.380322
0.434154
0.649309
0.910097
0.993421
0.999508
0.995933
0.76175
0.174804
0.0160385
0.0141736
0.0141736
0.0147177
0.0459484
0.202713
0.606699
)
;
    }
    lowerWall
    {
        type            alphaContactAngle;
        thetaProperties 6 ( ( water mercury ) 90 0 0 0 ( water air ) 90 0 0 0 ( water oil ) 90 0 0 0 ( mercury air ) 90 0 0 0 ( oil mercury ) 90 0 0 0 ( oil air ) 90 0 0 0 );
        value           nonuniform List<scalar> 
62
(
5.26731e-14
5.77871e-14
4.14856e-14
8.66509e-14
5.1056e-14
5.08722e-14
7.36463e-14
6.83125e-14
5.4051e-14
3.88557e-14
4.27483e-14
5.41897e-14
5.59921e-14
4.55706e-14
2.96232e-14
1.85837e-14
1.17576e-14
7.97211e-15
5.96143e-15
4.53985e-15
3.08489e-15
1.57402e-15
3.64047e-16
3.64047e-16
2.6089e-15
1.35969e-14
2.78603e-14
5.08249e-14
7.63166e-14
1.26037e-13
2.0556e-13
1.99912e-09
6.98306e-06
9.13961e-05
0.000617593
1.55633e-05
2.23361e-05
2.23361e-05
8.04624e-06
1.61048e-06
5.66206e-05
0.0255498
0.142918
1.55633e-05
2.19172e-06
1.41327e-06
4.99629e-06
6.27818e-06
5.98364e-06
1.24382e-05
6.13413e-05
0.000115661
0.000120425
0.00010703
0.000280742
0.000429525
0.000103128
6.76918e-06
2.23876e-06
2.21292e-06
8.62315e-06
0.000181511
)
;
    }
    atmosphere
    {
        type            inletOutlet;
        inletValue      uniform 1;
        value           nonuniform List<scalar> 
46
(
1
1
1
1
1
1
1
1
1
1
1
1
1
1
1
1
1
1
1
1
1
1
1
1
1
1
1
1
1
1
1
1
0.999999
0.999999
0.999999
0.999999
0.999999
1
1
1
1
1
1
1
0.99987
0.606699
)
;
    }
    defaultFaces
    {
        type            empty;
    }
}


// ************************************************************************* //
