/*--------------------------------*- C++ -*----------------------------------*\
| =========                 |                                                 |
| \\      /  F ield         | OpenFOAM: The Open Source CFD Toolbox           |
|  \\    /   O peration     | Version:  2.4.0                                 |
|   \\  /    A nd           | Web:      www.OpenFOAM.org                      |
|    \\/     M anipulation  |                                                 |
\*---------------------------------------------------------------------------*/
FoamFile
{
    version     2.0;
    format      ascii;
    class       volScalarField;
    location    "0.5";
    object      alpha.oil;
}
// * * * * * * * * * * * * * * * * * * * * * * * * * * * * * * * * * * * * * //

dimensions      [0 0 0 0 0 0 0];

internalField   nonuniform List<scalar> 
2268
(
3.51584e-20
2.12559e-19
4.95423e-19
4.02021e-18
2.72659e-18
5.48804e-18
1.5959e-17
2.66388e-17
6.49078e-17
3.04772e-15
4.30468e-13
4.65579e-12
2.39947e-11
7.07644e-11
1.79597e-10
4.52418e-10
9.57285e-10
1.75695e-09
2.98505e-09
4.9452e-09
1.10019e-08
6.8734e-07
1.32405e-05
7.69649e-19
4.45112e-18
1.21654e-17
6.24713e-17
5.28879e-17
1.00494e-16
2.55286e-16
4.75358e-16
1.10611e-15
1.1976e-14
9.08177e-13
9.56648e-12
5.66451e-11
1.24108e-10
3.99877e-10
1.37064e-09
3.66751e-09
6.63131e-09
9.50094e-09
1.19197e-08
1.75243e-08
7.40247e-07
1.59782e-05
8.23097e-18
4.59301e-17
1.46549e-16
4.89064e-16
5.15804e-16
9.16308e-16
2.167e-15
4.41763e-15
9.8938e-15
3.52144e-14
7.28352e-13
6.42738e-12
3.52419e-11
1.25728e-10
4.81637e-10
1.58053e-09
4.76904e-09
1.31157e-08
2.76191e-08
3.51819e-08
3.7803e-08
6.39711e-07
1.46247e-05
5.71805e-17
3.14004e-16
1.13484e-15
2.6023e-15
3.29107e-15
5.52583e-15
1.33318e-14
2.79317e-14
5.75853e-14
1.2586e-13
5.45238e-13
3.98216e-12
2.29297e-11
6.87692e-11
3.02886e-10
1.5841e-09
6.69777e-09
2.66503e-08
8.52876e-08
1.32069e-07
1.09161e-07
6.92466e-07
1.49166e-05
2.89562e-16
1.60589e-15
6.24794e-15
1.07371e-14
1.51837e-14
2.53394e-14
6.70594e-14
1.29063e-13
2.26213e-13
3.95432e-13
9.0162e-13
3.64581e-12
3.91315e-11
5.22194e-10
3.91644e-09
2.01765e-08
3.36199e-08
8.00458e-08
2.15312e-07
3.23379e-07
2.68183e-07
8.56411e-07
1.57986e-05
1.1375e-15
6.57254e-15
2.57841e-14
3.73407e-14
5.30715e-14
9.72181e-14
2.9559e-13
4.1936e-13
6.02822e-13
8.97091e-13
1.67127e-12
7.32745e-12
4.39358e-11
7.47126e-10
1.49515e-08
2.34531e-07
1.60483e-06
5.48196e-06
3.96833e-06
2.17192e-06
7.42958e-07
1.22063e-06
1.7963e-05
3.66818e-15
2.26341e-14
8.41515e-14
1.13556e-13
1.52961e-13
3.49532e-13
9.77577e-13
8.92904e-13
1.0849e-12
1.41217e-12
2.33996e-12
5.75875e-12
1.67557e-11
8.60151e-10
4.08914e-08
2.00301e-07
2.87077e-06
2.67327e-05
2.13663e-05
1.29253e-05
3.73847e-06
2.028e-06
2.15075e-05
1.06873e-14
6.89987e-14
2.41937e-13
2.9914e-13
3.96255e-13
1.23378e-12
1.17945e-12
1.08353e-12
1.28986e-12
1.48764e-12
1.68498e-12
1.88466e-12
2.09238e-12
2.2448e-09
1.79908e-07
4.45726e-06
7.82554e-06
2.74727e-05
0.00013912
3.54984e-05
7.30084e-06
2.72286e-06
2.24959e-05
0.996101
0.996015
0.994887
0.98856
0.979984
0.96733
0.949657
0.932374
0.919709
0.90631
0.892373
0.874967
0.830503
0.76365
0.661621
0.611224
0.610471
0.60978
0.609286
0.996821
0.99742
0.997999
0.998399
0.998333
0.996086
0.991062
0.984116
0.980601
0.984125
0.985794
0.986371
0.985182
0.984685
0.984191
0.934222
0.793115
0.608561
0.608296
0.992285
0.986979
0.988374
0.990568
0.988495
0.979134
0.966371
0.95181
0.940397
0.947702
0.97003
0.609307
0.326342
0.588672
0.959932
0.944419
0.917921
0.741962
0.607006
0.978851
0.964616
0.966741
0.968393
0.960732
0.944374
0.928584
0.914754
0.898985
0.8796
0.671163
0.136294
0.00786873
0.00145298
0.0767118
0.719754
0.911869
0.896431
0.605596
0.952344
0.92125
0.92002
0.919405
0.906243
0.885582
0.879652
0.880229
0.873216
0.832958
0.449091
0.0558457
0.00199326
0.00105966
0.00116962
0.106426
0.822242
0.923594
0.650628
0.897779
0.850844
0.842262
0.839263
0.822154
0.810549
0.821969
0.843975
0.849547
0.828093
0.687888
0.180511
0.00513285
0.0010486
0.00104754
0.0408726
0.684801
0.922512
0.704392
0.761686
0.725647
0.738068
0.744203
0.738069
0.750196
0.779947
0.81639
0.842553
0.835851
0.759972
0.190156
0.00229927
0.00104877
0.00104416
0.109741
0.684331
0.92651
0.757804
0.41631
0.46354
0.581405
0.645808
0.680118
0.718887
0.762607
0.805968
0.838761
0.831443
0.758724
0.308161
0.00973152
0.00104467
0.0012243
0.132701
0.701315
0.93133
0.807585
2.86857e-14
1.93803e-13
6.44943e-13
7.33951e-13
9.50381e-13
3.89354e-12
5.03529e-10
3.16192e-09
5.8796e-07
1.3129e-06
1.52937e-06
1.36311e-06
7.0097e-07
1.75001e-07
1.34548e-07
8.95697e-07
1.3529e-05
4.24206e-05
0.000296824
0.000640302
0.00039941
4.6038e-05
2.63569e-05
1.16509e-13
8.41518e-13
2.67932e-12
2.91234e-12
3.94024e-12
1.11876e-09
1.58954e-07
1.08518e-06
9.80731e-06
4.48461e-05
5.61606e-05
3.83173e-05
1.08491e-05
2.83891e-06
2.04854e-06
1.73705e-06
1.11079e-05
6.73369e-05
0.000253924
0.0015572
0.00212902
0.00112641
0.000354443
4.0829e-13
3.40189e-12
9.32449e-12
1.24779e-11
3.82632e-11
5.2679e-08
6.01175e-06
0.000474946
0.00318214
0.00858835
0.009735
0.00758003
0.00342474
0.00133166
0.000363123
0.000111264
3.92973e-05
6.35184e-05
0.000203495
0.000910416
0.00193391
0.00395042
0.00666423
1.21203e-12
1.48205e-11
1.88177e-10
6.38798e-11
1.79043e-08
2.14956e-05
0.00131124
0.0267965
0.0948455
0.168188
0.180291
0.158086
0.108661
0.0693234
0.0313358
0.0109681
0.0033919
0.00120197
0.00050843
0.000686816
0.00111397
0.00211981
0.00331079
3.06169e-12
1.03985e-10
1.56374e-09
1.06092e-09
4.58064e-07
0.000486504
0.0235235
0.199545
0.46888
0.629586
0.668221
0.651996
0.602511
0.537739
0.446256
0.302496
0.170934
0.0905621
0.0428542
0.0250276
0.0123567
0.0132797
0.0203694
6.40354e-12
1.51512e-10
2.30189e-09
3.98437e-09
1.51834e-07
0.000808205
0.0593669
0.359823
0.680643
0.819222
0.902021
0.932018
0.946337
0.953276
0.953926
0.939342
0.830362
0.68214
0.481968
0.432641
0.33293
0.37005
0.409138
1.29912e-11
4.69723e-10
7.88566e-09
2.17996e-08
8.36377e-08
6.732e-05
0.00127466
0.0071574
0.0354973
0.128156
0.335446
0.584592
0.777412
0.898279
0.952255
0.976622
0.983606
0.983762
0.968734
0.968748
0.962426
0.940784
0.915165
2.5396e-11
2.9546e-09
6.52019e-08
2.9896e-07
1.19966e-06
6.12594e-06
7.71381e-06
2.20312e-05
1.55537e-05
1.01484e-05
0.000188951
0.00371032
0.0318902
0.116804
0.234288
0.358146
0.46584
0.590984
0.664141
0.626243
0.671962
0.552608
0.494925
2.08686e-11
2.21469e-09
1.16985e-07
8.80883e-07
1.1183e-06
9.04941e-08
1.54461e-08
3.2205e-08
5.6777e-08
8.52092e-08
4.86969e-08
2.66785e-08
3.99102e-08
1.07645e-07
4.76527e-07
3.31967e-06
3.34907e-05
0.000535306
0.00240359
0.0029297
0.00772342
0.00269986
0.00160685
1.08523e-11
5.77955e-10
1.46172e-08
1.06952e-07
2.8212e-07
2.74239e-08
9.15629e-09
9.67588e-09
6.85358e-08
1.14793e-07
4.71901e-08
2.25425e-08
2.25363e-08
4.06804e-08
1.28469e-07
2.09091e-07
1.36751e-07
1.06139e-07
7.50701e-08
7.49853e-08
7.49852e-08
7.45501e-08
7.45493e-08
1.25578e-11
8.13605e-10
5.5833e-09
2.85773e-09
9.92494e-10
1.54958e-09
9.01493e-09
2.06607e-08
5.03907e-08
1.93268e-07
1.37908e-07
4.8214e-08
3.94394e-08
1.96848e-07
3.87145e-07
4.49582e-07
4.37402e-07
3.71864e-07
1.50733e-07
7.49948e-08
7.49855e-08
7.52451e-08
7.9789e-08
6.53274e-12
8.6617e-11
5.1434e-10
2.53622e-10
6.16686e-11
4.49509e-10
5.31695e-09
2.2727e-08
6.2207e-08
1.93223e-07
1.03839e-07
2.61345e-08
1.33037e-07
6.33076e-07
6.85716e-07
6.85037e-07
5.87349e-07
5.75957e-07
2.93395e-07
9.13419e-08
7.50704e-08
1.42556e-07
9.29169e-08
5.60484e-13
5.66688e-12
1.98301e-11
2.11067e-11
2.16076e-11
2.99087e-11
9.66163e-11
4.11863e-10
1.85714e-09
2.93452e-08
5.85773e-09
1.04781e-08
2.70889e-07
6.32221e-07
4.88481e-07
1.97091e-07
1.54447e-07
5.23256e-08
5.05972e-08
8.31331e-08
1.28664e-07
1.42255e-07
7.2055e-08
4.44877e-14
4.07526e-13
3.52581e-12
7.70924e-12
1.34287e-11
2.01408e-11
3.51271e-11
6.5788e-11
1.17389e-10
1.91692e-10
4.8083e-10
1.79054e-08
1.87283e-07
3.12913e-07
8.51162e-08
4.83678e-08
4.27441e-08
4.27306e-08
4.77136e-08
6.03241e-08
6.70528e-08
4.46556e-08
2.03701e-08
5.61475e-15
7.49032e-14
7.50543e-13
3.54191e-12
8.22877e-12
1.35338e-11
2.92994e-11
7.59586e-11
1.66478e-10
1.98628e-10
1.15742e-09
2.49231e-08
2.75484e-08
4.19692e-08
6.34471e-08
9.73179e-08
5.72468e-08
5.57346e-08
2.95071e-08
2.73268e-08
1.85234e-08
1.27742e-08
4.94738e-09
5.35122e-16
1.30351e-14
2.18367e-13
1.5906e-12
4.26703e-12
7.70812e-12
1.94067e-11
5.84074e-11
1.50758e-10
2.78699e-10
1.33257e-09
7.16245e-09
1.65818e-08
5.01533e-08
1.09952e-07
1.29684e-07
1.12448e-07
6.87589e-08
3.4187e-08
1.22921e-08
6.08896e-09
2.90408e-09
3.25247e-09
1.38374e-16
5.964e-15
9.79297e-14
6.21901e-13
1.7278e-12
3.70448e-12
1.1258e-11
3.79411e-11
1.03695e-10
2.46094e-10
5.07972e-10
2.67141e-09
2.11643e-08
6.48012e-08
1.30155e-07
1.30282e-07
1.02888e-07
7.16147e-08
4.1173e-08
1.66921e-08
5.73618e-09
2.40743e-09
1.24171e-09
8.94218e-17
2.97198e-15
3.59163e-14
1.89073e-13
5.44945e-13
1.49837e-12
5.7598e-12
2.13943e-11
6.15077e-11
1.73303e-10
2.45702e-10
1.62213e-09
1.83756e-08
5.65398e-08
1.07516e-07
1.17418e-07
9.2392e-08
6.59062e-08
3.91407e-08
1.91859e-08
7.37656e-09
2.19595e-09
8.98211e-10
3.57564e-17
7.97228e-16
7.9147e-15
3.96776e-14
1.375e-13
5.64153e-13
2.76236e-12
1.13037e-11
3.5603e-11
9.23264e-11
1.47388e-10
4.64576e-10
9.79647e-09
3.75944e-08
3.62638e-08
5.94275e-08
6.6164e-08
4.92813e-08
3.03757e-08
1.55942e-08
6.31805e-09
1.95658e-09
4.37402e-10
5.57408e-18
1.08371e-16
1.04167e-15
5.9094e-15
3.14177e-14
1.97543e-13
1.09618e-12
4.62307e-12
1.44277e-11
3.2341e-11
4.75851e-11
7.8372e-11
2.0423e-09
8.48631e-09
2.53382e-08
3.75444e-08
3.70973e-08
2.91049e-08
1.88333e-08
1.0254e-08
4.43515e-09
1.41752e-09
3.11568e-10
9.0763e-21
7.54197e-19
2.49466e-17
4.47977e-16
5.23776e-15
4.2792e-14
2.53597e-13
1.10467e-12
3.4561e-12
7.38365e-12
1.07918e-11
1.75257e-11
1.82245e-10
2.59014e-09
6.36259e-09
1.19642e-08
1.59857e-08
1.27852e-08
8.10153e-09
4.80767e-09
2.20619e-09
7.41382e-10
1.83087e-10
1.3854e-21
8.09586e-20
2.33388e-18
4.20228e-17
5.12885e-16
4.43902e-15
2.79293e-14
1.28249e-13
4.33761e-13
1.10997e-12
2.28665e-12
4.85581e-12
1.42489e-11
1.34475e-10
9.64146e-10
3.26529e-09
4.69006e-09
4.29616e-09
2.40853e-09
1.34025e-09
6.61528e-10
2.65792e-10
6.74672e-11
2.16467e-23
1.72663e-21
6.35056e-20
1.39713e-18
2.05151e-17
2.14674e-16
1.67148e-15
9.92967e-15
4.59946e-14
1.68197e-13
4.95471e-13
1.23225e-12
3.04284e-12
8.99918e-12
3.36423e-11
3.10019e-10
7.95493e-10
8.38663e-10
5.38109e-10
2.35704e-10
1.21015e-10
5.25817e-11
1.90482e-11
5.27959e-24
3.55216e-22
1.16127e-20
2.37602e-19
3.42295e-18
3.67598e-17
3.02765e-16
1.95038e-15
1.0033e-14
4.20718e-14
1.44754e-13
4.1465e-13
1.10605e-12
3.16383e-12
9.56102e-12
2.25775e-11
5.47129e-11
9.80156e-11
8.06016e-11
3.88806e-11
1.66409e-11
8.07895e-12
4.26674e-12
3.55083e-25
2.6016e-23
9.18859e-22
2.00582e-20
3.07509e-19
3.54007e-18
3.19376e-17
2.3196e-16
1.37139e-15
6.56253e-15
2.56823e-14
8.48451e-14
2.40221e-13
5.7776e-13
1.20485e-12
2.3022e-12
4.42486e-12
8.21792e-12
1.0152e-11
9.42928e-12
5.7796e-12
2.59719e-12
1.11563e-12
4.03024e-26
2.97852e-24
1.07165e-22
2.41853e-21
3.84089e-20
4.54911e-19
4.16057e-18
3.02669e-17
1.78978e-16
8.78819e-16
3.65595e-15
1.30237e-14
3.96301e-14
1.04801e-13
2.40912e-13
4.74849e-13
8.09149e-13
1.1662e-12
1.36223e-12
1.24053e-12
8.67999e-13
4.62922e-13
2.10686e-13
4.5994e-28
3.59534e-26
1.36913e-24
3.28842e-23
5.66113e-22
7.49737e-21
7.94414e-20
6.86731e-19
4.90974e-18
2.93331e-17
1.4631e-16
6.05548e-16
2.08928e-15
6.07924e-15
1.5061e-14
3.24124e-14
5.99322e-14
9.31545e-14
1.18543e-13
1.20251e-13
9.5804e-14
5.96827e-14
3.18452e-14
4.49122e-30
3.90009e-28
1.65338e-26
4.43397e-25
8.45128e-24
1.21583e-22
1.37581e-21
1.259e-20
9.46816e-20
5.92679e-19
3.14898e-18
1.44834e-17
5.79864e-17
2.00389e-16
5.95169e-16
1.4891e-15
3.10549e-15
5.41142e-15
7.81933e-15
9.23486e-15
8.6569e-15
6.34375e-15
4.00387e-15
2.18307e-32
2.07794e-30
9.72682e-29
2.90614e-27
6.25408e-26
1.0336e-24
1.35986e-23
1.45687e-22
1.29389e-21
9.65398e-21
6.07654e-20
3.21981e-19
1.43921e-18
5.4736e-18
1.7768e-17
4.95729e-17
1.19237e-16
2.43517e-16
4.13532e-16
5.68874e-16
6.23233e-16
5.47184e-16
4.19151e-16
1.07123e-34
1.14032e-32
5.91775e-31
1.95757e-29
4.64129e-28
8.40669e-27
1.21014e-25
1.42025e-24
1.38195e-23
1.1279e-22
7.81276e-22
4.65321e-21
2.39942e-20
1.07041e-19
4.1221e-19
1.36037e-18
3.79748e-18
8.89862e-18
1.73804e-17
2.80093e-17
3.66326e-17
3.89716e-17
3.67958e-17
2.7011e-37
3.23514e-35
1.91678e-33
7.30475e-32
2.01005e-30
4.24575e-29
7.13691e-28
9.77816e-27
1.11162e-25
1.06296e-24
8.6247e-24
5.96629e-23
3.53052e-22
1.79217e-21
7.81745e-21
2.93004e-20
9.42731e-20
2.5861e-19
5.96833e-19
1.14021e-18
1.78658e-18
2.33116e-18
2.74964e-18
5.82228e-40
8.03242e-38
5.42387e-36
2.35274e-34
7.35279e-33
1.76367e-31
3.37401e-30
5.27878e-29
6.8719e-28
7.5324e-27
7.00791e-26
5.57763e-25
3.82812e-24
2.27217e-23
1.16503e-22
5.14633e-22
1.94803e-21
6.27444e-21
1.70736e-20
3.89401e-20
7.40832e-20
1.19752e-19
1.77395e-19
7.36783e-43
1.2023e-40
9.51592e-39
4.84176e-37
1.77758e-35
5.01766e-34
1.13094e-32
2.08305e-31
3.18875e-30
4.11055e-29
4.50899e-28
4.23525e-27
3.41761e-26
2.37728e-25
1.42889e-24
7.4178e-24
3.31756e-23
1.27223e-22
4.15208e-22
1.14476e-21
2.66658e-21
5.37279e-21
1.00028e-20
6.03394e-46
1.21739e-43
1.15431e-41
6.98564e-40
3.03902e-38
1.01539e-36
2.71364e-35
5.94758e-34
1.08756e-32
1.67821e-31
2.20072e-30
2.4681e-29
2.38132e-28
1.98371e-27
1.42917e-26
8.90354e-26
4.78608e-25
2.21116e-24
8.73565e-24
2.9395e-23
8.45511e-23
2.1307e-22
4.97104e-22
2.86933e-49
7.88358e-47
9.26968e-45
6.77027e-43
3.5114e-41
1.38719e-39
4.3723e-38
1.14129e-36
2.5197e-35
4.75489e-34
7.70526e-33
1.07283e-31
1.28307e-30
1.31935e-29
1.16684e-28
8.89434e-28
5.84535e-27
3.30563e-26
1.60324e-25
6.65488e-25
2.37905e-24
7.50663e-24
2.18652e-23
7.07007e-53
3.53928e-50
5.4399e-48
4.867e-46
3.04116e-44
1.44273e-42
5.46019e-41
1.70718e-39
4.51369e-38
1.02392e-36
2.01285e-35
3.44561e-34
5.13991e-33
6.67069e-32
7.48864e-31
7.23289e-30
5.98727e-29
4.23643e-28
2.56169e-27
1.32637e-26
5.93181e-26
2.34589e-25
8.5081e-25
1.79006e-56
1.8399e-53
3.58582e-51
3.78631e-49
2.75101e-47
1.51544e-45
6.67379e-44
2.4319e-42
7.51771e-41
2.00821e-39
4.69076e-38
9.62663e-37
1.73581e-35
2.74509e-34
3.81736e-33
4.65189e-32
4.93121e-31
4.49354e-30
3.48019e-29
2.2895e-28
1.29368e-27
6.43585e-27
2.90812e-26
2.50333e-59
2.68632e-56
5.69265e-54
6.47831e-52
5.03573e-50
2.95643e-48
1.38255e-46
5.33273e-45
1.74396e-43
4.94767e-42
1.24257e-40
2.80726e-39
5.75217e-38
1.06772e-36
1.78175e-35
2.63941e-34
3.42948e-33
3.89292e-32
3.84427e-31
3.27389e-30
2.39123e-29
1.51577e-28
8.58966e-28
2.34209e-61
1.7609e-58
3.41465e-56
3.69302e-54
2.74958e-52
1.55364e-50
7.06168e-49
2.67588e-47
8.65948e-46
2.43937e-44
6.08037e-43
1.3619e-41
2.78029e-40
5.23386e-39
9.14397e-38
1.48645e-36
2.2338e-35
3.04352e-34
3.67685e-33
3.88215e-32
3.58694e-31
2.92524e-30
2.1215e-29
3.64853e-63
1.96368e-60
3.42346e-58
3.49398e-56
2.49317e-54
1.35947e-52
5.98798e-51
2.21066e-49
7.03186e-48
1.96759e-46
4.91021e-45
1.10438e-43
2.25946e-42
4.23873e-41
7.33999e-40
1.18074e-38
1.77661e-37
2.51528e-36
3.35222e-35
4.162e-34
4.70674e-33
4.74787e-32
4.27072e-31
2.07125e-65
9.53733e-63
1.66418e-60
1.76513e-58
1.33026e-56
7.71507e-55
3.61762e-53
1.41982e-51
4.78194e-50
1.40794e-48
3.6811e-47
8.65637e-46
1.85109e-44
3.63435e-43
6.59651e-42
1.11278e-40
1.7525e-39
2.58417e-38
3.57354e-37
4.63733e-36
5.65463e-35
6.49257e-34
7.03585e-33
6.65776e-68
3.20902e-65
6.04408e-63
6.90493e-61
5.58022e-59
3.45727e-57
1.7256e-55
7.18064e-54
2.55514e-52
7.92957e-51
2.18041e-49
5.38226e-48
1.20589e-46
2.47765e-45
4.72014e-44
8.41623e-43
1.41379e-41
2.24843e-40
3.39601e-39
4.8759e-38
6.64e-37
8.55083e-36
1.04251e-34
0.000268752
0.00142144
0.004234
0.00892677
0.00078368
0.00164533
0.0034557
0.00798656
0.00868346
0.00902243
0.00968252
0.0116785
0.00517801
0.00724728
0.00998659
0.0134914
0.0320283
0.0458348
0.0647265
0.0860704
0.447396
0.477746
0.509466
0.540332
0.893919
0.871848
0.850632
0.827239
0.448423
0.392477
0.30407
0.210317
0.00119442
0.000694442
0.000214013
3.76067e-05
1.27479e-07
1.96968e-07
2.20281e-07
1.83757e-07
9.00683e-08
8.35769e-08
6.66893e-08
5.69174e-08
5.90884e-08
5.7966e-08
4.38787e-08
4.57749e-08
2.42183e-08
1.31929e-08
1.84756e-08
3.08331e-08
8.54505e-09
1.149e-08
1.74446e-08
3.19435e-08
4.00088e-09
4.80044e-09
9.75474e-09
1.23698e-08
1.96025e-09
2.43119e-09
2.84773e-09
3.78473e-09
1.0806e-09
9.86842e-10
1.00199e-09
1.16015e-09
4.14346e-10
3.74254e-10
3.24552e-10
3.51035e-10
1.58034e-10
1.25715e-10
1.12652e-10
9.96175e-11
8.72426e-11
6.75831e-11
5.09689e-11
4.03507e-11
5.20249e-11
3.73515e-11
2.59329e-11
1.868e-11
2.31083e-11
1.6547e-11
1.13588e-11
7.81554e-12
7.91199e-12
5.73068e-12
4.00042e-12
2.75634e-12
2.29451e-12
1.7172e-12
1.23214e-12
8.59988e-13
5.59465e-13
4.364e-13
3.25109e-13
2.32749e-13
1.14689e-13
9.34701e-14
7.2342e-14
5.34435e-14
1.97142e-14
1.69239e-14
1.37119e-14
1.05229e-14
2.86118e-15
2.59677e-15
2.21531e-15
1.77733e-15
3.52599e-16
3.40921e-16
3.08706e-16
2.60875e-16
3.71974e-17
3.86213e-17
3.74232e-17
3.35588e-17
3.38189e-18
3.80815e-18
3.98488e-18
3.82673e-18
2.67026e-19
3.29478e-19
3.75905e-19
3.91701e-19
1.84474e-20
2.52099e-20
3.16902e-20
3.65622e-20
1.12197e-21
1.71709e-21
2.41559e-21
3.30118e-21
6.03391e-23
1.04696e-22
1.68861e-22
3.09238e-22
2.8718e-24
5.72329e-24
1.08837e-23
2.94155e-23
1.2051e-25
2.80598e-25
6.60537e-25
2.96959e-24
4.40572e-27
1.22437e-26
3.7735e-26
2.87394e-25
1.37065e-28
4.7217e-28
2.1657e-27
3.02236e-26
3.48072e-30
1.52392e-29
1.0744e-28
2.46427e-27
7.38072e-32
5.03664e-31
9.36581e-30
3.94822e-28
1.21842e-33
7.27368e-33
5.45229e-32
1.10424e-30
0.0985018
0.188284
0.310086
0.432648
0.543682
0.613008
0.669404
0.71756
0.760981
0.761353
0.726058
0.594669
0.325946
0.229707
0.250691
0.457888
0.799005
0.932127
0.857052
0.0217047
0.049428
0.0966388
0.170348
0.254095
0.342817
0.409744
0.462321
0.508408
0.541441
0.561026
0.573472
0.593095
0.623763
0.693546
0.77562
0.86051
0.934455
0.899066
0.017104
0.0305542
0.062276
0.107521
0.141636
0.178255
0.209456
0.242952
0.268963
0.294746
0.332359
0.387669
0.459478
0.551862
0.67885
0.782613
0.869203
0.937671
0.92888
0.0260824
0.0666094
0.133998
0.234731
0.291031
0.286666
0.271604
0.265267
0.262995
0.264018
0.301056
0.372205
0.450358
0.561969
0.72293
0.815815
0.863384
0.941478
0.952886
0.154196
0.307841
0.444824
0.541235
0.590447
0.590236
0.574863
0.51838
0.462259
0.463876
0.471409
0.495123
0.561985
0.71108
0.790783
0.792605
0.786354
0.932634
0.970879
0.618941
0.632399
0.631677
0.505792
0.492381
0.580347
0.644996
0.645738
0.641771
0.620784
0.574376
0.495192
0.652438
0.848267
0.785387
0.785359
0.786679
0.889261
0.984353
0.751269
0.528745
0.119887
0.0116445
0.0108045
0.0372954
0.132266
0.245215
0.231984
0.171725
0.229558
0.587171
0.915925
0.949819
0.828445
0.806175
0.814738
0.939456
0.993366
0.074387
0.00490561
3.59359e-05
4.9479e-07
6.20365e-07
1.63085e-06
2.19013e-05
0.000388407
0.00113094
0.015316
0.455052
0.932987
0.995111
0.994876
0.957719
0.892483
0.953748
0.989037
0.99764
5.43897e-06
2.68884e-07
8.50774e-08
9.03907e-08
1.27592e-07
1.47944e-07
2.54169e-07
8.65003e-07
0.00164308
0.147178
0.758894
0.992832
0.998856
0.998896
0.994712
0.985083
0.991192
0.997643
0.997798
8.59657e-08
6.88281e-08
8.3318e-08
2.3586e-07
4.21758e-07
5.45172e-07
9.37843e-07
2.44403e-06
0.00132192
0.0864988
0.578728
0.961816
0.997832
0.999075
0.999048
0.996963
0.995831
0.996992
0.997471
5.57089e-08
7.05326e-08
3.02823e-07
6.68042e-07
1.08735e-06
1.36246e-06
1.85356e-06
2.67023e-06
9.83346e-05
0.00858808
0.140098
0.58603
0.931342
0.997846
0.999496
0.99956
0.998893
0.998494
0.998921
6.13666e-08
1.94611e-07
5.5937e-07
8.26647e-07
8.16592e-07
8.40303e-07
9.44636e-07
1.26112e-06
3.79855e-06
0.000146127
0.0066387
0.0770345
0.38532
0.853157
0.998098
0.999838
0.999855
0.999848
0.999893
7.12337e-08
2.04784e-07
3.12344e-07
3.61135e-07
3.44019e-07
3.80003e-07
4.76904e-07
6.33317e-07
9.99029e-07
3.81069e-06
5.68106e-05
0.00172294
0.0234297
0.198902
0.677387
0.961288
0.999314
0.999972
0.999984
5.59697e-08
7.82841e-08
1.44201e-07
1.44346e-07
1.3885e-07
1.73361e-07
2.57215e-07
4.04521e-07
6.44359e-07
1.09927e-06
3.42914e-06
6.08034e-06
0.000218322
0.0061237
0.0683176
0.295816
0.695589
0.981186
0.999632
1.74307e-08
2.50925e-08
3.41195e-08
4.4595e-08
5.30178e-08
7.9178e-08
1.44548e-07
2.77031e-07
5.0922e-07
8.4758e-07
1.69251e-06
2.45606e-06
2.21685e-06
1.95901e-05
0.000577808
0.0067074
0.0581249
0.458004
0.957487
5.14818e-09
7.31316e-09
1.09756e-08
1.46536e-08
2.2493e-08
3.99254e-08
8.67617e-08
1.97283e-07
4.14863e-07
7.55272e-07
1.22811e-06
1.9522e-06
2.04773e-06
2.26105e-06
2.5264e-06
8.36879e-06
0.00204167
0.132767
0.860003
1.34259e-09
2.35425e-09
3.4643e-09
5.17778e-09
8.4848e-09
1.8886e-08
4.99248e-08
1.35559e-07
3.29028e-07
6.66055e-07
1.13224e-06
1.74537e-06
1.90144e-06
1.97446e-06
2.07497e-06
2.60457e-06
0.00250009
0.280639
0.907668
4.18434e-10
6.45177e-10
1.15463e-09
1.85994e-09
3.51427e-09
8.98269e-09
2.78916e-08
8.52983e-08
2.36498e-07
5.41731e-07
9.93154e-07
1.51443e-06
1.7931e-06
1.81081e-06
1.8796e-06
2.1346e-06
0.000305356
0.54328
0.955116
9.45154e-11
1.56679e-10
3.21815e-10
5.52525e-10
1.36136e-09
4.03252e-09
1.36529e-08
4.61523e-08
1.43206e-07
3.76376e-07
7.85625e-07
1.29317e-06
1.67615e-06
1.70856e-06
1.8058e-06
2.05565e-06
3.73695e-06
0.506504
0.966466
3.48866e-11
2.86455e-11
7.36295e-11
1.87509e-10
5.10311e-10
1.72801e-09
6.17627e-09
2.17271e-08
7.1116e-08
2.06468e-07
4.99494e-07
9.80814e-07
1.45717e-06
1.57848e-06
1.73189e-06
1.98694e-06
2.75312e-06
0.209478
0.929893
1.43799e-11
1.04588e-11
1.73528e-11
4.5629e-11
1.67826e-10
6.79558e-10
2.57656e-09
9.27979e-09
3.08426e-08
9.32734e-08
2.53292e-07
5.85351e-07
1.04898e-06
1.31135e-06
1.50987e-06
1.82904e-06
2.46694e-06
0.0390078
0.839294
5.52973e-12
2.79138e-12
5.0248e-12
1.44629e-11
5.28711e-11
2.29141e-10
9.66684e-10
3.62267e-09
1.23145e-08
3.86458e-08
1.09624e-07
2.7532e-07
5.74435e-07
9.02922e-07
1.13156e-06
1.5804e-06
2.24901e-06
0.00560599
0.778681
1.90628e-12
7.28249e-13
1.13102e-12
3.58782e-12
1.45093e-11
6.56491e-11
2.98696e-10
1.22368e-09
4.41077e-09
1.46216e-08
4.23328e-08
1.0995e-07
2.46392e-07
4.84423e-07
7.9238e-07
1.40948e-06
2.14187e-06
0.00084677
0.771895
5.92355e-13
1.90861e-13
2.25046e-13
7.19916e-13
3.21342e-12
1.5967e-11
7.70388e-11
3.52891e-10
1.43641e-09
5.11753e-09
1.52852e-08
4.0379e-08
9.11284e-08
1.88841e-07
5.97774e-07
1.50435e-06
2.1987e-06
0.000152147
0.733102
1.61879e-13
4.84024e-14
3.82782e-14
1.08972e-13
5.06689e-13
2.79083e-12
1.53756e-11
8.02692e-11
3.89105e-10
1.61165e-09
5.33386e-09
1.53915e-08
3.80796e-08
6.38944e-08
4.45345e-07
1.73428e-06
2.32096e-06
3.56296e-05
0.661907
3.80765e-14
1.19825e-14
8.11767e-15
2.66389e-14
1.48189e-13
8.94282e-13
5.10018e-12
2.64809e-11
1.24933e-10
5.13289e-10
2.01013e-09
6.31251e-09
1.68039e-08
4.45568e-08
4.24956e-07
1.78634e-06
2.42913e-06
1.78352e-05
0.642219
7.73924e-15
2.74335e-15
2.19984e-15
1.09165e-14
7.87083e-14
5.5198e-13
3.51834e-12
2.00021e-11
1.00575e-10
4.40657e-10
1.70972e-09
5.71354e-09
1.67464e-08
6.41505e-08
5.37633e-07
1.65706e-06
2.66577e-06
1.8564e-05
0.619681
1.36049e-15
5.88975e-16
8.71267e-16
6.65011e-15
5.71447e-14
4.52174e-13
3.21183e-12
2.02855e-11
1.12915e-10
5.49366e-10
2.36271e-09
8.88187e-09
2.86915e-08
1.53082e-07
5.93238e-07
4.70183e-06
4.61432e-06
4.47036e-05
0.565849
2.09631e-16
1.1829e-16
3.33932e-16
3.27517e-15
3.22437e-14
2.8785e-13
2.29669e-12
1.62582e-11
1.01321e-10
5.49753e-10
2.60471e-09
1.08318e-08
3.85258e-08
2.05402e-07
6.83464e-07
1.67976e-05
1.20089e-05
0.000380319
0.350694
2.84649e-17
2.04827e-17
8.83759e-17
1.07534e-15
1.26175e-14
1.3334e-13
1.2569e-12
1.04982e-11
7.70953e-11
4.9137e-10
2.69392e-09
1.27584e-08
5.13347e-08
2.758e-07
2.5103e-06
4.49696e-05
1.65368e-05
0.00151345
0.089906
3.47711e-18
3.70776e-18
2.83881e-17
4.17713e-16
5.69047e-15
6.92862e-14
7.48607e-13
7.12739e-12
5.94392e-11
4.26918e-10
2.59402e-09
1.3116e-08
6.04088e-08
4.04609e-07
7.80467e-06
0.000157425
1.96892e-05
0.000854633
0.00658198
4.011e-19
9.41457e-19
1.26025e-17
2.05681e-16
3.03126e-15
4.00345e-14
4.74654e-13
5.0594e-12
4.80795e-11
3.93023e-10
2.60765e-09
1.36288e-08
5.76104e-08
3.57791e-07
8.56e-06
0.000232466
0.000339975
0.000482332
0.000494654
4.70283e-20
2.73716e-19
4.9144e-18
8.70697e-17
1.35424e-15
1.82715e-14
2.15138e-13
2.37256e-12
2.74977e-11
2.96897e-10
2.06527e-09
1.10971e-08
4.50757e-08
2.23341e-07
1.73542e-06
0.000190821
0.00184539
0.00232221
0.00406985
7.53999e-21
1.11225e-19
2.44389e-18
4.89838e-17
8.63734e-16
1.31773e-14
1.70892e-13
1.9003e-12
1.98241e-11
1.99247e-10
1.38798e-09
7.50057e-09
3.09276e-08
1.50499e-07
1.14395e-06
0.000140269
0.00416329
0.0400237
0.238253
1.46366e-21
3.43086e-20
8.66332e-19
1.96356e-17
3.94361e-16
6.97461e-15
1.07706e-13
1.43327e-12
1.61607e-11
1.50913e-10
1.10429e-09
5.96253e-09
2.21732e-08
9.66912e-08
1.3708e-06
0.000352252
0.0179978
0.210205
0.825199
2.46798e-22
7.51373e-21
2.20342e-19
5.74215e-18
1.31999e-16
2.66257e-15
4.67894e-14
7.08042e-13
9.07783e-12
9.55143e-11
7.89248e-10
4.78433e-09
1.87278e-08
6.76497e-08
6.36656e-07
0.000531821
0.0474426
0.517114
0.983964
3.96694e-23
1.49493e-21
5.14498e-20
1.55897e-18
4.13539e-17
9.54431e-16
1.89987e-14
3.23244e-13
4.59556e-12
5.30217e-11
4.76271e-10
3.16294e-09
1.40027e-08
5.61935e-08
2.43581e-07
0.000166482
0.032334
0.603881
0.985829
5.39934e-24
2.47095e-22
1.00643e-20
3.57884e-19
1.10617e-17
2.95252e-16
6.74308e-15
1.29696e-13
2.04455e-12
2.56782e-11
2.47421e-10
1.70711e-09
8.00509e-09
2.25397e-08
1.4478e-07
5.49276e-06
0.00458491
0.509882
0.985829
7.74065e-25
4.34738e-23
2.12709e-21
8.99164e-20
3.2636e-18
1.00957e-16
2.63817e-15
5.6948e-14
9.91296e-13
1.35411e-11
1.40232e-10
1.04142e-09
5.66324e-09
3.01745e-08
4.07934e-07
9.71772e-07
8.32831e-05
0.250244
0.985285
8.57043e-26
6.24759e-24
3.92098e-22
2.1118e-20
9.75945e-19
3.86014e-17
1.29018e-15
3.57599e-14
8.08924e-13
1.46607e-11
2.0941e-10
2.34239e-09
2.08325e-08
1.8851e-07
1.02829e-06
1.32489e-06
2.15919e-06
0.0545897
0.954054
1.85755e-26
1.82693e-24
1.55592e-22
1.13098e-20
6.9346e-19
3.54365e-17
1.49751e-15
5.15454e-14
1.41283e-12
2.9857e-11
4.64202e-10
5.02721e-09
3.31225e-08
1.41832e-07
5.22824e-07
6.6367e-07
1.03793e-06
0.00552408
0.797288
5.42334e-29
7.13135e-27
8.92226e-25
1.03281e-22
1.10502e-20
9.82334e-19
6.3283e-17
3.08356e-15
1.14397e-13
3.13605e-12
5.96877e-11
7.18332e-10
5.08513e-09
9.36266e-09
4.66113e-08
7.13926e-08
7.39364e-07
0.000130971
0.393302
)
;

boundaryField
{
    leftWall
    {
        type            zeroGradient;
    }
    rightWall
    {
        type            zeroGradient;
    }
    lowerWall
    {
        type            zeroGradient;
    }
    atmosphere
    {
        type            inletOutlet;
        inletValue      uniform 0;
        value           nonuniform List<scalar> 
46
(
0
0
0
0
0
0
0
0
0
0
0
0
0
0
0
0
0
0
0
0
0
0
0
0
0
0
0
0
0
0
0
1.10502e-20
9.82334e-19
6.3283e-17
3.08356e-15
1.14397e-13
3.13605e-12
5.96877e-11
7.18332e-10
5.08513e-09
0
4.66113e-08
0
7.39364e-07
0.000130971
0.393302
)
;
    }
    defaultFaces
    {
        type            empty;
    }
}


// ************************************************************************* //
