/*--------------------------------*- C++ -*----------------------------------*\
| =========                 |                                                 |
| \\      /  F ield         | OpenFOAM: The Open Source CFD Toolbox           |
|  \\    /   O peration     | Version:  2.4.0                                 |
|   \\  /    A nd           | Web:      www.OpenFOAM.org                      |
|    \\/     M anipulation  |                                                 |
\*---------------------------------------------------------------------------*/
FoamFile
{
    version     2.0;
    format      ascii;
    class       volScalarField;
    location    "0.5";
    object      p;
}
// * * * * * * * * * * * * * * * * * * * * * * * * * * * * * * * * * * * * * //

dimensions      [1 -1 -2 0 0 0 0];

internalField   nonuniform List<scalar> 
2268
(
4582.23
4579.72
4569.61
4578.24
4553.95
4547.55
4538.25
4512.19
4494.34
4484.52
4487.95
4515.06
4571.65
4686.83
4888.18
5207.31
5674.17
6229.72
6812.1
7343.07
7759.7
8046.84
8166.61
3779.92
3776.56
3768.2
3772.54
3752.73
3745.64
3733.25
3705.9
3689.37
3680.16
3681.25
3707.07
3788.18
3925.83
4126.26
4422.35
4857.33
5411.87
6010.93
6552.78
6982.8
7264.5
7383.58
2973.09
2968.7
2962.35
2961.01
2946.32
2938.37
2922.31
2892.08
2870.44
2851.74
2844.94
2850.04
2882.51
2962.39
3150.82
3484.08
3977.62
4570.76
5204.11
5779.05
6213.3
6495.47
6644.67
2185.06
2180.49
2180.62
2171.56
2169.77
2162.38
2143.24
2126.54
2111.35
2096.46
2085.36
2100.02
2164.61
2296.07
2492.55
2720.17
3109.19
3693.67
4378.85
5009.98
5459.84
5753.63
5898.08
1265.77
1256.73
1263.67
1238.6
1247.79
1227.82
1184.56
1169.85
1151.52
1139.37
1122.56
1125.01
1137.38
1175.15
1238.75
1545.86
2152.64
2823.34
3571.38
4256.94
4726.71
5017.61
5153.39
779.528
779.624
783.877
784.289
792.266
799.468
805.292
813.487
819.339
822.588
824.728
827.686
831.799
842.937
878.365
974.835
1158.6
1780.48
2770.9
3518.11
4017.68
4310.92
4434.5
766.312
770.179
773.766
782.915
791.17
802.537
817.862
828.477
836.341
845.061
857.47
876.568
899.529
926.012
942
941.457
929.472
1075.85
1949.63
2786.05
3321
3641.18
3751.2
704.02
706.989
711.086
717.069
724.327
730.749
734.766
739.906
742.72
742.987
740.72
741.756
743.516
751.83
788.252
837.229
906.891
871.331
1245.22
2091.96
2651.57
2994.73
3099.15
2775.95
2773.69
2743.14
2686.78
2630.52
2607.64
2611.16
2615.73
2614.19
2551.27
2296.34
2037.73
1949.01
1987.42
2078.31
2778.39
3641.26
4434.66
5422.8
2742.65
2741.55
2702.62
2631.25
2563.33
2521.99
2496.09
2469.04
2441.53
2353.98
2149.93
1868.21
1791.84
1791.12
1778.69
2064.2
2710.5
3704.17
4776.18
2706.48
2715.02
2688.9
2630.89
2562.84
2523.59
2515.36
2507.38
2500.84
2491.21
2228.42
1829.89
1776.14
1775.41
1781.7
2087.52
2414.79
3112.93
4234.89
2667.2
2681.48
2645.87
2576.82
2499.16
2442.75
2402.23
2359.26
2326.24
2278.86
1951.47
1785.76
1772.63
1771.68
1770.99
1889.92
2271.76
2685.38
3711.25
2617.04
2636.12
2610.02
2544.7
2456.69
2370.65
2300.89
2236.78
2181.13
2117.68
1856.31
1772.05
1772.33
1772.75
1769.47
1815.08
2064.08
2482.02
3238.38
2535.1
2548.45
2512.14
2441.96
2336.13
2222
2127.4
2052.42
1994.4
1935.75
1770.53
1755.63
1771.06
1771.61
1767.92
1798.47
1962.39
2313.96
2876.69
2383.32
2401.06
2337.27
2257.51
2134.12
1997.85
1898.89
1835.47
1791.39
1758.82
1682.4
1739.49
1770.87
1770.56
1766.11
1788.53
1877.45
2135.66
2575.34
2083.57
2168.08
2082.88
1982.03
1838.5
1699.07
1618.66
1583.57
1568.89
1566.47
1563.57
1696.6
1770.39
1771.97
1768.58
1770.47
1795.61
1966.95
2309.84
600.218
604.258
609.709
618.411
626.988
635.87
643.773
651.575
659.601
672.385
689.725
715.753
747.104
777.869
789.357
787.872
796.776
824.276
755.935
1067.82
1637.1
2020.2
2084.4
488.74
492.354
498.287
505.078
510.955
515.562
521.42
525.984
529.069
534.847
542.317
548.307
554.104
561.971
580.6
607.88
635.864
645.242
613.925
532.881
545.534
730.739
980.777
319.445
323.457
331.229
341.194
355.595
373.267
385.463
388.146
386.656
389.259
394.544
403.78
417.37
438.738
458.713
473.659
488.613
488.837
462.127
393.948
315.009
236.856
172.089
211.83
221.823
244.738
264.656
274.559
275.831
266.967
256.037
245.461
242.193
248.535
261.228
276.373
295.192
312.322
329.957
345.368
349.308
336.12
300.995
232.918
166.549
132.494
33.1192
36.6908
44.2052
47.431
63.0675
90.7374
115.182
111.313
120.672
122.44
126.967
136.11
142.832
152.794
165.765
181.864
204.722
220.764
227.698
220.154
200.347
172.982
141.603
3.7388
3.81659
4.06324
4.9069
6.231
6.86369
12.145
13.0907
19.1219
24.0465
33.9888
51.368
72.5795
91.6193
103.438
109.901
115.68
121.415
131.642
130.337
118.597
104.365
92.4501
5.37602
5.28711
5.07887
4.71175
4.40852
4.26062
4.02371
3.85991
3.82771
3.9507
4.82049
7.39216
14.4095
22.4987
28.9366
37.6731
46.0374
54.839
65.5036
59.8567
57.51
49.346
40.799
4.3619
4.42239
4.51475
4.59904
4.7301
4.93794
5.15831
4.957
4.75571
4.70795
4.49854
4.23905
4.20969
4.41188
4.85212
4.91422
4.90443
7.32637
10.0806
9.77232
11.0395
9.07779
8.25676
4.53769
4.48088
4.41936
4.39731
4.3201
4.38327
4.32996
4.20501
4.17488
4.2676
4.47283
4.62974
4.58365
4.43457
4.28854
4.13744
3.96028
3.70131
3.50116
3.42209
3.44017
3.46948
3.56867
4.3729
4.35999
4.35524
4.36905
4.38556
4.44597
4.42417
4.38956
4.28337
4.24178
4.20696
4.20274
4.23832
4.25787
4.27674
4.25991
4.46621
4.65975
4.77045
4.76828
4.73403
4.70294
4.61118
4.18059
4.17286
4.16532
4.16117
4.15595
4.17064
4.1477
4.14608
4.15525
4.16618
4.17661
4.16693
4.1416
4.10891
4.05726
3.9866
3.9131
3.83883
3.77809
3.74045
3.73349
3.75764
3.797
4.08946
4.08243
4.07637
4.07278
4.07046
4.07906
4.06338
4.05664
4.04591
4.04011
4.04045
4.02453
4.0095
3.99273
3.97964
3.98376
4.02687
4.0687
4.08932
4.0948
4.08667
4.0712
4.0411
3.91167
3.91261
3.91373
3.91586
3.91784
3.92269
3.91875
3.91942
3.91688
3.91316
3.91439
3.89738
3.87937
3.86066
3.83853
3.81388
3.79333
3.77544
3.76182
3.75452
3.75639
3.75743
3.75774
3.79445
3.7916
3.78877
3.78624
3.78481
3.78547
3.78214
3.78033
3.77724
3.77405
3.77195
3.76184
3.74779
3.73275
3.71847
3.70796
3.70184
3.69542
3.68525
3.67366
3.66164
3.65275
3.64737
3.65436
3.65392
3.65239
3.65055
3.64905
3.64807
3.64558
3.64373
3.64019
3.63652
3.631
3.62245
3.61144
3.59922
3.58713
3.57714
3.56936
3.56204
3.55361
3.54506
3.5367
3.52906
3.52211
3.51786
3.51728
3.51603
3.51462
3.51314
3.51144
3.50912
3.507
3.50316
3.49935
3.49389
3.48665
3.47807
3.4687
3.45884
3.44953
3.44105
3.43283
3.42476
3.41654
3.40822
3.40034
3.39308
3.38154
3.38102
3.38
3.37876
3.37723
3.37539
3.37306
3.37066
3.36704
3.36308
3.35792
3.35168
3.34446
3.3367
3.32822
3.32
3.31231
3.30444
3.29664
3.28871
3.28079
3.27316
3.2658
3.24572
3.24532
3.2443
3.24322
3.2417
3.23984
3.23751
3.23502
3.2316
3.22772
3.2229
3.21733
3.21096
3.20427
3.19694
3.1897
3.18257
3.17521
3.16789
3.16047
3.15303
3.14561
3.13811
3.11036
3.10997
3.10913
3.10801
3.10657
3.10475
3.10254
3.0999
3.0967
3.0931
3.08871
3.08372
3.07809
3.07217
3.06573
3.05931
3.05272
3.04595
3.03906
3.032
3.02496
3.01782
3.0105
2.97541
2.97504
2.97431
2.97321
2.9718
2.97003
2.96791
2.96537
2.96239
2.95897
2.95501
2.95056
2.94564
2.94025
2.93452
2.9287
2.92261
2.91643
2.91011
2.90355
2.89699
2.89024
2.88327
2.84081
2.84044
2.83977
2.83876
2.83742
2.83574
2.83371
2.83132
2.82857
2.82536
2.82167
2.81758
2.81318
2.80838
2.80331
2.79799
2.79252
2.78694
2.78112
2.77511
2.76897
2.76273
2.7564
2.70653
2.70619
2.70554
2.7046
2.70335
2.70177
2.69985
2.69761
2.69502
2.69204
2.6887
2.68502
2.68104
2.67671
2.67216
2.66739
2.66248
2.65734
2.65199
2.64662
2.64099
2.63529
2.62951
2.57258
2.57228
2.57168
2.57078
2.56959
2.56811
2.56633
2.56426
2.56186
2.55915
2.55616
2.55285
2.5492
2.54533
2.5412
2.53691
2.53247
2.52778
2.52299
2.51814
2.5131
2.50796
2.50278
2.43892
2.43863
2.43808
2.43725
2.43615
2.43477
2.43312
2.4312
2.42901
2.42654
2.42378
2.42076
2.4175
2.41404
2.41033
2.40645
2.40241
2.39822
2.39396
2.38951
2.38504
2.38048
2.37594
2.30551
2.30526
2.30476
2.304
2.30299
2.30173
2.30021
2.29844
2.29641
2.29414
2.29162
2.28891
2.28598
2.28283
2.27956
2.2761
2.27245
2.26873
2.26487
2.26096
2.257
2.25298
2.24898
2.17238
2.17214
2.17168
2.17098
2.17005
2.16889
2.16751
2.1659
2.16407
2.16201
2.15977
2.15733
2.15468
2.15187
2.14891
2.14578
2.14254
2.13922
2.13586
2.13245
2.12896
2.12545
2.12196
2.03945
2.03924
2.03881
2.03818
2.03733
2.03628
2.03503
2.03357
2.03191
2.03005
2.028
2.02579
2.02344
2.02094
2.0183
2.01558
2.01274
2.00978
2.00681
2.00376
2.00072
1.99771
1.99475
1.90675
1.90655
1.90617
1.90559
1.90482
1.90387
1.90273
1.90142
1.89992
1.89826
1.89642
1.89445
1.89234
1.89012
1.88781
1.88539
1.88285
1.88026
1.87763
1.87504
1.87245
1.86985
1.86735
1.77423
1.77406
1.77371
1.77319
1.7725
1.77164
1.77061
1.76942
1.76808
1.7666
1.76499
1.76324
1.76136
1.75938
1.7573
1.75514
1.75298
1.75075
1.7485
1.74625
1.74401
1.74184
1.73974
1.64189
1.64173
1.64142
1.64095
1.64033
1.63956
1.63864
1.63758
1.63639
1.63507
1.63364
1.63209
1.63044
1.62871
1.62691
1.62505
1.62314
1.62119
1.61925
1.61734
1.61546
1.61364
1.61192
1.5097
1.50956
1.50928
1.50886
1.5083
1.50762
1.5068
1.50587
1.50481
1.50365
1.50238
1.50102
1.49957
1.49806
1.49648
1.49487
1.49323
1.4916
1.48995
1.48834
1.48677
1.48528
1.48388
1.37765
1.37753
1.37728
1.37691
1.37642
1.37581
1.37509
1.37427
1.37334
1.37232
1.3712
1.37002
1.36877
1.36746
1.36611
1.36473
1.36334
1.36194
1.36057
1.35923
1.35795
1.35674
1.35563
1.24572
1.24561
1.2454
1.24507
1.24463
1.2441
1.24346
1.24274
1.24193
1.24104
1.24009
1.23907
1.23799
1.23688
1.23573
1.23457
1.2334
1.23224
1.2311
1.23001
1.22898
1.22802
1.22717
1.11391
1.11381
1.11363
1.11334
1.11296
1.11249
1.11193
1.1113
1.11061
1.10984
1.10902
1.10814
1.10723
1.10629
1.10534
1.10437
1.10341
1.10246
1.10155
1.10068
1.09987
1.09914
1.0985
0.982192
0.982107
0.981943
0.981688
0.981359
0.980955
0.980484
0.979951
0.979354
0.978701
0.978003
0.977272
0.976518
0.975739
0.974941
0.974144
0.973364
0.972614
0.971898
0.971229
0.970621
0.970089
0.969651
0.850576
0.850497
0.850358
0.850133
0.849848
0.849498
0.84909
0.848627
0.848118
0.847571
0.846999
0.846403
0.845781
0.84514
0.844503
0.843883
0.843282
0.8427
0.842156
0.841668
0.841242
0.840886
0.840615
0.719027
0.718955
0.718837
0.71864
0.718394
0.718092
0.717743
0.717351
0.716923
0.716466
0.715987
0.715495
0.714999
0.714511
0.714039
0.713571
0.713115
0.712695
0.712329
0.712011
0.71174
0.711535
0.711412
0.587505
0.587439
0.587339
0.58717
0.586963
0.586712
0.586424
0.586104
0.585756
0.585387
0.585006
0.58462
0.584238
0.583868
0.583509
0.583179
0.582889
0.582636
0.58241
0.582227
0.582109
0.58206
0.58206
0.456007
0.455935
0.455852
0.455712
0.455545
0.455348
0.455125
0.454883
0.454624
0.45435
0.454069
0.453786
0.453507
0.453239
0.452993
0.452779
0.452612
0.452494
0.45242
0.452379
0.452382
0.452448
0.452557
0.324613
0.324519
0.324449
0.324341
0.324215
0.324068
0.323903
0.323722
0.323536
0.323347
0.323159
0.322976
0.322804
0.322647
0.322515
0.322417
0.322353
0.322327
0.322354
0.322443
0.322587
0.322743
0.322928
0.193443
0.193363
0.193303
0.193221
0.193127
0.193016
0.192894
0.192762
0.192623
0.192485
0.192351
0.192228
0.192122
0.19204
0.191989
0.19198
0.192017
0.192105
0.192247
0.192435
0.192654
0.192908
0.193207
0.0623923
0.0623985
0.0623672
0.0623017
0.0622158
0.0621118
0.0619946
0.0618708
0.0617477
0.0616319
0.0615307
0.0614516
0.0614036
0.0613965
0.0614377
0.0615218
0.0616487
0.0618213
0.0620429
0.0623145
0.0626357
0.0630008
0.0633952
1963.9
2111.3
2129.7
2017.16
1044.34
1031.01
963.74
887.38
165.653
178.993
193.197
193.007
112.436
105.624
104.306
104.811
125.138
113.331
105.517
100.835
85.4023
81.1122
77.9869
73.4979
34.3326
30.9717
27.9345
23.8192
7.18729
6.19449
5.1586
4.35637
3.69808
3.79116
3.88887
3.98838
4.50211
4.42443
4.34313
4.2632
3.83339
3.86165
3.89287
3.92414
4.00873
3.98649
3.96424
3.94398
3.76151
3.76164
3.76153
3.76005
3.64396
3.6415
3.63892
3.63585
3.51671
3.51323
3.50971
3.50579
3.3877
3.38415
3.38042
3.37625
3.25996
3.25605
3.25195
3.24753
3.13233
3.12846
3.12439
3.12006
3.00488
3.00114
2.99725
2.99311
2.87786
2.87437
2.87078
2.86695
2.75149
2.74828
2.745
2.74152
2.62508
2.62216
2.6192
2.61616
2.4988
2.49618
2.4936
2.49102
2.37251
2.37025
2.36799
2.36577
2.24603
2.24411
2.24221
2.24038
2.11946
2.11785
2.11626
2.11471
1.99265
1.99132
1.99
1.98873
1.86561
1.86452
1.86345
1.86242
1.73831
1.73743
1.73657
1.73575
1.61076
1.61006
1.60938
1.60874
1.48296
1.48241
1.48189
1.48141
1.35492
1.3545
1.35411
1.35376
1.22664
1.22633
1.22606
1.22582
1.09813
1.09793
1.09775
1.09761
0.969412
0.969289
0.969199
0.969138
0.840492
0.84044
0.840416
0.840421
0.711384
0.711389
0.711419
0.711475
0.582109
0.582159
0.582229
0.582321
0.452674
0.45276
0.452863
0.45298
0.323104
0.323225
0.323352
0.323483
0.193426
0.193563
0.193702
0.193844
0.0636691
0.0638379
0.063998
0.0641472
1624.4
1672.21
1597.51
1437.34
1275.58
1178.27
1156.86
1174.6
1210.07
1245.97
1321.06
1511.16
1698.3
1729.94
1708.48
1638.13
1606.28
1720.42
1958.99
763.909
739.952
756.967
708.925
671.429
670.607
695.545
738.694
789.298
828.725
868.311
952.486
1041.4
1108.29
1092.78
1119.96
1258.01
1389.1
1553.94
191.98
252.581
313.707
365.534
402.357
434.545
464.828
498.075
532.288
557.299
565.787
566.628
583.476
601
666.049
801.549
953.214
1071.18
1203.44
110.104
147.526
188.404
214.885
245.823
273.164
298.991
317.145
331.338
341.451
347.367
350.717
374.54
393.04
404.909
452.938
535.881
677.677
830.551
91.2962
88.8991
94.7283
83.1618
91.6732
122.635
154.795
169.342
175.293
167.946
138.71
83.2889
37.3429
-43.6751
-55.5957
8.08246
119.567
266.69
473.682
60.2822
39.8615
25.4768
14.729
17.0083
27.9038
37.6923
41.8279
37.122
33.6226
13.8568
-45.0459
-122.174
-195.855
-230.214
-211.99
-119.874
33.9286
223.383
17.6218
8.10068
3.83423
3.34493
3.35751
3.14704
4.39347
5.84504
3.85019
0.243394
-10.2539
-47.5592
-160.8
-245.452
-248.44
-233.979
-164.545
-38.0719
155.648
3.86978
3.96311
4.34406
4.73356
4.77433
4.49415
3.91015
3.19328
2.68563
2.33522
-11.5649
-52.1358
-103.322
-165.302
-193.357
-177.896
-107.383
17.3874
208.952
4.15215
4.40435
4.27809
4.16438
4.15472
4.15081
4.13605
4.10261
4.0976
2.54141
-1.23463
-26.9677
-60.1768
-89.2826
-96.2774
-72.4329
20.7565
173.169
324.16
4.12459
4.09352
4.09676
4.08782
4.05646
3.95706
3.82288
3.74658
3.80826
3.71148
2.46561
3.7958
-18.4434
-26.9621
-11.8635
34.2727
136.943
306.599
405.81
3.96919
3.99373
3.99658
3.99432
3.98025
3.95329
3.94645
3.99033
4.15012
4.18495
3.41099
3.09035
2.15307
21.1286
41.5048
88.1272
187.164
332.347
405.62
3.91485
3.89402
3.87439
3.85781
3.84349
3.82876
3.83103
3.86466
3.93773
4.05848
3.92503
3.4748
2.05687
2.25401
73.2588
98.4759
181.656
295.582
356.329
3.75532
3.74893
3.73869
3.72483
3.70623
3.68979
3.68387
3.69802
3.73567
3.78422
3.74376
3.36747
3.29037
2.49053
2.4317
31.1217
155.366
225.082
275.176
3.62956
3.61711
3.6029
3.5874
3.56874
3.54986
3.53386
3.52214
3.51085
3.50143
3.43698
3.11872
3.11435
2.85954
2.84884
3.0829
13.6907
99.4679
183.697
3.49817
3.48501
3.47007
3.45394
3.4337
3.40737
3.37646
3.33906
3.2851
3.24622
3.09268
2.88054
2.82961
2.70051
2.74902
2.93572
3.4217
13.2959
83.7364
3.36852
3.35586
3.34064
3.32175
3.29796
3.26723
3.22698
3.17123
3.08681
3.00031
2.66575
2.5527
2.57171
2.45524
2.46204
2.78236
2.95078
3.99866
13.966
3.23958
3.22672
3.21119
3.19176
3.16747
3.13583
3.09225
3.02878
2.93595
2.78908
2.42613
2.38151
2.37472
2.38854
2.2287
2.583
2.70254
3.23273
6.42813
3.11234
3.10001
3.08522
3.06681
3.04361
3.01303
2.97162
2.9135
2.82737
2.68007
2.4181
2.31339
2.27909
2.48637
2.32896
2.56031
2.58632
2.91213
5.78235
2.98577
2.97415
2.96018
2.94354
2.92333
2.89755
2.86389
2.81887
2.75429
2.65038
2.48427
2.37705
2.54938
2.71441
2.5132
2.56641
2.57454
2.52864
5.08612
2.86019
2.84966
2.83742
2.82334
2.80669
2.78653
2.7623
2.73324
2.6973
2.65148
2.60044
2.62167
2.81831
2.83489
2.66929
2.5849
2.58666
2.19217
3.97583
2.73544
2.72614
2.71589
2.7045
2.69167
2.67734
2.66205
2.64698
2.63414
2.62996
2.64683
2.71563
2.86265
2.83822
2.70404
2.57698
2.59385
2.27395
3.26239
2.61092
2.60298
2.59465
2.58585
2.57655
2.56742
2.55941
2.55432
2.55539
2.56862
2.60407
2.67106
2.77883
2.75151
2.64093
2.54252
2.56249
2.38461
3.1938
2.48654
2.47993
2.4734
2.46687
2.46057
2.45539
2.45233
2.45323
2.46088
2.47899
2.5133
2.56171
2.6306
2.61839
2.52755
2.43515
2.46033
2.40582
2.87676
2.36203
2.35674
2.35169
2.34698
2.34299
2.34055
2.34047
2.34422
2.35362
2.3706
2.39752
2.42755
2.46839
2.45573
2.37753
2.27081
2.30419
2.32382
2.36847
2.2373
2.23307
2.22926
2.22601
2.22367
2.22291
2.22433
2.22896
2.23771
2.25147
2.27113
2.28687
2.31304
2.28963
2.23625
2.14704
2.15803
2.20558
2.21256
2.1122
2.10891
2.10606
2.10387
2.10261
2.10279
2.10478
2.10921
2.11638
2.12713
2.14159
2.14522
2.16675
2.13592
2.11316
2.05272
2.05201
2.09556
2.13195
1.98671
1.98416
1.98207
1.98064
1.98007
1.98067
1.98271
1.98645
1.99198
1.99998
2.01037
2.0058
2.02663
1.99317
1.99533
1.95089
1.9643
1.98322
1.98872
1.8608
1.85885
1.85735
1.85645
1.85629
1.85706
1.85888
1.86182
1.86584
1.8713
1.87834
1.86956
1.8898
1.85449
1.87232
1.83294
1.87035
1.85487
1.88022
1.73447
1.73302
1.73198
1.73146
1.73156
1.73236
1.73391
1.73616
1.73892
1.7423
1.74617
1.73605
1.75351
1.71342
1.73303
1.68486
1.73081
1.72638
1.73377
1.60776
1.6067
1.60602
1.60581
1.60609
1.60691
1.60826
1.61
1.61191
1.61373
1.61462
1.606
1.61639
1.57196
1.57846
1.5071
1.53293
1.59219
1.52947
1.48067
1.47995
1.47958
1.4796
1.48006
1.48094
1.48221
1.48372
1.4852
1.48616
1.48554
1.47986
1.48089
1.43892
1.43141
1.3281
1.35137
1.47782
1.49053
1.35324
1.35281
1.35269
1.35293
1.35356
1.35456
1.35593
1.3575
1.35897
1.36012
1.36011
1.35718
1.35274
1.32546
1.30549
1.22895
1.25888
1.40984
1.53059
1.22549
1.2253
1.22541
1.22584
1.22665
1.22783
1.22938
1.23124
1.2332
1.23524
1.23693
1.23748
1.23479
1.22297
1.21137
1.17402
1.22541
1.37632
1.36901
1.09744
1.09745
1.09774
1.09835
1.09933
1.1007
1.10251
1.10476
1.10746
1.11068
1.11437
1.11865
1.12233
1.12552
1.14389
1.14675
1.18844
1.32925
1.99744
0.969096
0.969271
0.969715
0.970466
0.971581
0.973132
0.975192
0.977812
0.981154
0.98559
0.991018
0.998156
1.00865
1.01844
1.05508
1.08218
1.06526
1.48551
4.85953
0.840483
0.840782
0.841334
0.842178
0.843382
0.845042
0.847292
0.850106
0.853846
0.858942
0.86567
0.87345
0.889354
0.898767
0.939784
0.968694
0.91256
1.52667
6.16191
0.711616
0.711998
0.712608
0.71349
0.714708
0.716356
0.718502
0.721484
0.725317
0.730524
0.738088
0.744598
0.764636
0.768952
0.812447
0.824938
0.757532
0.841282
5.65166
0.582514
0.582939
0.583558
0.584415
0.585573
0.58713
0.589203
0.591973
0.595545
0.600345
0.608098
0.611901
0.636046
0.629146
0.679018
0.675178
0.658602
0.721656
6.34343
0.453205
0.453634
0.454214
0.454985
0.456007
0.457396
0.459208
0.461597
0.464669
0.468697
0.475517
0.476729
0.501702
0.483875
0.533856
0.501526
0.538656
0.238425
5.21502
0.323715
0.324111
0.324605
0.325219
0.325947
0.327153
0.328587
0.330431
0.332796
0.335856
0.340582
0.34052
0.360497
0.33868
0.396067
0.336111
0.398886
0.0820141
1.80554
0.194083
0.194435
0.194818
0.195286
0.195982
0.1966
0.197497
0.198668
0.200173
0.202155
0.204855
0.204775
0.216467
0.206659
0.247292
0.175407
0.261933
0.0377702
0.6811
0.0643768
0.0646303
0.0648536
0.0650851
0.0653742
0.0656384
0.0659713
0.0664003
0.0669418
0.0676216
0.0684707
0.0662775
0.0742802
0.0481603
0.0880202
-0.00657229
0.0977242
-0.00917548
0.376043
)
;

boundaryField
{
    leftWall
    {
        type            fixedFluxPressure;
        gradient        uniform 0;
        value           nonuniform List<scalar> 
50
(
4582.23
3779.92
2973.09
2185.06
1265.77
779.528
766.312
704.02
600.218
488.74
319.445
211.83
33.1192
3.7388
5.37602
4.3619
4.53769
4.3729
4.18059
4.08946
3.91167
3.79445
3.65436
3.51786
3.38154
3.24572
3.11036
2.97541
2.84081
2.70653
2.57258
2.43892
2.30551
2.17238
2.03945
1.90675
1.77423
1.64189
1.5097
1.37765
1.24572
1.11391
0.982192
0.850576
0.719027
0.587505
0.456007
0.324613
0.193443
0.0623923
)
;
    }
    rightWall
    {
        type            fixedFluxPressure;
        gradient        uniform 0;
        value           nonuniform List<scalar> 
50
(
5422.8
4776.18
4234.89
3711.25
3238.38
2876.69
2575.34
2309.84
1958.99
1553.94
1203.44
830.551
473.682
223.383
155.648
208.952
324.16
405.81
405.62
356.329
275.176
183.697
83.7364
13.966
6.42813
5.78235
5.08612
3.97583
3.26239
3.1938
2.87676
2.36847
2.21256
2.13195
1.98872
1.88022
1.73377
1.52947
1.49053
1.53059
1.36901
1.99744
4.85953
6.16191
5.65166
6.34343
5.21502
1.80554
0.6811
0.376043
)
;
    }
    lowerWall
    {
        type            fixedFluxPressure;
        gradient        nonuniform List<scalar> 
62
(
132719
132719
132719
132719
132719
132719
132719
132719
132719
132719
132719
132719
132719
132719
132719
132719
132719
132719
132719
132719
132719
132719
132717
0
0
0
0
0
0
0
0
132166
129577
124741
115847
0
0
0
0
0
0
0
0
4923.56
4923.9
4928.93
4959.73
5002.05
5064.78
5157.21
5251.77
5323.92
5406.44
5496.03
5600.78
5909.74
6499.19
7798.44
8976.79
9045.96
8997.42
8861.44
)
;
        value           nonuniform List<scalar> 
62
(
4980.38
4977.87
4967.76
4976.39
4952.1
4945.7
4936.4
4910.34
4892.49
4882.67
4886.1
4913.21
4969.8
5084.98
5286.33
5605.46
6072.32
6627.86
7210.25
7741.22
8157.85
8444.99
8564.75
8166.61
7383.58
6644.67
5898.08
5153.39
4434.5
3751.2
3099.15
2807.25
2938.12
2925.67
2756.38
2775.95
2742.65
2706.48
2667.2
2617.04
2535.1
2383.32
2083.57
2790.72
2788.46
2757.92
2701.66
2645.53
2622.84
2626.63
2631.48
2630.16
2567.49
2312.83
2054.54
1966.74
2006.92
2101.7
2805.32
3668.4
4461.65
5449.38
)
;
    }
    atmosphere
    {
        type            totalPressure;
        U               U.air;
        phi             phi.air;
        rho             rho;
        psi             none;
        gamma           1;
        p0              uniform 0;
        value           nonuniform List<scalar> 
46
(
-0.00361795
-0.00383772
-0.00386431
-0.00390393
-0.00394859
-0.00399756
-0.00404703
-0.00409274
-0.00412984
-0.00415273
-0.00415618
-0.00413502
-0.0040837
-0.00399537
-0.00386324
-0.00368585
-0.00346299
-0.00319371
-0.00287954
-0.00252581
-0.00213955
-0.00173038
-0.00131398
-0.00104621
-0.000887917
-0.000748508
-0.000625438
-0.000457245
-0.000300402
-0.000216575
-0.000196959
0
0
0
0
0
0
0
0
0
-0.00454251
0
-0.0536217
0
0
0
)
;
    }
    defaultFaces
    {
        type            empty;
    }
}


// ************************************************************************* //
