/*--------------------------------*- C++ -*----------------------------------*\
| =========                 |                                                 |
| \\      /  F ield         | OpenFOAM: The Open Source CFD Toolbox           |
|  \\    /   O peration     | Version:  2.4.0                                 |
|   \\  /    A nd           | Web:      www.OpenFOAM.org                      |
|    \\/     M anipulation  |                                                 |
\*---------------------------------------------------------------------------*/
FoamFile
{
    version     2.0;
    format      ascii;
    class       surfaceScalarField;
    location    "0.5";
    object      phi;
}
// * * * * * * * * * * * * * * * * * * * * * * * * * * * * * * * * * * * * * //

dimensions      [0 3 -1 0 0 0 0];

internalField   nonuniform List<scalar> 
4432
(
2.7325e-06
-2.7325e-06
5.63137e-06
-2.89887e-06
7.80416e-06
-2.17279e-06
1.14016e-05
-3.5974e-06
1.37499e-05
-2.34834e-06
1.60119e-05
-2.26195e-06
1.9215e-05
-3.20313e-06
2.23143e-05
-3.09935e-06
2.5153e-05
-2.83867e-06
2.67207e-05
-1.56768e-06
2.83987e-05
-1.67804e-06
3.06136e-05
-2.2149e-06
3.26558e-05
-2.04216e-06
3.37256e-05
-1.06983e-06
3.30865e-05
6.39162e-07
3.09901e-05
2.09636e-06
2.69241e-05
4.06594e-06
2.16141e-05
5.31004e-06
1.61057e-05
5.50839e-06
1.20505e-05
4.05521e-06
8.19767e-06
3.85283e-06
2.85297e-06
5.3447e-06
2.85297e-06
2.74037e-06
-5.47287e-06
5.63217e-06
-5.79066e-06
7.95532e-06
-4.49594e-06
1.12962e-05
-6.93825e-06
1.36744e-05
-4.72662e-06
1.61885e-05
-4.77598e-06
1.93714e-05
-6.38608e-06
2.22557e-05
-5.98357e-06
2.487e-05
-5.45304e-06
2.6752e-05
-3.44964e-06
2.90877e-05
-4.01372e-06
3.12622e-05
-4.38947e-06
3.27191e-05
-3.49905e-06
3.33936e-05
-1.74435e-06
3.36423e-05
3.90546e-07
3.14674e-05
4.27119e-06
2.74443e-05
8.08906e-06
2.18178e-05
1.09365e-05
1.68226e-05
1.05036e-05
1.24217e-05
8.45609e-06
8.26751e-06
8.00706e-06
3.3108e-06
1.03014e-05
6.16377e-06
2.75646e-06
-8.22933e-06
5.56121e-06
-8.59542e-06
8.13321e-06
-7.06794e-06
1.1105e-05
-9.91002e-06
1.36799e-05
-7.30151e-06
1.65041e-05
-7.60025e-06
1.95025e-05
-9.38439e-06
2.20369e-05
-8.51802e-06
2.44086e-05
-7.82477e-06
2.69627e-05
-6.00375e-06
3.00114e-05
-7.06237e-06
3.20941e-05
-6.47214e-06
3.36612e-05
-5.06618e-06
3.42362e-05
-2.31932e-06
3.32177e-05
1.40896e-06
3.1207e-05
6.28188e-06
2.75557e-05
1.17404e-05
2.21471e-05
1.63451e-05
1.6976e-05
1.56747e-05
1.32961e-05
1.21361e-05
1.00681e-05
1.1235e-05
6.31355e-06
1.4056e-05
1.24773e-05
2.76161e-06
-1.09909e-05
5.4535e-06
-1.12873e-05
8.4147e-06
-1.00291e-05
1.08015e-05
-1.22969e-05
1.36707e-05
-1.01707e-05
1.67222e-05
-1.06517e-05
1.94309e-05
-1.20931e-05
2.16012e-05
-1.06884e-05
2.42101e-05
-1.04336e-05
2.73779e-05
-9.17157e-06
3.02125e-05
-9.89696e-06
3.15985e-05
-7.85818e-06
3.26237e-05
-6.09139e-06
3.29376e-05
-2.63324e-06
3.40918e-05
2.54838e-07
3.33319e-05
7.04179e-06
2.95849e-05
1.54874e-05
2.43212e-05
2.16087e-05
1.8138e-05
2.18579e-05
1.2648e-05
1.7626e-05
8.97037e-06
1.49127e-05
5.39711e-06
1.76293e-05
1.78744e-05
2.75418e-06
-1.37451e-05
5.30932e-06
-1.38424e-05
8.67258e-06
-1.33924e-05
1.0319e-05
-1.39433e-05
1.35673e-05
-1.34191e-05
1.69928e-05
-1.40771e-05
1.87532e-05
-1.38535e-05
2.11585e-05
-1.30937e-05
2.40883e-05
-1.33634e-05
2.74536e-05
-1.25368e-05
2.93883e-05
-1.18317e-05
3.15105e-05
-9.98034e-06
3.34167e-05
-7.99761e-06
3.51912e-05
-4.40776e-06
3.44799e-05
9.66199e-07
3.183e-05
9.69168e-06
2.93966e-05
1.79208e-05
2.48715e-05
2.61339e-05
1.87395e-05
2.79899e-05
1.21468e-05
2.42187e-05
7.12499e-06
1.99345e-05
4.75808e-06
1.99962e-05
2.26325e-05
2.30122e-06
-1.60463e-05
4.33753e-06
-1.58787e-05
7.46759e-06
-1.65225e-05
8.57342e-06
-1.50491e-05
1.08589e-05
-1.57046e-05
1.33697e-05
-1.65879e-05
1.46922e-05
-1.51759e-05
1.66286e-05
-1.50301e-05
1.86976e-05
-1.54324e-05
2.0786e-05
-1.46252e-05
2.20992e-05
-1.31449e-05
2.4166e-05
-1.20472e-05
2.55344e-05
-9.36597e-06
2.60243e-05
-4.89771e-06
2.53017e-05
1.68881e-06
2.66591e-05
8.3343e-06
2.43582e-05
2.02217e-05
2.17531e-05
2.8739e-05
1.73162e-05
3.24268e-05
1.17533e-05
2.97816e-05
5.82026e-06
2.58675e-05
2.79157e-06
2.30249e-05
2.54241e-05
3.25545e-07
-1.63719e-05
8.10624e-07
-1.63638e-05
1.05812e-06
-1.677e-05
1.95903e-06
-1.595e-05
2.3425e-06
-1.6088e-05
3.17412e-06
-1.74195e-05
4.74825e-06
-1.67501e-05
6.36912e-06
-1.6651e-05
8.10165e-06
-1.71649e-05
9.50783e-06
-1.60314e-05
1.03106e-05
-1.39477e-05
1.02195e-05
-1.19562e-05
9.68631e-06
-8.83273e-06
1.03308e-05
-5.54216e-06
1.43348e-05
-2.31522e-06
1.9061e-05
3.60807e-06
1.94163e-05
1.98664e-05
1.29193e-05
3.52359e-05
1.25694e-05
3.27767e-05
1.05548e-05
3.17962e-05
5.69889e-06
3.07235e-05
2.57418e-06
2.61496e-05
2.79983e-05
1.61488e-07
-1.65334e-05
3.70201e-07
-1.65725e-05
7.1721e-07
-1.7117e-05
1.11272e-06
-1.63455e-05
2.01536e-06
-1.69907e-05
3.41978e-06
-1.8824e-05
4.57502e-06
-1.79053e-05
6.65033e-06
-1.87263e-05
9.00537e-06
-1.95199e-05
1.14866e-05
-1.85126e-05
1.29206e-05
-1.53816e-05
1.4279e-05
-1.33146e-05
1.40354e-05
-8.58918e-06
1.05493e-05
-2.05604e-06
3.71898e-06
4.51511e-06
3.64611e-06
3.68094e-06
7.73041e-06
1.57822e-05
4.40922e-06
3.85571e-05
2.46039e-06
3.47255e-05
4.91794e-06
2.93386e-05
4.95549e-06
3.06859e-05
3.49232e-06
2.76127e-05
3.14906e-05
-1.38167e-05
1.38167e-05
-2.16418e-05
7.82507e-06
-2.73864e-05
5.74451e-06
-3.17671e-05
4.38071e-06
-3.11499e-05
-6.1725e-07
-2.3522e-05
-7.62793e-06
-1.44009e-05
-9.12112e-06
-4.77959e-06
-9.62132e-06
5.35608e-06
-1.01357e-05
1.19686e-05
-6.61253e-06
6.61106e-06
5.3576e-06
6.13093e-06
4.806e-07
8.23328e-06
-2.10227e-06
1.4431e-05
-6.19749e-06
1.62833e-05
-1.85232e-06
2.68261e-05
-1.05428e-05
3.05291e-05
-3.70297e-06
2.0124e-05
1.04051e-05
2.0124e-05
-9.35444e-06
2.31711e-05
-1.16075e-05
1.00781e-05
-1.22816e-05
6.41857e-06
-1.51422e-05
7.24131e-06
-1.61712e-05
4.11702e-07
-8.30856e-06
-1.54906e-05
1.93881e-06
-1.93685e-05
1.00021e-05
-1.76846e-05
1.83403e-05
-1.84739e-05
2.08376e-05
-9.10983e-06
1.49796e-05
1.12156e-05
6.62195e-06
8.83778e-06
6.04253e-06
-1.52265e-06
7.3173e-06
-7.47245e-06
7.05464e-06
-1.58961e-06
2.99653e-05
-3.34535e-05
4.78345e-05
-2.15722e-05
3.61668e-05
2.20728e-05
5.62908e-05
-2.57577e-06
2.57468e-05
1.68376e-06
5.81853e-06
4.04561e-06
4.05669e-06
8.29205e-06
2.99484e-06
1.87411e-05
-1.00373e-05
2.86477e-05
-2.53972e-05
3.7552e-05
-2.82729e-05
4.82533e-05
-2.8386e-05
6.25242e-05
-3.27448e-05
8.3586e-05
-3.01717e-05
9.81362e-05
-3.33455e-06
6.46227e-05
4.23532e-05
2.67249e-05
3.6376e-05
1.43455e-05
4.90724e-06
6.37098e-06
6.38489e-06
2.29211e-05
-5.00036e-05
3.33403e-05
-3.19915e-05
2.62717e-05
2.91414e-05
8.25625e-05
5.83312e-06
1.99137e-05
1.98649e-05
-8.2133e-06
3.12507e-05
-7.3291e-06
4.08159e-05
-6.57045e-06
5.39348e-05
-2.31562e-05
6.70434e-05
-3.85058e-05
7.42647e-05
-3.54943e-05
7.9533e-05
-3.36542e-05
8.8911e-05
-4.21228e-05
0.000116587
-5.7848e-05
0.000191601
-7.83485e-05
0.000258838
-2.48842e-05
0.000164925
0.000130289
3.76799e-05
0.000132153
1.62331e-05
2.78322e-05
3.58701e-05
-6.9641e-05
3.69352e-05
-3.30565e-05
2.0276e-05
4.58006e-05
0.000102839
1.02533e-05
9.66037e-06
2.83143e-05
-2.62743e-05
4.33955e-05
-2.24104e-05
5.65168e-05
-1.96918e-05
6.84737e-05
-3.51131e-05
7.4872e-05
-4.49041e-05
7.89051e-05
-3.95274e-05
8.06605e-05
-3.54097e-05
8.06738e-05
-4.21362e-05
9.23696e-05
-6.95438e-05
0.000113582
-9.95609e-05
0.000162315
-7.36189e-05
0.000119329
0.000173276
-3.76969e-06
0.000255253
-2.04656e-05
4.45286e-05
1.57055e-05
-0.000105813
3.94133e-05
-5.67645e-05
1.62197e-05
6.89942e-05
0.000119058
1.52253e-05
-5.56493e-06
2.97366e-05
-4.07857e-05
4.37074e-05
-3.63811e-05
5.69518e-05
-3.29362e-05
6.55631e-05
-4.37245e-05
6.96073e-05
-4.89482e-05
7.25963e-05
-4.25164e-05
7.31764e-05
-3.59898e-05
7.09966e-05
-3.99564e-05
6.75923e-05
-6.61395e-05
6.73049e-05
-9.92736e-05
8.57825e-05
-9.20962e-05
9.07836e-05
0.000168276
5.9733e-05
0.000286304
2.19718e-05
8.22902e-05
4.37284e-05
-0.00012757
4.30615e-05
-5.60978e-05
1.74715e-05
9.45843e-05
0.00013653
2.15401e-05
-2.71051e-05
3.05609e-05
-4.98065e-05
4.0523e-05
-4.63433e-05
5.07838e-05
-4.31971e-05
5.68594e-05
-4.98001e-05
5.94049e-05
-5.14938e-05
6.23839e-05
-4.54954e-05
6.55427e-05
-3.91486e-05
6.56493e-05
-4.0063e-05
6.05176e-05
-6.10078e-05
4.23407e-05
-8.10966e-05
1.11926e-05
-6.09479e-05
5.7091e-05
0.000122379
0.00013929
0.000204104
0.000130424
9.11562e-05
7.91055e-05
-7.62515e-05
5.24032e-05
-2.93956e-05
2.26233e-05
0.000124364
0.000159153
2.39361e-05
-5.10412e-05
3.20123e-05
-5.78827e-05
3.81964e-05
-5.25274e-05
4.59164e-05
-5.09171e-05
5.10334e-05
-5.49171e-05
5.31996e-05
-5.366e-05
5.55787e-05
-4.78745e-05
5.90825e-05
-4.26524e-05
6.06041e-05
-4.15846e-05
5.65611e-05
-5.69648e-05
4.26523e-05
-6.71878e-05
1.20772e-05
-3.03728e-05
8.27344e-05
5.17223e-05
0.000209561
7.72803e-05
0.000219285
8.14303e-05
0.000106007
3.70268e-05
5.91382e-05
1.74734e-05
2.47019e-05
0.0001588
0.000183855
1.92066e-07
-1.67254e-05
6.82506e-07
-1.7063e-05
1.09541e-06
-1.75299e-05
1.99872e-06
-1.72488e-05
3.07009e-06
-1.8062e-05
5.59834e-06
-2.13522e-05
8.74267e-06
-2.10496e-05
1.36213e-05
-2.36049e-05
1.81831e-05
-2.40818e-05
2.1455e-05
-2.17845e-05
2.32617e-05
-1.71884e-05
2.42312e-05
-1.42841e-05
2.49596e-05
-9.31762e-06
2.90179e-05
-6.11429e-06
3.50412e-05
-1.50817e-06
3.1872e-05
6.85006e-06
2.39152e-05
2.3739e-05
2.01155e-05
4.23568e-05
-1.1502e-06
5.59913e-05
-4.57929e-06
3.27677e-05
3.78645e-06
2.23202e-05
1.58308e-05
1.55684e-05
1.48863e-05
3.24351e-05
5.22328e-07
-1.72477e-05
1.23824e-06
-1.77789e-05
1.84307e-06
-1.81347e-05
2.97891e-06
-1.83847e-05
4.13623e-06
-1.92193e-05
5.55351e-06
-2.27695e-05
9.23651e-06
-2.47326e-05
1.52834e-05
-2.96518e-05
2.01324e-05
-2.89308e-05
2.45209e-05
-2.61729e-05
2.86784e-05
-2.13459e-05
3.22621e-05
-1.78678e-05
3.29441e-05
-9.99961e-06
3.157e-05
-4.74022e-06
2.73415e-05
2.72032e-06
2.54258e-05
8.76582e-06
2.89658e-05
2.01989e-05
3.36167e-05
3.77059e-05
2.9822e-05
5.9786e-05
8.74129e-06
5.38485e-05
5.86044e-06
2.5201e-05
1.28419e-05
8.58696e-06
2.247e-06
2.54812e-05
7.52394e-07
-1.80001e-05
1.49562e-06
-1.85221e-05
1.78427e-06
-1.84233e-05
1.49222e-06
-1.80926e-05
1.2881e-06
-1.90152e-05
3.29317e-06
-2.47746e-05
8.92323e-06
-3.03627e-05
1.7259e-05
-3.79876e-05
2.43121e-05
-3.59839e-05
3.02471e-05
-3.21079e-05
3.48586e-05
-2.59574e-05
3.90958e-05
-2.2105e-05
4.21847e-05
-1.30885e-05
4.49044e-05
-7.45994e-06
4.55744e-05
2.05038e-06
4.43588e-05
9.98141e-06
4.24531e-05
2.21046e-05
4.81219e-05
3.20371e-05
6.39477e-05
4.39602e-05
6.94926e-05
4.83035e-05
5.54275e-05
3.92661e-05
4.50408e-05
1.89737e-05
-2.62522e-06
4.9913e-05
1.58817e-09
-1.80017e-05
2.70193e-07
-1.87907e-05
1.31756e-06
-1.94707e-05
2.58394e-06
-1.9359e-05
1.33482e-06
-1.77661e-05
-1.813e-07
-2.32584e-05
3.49376e-06
-3.40378e-05
1.27695e-05
-4.72633e-05
2.0947e-05
-4.41615e-05
2.66708e-05
-3.78316e-05
3.05445e-05
-2.98311e-05
3.306e-05
-2.46205e-05
3.69694e-05
-1.6998e-05
4.03991e-05
-1.08896e-05
4.38579e-05
-1.40837e-06
4.63988e-05
7.44051e-06
5.05012e-05
1.80021e-05
5.94776e-05
2.30607e-05
7.25054e-05
3.09324e-05
9.49211e-05
2.58879e-05
0.000111302
2.28853e-05
0.000120931
9.34437e-06
-6.73025e-06
0.000125036
2.01954e-06
-2.00213e-05
3.1102e-06
-1.98814e-05
1.41561e-06
-1.77761e-05
-8.2608e-06
-9.68258e-06
-1.84094e-05
-7.61746e-06
-1.8483e-05
-2.31849e-05
-1.29081e-05
-3.96126e-05
-1.22869e-05
-4.78846e-05
-8.94705e-06
-4.75014e-05
-2.41386e-06
-4.43648e-05
3.53316e-06
-3.57781e-05
9.17836e-06
-3.02657e-05
1.78357e-05
-2.56554e-05
2.43356e-05
-1.73895e-05
3.16739e-05
-8.7467e-06
3.81065e-05
1.00799e-06
4.5781e-05
1.03276e-05
5.52904e-05
1.35513e-05
6.87866e-05
1.74361e-05
8.45078e-05
1.01667e-05
9.81199e-05
9.27323e-06
0.000115329
-7.86525e-06
-1.97517e-05
0.000128351
-2.14242e-06
-1.78789e-05
-5.42096e-06
-1.66029e-05
-4.78775e-06
-1.84094e-05
7.45731e-06
-2.19277e-05
9.76503e-06
-9.92524e-06
-1.25995e-05
-8.20414e-07
-4.10464e-05
-1.11658e-05
-7.64489e-05
-1.24821e-05
-8.99741e-05
-3.39761e-05
-8.49426e-05
-4.93963e-05
-7.42045e-05
-4.65162e-05
-6.43012e-05
-4.0169e-05
-5.19422e-05
-3.80144e-05
-3.8167e-05
-3.11647e-05
-2.29132e-05
-2.40004e-05
-6.35221e-06
-1.5553e-05
1.33257e-05
-9.35037e-06
3.05472e-05
-3.67015e-06
4.59815e-05
2.0019e-06
6.3746e-05
-7.59779e-06
7.88402e-05
-5.82092e-06
9.08819e-05
-1.9907e-05
-2.82538e-05
9.9384e-05
1.97927e-05
-3.76716e-05
4.16316e-05
-3.84419e-05
6.23664e-05
-3.91442e-05
8.41657e-05
-4.37269e-05
8.31251e-05
-8.88464e-06
4.65648e-05
3.57399e-05
-2.71316e-05
6.25306e-05
-0.000100011
6.03972e-05
-0.000127149
-6.83804e-06
-0.000123321
-5.32237e-05
-9.94029e-05
-7.04347e-05
-8.62483e-05
-5.33237e-05
-7.64758e-05
-4.77869e-05
-7.02262e-05
-3.74142e-05
-6.45474e-05
-2.96792e-05
-5.68216e-05
-2.32789e-05
-4.27572e-05
-2.34147e-05
-2.19222e-05
-2.45052e-05
-5.22854e-07
-1.93975e-05
1.69674e-05
-2.50881e-05
3.64148e-05
-2.52683e-05
4.6277e-05
-2.97691e-05
-3.74028e-05
5.54259e-05
-2.25214e-05
-1.51501e-05
-3.66425e-05
-2.43208e-05
-4.52219e-05
-3.05647e-05
-5.2487e-05
-3.64618e-05
-3.24164e-05
-2.89552e-05
1.76526e-05
-1.43291e-05
9.45308e-05
-1.43476e-05
0.00012072
3.42079e-05
7.99743e-05
3.39077e-05
3.46796e-05
-7.92904e-06
-1.22312e-05
-2.35238e-05
-5.17145e-05
-1.38404e-05
-6.17988e-05
-3.77026e-05
-5.70332e-05
-4.21798e-05
-4.70977e-05
-3.96148e-05
-4.38476e-05
-2.6529e-05
-4.24484e-05
-2.4814e-05
-3.71811e-05
-2.97725e-05
-2.78168e-05
-2.87617e-05
-2.20975e-05
-3.08074e-05
-8.12121e-06
-3.92446e-05
2.79382e-06
-4.06842e-05
-5.15861e-05
1.69771e-05
-4.49405e-06
-1.06561e-05
-8.07075e-06
-2.07441e-05
-9.7562e-06
-2.88793e-05
-1.00254e-05
-3.61926e-05
-1.49594e-06
-3.74847e-05
1.4172e-05
-2.99971e-05
3.59222e-05
-3.60978e-05
3.10948e-05
3.90354e-05
1.21185e-05
5.2884e-05
1.56164e-07
4.03327e-06
6.26002e-06
-2.96277e-05
4.18128e-05
-4.93932e-05
5.99024e-05
-5.57922e-05
7.0124e-05
-5.24014e-05
7.99248e-05
-4.94155e-05
9.33809e-05
-3.99849e-05
7.44004e-05
-5.83336e-06
4.97915e-05
-5.16353e-06
3.4224e-05
-1.31941e-05
2.45883e-05
-2.11716e-05
3.18527e-05
-4.6509e-05
2.66669e-05
-3.54983e-05
-4.70302e-05
2.21106e-05
8.32549e-07
-1.14886e-05
-3.54155e-07
-1.95574e-05
-2.59334e-06
-2.66401e-05
-5.29096e-06
-3.3495e-05
-4.12078e-06
-3.86549e-05
-2.53284e-07
-3.38646e-05
7.60002e-06
-4.39512e-05
3.58624e-05
1.0773e-05
4.48239e-05
4.39225e-05
2.78892e-05
2.0968e-05
3.39804e-06
-5.13653e-06
1.3228e-06
-4.73179e-05
3.03103e-06
-5.75004e-05
6.02901e-06
-5.53993e-05
6.66438e-06
-5.00509e-05
1.04021e-05
-4.37226e-05
4.13254e-05
-3.67566e-05
7.57515e-05
-3.95895e-05
0.000100204
-3.76465e-05
0.000114772
-3.57391e-05
0.000103381
-3.51184e-05
0.000106367
-3.84844e-05
-4.39414e-05
0.000103278
-3.28531e-06
-8.20333e-06
-4.65921e-06
-1.81835e-05
-6.1514e-06
-2.51479e-05
-8.25249e-06
-3.13939e-05
-1.15131e-05
-3.53943e-05
-1.14111e-05
-3.39666e-05
-1.823e-05
-3.71323e-05
1.04792e-05
-1.79362e-05
3.9734e-05
1.46677e-05
4.50346e-05
1.56674e-05
4.64781e-05
-6.58005e-06
4.18805e-05
-4.27203e-05
4.0439e-05
-5.60589e-05
4.45838e-05
-5.95441e-05
5.07574e-05
-5.62244e-05
5.57752e-05
-4.87403e-05
5.56419e-05
-3.66233e-05
5.02564e-05
-3.42039e-05
4.67046e-05
-3.40947e-05
3.83996e-05
-2.7434e-05
3.65329e-05
-3.32517e-05
3.71167e-05
-3.90682e-05
-4.39766e-05
3.71516e-05
4.48978e-06
-1.26931e-05
6.0655e-06
-1.97592e-05
5.31341e-06
-2.43958e-05
2.49203e-06
-2.85725e-05
-1.80688e-06
-3.10954e-05
-5.05993e-06
-3.07136e-05
-1.15681e-05
-3.0624e-05
-7.60971e-06
-2.18947e-05
1.24406e-05
-5.38267e-06
2.68029e-05
1.30516e-06
3.49946e-05
-1.47718e-05
3.09003e-05
-3.8626e-05
2.33453e-05
-4.85039e-05
1.70486e-05
-5.32474e-05
1.47195e-05
-5.38952e-05
1.72013e-05
-5.1222e-05
2.74994e-05
-4.69214e-05
3.73016e-05
-4.4006e-05
4.18404e-05
-3.86334e-05
4.595e-05
-3.15435e-05
4.16228e-05
-2.89245e-05
3.4356e-05
-3.18014e-05
-3.40528e-05
2.4432e-05
1.62934e-06
-1.43224e-05
3.10025e-06
-2.12301e-05
3.25176e-06
-2.45473e-05
1.64933e-06
-2.69701e-05
-1.56643e-06
-2.78797e-05
-4.86233e-06
-2.74177e-05
-8.98988e-06
-2.64965e-05
-8.89906e-06
-2.19855e-05
2.1729e-06
-1.64546e-05
1.53379e-05
-1.18598e-05
2.19426e-05
-2.13765e-05
1.83685e-05
-3.50518e-05
1.30868e-05
-4.32222e-05
8.35028e-06
-4.85108e-05
4.14941e-06
-4.96943e-05
1.56114e-07
-4.72287e-05
-2.71878e-06
-4.40464e-05
-4.66079e-06
-4.20639e-05
-4.486e-06
-3.88081e-05
-1.39196e-06
-3.46375e-05
2.07904e-06
-3.23955e-05
2.93964e-06
-3.2662e-05
-3.275e-05
1.63665e-06
2.6611e-06
-1.69835e-05
4.13466e-06
-2.27037e-05
4.20517e-06
-2.46179e-05
2.77967e-06
-2.55446e-05
4.94134e-07
-2.55941e-05
-1.81245e-06
-2.51111e-05
-4.05649e-06
-2.42525e-05
-3.94124e-06
-2.21007e-05
3.09762e-07
-2.07056e-05
6.95539e-06
-1.85054e-05
9.56577e-06
-2.39869e-05
5.77092e-06
-3.1257e-05
8.79377e-07
-3.83306e-05
-3.91071e-06
-4.37207e-05
-8.0185e-06
-4.55865e-05
-1.08654e-05
-4.43816e-05
-1.25328e-05
-4.2379e-05
-1.38834e-05
-4.07131e-05
-1.50002e-05
-3.76913e-05
-1.50074e-05
-3.46303e-05
-1.4333e-05
-3.30698e-05
-1.40823e-05
-3.29127e-05
-3.25573e-05
-1.42751e-05
1.62564e-06
-1.86092e-05
2.36787e-06
-2.34459e-05
1.93023e-06
-2.41802e-05
8.26305e-07
-2.44407e-05
-3.48018e-07
-2.44198e-05
-1.32857e-06
-2.41305e-05
-2.01542e-06
-2.35656e-05
-1.27762e-06
-2.28385e-05
5.62911e-07
-2.25462e-05
3.52329e-06
-2.14658e-05
4.05465e-06
-2.45183e-05
1.22015e-06
-2.84224e-05
-3.11243e-06
-3.3998e-05
-7.86436e-06
-3.89688e-05
-1.19284e-05
-4.15224e-05
-1.44825e-05
-4.18274e-05
-1.62315e-05
-4.06299e-05
-1.77479e-05
-3.91967e-05
-1.87342e-05
-3.6705e-05
-1.82549e-05
-3.51096e-05
-1.71176e-05
-3.42071e-05
-1.65137e-05
-3.35166e-05
-3.28e-05
-1.62711e-05
7.20828e-07
-1.933e-05
6.67944e-07
-2.3393e-05
1.41733e-07
-2.3654e-05
-3.62511e-07
-2.39364e-05
-7.08316e-07
-2.4074e-05
-8.73703e-07
-2.39651e-05
-7.16648e-07
-2.37227e-05
-5.28952e-08
-2.35023e-05
9.55413e-07
-2.35545e-05
2.55925e-06
-2.30696e-05
2.77881e-06
-2.47378e-05
1.48506e-06
-2.71287e-05
-1.6246e-06
-3.08883e-05
-6.16553e-06
-3.44278e-05
-1.05187e-05
-3.71692e-05
-1.35647e-05
-3.87814e-05
-1.53173e-05
-3.88773e-05
-1.6196e-05
-3.8318e-05
-1.67769e-05
-3.61241e-05
-1.73886e-05
-3.44977e-05
-1.76345e-05
-3.39612e-05
-1.76059e-05
-3.35451e-05
-3.28601e-05
-1.7546e-05
2.4717e-07
-1.95772e-05
6.47787e-08
-2.32107e-05
-1.92247e-07
-2.3397e-05
-4.41541e-07
-2.36872e-05
-5.86606e-07
-2.39289e-05
-4.95854e-07
-2.40559e-05
-1.57194e-07
-2.40613e-05
3.80979e-07
-2.40404e-05
1.05541e-06
-2.42289e-05
2.10612e-06
-2.41203e-05
2.49086e-06
-2.51225e-05
2.3689e-06
-2.70067e-05
1.10564e-06
-2.9625e-05
-1.45182e-06
-3.18703e-05
-4.61584e-06
-3.40051e-05
-7.73381e-06
-3.56635e-05
-1.02917e-05
-3.63193e-05
-1.2512e-05
-3.60977e-05
-1.39573e-05
-3.46787e-05
-1.56938e-05
-3.27613e-05
-1.73907e-05
-3.22643e-05
-1.84633e-05
-3.24726e-05
-3.20839e-05
-1.92395e-05
7.02771e-08
-1.96475e-05
6.25891e-09
-2.31466e-05
-4.2645e-08
-2.33481e-05
-1.15088e-07
-2.36147e-05
-2.47148e-07
-2.37969e-05
-2.85258e-07
-2.40178e-05
-1.82828e-07
-2.41637e-05
1.18993e-07
-2.43422e-05
4.80072e-07
-2.45899e-05
1.20978e-06
-2.485e-05
1.72799e-06
-2.56407e-05
1.73315e-06
-2.70118e-05
7.41525e-07
-2.86333e-05
-9.92839e-07
-3.01359e-05
-3.12236e-06
-3.18756e-05
-5.88747e-06
-3.28983e-05
-8.78709e-06
-3.34197e-05
-1.14576e-05
-3.34271e-05
-1.33301e-05
-3.28063e-05
-1.50477e-05
-3.10436e-05
-1.726e-05
-3.00521e-05
-1.90339e-05
-3.06986e-05
-3.11209e-05
-1.9997e-05
5.0767e-08
-1.96982e-05
9.48739e-08
-2.31907e-05
4.59556e-08
-2.32992e-05
-9.65915e-08
-2.34722e-05
-3.44326e-07
-2.35491e-05
-6.65211e-07
-2.36969e-05
-9.35934e-07
-2.3893e-05
-1.12104e-06
-2.41571e-05
-1.18583e-06
-2.45251e-05
-8.89636e-07
-2.51462e-05
-6.17264e-07
-2.59131e-05
-7.18902e-07
-2.69102e-05
-1.47404e-06
-2.78782e-05
-2.62239e-06
-2.89875e-05
-4.59055e-06
-2.99074e-05
-7.31257e-06
-3.01763e-05
-9.96297e-06
-3.07693e-05
-1.21718e-05
-3.12182e-05
-1.42669e-05
-3.07112e-05
-1.60793e-05
-2.92312e-05
-1.77604e-05
-2.83709e-05
-1.91204e-05
-2.93387e-05
-2.99819e-05
-2.02594e-05
5.11732e-08
-1.97494e-05
-8.37535e-08
-2.30558e-05
-3.22217e-07
-2.30607e-05
-6.09038e-07
-2.31853e-05
-8.75503e-07
-2.32827e-05
-1.18084e-06
-2.33915e-05
-1.44332e-06
-2.36305e-05
-1.70172e-06
-2.38987e-05
-1.95589e-06
-2.4271e-05
-2.20364e-06
-2.48984e-05
-2.52546e-06
-2.55912e-05
-3.12353e-06
-2.6312e-05
-4.03811e-06
-2.69636e-05
-5.20264e-06
-2.7823e-05
-6.78026e-06
-2.83298e-05
-8.35592e-06
-2.86006e-05
-1.00525e-05
-2.90727e-05
-1.20177e-05
-2.9253e-05
-1.39196e-05
-2.88092e-05
-1.53307e-05
-2.78201e-05
-1.6446e-05
-2.72556e-05
-1.76104e-05
-2.81744e-05
-2.88195e-05
-1.87728e-05
-5.6579e-08
-1.96928e-05
-2.83987e-07
-2.28284e-05
-4.9868e-07
-2.2846e-05
-6.85005e-07
-2.2999e-05
-8.69228e-07
-2.30984e-05
-1.0377e-06
-2.3223e-05
-1.26696e-06
-2.34013e-05
-1.57694e-06
-2.35887e-05
-1.97675e-06
-2.38711e-05
-2.49539e-06
-2.43798e-05
-3.10571e-06
-2.49809e-05
-3.89884e-06
-2.55189e-05
-4.92725e-06
-2.59351e-05
-6.15651e-06
-2.65937e-05
-7.46145e-06
-2.70248e-05
-8.6386e-06
-2.74234e-05
-1.01697e-05
-2.75416e-05
-1.21347e-05
-2.7288e-05
-1.3939e-05
-2.70049e-05
-1.54774e-05
-2.62817e-05
-1.67217e-05
-2.60112e-05
-1.80782e-05
-2.68179e-05
-2.7435e-05
-1.94629e-05
-1.4788e-07
-1.9545e-05
-2.9794e-07
-2.26784e-05
-4.21733e-07
-2.27222e-05
-6.08903e-07
-2.28119e-05
-8.13479e-07
-2.28939e-05
-1.02846e-06
-2.30081e-05
-1.27511e-06
-2.31546e-05
-1.52343e-06
-2.33404e-05
-1.80046e-06
-2.35941e-05
-2.32728e-06
-2.38529e-05
-3.01633e-06
-2.42918e-05
-3.80422e-06
-2.4731e-05
-4.64579e-06
-2.50935e-05
-5.82281e-06
-2.54167e-05
-7.07276e-06
-2.57749e-05
-8.44908e-06
-2.60471e-05
-9.90722e-06
-2.60834e-05
-1.12692e-05
-2.5926e-05
-1.26017e-05
-2.56723e-05
-1.37901e-05
-2.50933e-05
-1.49439e-05
-2.48574e-05
-1.64653e-05
-2.52965e-05
-2.53855e-05
-1.85148e-05
-1.0593e-07
-1.9439e-05
-3.33859e-07
-2.24504e-05
-5.95102e-07
-2.2461e-05
-8.82877e-07
-2.25241e-05
-1.17239e-06
-2.26043e-05
-1.45879e-06
-2.27217e-05
-1.74465e-06
-2.28687e-05
-2.03198e-06
-2.3053e-05
-2.35936e-06
-2.32667e-05
-2.76838e-06
-2.34439e-05
-3.41318e-06
-2.3647e-05
-4.18863e-06
-2.39555e-05
-4.94484e-06
-2.43373e-05
-5.83366e-06
-2.45278e-05
-6.92555e-06
-2.4683e-05
-8.37078e-06
-2.46018e-05
-9.95776e-06
-2.44964e-05
-1.12915e-05
-2.45923e-05
-1.26661e-05
-2.42977e-05
-1.39905e-05
-2.3769e-05
-1.52024e-05
-2.36455e-05
-1.66837e-05
-2.38152e-05
-2.34003e-05
-1.8669e-05
-2.21073e-07
-1.9218e-05
-5.02756e-07
-2.21688e-05
-7.75111e-07
-2.21886e-05
-1.04733e-06
-2.22519e-05
-1.33271e-06
-2.2319e-05
-1.65441e-06
-2.24e-05
-2.01773e-06
-2.25054e-05
-2.41112e-06
-2.26596e-05
-2.84215e-06
-2.28356e-05
-3.35929e-06
-2.29267e-05
-4.03188e-06
-2.29744e-05
-4.78232e-06
-2.32051e-05
-5.7096e-06
-2.341e-05
-6.65025e-06
-2.35871e-05
-7.66301e-06
-2.36702e-05
-8.61861e-06
-2.36462e-05
-9.4861e-06
-2.36289e-05
-1.0713e-05
-2.33654e-05
-1.20197e-05
-2.2991e-05
-1.31901e-05
-2.25985e-05
-1.44582e-05
-2.23774e-05
-1.6154e-05
-2.21194e-05
-2.16577e-05
-1.78967e-05
-1.24344e-07
-1.90936e-05
-3.43483e-07
-2.19496e-05
-5.9461e-07
-2.19375e-05
-8.75454e-07
-2.1971e-05
-1.1825e-06
-2.20119e-05
-1.50739e-06
-2.20751e-05
-1.8616e-06
-2.21512e-05
-2.28149e-06
-2.22397e-05
-2.81355e-06
-2.23036e-05
-3.35347e-06
-2.23868e-05
-3.81188e-06
-2.25159e-05
-4.40221e-06
-2.26147e-05
-5.22469e-06
-2.25875e-05
-6.20395e-06
-2.26078e-05
-7.2151e-06
-2.2659e-05
-8.23683e-06
-2.26244e-05
-9.49998e-06
-2.23658e-05
-1.08619e-05
-2.20035e-05
-1.19656e-05
-2.18873e-05
-1.30106e-05
-2.15536e-05
-1.42916e-05
-2.10964e-05
-1.5799e-05
-2.06121e-05
-2.01908e-05
-1.72659e-05
-2.39295e-07
-1.88543e-05
-5.33857e-07
-2.16551e-05
-8.1995e-07
-2.16514e-05
-1.12307e-06
-2.16679e-05
-1.45144e-06
-2.16836e-05
-1.81681e-06
-2.17097e-05
-2.20962e-06
-2.17584e-05
-2.6415e-06
-2.18078e-05
-3.10234e-06
-2.18427e-05
-3.62299e-06
-2.18661e-05
-4.24862e-06
-2.18903e-05
-4.96532e-06
-2.1898e-05
-5.62507e-06
-2.19278e-05
-6.44474e-06
-2.17882e-05
-7.47636e-06
-2.16274e-05
-8.48094e-06
-2.16198e-05
-9.39631e-06
-2.14504e-05
-1.01932e-05
-2.12066e-05
-1.1239e-05
-2.08415e-05
-1.24532e-05
-2.03394e-05
-1.37685e-05
-1.97811e-05
-1.50721e-05
-1.93085e-05
-1.8761e-05
-1.6502e-05
-2.09476e-07
-1.86449e-05
-4.78318e-07
-2.13862e-05
-7.45978e-07
-2.13837e-05
-1.01963e-06
-2.13942e-05
-1.30299e-06
-2.14002e-05
-1.61498e-06
-2.13977e-05
-1.9754e-06
-2.13979e-05
-2.38462e-06
-2.13986e-05
-2.8412e-06
-2.13861e-05
-3.3829e-06
-2.13244e-05
-4.04822e-06
-2.1225e-05
-4.78664e-06
-2.11596e-05
-5.57792e-06
-2.11365e-05
-6.29816e-06
-2.10679e-05
-6.91114e-06
-2.10144e-05
-7.73694e-06
-2.0794e-05
-8.72692e-06
-2.04604e-05
-9.91512e-06
-2.00184e-05
-1.11669e-05
-1.95898e-05
-1.22374e-05
-1.92688e-05
-1.32134e-05
-1.88051e-05
-1.43694e-05
-1.81525e-05
-1.74298e-05
-1.57007e-05
-2.2474e-07
-1.84201e-05
-5.08028e-07
-2.11029e-05
-8.02619e-07
-2.10892e-05
-1.12715e-06
-2.10697e-05
-1.48339e-06
-2.10439e-05
-1.85933e-06
-2.10217e-05
-2.2625e-06
-2.09947e-05
-2.70587e-06
-2.09552e-05
-3.18081e-06
-2.09112e-05
-3.63746e-06
-2.08677e-05
-4.06687e-06
-2.07955e-05
-4.55497e-06
-2.06714e-05
-5.20221e-06
-2.04892e-05
-5.98443e-06
-2.02857e-05
-6.98605e-06
-2.00128e-05
-7.98936e-06
-1.97907e-05
-8.88821e-06
-1.95615e-05
-9.68014e-06
-1.92264e-05
-1.04312e-05
-1.88387e-05
-1.14062e-05
-1.82939e-05
-1.25884e-05
-1.76229e-05
-1.37413e-05
-1.69996e-05
-1.63254e-05
-1.48457e-05
-2.06621e-07
-1.82135e-05
-4.55735e-07
-2.08538e-05
-7.01984e-07
-2.08429e-05
-9.59117e-07
-2.08126e-05
-1.2362e-06
-2.07669e-05
-1.54988e-06
-2.0708e-05
-1.9089e-06
-2.06357e-05
-2.3169e-06
-2.05472e-05
-2.78824e-06
-2.04398e-05
-3.34858e-06
-2.03074e-05
-3.99976e-06
-2.01444e-05
-4.69771e-06
-1.99735e-05
-5.37057e-06
-1.98163e-05
-6.03136e-06
-1.96249e-05
-6.62539e-06
-1.94187e-05
-7.24651e-06
-1.91696e-05
-8.02747e-06
-1.87806e-05
-8.95125e-06
-1.83027e-05
-1.00276e-05
-1.77623e-05
-1.10813e-05
-1.72402e-05
-1.19776e-05
-1.67266e-05
-1.29397e-05
-1.60375e-05
-1.52488e-05
-1.40164e-05
-2.23504e-07
-1.799e-05
-4.94546e-07
-2.05828e-05
-7.70137e-07
-2.05673e-05
-1.06615e-06
-2.05165e-05
-1.38221e-06
-2.04508e-05
-1.72015e-06
-2.03701e-05
-2.08407e-06
-2.02718e-05
-2.47572e-06
-2.01556e-05
-2.89287e-06
-2.00226e-05
-3.32196e-06
-1.98783e-05
-3.75219e-06
-1.97141e-05
-4.2259e-06
-1.94998e-05
-4.7856e-06
-1.92566e-05
-5.42659e-06
-1.89839e-05
-6.18432e-06
-1.8661e-05
-7.065e-06
-1.82889e-05
-7.93613e-06
-1.79094e-05
-8.75777e-06
-1.7481e-05
-9.50739e-06
-1.70127e-05
-1.03106e-05
-1.6437e-05
-1.12613e-05
-1.57759e-05
-1.2217e-05
-1.50818e-05
-1.43084e-05
-1.31574e-05
-1.84708e-07
-1.78053e-05
-4.01806e-07
-2.03657e-05
-6.24041e-07
-2.03451e-05
-8.67755e-07
-2.02728e-05
-1.13986e-06
-2.01787e-05
-1.44839e-06
-2.00616e-05
-1.79737e-06
-1.99228e-05
-2.18768e-06
-1.97652e-05
-2.62101e-06
-1.95893e-05
-3.10496e-06
-1.93943e-05
-3.64096e-06
-1.91781e-05
-4.20845e-06
-1.89323e-05
-4.80145e-06
-1.86636e-05
-5.41465e-06
-1.83707e-05
-6.03282e-06
-1.80428e-05
-6.64754e-06
-1.76742e-05
-7.31247e-06
-1.72445e-05
-8.05449e-06
-1.6739e-05
-8.89238e-06
-1.61748e-05
-9.74809e-06
-1.55813e-05
-1.05752e-05
-1.49488e-05
-1.14243e-05
-1.42326e-05
-1.34305e-05
-1.23022e-05
-1.81691e-07
-1.76236e-05
-4.00757e-07
-2.01466e-05
-6.24069e-07
-2.01218e-05
-8.66899e-07
-2.003e-05
-1.13017e-06
-1.99154e-05
-1.4176e-06
-1.97741e-05
-1.73272e-06
-1.96077e-05
-2.07921e-06
-1.94187e-05
-2.4604e-06
-1.92081e-05
-2.87949e-06
-1.89752e-05
-3.33409e-06
-1.87235e-05
-3.81249e-06
-1.84539e-05
-4.32844e-06
-1.81476e-05
-4.89589e-06
-1.78032e-05
-5.51652e-06
-1.74222e-05
-6.19124e-06
-1.69995e-05
-6.90078e-06
-1.6535e-05
-7.61122e-06
-1.60286e-05
-8.31705e-06
-1.5469e-05
-9.05294e-06
-1.48454e-05
-9.83675e-06
-1.4165e-05
-1.06369e-05
-1.34325e-05
-1.26271e-05
-1.14405e-05
-1.36395e-07
-1.74872e-05
-3.17396e-07
-1.99656e-05
-5.04154e-07
-1.9935e-05
-7.11881e-07
-1.98223e-05
-9.42651e-07
-1.96846e-05
-1.20209e-06
-1.95147e-05
-1.49778e-06
-1.9312e-05
-1.8304e-06
-1.90861e-05
-2.19924e-06
-1.88392e-05
-2.6029e-06
-1.85715e-05
-3.0453e-06
-1.82811e-05
-3.53141e-06
-1.79677e-05
-4.04786e-06
-1.76312e-05
-4.58533e-06
-1.72657e-05
-5.14694e-06
-1.68605e-05
-5.73231e-06
-1.64141e-05
-6.34393e-06
-1.59234e-05
-6.99142e-06
-1.53811e-05
-7.67365e-06
-1.47868e-05
-8.37628e-06
-1.41428e-05
-9.09269e-06
-1.34486e-05
-9.82681e-06
-1.26984e-05
-1.18824e-05
-1.05715e-05
-1.05723e-07
-1.73815e-05
-2.66994e-07
-1.98043e-05
-4.33827e-07
-1.97682e-05
-6.18026e-07
-1.96381e-05
-8.18655e-07
-1.9484e-05
-1.03671e-06
-1.92966e-05
-1.2787e-06
-1.907e-05
-1.55287e-06
-1.88119e-05
-1.86967e-06
-1.85224e-05
-2.23862e-06
-1.82026e-05
-2.65529e-06
-1.78644e-05
-3.10859e-06
-1.75144e-05
-3.59529e-06
-1.71445e-05
-4.11283e-06
-1.67482e-05
-4.65548e-06
-1.63179e-05
-5.22226e-06
-1.58473e-05
-5.80874e-06
-1.53369e-05
-6.41017e-06
-1.47797e-05
-7.02801e-06
-1.41689e-05
-7.66579e-06
-1.3505e-05
-8.32642e-06
-1.2788e-05
-9.00533e-06
-1.20194e-05
-1.11931e-05
-9.69466e-06
-6.21241e-08
-1.73194e-05
-2.17167e-07
-1.96493e-05
-3.76994e-07
-1.96083e-05
-5.47165e-07
-1.94679e-05
-7.2855e-07
-1.93026e-05
-9.17683e-07
-1.91075e-05
-1.10925e-06
-1.88784e-05
-1.31729e-06
-1.86039e-05
-1.55463e-06
-1.82851e-05
-1.83215e-06
-1.7925e-05
-2.16577e-06
-1.75308e-05
-2.56713e-06
-1.7113e-05
-3.03177e-06
-1.66798e-05
-3.55205e-06
-1.62279e-05
-4.09835e-06
-1.57716e-05
-4.65086e-06
-1.52948e-05
-5.20845e-06
-1.47793e-05
-5.77218e-06
-1.4216e-05
-6.34949e-06
-1.35916e-05
-6.93882e-06
-1.29157e-05
-7.54419e-06
-1.21826e-05
-8.16783e-06
-1.13958e-05
-1.05547e-05
-8.80617e-06
-2.59523e-08
-1.72934e-05
-2.13302e-07
-1.94619e-05
-4.02409e-07
-1.94192e-05
-5.87833e-07
-1.92825e-05
-7.76495e-07
-1.9114e-05
-9.70759e-07
-1.89132e-05
-1.16798e-06
-1.86812e-05
-1.36793e-06
-1.84039e-05
-1.57522e-06
-1.80778e-05
-1.79412e-06
-1.77061e-05
-2.03344e-06
-1.72914e-05
-2.30499e-06
-1.68415e-05
-2.61894e-06
-1.63659e-05
-2.99114e-06
-1.58557e-05
-3.43621e-06
-1.53266e-05
-3.94983e-06
-1.47812e-05
-4.5114e-06
-1.42177e-05
-5.08105e-06
-1.36463e-05
-5.63466e-06
-1.3038e-05
-6.18413e-06
-1.23662e-05
-6.74104e-06
-1.16257e-05
-7.31369e-06
-1.08232e-05
-9.96407e-06
-7.90438e-06
-3.58568e-08
-1.72576e-05
-3.09841e-07
-1.9188e-05
-5.84657e-07
-1.91444e-05
-8.3585e-07
-1.90313e-05