/*--------------------------------*- C++ -*----------------------------------*\
| =========                 |                                                 |
| \\      /  F ield         | OpenFOAM: The Open Source CFD Toolbox           |
|  \\    /   O peration     | Version:  2.4.0                                 |
|   \\  /    A nd           | Web:      www.OpenFOAM.org                      |
|    \\/     M anipulation  |                                                 |
\*---------------------------------------------------------------------------*/
FoamFile
{
    version     2.0;
    format      ascii;
    class       surfaceScalarField;
    location    "0.5";
    object      phi.mercury;
}
// * * * * * * * * * * * * * * * * * * * * * * * * * * * * * * * * * * * * * //

dimensions      [0 3 -1 0 0 0 0];

internalField   nonuniform List<scalar> 
4432
(
2.7325e-06
-2.7325e-06
5.63137e-06
-2.89887e-06
7.80416e-06
-2.17279e-06
1.14016e-05
-3.5974e-06
1.37499e-05
-2.34835e-06
1.60119e-05
-2.26195e-06
1.9215e-05
-3.20313e-06
2.23143e-05
-3.09935e-06
2.5153e-05
-2.83867e-06
2.67207e-05
-1.56768e-06
2.83987e-05
-1.67804e-06
3.06136e-05
-2.2149e-06
3.26558e-05
-2.04216e-06
3.37256e-05
-1.06983e-06
3.30865e-05
6.39162e-07
3.09901e-05
2.09636e-06
2.69242e-05
4.06595e-06
2.16141e-05
5.31004e-06
1.61057e-05
5.50839e-06
1.20505e-05
4.05521e-06
8.19768e-06
3.85283e-06
2.85297e-06
5.3447e-06
2.85294e-06
2.74037e-06
-5.47287e-06
5.63217e-06
-5.79066e-06
7.95532e-06
-4.49594e-06
1.12962e-05
-6.93825e-06
1.36744e-05
-4.72662e-06
1.61885e-05
-4.77598e-06
1.93714e-05
-6.38608e-06
2.22557e-05
-5.98357e-06
2.487e-05
-5.45304e-06
2.6752e-05
-3.44964e-06
2.90877e-05
-4.01372e-06
3.12622e-05
-4.38947e-06
3.27191e-05
-3.49905e-06
3.33936e-05
-1.74435e-06
3.36423e-05
3.90546e-07
3.14674e-05
4.27119e-06
2.74443e-05
8.08906e-06
2.18178e-05
1.09365e-05
1.68226e-05
1.05036e-05
1.24217e-05
8.45609e-06
8.26751e-06
8.00706e-06
3.3108e-06
1.03014e-05
6.16374e-06
2.75646e-06
-8.24227e-06
5.56121e-06
-8.61035e-06
8.13322e-06
-7.07937e-06
1.1105e-05
-9.93276e-06
1.36799e-05
-7.3174e-06
1.65041e-05
-7.6207e-06
1.95025e-05
-9.42092e-06
2.20369e-05
-8.55275e-06
2.44086e-05
-7.86409e-06
2.69627e-05
-6.04407e-06
3.00114e-05
-7.12122e-06
3.20941e-05
-6.52611e-06
3.36612e-05
-5.10826e-06
3.42362e-05
-2.33765e-06
3.32177e-05
1.40699e-06
3.12071e-05
6.28178e-06
2.75557e-05
1.17404e-05
2.21471e-05
1.63451e-05
1.6976e-05
1.56747e-05
1.32961e-05
1.21361e-05
1.00681e-05
1.1235e-05
6.31355e-06
1.4056e-05
1.24773e-05
2.76156e-06
-1.28616e-05
5.45351e-06
-1.32926e-05
8.41455e-06
-1.18855e-05
1.08015e-05
-1.47077e-05
1.36706e-05
-1.23959e-05
1.67217e-05
-1.32284e-05
1.94305e-05
-1.54244e-05
2.16009e-05
-1.41799e-05
2.42096e-05
-1.43711e-05
2.73774e-05
-1.34667e-05
3.0213e-05
-1.49603e-05
3.16004e-05
-1.31308e-05
3.26264e-05
-1.13957e-05
3.29417e-05
-7.22438e-06
3.40925e-05
-2.02013e-06
3.33319e-05
6.64624e-06
2.95849e-05
1.5466e-05
2.43212e-05
2.16085e-05
1.8138e-05
2.18579e-05
1.2648e-05
1.7626e-05
8.97037e-06
1.49127e-05
5.39712e-06
1.76293e-05
1.78744e-05
2.746e-06
-3.54357e-05
5.31714e-06
-3.61943e-05
8.64704e-06
-3.52637e-05
1.03334e-05
-3.83402e-05
1.35513e-05
-3.722e-05
1.69384e-05
-3.92031e-05
1.87372e-05
-4.15235e-05
2.11362e-05
-4.12542e-05
2.40822e-05
-4.30184e-05
2.74413e-05
-4.36222e-05
2.94267e-05
-4.57156e-05
3.1583e-05
-4.48841e-05
3.35593e-05
-4.42857e-05
3.53544e-05
-4.01982e-05
3.47159e-05
-3.3625e-05
3.19068e-05
-1.55225e-05
2.94092e-05
7.29042e-06
2.48716e-05
2.53339e-05
1.87395e-05
2.79711e-05
1.21468e-05
2.42185e-05
7.12499e-06
1.99345e-05
4.75808e-06
1.99962e-05
2.26325e-05
2.34702e-06
-7.20502e-05
4.5884e-06
-7.08627e-05
7.59042e-06
-7.02794e-05
9.13696e-06
-6.55018e-05
1.14299e-05
-6.40024e-05
1.4157e-05
-6.0071e-05
1.61574e-05
-5.14665e-05
1.85204e-05
-4.59903e-05
2.10868e-05
-4.31873e-05
2.34893e-05
-4.10063e-05
2.53425e-05
-3.96041e-05
2.78423e-05
-3.8359e-05
2.96695e-05
-3.69765e-05
3.07581e-05
-3.45295e-05
3.13906e-05
-3.50535e-05
3.06502e-05
-3.99751e-05
2.65942e-05
-1.67868e-05
2.20281e-05
1.56075e-05
1.73322e-05
3.13842e-05
1.17534e-05
2.97657e-05
5.82026e-06
2.58675e-05
2.79157e-06
2.30249e-05
2.5424e-05
1.52306e-06
-5.02488e-05
2.89524e-06
-4.88884e-05
4.09865e-06
-4.85055e-05
5.21588e-06
-4.32919e-05
5.6838e-06
-4.18533e-05
5.54713e-06
-3.83673e-05
5.55125e-06
-3.17363e-05
6.43259e-06
-2.79001e-05
8.03689e-06
-2.62552e-05
9.47994e-06
-2.42177e-05
1.04396e-05
-2.20894e-05
1.06079e-05
-1.99185e-05
1.02288e-05
-1.64675e-05
1.34897e-05
-1.26628e-05
1.96733e-05
-1.39735e-05
3.05286e-05
-2.90823e-05
2.75653e-05
-3.53375e-05
1.63989e-05
2.29879e-06
1.2783e-05
2.62156e-05
1.05611e-05
3.16006e-05
5.6989e-06
3.07227e-05
2.57419e-06
2.61496e-05
2.79982e-05
1.64383e-07
-2.24767e-05
3.62555e-07
-2.24265e-05
7.14257e-07
-2.27988e-05
1.13916e-06
-2.19714e-05
2.02067e-06
-2.23373e-05
3.41418e-06
-2.37624e-05
4.61119e-06
-2.26704e-05
6.64569e-06
-2.31276e-05
9.01955e-06
-2.36074e-05
1.14386e-05
-2.2394e-05
1.29053e-05
-1.91983e-05
1.4288e-05
-1.69627e-05
1.41683e-05
-1.23426e-05
1.10809e-05
-6.77392e-06
4.52957e-06
1.10723e-06
1.06054e-05
-4.83312e-07
2.15117e-05
-2.51006e-05
1.41242e-05
-1.46547e-05
4.14349e-06
1.66792e-05
4.94791e-06
2.70662e-05
4.95564e-06
3.06531e-05
3.49232e-06
2.76126e-05
3.14905e-05
-2.32117e-05
-0.00012079
-2.98411e-05
-0.000136062
-3.86931e-05
-0.000144386
-4.01084e-05
-0.000146795
-3.21888e-05
-0.000153107
-2.0601e-05
-0.000161221
-1.08793e-05
-0.000159593
-4.67223e-06
-0.000158776
-2.093e-06
-0.000161716
-3.83077e-06
-0.000172768
-4.2413e-06
-0.000195296
3.53058e-06
-0.000221847
1.20346e-05
-0.000183379
2.05652e-05
-0.000238533
2.79088e-05
-0.000181058
3.84743e-05
-0.000133741
4.16826e-05
-8.07775e-05
3.22026e-05
-3.25015e-05
-2.32345e-05
1.2563e-05
-0.000109858
2.1875e-05
-0.000118819
2.86232e-05
-0.000120542
3.91066e-05
-0.000117417
5.262e-05
-0.000132535
6.10807e-05
-0.000151642
6.39149e-05
-0.000151167
6.72717e-05
-0.000148129
7.27418e-05
-0.00015113
7.91039e-05
-0.00016939
8.95602e-05
-0.000224563
8.8035e-05
-0.000335642
9.77065e-05
-0.000290632
0.000106503
-0.000383455
7.96138e-05
-0.000298686
7.13919e-05
-0.000210233
6.63371e-05
-0.000152202
4.78188e-05
-3.30584e-05
1.68893e-05
1.46993e-05
-0.000105102
2.40601e-05
-0.000116013
3.29413e-05
-0.000113293
4.2254e-05
-0.00010955
5.72245e-05
-0.000113741
6.2147e-05
-0.000126596
6.89403e-05
-0.000128372
6.84121e-05
-0.000127781
6.78577e-05
-0.000129737
7.57286e-05
-0.000135379
9.94346e-05
-0.000159857
0.000121175
-0.000243677
0.000129022
-0.000310922
0.000115631
-0.000443976
8.72016e-05
-0.000332082
8.03726e-05
-0.000214612
6.93775e-05
-0.000174883
4.22958e-05
-7.69593e-05
4.34503e-05
1.52811e-05
-9.57683e-05
2.54514e-05
-0.000106808
3.62678e-05
-0.000101216
4.81601e-05
-9.76642e-05
5.69024e-05
-0.000107328
6.55174e-05
-0.000117568
6.91626e-05
-0.000120465
6.99766e-05
-0.000122851
6.9232e-05
-0.00013142
7.34977e-05
-0.000146927
8.82746e-05
-0.000184407
0.000104634
-0.000258035
0.000133944
-0.0002767
0.000132027
-0.000380898
0.000103279
-0.000300374
8.87778e-05
-0.000221799
8.41338e-05
-0.000164891
4.76848e-05
-0.000116782
6.17825e-05
1.66731e-05
-8.48507e-05
2.69167e-05
-0.000100083
3.66368e-05
-9.37207e-05
4.82184e-05
-9.04681e-05
5.84146e-05
-9.93082e-05
6.45347e-05
-0.000107648
6.78465e-05
-0.00010872
6.82371e-05
-0.000112902
6.51265e-05
-0.00012105
6.2125e-05
-0.000137989
6.65574e-05
-0.000156692
7.88403e-05
-0.000192762
9.1172e-05
-0.000212208
0.000107314
-0.000315601
0.000104842
-0.000268369
9.5363e-05
-0.000208249
9.1721e-05
-0.000166781
5.20038e-05
-0.000119599
7.61036e-05
1.91689e-05
-7.71039e-05
2.75982e-05
-9.58942e-05
3.73409e-05
-9.11686e-05
4.83996e-05
-8.85112e-05
5.6178e-05
-9.60103e-05
6.0505e-05
-0.000103426
6.38029e-05
-0.000103754
6.50208e-05
-0.000106957
6.27422e-05
-0.000115801
5.83676e-05
-0.000132492
6.07412e-05
-0.000152015
6.64408e-05
-0.000171462
9.25025e-05
-0.000192869
0.000127795
-0.000337474
0.000120861
-0.000288451
0.000102063
-0.000187674
9.56571e-05
-0.000156879
5.59039e-05
-0.00011391
8.63814e-05
2.31367e-05
-7.36109e-05
2.87701e-05
-9.20421e-05
3.72479e-05
-9.09669e-05
4.57202e-05
-8.73866e-05
5.10268e-05
-9.58273e-05
5.39015e-05
-0.000103083
5.68478e-05
-0.000104924
6.00543e-05
-0.000109626
6.09878e-05
-0.000117285
5.96728e-05
-0.000131649
6.03561e-05
-0.000141172
6.36391e-05
-0.00014971
9.43608e-05
-0.000182466
0.000153339
-0.000331525
0.000146204
-0.00030643
0.000102766
-0.000166734
9.72257e-05
-0.000140746
6.03453e-05
-0.000106246
9.74448e-05
2.55961e-05
-7.35865e-05
3.02386e-05
-8.93042e-05
3.58132e-05
-9.09302e-05
4.2372e-05
-9.09798e-05
4.70588e-05
-9.95793e-05
4.99321e-05
-0.000105897
5.28362e-05
-0.000108556
5.6821e-05
-0.000113319
5.96832e-05
-0.000120086
5.9553e-05
-0.00013178
5.96808e-05
-0.000134799
6.27708e-05
-0.000136358
9.43601e-05
-0.000162105
0.000150537
-0.000260318
0.000147909
-0.000247219
0.000104154
-0.000140911
9.70082e-05
-0.000128003
6.27808e-05
-0.000101755
0.000112304
3.42618e-07
-1.37143e-05
9.21692e-07
-1.39335e-05
1.4671e-06
-1.43349e-05
2.36924e-06
-1.41005e-05
3.41817e-06
-1.47513e-05
5.94748e-06
-1.72842e-05
8.99264e-06
-1.70391e-05
1.37579e-05
-1.88311e-05
1.85302e-05
-1.93151e-05
2.20132e-05
-1.79052e-05
2.41199e-05
-1.51095e-05
2.53527e-05
-1.38906e-05
2.61407e-05
-1.10937e-05
2.96207e-05
-9.64689e-06
3.52299e-05
-6.71101e-06
3.3294e-05
1.70769e-06
3.00723e-05
1.53331e-05
3.54876e-05
-7.90855e-06
7.10631e-06
1.38782e-06
-2.75221e-06
1.30365e-05
3.828e-06
1.6893e-05
1.58333e-05
1.43121e-05
1.48123e-05
3.24349e-05
5.50013e-07
-1.69326e-05
1.28377e-06
-1.73775e-05
1.89853e-06
-1.76726e-05
3.02676e-06
-1.78504e-05
4.17538e-06
-1.86808e-05
5.6047e-06
-2.19969e-05
9.24755e-06
-2.35046e-05
1.52066e-05
-2.77687e-05
2.01461e-05
-2.74356e-05
2.4552e-05
-2.49339e-05
2.87043e-05
-2.04536e-05
3.22841e-05
-1.71881e-05
3.29951e-05
-9.95308e-06
3.15969e-05
-4.9934e-06
2.71052e-05
1.75373e-06
2.56978e-05
5.5867e-06
2.56177e-05
1.56768e-05
2.6517e-05
1.68506e-05
2.4434e-05
8.32843e-07
8.69234e-06
1.33696e-06
7.18853e-06
2.27626e-06
1.31808e-05
-5.10424e-06
-7.96127e-06
2.54915e-05
7.57811e-07
-1.82905e-05
1.50693e-06
-1.88168e-05
1.79772e-06
-1.87535e-05
1.50912e-06
-1.84526e-05
1.30914e-06
-1.93209e-05
3.29609e-06
-2.48784e-05
8.89515e-06
-3.02965e-05
1.72288e-05
-3.78383e-05
2.43007e-05
-3.58013e-05
3.02432e-05
-3.18572e-05
3.48554e-05
-2.56826e-05
3.91012e-05
-2.18268e-05
4.22081e-05
-1.28199e-05
4.49024e-05
-7.22788e-06
4.55398e-05
2.14539e-06
4.24773e-05
1.00522e-05
4.24608e-05
2.07152e-05
2.84573e-05
3.07946e-05
3.75874e-05
1.7293e-05
4.18489e-05
-3.66489e-06
3.94651e-05
-1.22126e-05
4.01928e-05
-1.84238e-05
-3.36747e-05
4.8148e-05
8.84553e-09
-2.69294e-05
2.81483e-07
-2.64286e-05
1.32083e-06
-2.40042e-05
2.5847e-06
-2.07457e-05
1.33636e-06
-1.81644e-05
-1.81953e-07
-2.37368e-05
3.46667e-06
-3.43879e-05
1.27142e-05
-4.75235e-05
2.09212e-05
-4.51205e-05
2.66795e-05
-3.93078e-05
3.05486e-05
-3.1194e-05
3.30366e-05
-2.57749e-05
3.69259e-05
-1.77535e-05
4.03647e-05
-1.1311e-05
4.38471e-05
-1.50713e-06
4.63861e-05
7.68352e-06
5.05747e-05
1.8371e-05
3.77087e-05
2.34859e-05
5.26506e-05
1.80393e-05
6.00543e-05
5.80425e-06
6.67593e-05
-2.2349e-05
7.91098e-05
-4.02336e-05
-5.36694e-05
9.45229e-05
2.34934e-06
-9.30656e-05
3.58878e-06
-9.15506e-05
1.51231e-06
-8.70542e-05
-8.12472e-06
-7.96943e-05
-1.82773e-05
-6.48782e-05
-1.83553e-05
-6.07292e-05
-1.29874e-05
-6.59021e-05
-1.19016e-05
-7.7664e-05
-8.07977e-06
-6.57153e-05
-1.43413e-06
-5.42836e-05
4.5531e-06
-4.11826e-05
1.02323e-05
-3.43912e-05
1.86747e-05
-2.93105e-05
2.48638e-05
-2.09867e-05
3.19505e-05
-1.23281e-05
3.81718e-05
-1.68103e-06
4.57755e-05
8.95838e-06
5.58486e-05
1.28733e-05
4.23889e-05
1.78964e-05
6.09386e-05
7.2967e-06
7.49568e-05
-1.25866e-05
8.88779e-05
-2.97789e-05
-3.88554e-05
9.99484e-05
2.97697e-06
-5.69715e-05
5.21959e-06
-5.58604e-05
9.22897e-06
-5.68713e-05
1.40906e-05
-8.74483e-05
1.06684e-05
-8.18313e-05
-9.15611e-06
-9.23006e-05
-4.07047e-05
-0.000138891
-7.34937e-05
-0.000144741
-8.97477e-05
-0.000112062
-8.40574e-05
-9.77395e-05
-7.34288e-05
-8.27082e-05
-6.38683e-05
-5.98278e-05
-5.18266e-05
-4.6695e-05
-3.81905e-05
-3.49583e-05
-2.274e-05
-2.62692e-05
-5.31705e-06
-1.75284e-05
1.47712e-05
-1.26924e-05
3.13062e-05
-6.6444e-06
4.64911e-05
-6.02371e-07
5.45523e-05
-1.00308e-05
7.76166e-05
-4.29476e-06
9.03007e-05
-1.42609e-05
-2.2238e-05
9.98026e-05
1.97916e-05
-3.76772e-05
4.16271e-05
-3.84475e-05
6.23569e-05
-3.91491e-05
8.41375e-05
-4.37285e-05
8.08612e-05
-8.89349e-06
2.73077e-05
3.28469e-05
-4.72202e-05
1.47763e-05
-0.000106294
-2.35144e-05
-0.000121659
-8.03517e-05
-0.000112966
-0.000102291
-9.41629e-05
-0.00014021
-8.25792e-05
-0.000117332
-7.51708e-05
-0.000100535
-6.98762e-05
-8.42096e-05
-6.43467e-05
-7.15177e-05
-5.66799e-05
-5.88022e-05
-4.24779e-05
-5.16128e-05
-2.10668e-05
-4.30125e-05
-1.12397e-07
-3.38191e-05
1.73334e-05
-4.1419e-05
3.67322e-05
-3.84476e-05
4.59411e-05
-5.00861e-05
-5.67137e-05
5.48498e-05
-2.25223e-05
-1.51558e-05
-3.66448e-05
-2.43256e-05
-4.52267e-05
-3.05685e-05
-5.2491e-05
-3.64636e-05
-3.24067e-05
-2.89562e-05
1.76373e-05
-1.43682e-05
9.40993e-05
-1.44292e-05
0.0001197
3.36732e-05
7.94094e-05
3.35046e-05
3.05636e-05
-8.00568e-06
-3.14169e-05
-2.60759e-05
-5.93538e-05
-3.29106e-05
-5.82769e-05
-5.56596e-05
-5.28069e-05
-5.8407e-05
-4.71846e-05
-7.81552e-05
-4.40698e-05
-6.93758e-05
-3.97482e-05
-0.000105083
-3.54248e-05
-0.000121146
-2.80868e-05
-0.000113016
-2.13651e-05
-0.000112061
-9.47353e-06
-0.000102561
2.31685e-06
-0.000112386
-0.000117113
1.46363e-05
-4.49532e-06
-1.06603e-05
-8.07336e-06
-2.07478e-05
-9.75982e-06
-2.88823e-05
-1.00294e-05
-3.61942e-05
-1.4996e-06
-3.74851e-05
1.41697e-05
-2.99977e-05
3.59186e-05
-3.60993e-05
3.10898e-05
3.90342e-05
1.21139e-05
5.2886e-05
1.55246e-07
4.0361e-06
6.26245e-06
-2.96249e-05
4.18157e-05
-4.93913e-05
5.99044e-05
-5.57908e-05
7.01237e-05
-5.23995e-05
7.98867e-05
-4.9413e-05
9.23943e-05
-3.99817e-05
6.53269e-05
-6.50197e-06
3.47528e-05
-1.58101e-05
2.13604e-05
-3.36293e-05
1.22283e-05
-3.95626e-05
1.79688e-05
-5.8069e-05
2.25252e-05
-4.77126e-05
-5.51925e-05
2.30859e-05
8.31892e-07
-1.14917e-05
-3.55577e-07
-1.95602e-05
-2.59548e-06
-2.66424e-05
-5.29337e-06
-3.34967e-05
-4.12307e-06
-3.86559e-05
-2.55608e-07
-3.38652e-05
7.59666e-06
-4.39516e-05
3.58576e-05
1.07731e-05
4.48197e-05
4.39245e-05
2.78868e-05
2.09703e-05
3.39786e-06
-5.13407e-06
1.32428e-06
-4.73157e-05
3.03385e-06
-5.74981e-05
6.03318e-06
-5.53972e-05
6.67108e-06
-5.00491e-05
1.04094e-05
-4.37219e-05
4.13322e-05
-3.67568e-05
7.57587e-05
-3.959e-05
0.000100209
-3.76485e-05
0.000114775
-3.57426e-05
0.000103383
-3.5122e-05
0.000106368
-3.84877e-05
-4.39451e-05
0.000103274
-3.28579e-06
-8.20528e-06
-4.66031e-06
-1.81853e-05
-6.15308e-06
-2.51494e-05
-8.25456e-06
-3.1395e-05
-1.15153e-05
-3.5395e-05
-1.14134e-05
-3.3967e-05
-1.82328e-05
-3.71323e-05
1.04761e-05
-1.79356e-05
3.97317e-05
1.46694e-05
4.50334e-05
1.56696e-05
4.64783e-05
-6.57754e-06
4.1882e-05
-4.27177e-05
4.04418e-05
-5.60564e-05
4.45878e-05
-5.95417e-05
5.07622e-05
-5.62227e-05
5.57801e-05
-4.87393e-05
5.56463e-05
-3.66232e-05
5.02605e-05
-3.42047e-05
4.67079e-05
-3.40964e-05
3.84017e-05
-2.74364e-05
3.65341e-05
-3.32543e-05
3.71172e-05
-3.90706e-05
-4.39788e-05
3.71511e-05
4.4895e-06
-1.26943e-05
6.06481e-06
-1.97603e-05
5.31227e-06
-2.43967e-05
2.49055e-06
-2.85732e-05
-1.80861e-06
-3.10957e-05
-5.06187e-06
-3.07136e-05
-1.15704e-05
-3.06236e-05
-7.61198e-06
-2.18937e-05
1.2439e-05
-5.38104e-06
2.68021e-05
1.30732e-06
3.49951e-05
-1.47694e-05
3.09019e-05
-3.86235e-05
2.33479e-05
-4.85014e-05
1.70522e-05
-5.32452e-05
1.47238e-05
-5.38936e-05
1.7206e-05
-5.1221e-05
2.75041e-05
-4.6921e-05
3.73057e-05
-4.40063e-05
4.18435e-05
-3.86342e-05
4.59521e-05
-3.15447e-05
4.16239e-05
-2.89256e-05
3.43562e-05
-3.18023e-05
-3.40534e-05
2.4431e-05
1.62915e-06
-1.43231e-05
3.09977e-06
-2.12307e-05
3.25095e-06
-2.45478e-05
1.64821e-06
-2.69703e-05
-1.56779e-06
-2.78796e-05
-4.86387e-06
-2.74173e-05
-8.99153e-06
-2.64958e-05
-8.90061e-06
-2.19844e-05
2.17183e-06
-1.6453e-05
1.53375e-05
-1.18578e-05
2.19432e-05
-2.13743e-05
1.837e-05
-3.50495e-05
1.30891e-05
-4.32198e-05
8.3533e-06
-4.85087e-05
4.15279e-06
-4.96925e-05
1.59601e-07
-4.72274e-05
-2.7155e-06
-4.40458e-05
-4.65783e-06
-4.20637e-05
-4.48352e-06
-3.88084e-05
-1.38989e-06
-3.46379e-05
2.08066e-06
-3.23957e-05
2.94075e-06
-3.26619e-05
-3.27496e-05
1.63697e-06
2.66095e-06
-1.69837e-05
4.13428e-06
-2.27039e-05
4.20454e-06
-2.46179e-05
2.77878e-06
-2.55446e-05
4.93066e-07
-2.55938e-05
-1.81366e-06
-2.51105e-05
-4.05772e-06
-2.42516e-05
-3.94232e-06
-2.20995e-05
3.0909e-07
-2.07041e-05
6.95535e-06
-1.85035e-05
9.56645e-06
-2.39848e-05
5.77237e-06
-3.12548e-05
8.81521e-07
-3.83285e-05
-3.90806e-06
-4.37188e-05
-8.01555e-06
-4.55848e-05
-1.08625e-05
-4.43805e-05
-1.25299e-05
-4.23782e-05
-1.38809e-05
-4.07128e-05
-1.49979e-05
-3.76911e-05
-1.50055e-05
-3.46302e-05
-1.43313e-05
-3.30695e-05
-1.40811e-05
-3.29122e-05
-3.25564e-05
-1.42742e-05
1.62553e-06
-1.86091e-05
2.3676e-06
-2.34458e-05
1.92975e-06
-2.41801e-05
8.25643e-07
-2.44404e-05
-3.4883e-07
-2.44194e-05
-1.32947e-06
-2.41298e-05
-2.0163e-06
-2.35647e-05
-1.27833e-06
-2.28373e-05
5.62553e-07
-2.25447e-05
3.52345e-06
-2.1464e-05
4.0554e-06
-2.45164e-05
1.22153e-06
-2.84205e-05
-3.11051e-06
-3.39962e-05
-7.86201e-06
-3.89671e-05
-1.19259e-05
-4.15211e-05
-1.44799e-05
-4.18263e-05
-1.62291e-05
-4.06292e-05
-1.77455e-05
-3.91961e-05
-1.87321e-05
-3.67046e-05
-1.82528e-05
-3.51091e-05
-1.71158e-05
-3.42066e-05
-1.6512e-05
-3.35159e-05
-3.27991e-05
-1.62698e-05
7.20745e-07
-1.93298e-05
6.67734e-07
-2.33928e-05
1.41373e-07
-2.36537e-05
-3.63008e-07
-2.39361e-05
-7.08917e-07
-2.40735e-05
-8.74349e-07
-2.39644e-05
-7.17242e-07
-2.37217e-05
-5.33193e-08
-2.35011e-05
9.55292e-07
-2.35531e-05
2.55955e-06
-2.3068e-05
2.77961e-06
-2.47361e-05
1.48634e-06
-2.7127e-05
-1.62289e-06
-3.08867e-05
-6.1636e-06
-3.44264e-05
-1.05165e-05
-3.7168e-05
-1.35625e-05
-3.87805e-05
-1.53149e-05
-3.88764e-05
-1.61939e-05
-3.83175e-05
-1.67746e-05
-3.61235e-05
-1.73866e-05
-3.44973e-05
-1.76325e-05
-3.39607e-05
-1.76042e-05
-3.35446e-05
-3.28592e-05
-1.7544e-05
2.47101e-07
-1.95769e-05
6.46148e-08
-2.32103e-05
-1.92514e-07
-2.33966e-05
-4.419e-07
-2.36867e-05
-5.87027e-07
-2.39284e-05
-4.96288e-07
-2.40552e-05
-1.57559e-07
-2.40604e-05
3.80772e-07
-2.40394e-05
1.05547e-06
-2.42276e-05
2.10654e-06
-2.41189e-05
2.49169e-06
-2.51211e-05
2.37012e-06
-2.70053e-05
1.10716e-06
-2.96237e-05
-1.45008e-06
-3.18692e-05
-4.61394e-06
-3.40041e-05
-7.73166e-06
-3.56626e-05
-1.02897e-05
-3.63187e-05
-1.25097e-05
-3.6097e-05
-1.39552e-05
-3.46784e-05
-1.56916e-05
-3.27608e-05
-1.73887e-05
-3.2264e-05
-1.84611e-05
-3.24721e-05
-3.20835e-05
-1.92374e-05
7.02327e-08
-1.96472e-05
6.14455e-09
-2.31463e-05
-4.28325e-08
-2.33477e-05
-1.1533e-07
-2.36143e-05
-2.4742e-07
-2.37963e-05
-2.85515e-07
-2.40171e-05
-1.83015e-07
-2.41629e-05
1.18956e-07
-2.43413e-05
4.80262e-07
-2.45889e-05
1.21027e-06
-2.48488e-05
1.72882e-06
-2.56395e-05
1.73431e-06
-2.70107e-05
7.42942e-07
-2.86323e-05
-9.91225e-07
-3.01349e-05
-3.12059e-06
-3.18748e-05
-5.88561e-06
-3.28976e-05
-8.78486e-06
-3.3419e-05
-1.14556e-05
-3.34267e-05
-1.33279e-05
-3.28059e-05
-1.50457e-05
-3.10434e-05
-1.72578e-05
-3.00519e-05
-1.90318e-05
-3.06985e-05
-3.11206e-05
-1.99944e-05
5.07326e-08
-1.9698e-05
9.47958e-08
-2.31905e-05
4.5841e-08
-2.32988e-05
-9.67371e-08
-2.34718e-05
-3.44472e-07
-2.35487e-05
-6.65331e-07
-2.36963e-05
-9.35981e-07
-2.38923e-05
-1.12096e-06
-2.41563e-05
-1.18556e-06
-2.45242e-05
-8.89114e-07
-2.51452e-05
-6.16457e-07
-2.5912e-05
-7.17801e-07
-2.69091e-05
-1.47271e-06
-2.78772e-05
-2.62093e-06
-2.89867e-05
-4.58886e-06
-2.99066e-05
-7.3108e-06
-3.01756e-05
-9.96103e-06
-3.07688e-05
-1.21699e-05
-3.12179e-05
-1.42649e-05
-3.07109e-05
-1.60773e-05
-2.92311e-05
-1.77583e-05
-2.83708e-05
-1.91181e-05
-2.93386e-05
-2.99818e-05
-2.02569e-05
5.11534e-08
-1.97492e-05
-8.37949e-08
-2.30556e-05
-3.22274e-07
-2.30604e-05
-6.09102e-07
-2.3185e-05
-8.75551e-07
-2.32823e-05
-1.18085e-06
-2.3391e-05
-1.44325e-06
-2.36299e-05
-1.70154e-06
-2.3898e-05
-1.95555e-06
-2.42702e-05
-2.20309e-06
-2.48976e-05
-2.52467e-06
-2.55904e-05
-3.12251e-06
-2.63112e-05
-4.03688e-06
-2.69628e-05
-5.20124e-06
-2.78223e-05
-6.77875e-06
-2.83292e-05
-8.35428e-06
-2.86001e-05
-1.00508e-05
-2.90723e-05
-1.20159e-05
-2.92528e-05
-1.39177e-05
-2.8809e-05
-1.53287e-05
-2.78199e-05
-1.64439e-05
-2.72555e-05
-1.7608e-05
-2.81743e-05
-2.88194e-05
-1.87702e-05
-5.65884e-08
-1.96926e-05
-2.83997e-07
-2.28282e-05
-4.98689e-07
-2.28458e-05
-6.85002e-07
-2.29987e-05
-8.69195e-07
-2.30981e-05
-1.03762e-06
-2.32226e-05
-1.2668e-06
-2.34008e-05
-1.57668e-06
-2.35882e-05
-1.97635e-06
-2.38705e-05
-2.49481e-06
-2.43791e-05
-3.10493e-06
-2.49802e-05
-3.89785e-06
-2.55182e-05
-4.92609e-06
-2.59345e-05
-6.15523e-06
-2.65931e-05
-7.46001e-06
-2.70243e-05
-8.6371e-06
-2.7423e-05
-1.01681e-05
-2.75413e-05
-1.2133e-05
-2.72878e-05
-1.39372e-05
-2.70048e-05
-1.54754e-05
-2.62816e-05
-1.67196e-05
-2.60112e-05
-1.80758e-05
-2.68179e-05
-2.74349e-05
-1.94602e-05
-1.47874e-07
-1.95448e-05
-2.97923e-07
-2.26782e-05
-4.217e-07
-2.2722e-05
-6.08844e-07
-2.28116e-05
-8.13381e-07
-2.28936e-05
-1.0283e-06
-2.30077e-05
-1.27488e-06
-2.31542e-05
-1.5231e-06
-2.33399e-05
-1.8e-06
-2.35936e-05
-2.32668e-06
-2.38524e-05
-3.01555e-06
-2.42913e-05
-3.80327e-06
-2.47305e-05
-4.6447e-06
-2.50931e-05
-5.82157e-06
-2.54162e-05
-7.07145e-06
-2.57745e-05
-8.44767e-06
-2.60468e-05
-9.90573e-06
-2.60832e-05
-1.12676e-05
-2.59259e-05
-1.26e-05
-2.56723e-05
-1.37882e-05
-2.50934e-05
-1.49418e-05
-2.48575e-05
-1.64629e-05
-2.52966e-05
-2.53856e-05
-1.85121e-05
-1.05914e-07
-1.94389e-05
-3.33821e-07
-2.24503e-05
-5.95037e-07
-2.24608e-05
-8.82775e-07
-2.25239e-05
-1.17224e-06
-2.26041e-05
-1.45858e-06
-2.27214e-05
-1.74437e-06
-2.28684e-05
-2.03161e-06
-2.30527e-05
-2.35888e-06
-2.32663e-05
-2.76776e-06
-2.34435e-05
-3.41242e-06
-2.36466e-05
-4.18772e-06
-2.39552e-05
-4.94378e-06
-2.4337e-05
-5.83251e-06
-2.45275e-05
-6.92428e-06
-2.46827e-05
-8.36947e-06
-2.46017e-05
-9.95636e-06
-2.44963e-05
-1.129e-05
-2.45923e-05
-1.26644e-05
-2.42977e-05
-1.39886e-05
-2.37691e-05
-1.52003e-05
-2.36456e-05
-1.66813e-05
-2.38154e-05
-2.34005e-05
-1.86662e-05
-2.21047e-07
-1.92179e-05
-5.02702e-07
-2.21687e-05
-7.75023e-07
-2.21885e-05
-1.0472e-06
-2.22517e-05
-1.33253e-06
-2.23188e-05
-1.65417e-06
-2.23998e-05
-2.01741e-06
-2.25052e-05
-2.41072e-06
-2.26594e-05
-2.84165e-06
-2.28354e-05
-3.35867e-06
-2.29265e-05
-4.03113e-06
-2.29741e-05
-4.78144e-06
-2.32048e-05
-5.7086e-06
-2.34098e-05
-6.64914e-06
-2.3587e-05
-7.66184e-06
-2.36701e-05
-8.61735e-06
-2.36462e-05
-9.48476e-06
-2.36289e-05
-1.07115e-05
-2.33655e-05
-1.2018e-05
-2.29912e-05
-1.31883e-05
-2.25987e-05
-1.44561e-05
-2.23776e-05
-1.61517e-05
-2.21197e-05
-2.1658e-05
-1.78939e-05
-1.24313e-07
-1.90936e-05
-3.43416e-07
-2.19496e-05
-5.94502e-07
-2.19374e-05
-8.75301e-07
-2.19709e-05
-1.18229e-06
-2.20118e-05
-1.50712e-06
-2.20749e-05
-1.86126e-06
-2.2151e-05
-2.28107e-06
-2.22396e-05
-2.81304e-06
-2.23034e-05
-3.35285e-06
-2.23866e-05
-3.81115e-06
-2.25158e-05
-4.40136e-06
-2.26146e-05
-5.22372e-06
-2.25874e-05
-6.20291e-06
-2.26078e-05
-7.21395e-06
-2.2659e-05
-8.23564e-06
-2.26245e-05
-9.49869e-06
-2.23659e-05
-1.08605e-05
-2.20037e-05
-1.19641e-05
-2.18875e-05
-1.30088e-05
-2.15539e-05
-1.42896e-05
-2.10967e-05
-1.57967e-05
-2.06124e-05
-2.01912e-05
-1.72632e-05
-2.39256e-07
-1.88543e-05
-5.33779e-07
-2.1655e-05
-8.1983e-07
-2.16514e-05
-1.12291e-06
-2.16678e-05
-1.45121e-06
-2.16835e-05
-1.81653e-06
-2.17096e-05
-2.20927e-06
-2.17583e-05
-2.64108e-06
-2.18078e-05
-3.10184e-06
-2.18426e-05
-3.62239e-06
-2.1866e-05
-4.24792e-06
-2.18902e-05
-4.9645e-06
-2.1898e-05
-5.62415e-06
-2.19278e-05
-6.44372e-06
-2.17882e-05
-7.47529e-06
-2.16275e-05
-8.47979e-06
-2.162e-05
-9.39507e-06
-2.14506e-05
-1.01919e-05
-2.12068e-05
-1.12375e-05
-2.08418e-05
-1.24515e-05
-2.03397e-05
-1.37665e-05
-1.97815e-05
-1.50699e-05
-1.9309e-05
-1.87615e-05
-1.64994e-05
-2.09436e-07
-1.86449e-05
-4.78235e-07
-2.13862e-05
-7.45849e-07
-2.13838e-05
-1.01945e-06
-2.13942e-05
-1.30276e-06
-2.14002e-05
-1.61469e-06
-2.13977e-05
-1.97505e-06
-2.13979e-05
-2.3842e-06
-2.13986e-05
-2.8407e-06
-2.13861e-05
-3.38232e-06
-2.13244e-05
-4.04753e-06
-2.1225e-05
-4.78585e-06
-2.11596e-05
-5.57704e-06
-2.11366e-05
-6.29721e-06
-2.10681e-05
-6.9101e-06
-2.10146e-05
-7.73584e-06
-2.07943e-05
-8.72572e-06
-2.04607e-05
-9.91379e-06
-2.00187e-05
-1.11654e-05
-1.95902e-05
-1.22357e-05
-1.92693e-05
-1.32115e-05
-1.88056e-05
-1.43673e-05
-1.81531e-05
-1.74305e-05
-1.56981e-05
-2.24696e-07
-1.84202e-05
-5.0794e-07
-2.1103e-05
-8.02485e-07
-2.10892e-05
-1.12697e-06
-2.10697e-05
-1.48316e-06
-2.1044e-05
-1.85904e-06
-2.10218e-05
-2.26215e-06
-2.09948e-05
-2.70546e-06
-2.09553e-05
-3.18032e-06
-2.09112e-05
-3.6369e-06
-2.08678e-05
-4.06622e-06
-2.07957e-05
-4.55422e-06
-2.06716e-05
-5.20137e-06
-2.04894e-05
-5.98351e-06
-2.02859e-05
-6.98508e-06
-2.0013e-05
-7.98829e-06
-1.9791e-05
-8.88705e-06
-1.95619e-05
-9.67886e-06
-1.92269e-05
-1.04298e-05
-1.88392e-05
-1.14045e-05
-1.82944e-05
-1.25866e-05
-1.76235e-05
-1.37392e-05
-1.70004e-05
-1.63262e-05
-1.48433e-05
-2.06579e-07
-1.82136e-05
-4.55647e-07
-2.08539e-05
-7.01849e-07
-2.0843e-05
-9.58933e-07
-2.08127e-05
-1.23597e-06
-2.0767e-05
-1.54959e-06
-2.07081e-05
-1.90856e-06
-2.06358e-05
-2.3165e-06
-2.05473e-05
-2.78777e-06
-2.04399e-05
-3.34804e-06
-2.03075e-05
-3.99914e-06
-2.01445e-05
-4.697e-06
-1.99737e-05
-5.36978e-06
-1.98166e-05
-6.03051e-06
-1.96252e-05
-6.62445e-06
-1.9419e-05
-7.24551e-06
-1.917e-05
-8.02637e-06
-1.8781e-05
-8.95001e-06
-1.83032e-05
-1.00262e-05
-1.77629e-05
-1.10797e-05
-1.72409e-05
-1.19758e-05
-1.67273e-05
-1.29377e-05
-1.60383e-05
-1.52497e-05
-1.4014e-05
-2.23459e-07
-1.79901e-05
-4.94458e-07
-2.05829e-05
-7.70003e-07
-2.05674e-05
-1.06597e-06
-2.05167e-05
-1.38198e-06
-2.04509e-05
-1.71987e-06
-2.03702e-05
-2.08374e-06
-2.02719e-05
-2.47533e-06
-2.01557e-05
-2.89242e-06
-2.00228e-05
-3.32145e-06
-1.98785e-05
-3.7516e-06
-1.97144e-05
-4.22523e-06
-1.95e-05
-4.78485e-06
-1.92569e-05
-5.42576e-06
-1.89842e-05
-6.18344e-06
-1.86614e-05
-7.06403e-06
-1.82894e-05
-7.93507e-06
-1.791e-05
-8.75659e-06
-1.74816e-05
-9.50606e-06
-1.70133e-05
-1.03091e-05
-1.64377e-05
-1.12596e-05
-1.57767e-05
-1.22151e-05
-1.50827e-05
-1.43095e-05
-1.31552e-05
-1.84668e-07
-1.78055e-05
-4.01722e-07
-2.03658e-05
-6.23912e-07
-2.03452e-05
-8.67582e-07
-2.0273e-05
-1.13964e-06
-2.01789e-05
-1.44813e-06
-2.00617e-05
-1.79706e-06
-1.9923e-05
-2.18732e-06
-1.97655e-05
-2.62058e-06
-1.95895e-05
-3.10448e-06
-1.93946e-05
-3.64041e-06
-1.91784e-05
-4.20782e-06
-1.89326e-05
-4.80075e-06
-1.8664e-05
-5.41389e-06
-1.83711e-05
-6.03197e-06
-1.80433e-05
-6.64664e-06
-1.76747e-05
-7.31147e-06
-1.72451e-05
-8.05337e-06
-1.67397e-05
-8.89111e-06
-1.61755e-05
-9.74667e-06
-1.55821e-05
-1.05736e-05
-1.49497e-05
-1.14225e-05
-1.42337e-05
-1.34317e-05
-1.23002e-05
-1.81648e-07
-1.76238e-05
-4.00676e-07
-2.01468e-05
-6.23946e-07
-2.0122e-05
-8.66735e-07
-2.00302e-05
-1.12997e-06
-1.99156e-05
-1.41735e-06
-1.97743e-05
-1.73243e-06
-1.96079e-05
-2.07886e-06
-1.9419e-05
-2.46001e-06
-1.92084e-05
-2.87904e-06
-1.89755e-05
-3.33357e-06
-1.87238e-05
-3.8119e-06
-1.84542e-05
-4.32779e-06
-1.81481e-05
-4.89516e-06
-1.78037e-05
-5.51575e-06
-1.74227e-05
-6.19038e-06
-1.7e-05
-6.89984e-06
-1.65356e-05
-7.61017e-06
-1.60293e-05
-8.31587e-06
-1.54698e-05
-9.0516e-06
-1.48463e-05
-9.83525e-06
-1.4166e-05
-1.06353e-05
-1.34336e-05
-1.26283e-05
-1.14385e-05
-1.36359e-07
-1.74874e-05
-3.17321e-07
-1.99658e-05
-5.0404e-07
-1.99352e-05
-7.11728e-07
-1.98225e-05
-9.42458e-07
-1.96849e-05
-1.20185e-06
-1.95149e-05
-1.49751e-06
-1.93122e-05
-1.83008e-06
-1.90864e-05
-2.19887e-06
-1.88396e-05
-2.60248e-06
-1.85719e-05
-3.04481e-06
-1.82815e-05
-3.53087e-06
-1.79682e-05
-4.04725e-06
-1.76317e-05
-4.58468e-06
-1.72663e-05
-5.1462e-06
-1.68611e-05
-5.73153e-06
-1.64148e-05
-6.34306e-06
-1.59241e-05
-6.99044e-06
-1.53819e-05
-7.67255e-06
-1.47876e-05
-8.37505e-06
-1.41437e-05
-9.09131e-06
-1.34496e-05
-9.82527e-06
-1.26996e-05
-1.18837e-05
-1.05697e-05
-1.05686e-07
-1.73817e-05
-2.66923e-07
-1.98046e-05
-4.33722e-07
-1.97684e-05
-6.17885e-07
-1.96383e-05
-8.18478e-07
-1.94843e-05
-1.03649e-06
-1.92969e-05
-1.27845e-06
-1.90703e-05
-1.55258e-06
-1.88123e-05
-1.86933e-06
-1.85228e-05
-2.23824e-06
-1.82029e-05
-2.65485e-06
-1.78648e-05
-3.10809e-06
-1.75149e-05
-3.59473e-06
-1.7145e-05
-4.11221e-06
-1.67487e-05
-4.65482e-06
-1.63185e-05
-5.22152e-06
-1.5848e-05
-5.80793e-06
-1.53376e-05
-6.40927e-06
-1.47805e-05
-7.027e-06
-1.41698e-05
-7.66466e-06
-1.3506e-05
-8.32516e-06
-1.27891e-05
-9.00394e-06
-1.20207e-05
-1.11945e-05
-9.69304e-06
-6.20947e-08
-1.73196e-05
-2.17104e-07
-1.96496e-05
-3.76899e-07
-1.96086e-05
-5.47037e-07
-1.94682e-05
-7.28389e-07
-1.93029e-05
-9.17488e-07
-1.91078e-05
-1.10902e-06
-1.88787e-05
-1.31703e-06
-1.86043e-05
-1.55432e-06
-1.82855e-05
-1.8318e-06
-1.79255e-05
-2.16537e-06
-1.75312e-05
-2.56668e-06
-1.71136e-05
-3.03126e-06
-1.66804e-05
-3.55151e-06
-1.62285e-05
-4.09773e-06
-1.57723e-05
-4.6502e-06
-1.52956e-05
-5.20772e-06
-1.47801e-05
-5.77137e-06
-1.42168e-05
-6.34859e-06
-1.35926e-05
-6.93781e-06
-1.29168e-05
-7.54306e-06
-1.21838e-05
-8.16658e-06
-1.13972e-05
-1.05562e-05
-8.80474e-06
-2.59228e-08
-1.72937e-05
-2.13245e-07
-1.94622e-05
-4.02323e-07
-1.94195e-05
-5.87719e-07
-1.92828e-05
-7.76351e-07
-1.91143e-05
-9.70585e-07
-1.89136e-05
-1.16778e-06
-1.86815e-05
-1.36769e-06
-1.84043e-05
-1.57495e-06
-1.80782e-05
-1.79381e-06
-1.77066e-05
-2.03308e-06
-1.7292e-05
-2.30458e-06
-1.6842e-05
-2.61848e-06
-1.63665e-05
-2.99063e-06
-1.58563e-05
-3.43568e-06
-1.53273e-05
-3.94923e-06
-1.4782e-05
-4.51075e-06
-1.42186e-05
-5.08033e-06
-1.36473e-05
-5.63387e-06
-1.3039e-05
-6.18325e-06
-1.23674e-05
-6.74006e-06
-1.1627e-05
-7.3126e-06
-1.08246e-05
-9.96565e-06
-7.90312e-06