/*--------------------------------*- C++ -*----------------------------------*\
| =========                 |                                                 |
| \\      /  F ield         | OpenFOAM: The Open Source CFD Toolbox           |
|  \\    /   O peration     | Version:  2.4.0                                 |
|   \\  /    A nd           | Web:      www.OpenFOAM.org                      |
|    \\/     M anipulation  |                                                 |
\*---------------------------------------------------------------------------*/
FoamFile
{
    version     2.0;
    format      ascii;
    class       surfaceScalarField;
    location    "0.5";
    object      phi.water;
}
// * * * * * * * * * * * * * * * * * * * * * * * * * * * * * * * * * * * * * //

dimensions      [0 3 -1 0 0 0 0];

internalField   nonuniform List<scalar> 
4432
(
2.73251e-06
-2.72596e-06
5.63136e-06
-2.89245e-06
7.80419e-06
-2.16724e-06
1.14016e-05
-3.58976e-06
1.37499e-05
-2.34182e-06
1.60119e-05
-2.25525e-06
1.9215e-05
-3.19432e-06
2.23144e-05
-3.08991e-06
2.5153e-05
-2.82963e-06
2.67207e-05
-1.559e-06
2.83988e-05
-1.66848e-06
3.06136e-05
-2.20387e-06
3.26556e-05
-2.0306e-06
3.37254e-05
-1.05857e-06
3.30862e-05
6.49545e-07
3.09899e-05
2.10537e-06
2.69239e-05
4.07273e-06
2.16139e-05
5.31545e-06
1.61055e-05
5.51262e-06
1.20504e-05
4.05863e-06
8.19767e-06
3.85495e-06
2.85302e-06
5.34543e-06
2.85315e-06
2.74038e-06
-5.39744e-06
5.63214e-06
-5.69757e-06
7.95541e-06
-4.43794e-06
1.12962e-05
-6.74714e-06
1.36745e-05
-4.63483e-06
1.61887e-05
-4.65353e-06
1.93716e-05
-6.03533e-06
2.22557e-05
-5.68106e-06
2.48701e-05
-5.13341e-06
2.6752e-05
-3.15995e-06
2.90877e-05
-3.45593e-06
3.12619e-05
-3.86584e-06
3.27183e-05
-3.10218e-06
3.33926e-05
-1.56806e-06
3.3641e-05
4.53891e-07
3.1466e-05
4.29902e-06
2.7443e-05
8.10987e-06
2.18167e-05
1.09544e-05
1.68218e-05
1.05161e-05
1.24214e-05
8.46474e-06
8.26748e-06
8.01201e-06
3.31086e-06
1.03033e-05
6.16448e-06
2.75731e-06
1.58024e-05
5.55999e-06
1.57837e-05
8.13637e-06
1.61697e-05
1.11015e-05
1.53834e-05
1.36812e-05
1.67489e-05
1.65113e-05
1.68052e-05
1.95038e-05
1.59181e-05
2.20394e-05
1.6547e-05
2.44099e-05
1.69487e-05
2.69725e-05
1.80239e-05
3.00099e-05
1.76192e-05
3.20846e-05
1.82359e-05
3.36426e-05
1.86194e-05
3.42184e-05
1.8971e-05
3.32074e-05
1.26466e-05
3.12024e-05
9.71942e-06
2.75513e-05
1.2497e-05
2.21441e-05
1.66345e-05
1.69739e-05
1.58776e-05
1.32953e-05
1.22588e-05
1.00679e-05
1.12682e-05
6.31362e-06
1.40676e-05
1.24797e-05
2.80801e-06
2.33584e-05
5.44212e-06
2.3266e-05
8.52002e-06
2.41264e-05
1.08415e-05
2.25631e-05
1.37454e-05
2.45081e-05
1.69045e-05
2.43745e-05
1.95639e-05
2.35541e-05
2.17038e-05
2.51411e-05
2.4359e-05
2.54665e-05
2.75083e-05
2.68532e-05
3.01037e-05
2.62308e-05
3.11191e-05
2.88566e-05
3.1606e-05
3.178e-05
2.90551e-05
3.75578e-05
3.05574e-05
3.75787e-05
3.26388e-05
3.32934e-05
2.93902e-05
3.16381e-05
2.42449e-05
2.60215e-05
1.80891e-05
2.25072e-05
1.26412e-05
1.78701e-05
8.96811e-06
1.50006e-05
5.3979e-06
1.76647e-05
1.78827e-05
2.82368e-06
1.38877e-05
5.2429e-06
1.36563e-05
8.8695e-06
1.41247e-05
1.02162e-05
1.32575e-05
1.36769e-05
1.37523e-05
1.72967e-05
1.24543e-05
1.88301e-05
1.15896e-05
2.12572e-05
1.17082e-05
2.41126e-05
1.07996e-05
2.74957e-05
1.12531e-05
2.92695e-05
1.15184e-05
3.12863e-05
1.32163e-05
3.29191e-05
1.59202e-05
3.4328e-05
2.13694e-05
3.14422e-05
3.20502e-05
2.71436e-05
4.61888e-05
2.02657e-05
5.62427e-05
2.30061e-05
4.71794e-05
1.85733e-05
3.74385e-05
1.21102e-05
2.75379e-05
7.11962e-06
2.02328e-05
4.75823e-06
2.00967e-05
2.26515e-05
2.28851e-06
-9.02213e-06
4.26919e-06
-9.36286e-06
7.43704e-06
-9.99374e-06
8.44664e-06
-9.99746e-06
1.07387e-05
-1.07669e-05
1.32369e-05
-1.27382e-05
1.44947e-05
-1.27322e-05
1.64139e-05
-1.3203e-05
1.84767e-05
-1.40865e-05
2.05921e-05
-1.3572e-05
2.19242e-05
-1.23678e-05
2.40089e-05
-1.14372e-05
2.5368e-05
-8.84969e-06
2.57704e-05
-4.28224e-06
2.43367e-05
2.84831e-06
2.41032e-05
1.41408e-05
1.77353e-05
3.66215e-05
1.48934e-05
5.68904e-05
9.49687e-06
6.21766e-05
1.03629e-05
4.42146e-05
5.78682e-06
2.78694e-05
2.79073e-06
2.3354e-05
2.54998e-05
3.25326e-07
-1.63684e-05
8.10273e-07
-1.63608e-05
1.05769e-06
-1.67671e-05
1.95867e-06
-1.59483e-05
2.34219e-06
-1.60865e-05
3.17396e-06
-1.74186e-05
4.74821e-06
-1.67496e-05
6.36911e-06
-1.66507e-05
8.10165e-06
-1.71647e-05
9.50783e-06
-1.60313e-05
1.03106e-05
-1.39476e-05
1.02195e-05
-1.19561e-05
9.6863e-06
-8.83265e-06
1.03307e-05
-5.5421e-06
1.4329e-05
-2.31497e-06
1.87794e-05
3.64301e-06
1.68234e-05
2.11726e-05
5.29611e-06
4.59822e-05
6.2948e-06
5.886e-05
4.70128e-06
5.90312e-05
5.31642e-06
3.71769e-05
2.56306e-06
2.65004e-05
2.81367e-05
1.61488e-07
-1.65333e-05
3.70201e-07
-1.65725e-05
7.1721e-07
-1.71169e-05
1.11272e-06
-1.63454e-05
2.01536e-06
-1.69906e-05
3.41978e-06
-1.88239e-05
4.57502e-06
-1.79053e-05
6.65033e-06
-1.87263e-05
9.00537e-06
-1.95199e-05
1.14866e-05
-1.85126e-05
1.29206e-05
-1.53816e-05
1.4279e-05
-1.33146e-05
1.40354e-05
-8.58915e-06
1.05493e-05
-2.056e-06
3.71898e-06
4.51514e-06
3.64464e-06
3.68098e-06
7.33728e-06
1.57939e-05
-1.01772e-06
4.06812e-05
-5.4631e-06
5.23945e-05
1.05196e-07
5.36669e-05
3.55778e-06
4.0406e-05
3.48667e-06
2.82625e-05
3.18588e-05
-1.55326e-05
-8.68839e-06
-2.32661e-05
-1.60983e-05
-3.02983e-05
-2.08056e-05
-3.44937e-05
-3.13672e-05
-3.15538e-05
-4.36121e-05
-2.22459e-05
-5.82967e-05
-1.27228e-05
-6.67667e-05
-4.7296e-06
-7.29229e-05
1.53374e-06
-7.74646e-05
3.43158e-06
-8.01922e-05
1.31473e-06
-8.16528e-05
5.51564e-06
-7.35412e-05
9.54422e-06
-3.95647e-05
1.4175e-05
-2.15289e-05
1.1735e-05
-1.27357e-05
2.05039e-05
6.02353e-07
2.82634e-05
1.9154e-05
2.09507e-05
2.1239e-05
7.46384e-06
-6.05756e-06
-4.56604e-06
-6.98421e-06
-2.18608e-05
-7.22222e-06
-2.29411e-05
-8.56116e-06
-1.90499e-05
-4.52347e-06
-2.97037e-05
8.91725e-06
-5.48035e-05
2.19366e-05
-6.54883e-05
3.09747e-05
-6.957e-05
3.82681e-05
-7.34958e-05
4.019e-05
-7.27625e-05
3.52978e-05
-6.70861e-05
9.68465e-06
-4.28735e-05
9.77004e-06
-4.0577e-05
1.96193e-05
-2.83937e-05
1.90394e-05
-6.37233e-05
2.9621e-05
-6.53805e-05
3.46258e-05
-2.45457e-06
3.07948e-05
5.00991e-05
5.50382e-05
2.19774e-06
-1.49182e-05
8.30614e-06
-3.89971e-05
1.20536e-05
-3.75954e-05
1.77244e-05
-3.55654e-05
3.13299e-05
-4.8716e-05
4.16068e-05
-6.80897e-05
5.11013e-05
-7.47928e-05
5.748e-05
-7.75886e-05
6.49878e-05
-8.27879e-05
8.03032e-05
-8.62554e-05
8.51509e-05
-9.44105e-05
5.55589e-05
-0.000134428
3.22768e-05
-0.000125826
2.7398e-05
-0.000139402
2.89684e-05
-0.000180749
3.52976e-05
-0.000111481
2.84327e-05
-4.13903e-05
2.00265e-05
5.63066e-05
8.83621e-05
9.50585e-06
-2.75353e-05
2.21706e-05
-5.3797e-05
3.32717e-05
-5.0474e-05
4.38627e-05
-4.80894e-05
5.52709e-05
-6.31657e-05
6.62973e-05
-7.8486e-05
7.1635e-05
-8.0105e-05
7.44206e-05
-8.15014e-05
7.79952e-05
-9.1202e-05
8.9799e-05
-0.000109573
0.000108385
-0.000150088
0.000122318
-0.000208276
0.000134861
-0.000189002
6.82338e-05
-0.000163212
7.79495e-05
-0.000235053
6.09781e-05
-0.000191224
4.28936e-05
-5.12874e-05
1.28192e-05
5.22478e-05
0.000115749
1.3316e-05
-3.72338e-05
2.76144e-05
-6.54687e-05
4.00054e-05
-6.06149e-05
5.22886e-05
-5.7797e-05
6.31571e-05
-7.03661e-05
6.92527e-05
-8.01354e-05
7.28376e-05
-7.86138e-05
7.37799e-05
-7.89817e-05
7.18788e-05
-8.59165e-05
7.10569e-05
-9.88167e-05
7.11529e-05
-8.60366e-05
8.5e-05
-0.000126476
0.000100356
-0.000147019
6.04264e-05
-9.52548e-05
9.80253e-05
-0.000255929
9.53651e-05
-0.000213617
5.35863e-05
-7.48761e-05
1.18485e-05
5.92185e-05
0.000129677
1.73759e-05
-4.62793e-05
2.85347e-05
-7.28517e-05
4.00988e-05
-6.89302e-05
5.20583e-05
-6.54799e-05
6.0131e-05
-7.50297e-05
6.43184e-05
-8.16308e-05
6.75229e-05
-7.89849e-05
6.82726e-05
-7.73753e-05
6.18578e-05
-8.27572e-05
5.77986e-05
-7.79055e-05
5.07641e-05
-7.35938e-05
4.60694e-05
-9.27057e-05
9.28287e-05
-0.000119052
8.63369e-05
-9.35736e-05
0.000119046
-0.000282043
0.000115003
-0.000179135
6.24528e-05
-7.0896e-05
1.46649e-05
7.10051e-05
0.000140252
2.26973e-05
-6.05749e-05
2.92442e-05
-3.51088e-05
3.84931e-05
-3.21708e-05
4.76911e-05
-7.26451e-05
5.32732e-05
-4.05651e-05
5.60461e-05
-3.65086e-05
5.90673e-05
-3.95785e-05
6.17867e-05
-6.38794e-05
4.25606e-05
-8.4353e-05
4.80204e-05
-6.41634e-05
4.81808e-05
-6.22352e-05
3.37439e-05
-7.56088e-05
7.64416e-05
-9.1009e-05
0.000123546
-0.000150885
0.00014343
-0.000284277
0.0001118
-0.000133428
7.4386e-05
-4.17307e-05
2.55222e-05
9.27016e-05
0.000156368
1.62336e-05
-3.08877e-05
2.93849e-05
-6.25782e-05
2.3088e-05
-4.6774e-05
3.34605e-05
-2.38196e-05
4.63563e-05
-4.10464e-05
5.06011e-05
-4.09677e-05
4.59788e-05
-3.81834e-05
5.50063e-05
-3.53145e-05
3.34593e-05
-2.81915e-05
5.34033e-05
-5.0434e-05
5.0272e-05
-5.63888e-05
4.17811e-05
-6.36266e-05
5.17824e-05
-6.47382e-05
0.000148284
-4.71372e-05
0.000184421
-0.000197792
0.000123558
-9.20594e-05
7.97295e-05
-7.41478e-06
2.97331e-05
0.000119161
0.00017577
1.92064e-07
-1.67254e-05
6.82503e-07
-1.7063e-05
1.0954e-06
-1.75299e-05
1.99871e-06
-1.72488e-05
3.07008e-06
-1.8062e-05
5.59833e-06
-2.13522e-05
8.74267e-06
-2.10497e-05
1.36213e-05
-2.36049e-05
1.81831e-05
-2.40818e-05
2.1455e-05
-2.17846e-05
2.32617e-05
-1.71885e-05
2.42312e-05
-1.42841e-05
2.49596e-05
-9.31761e-06
2.90179e-05
-6.11427e-06
3.50412e-05
-1.50814e-06
3.1872e-05
6.85009e-06
2.39061e-05
2.37391e-05
1.89381e-05
4.2431e-05
-7.87786e-06
6.02584e-05
-1.72772e-05
4.93881e-05
-3.76499e-06
4.50796e-05
1.00445e-05
4.13601e-05
2.32875e-05
3.27719e-05
5.22328e-07
-1.72477e-05
1.23824e-06
-1.77789e-05
1.84307e-06
-1.81347e-05
2.97891e-06
-1.83847e-05
4.13623e-06
-1.92193e-05
5.55351e-06
-2.27695e-05
9.23651e-06
-2.47326e-05
1.52834e-05
-2.96553e-05
2.01325e-05
-2.89565e-05
2.45209e-05
-2.62419e-05
2.86784e-05
-2.14065e-05
3.22621e-05
-1.79153e-05
3.29441e-05
-1.00195e-05
3.157e-05
-4.74749e-06
2.73415e-05
2.71983e-06
2.54258e-05
8.76573e-06
2.8966e-05
2.01989e-05
3.36368e-05
3.7706e-05
3.02963e-05
5.99528e-05
8.77168e-06
5.85787e-05
1.50749e-06
3.79049e-05
7.02077e-06
2.64969e-05
2.53792e-05
2.47727e-05
7.52394e-07
-1.80326e-05
1.49562e-06
-1.85474e-05
1.78427e-06
-1.8432e-05
1.49222e-06
-1.80931e-05
1.2881e-06
-1.90152e-05
3.29317e-06
-2.47746e-05
8.92408e-06
-3.03734e-05
1.72649e-05
-3.8171e-05
2.43204e-05
-3.66378e-05
3.02577e-05
-3.34201e-05
3.48728e-05
-2.7408e-05
3.91047e-05
-2.33921e-05
4.21901e-05
-1.39197e-05
4.49098e-05
-7.9789e-06
4.55757e-05
1.88052e-06
4.4359e-05
9.95349e-06
4.24531e-05
2.21074e-05
4.81232e-05
3.20395e-05
6.40766e-05
4.39608e-05
7.08934e-05
4.85463e-05
5.84136e-05
4.1705e-05
4.72555e-05
2.39986e-05
5.60638e-06
5.14127e-05
8.54956e-09
-2.72887e-05
2.80621e-07
-2.6741e-05
1.31985e-06
-2.42086e-05
2.58401e-06
-2.08356e-05
1.33482e-06
-1.82044e-05
-1.80277e-07
-2.37674e-05
3.5459e-06
-3.45264e-05
1.29767e-05
-4.93277e-05
2.13832e-05
-4.94882e-05
2.72309e-05
-4.53688e-05
3.10869e-05
-3.76449e-05
3.34915e-05
-3.17374e-05
3.7239e-05
-2.27558e-05
4.05106e-05
-1.5411e-05
4.38967e-05
-5.44841e-06
4.64072e-05
4.83645e-06
5.05006e-05
1.67603e-05
5.94793e-05
2.24575e-05
7.25057e-05
3.08175e-05
9.49722e-05
2.57971e-05
0.000111596
2.29191e-05
0.000121436
9.61211e-06
-6.38179e-06
0.000125492
2.36114e-06
-9.95046e-05
3.60581e-06
-9.76395e-05
1.51558e-06
-9.22896e-05
-8.12002e-06
-8.40219e-05
-1.82745e-05
-6.76009e-05
-1.83489e-05
-6.22201e-05
-1.23883e-05
-6.69811e-05
-9.99749e-06
-8.38598e-05
-5.29881e-06
-7.94114e-05
1.50534e-06
-6.61509e-05
7.64194e-06
-5.27268e-05
1.34413e-05
-4.53487e-05
2.12951e-05
-3.94734e-05
2.66495e-05
-3.10557e-05
3.31548e-05
-2.24005e-05
3.87998e-05
-9.86573e-06
4.6056e-05
3.51881e-06
5.53286e-05
8.98652e-06
6.87454e-05
1.50243e-05
8.44505e-05
8.07308e-06
9.81028e-05
7.5302e-06
0.000115351
-9.12374e-06
-2.09805e-05
0.000128443
4.52827e-06
-7.31839e-05
7.69276e-06
-6.98791e-05
1.12938e-05
-6.64977e-05
1.46698e-05
-9.71808e-05
1.07385e-05
-8.82032e-05
-7.94471e-06
-9.90072e-05
-3.66313e-05
-0.000151123
-7.18283e-05
-0.000176141
-9.2638e-05
-0.000150661
-8.30301e-05
-0.000114387
-7.10739e-05
-9.42527e-05
-6.23338e-05
-7.12424e-05
-5.17623e-05
-5.43588e-05
-3.86842e-05
-4.36359e-05
-2.17061e-05
-3.60866e-05
-9.79333e-07
-2.88456e-05
1.93739e-05
-2.47211e-05
3.36761e-05
-1.49098e-05
4.71008e-05
-7.59531e-06
6.43741e-05
-1.79162e-05
7.91232e-05
-1.43487e-05
9.15597e-05
-2.7913e-05
-3.58229e-05
0.000100392
2.52013e-05
-4.57301e-05
3.24292e-05
-4.63072e-05
4.30757e-05
-4.58531e-05
4.39007e-05
-5.10783e-05
2.5094e-05
-2.53071e-05
1.30015e-05
-3.39293e-05
-1.66645e-05
-8.61569e-05
-7.68239e-05
-0.000103307
-0.000109461
-9.10254e-05
-9.8381e-05
-7.19994e-05
-8.60511e-05
-6.97689e-05
-8.16134e-05
-5.77886e-05
-7.6566e-05
-6.04222e-05
-7.10645e-05
-6.05264e-05
-6.36348e-05
-5.25271e-05
-4.92941e-05
-4.48035e-05
-3.3572e-05
-4.0601e-05
-9.74958e-06
-3.56278e-05
5.30074e-06
-3.33187e-05
2.13684e-05
-4.58861e-05
3.9688e-05
-4.71335e-05
4.77217e-05
-6.00498e-05
-6.97621e-05
5.70792e-05
-2.19438e-05
-1.50011e-05
-3.61092e-05
-2.3821e-05
-4.51124e-05
-3.00111e-05
-5.22015e-05
-3.68753e-05
-3.25887e-05
-3.1647e-05
2.13641e-05
-1.59602e-05
9.95608e-05
-2.05758e-05
0.000119212
9.67025e-06
8.02111e-05
3.82965e-06
2.60871e-05
-8.01945e-06
-3.32353e-05
-1.10291e-05
-5.85578e-05
-2.32134e-05
-5.67359e-05
-4.77511e-05
-5.27514e-05
-4.93134e-05
-4.71835e-05
-7.15524e-05
-4.42249e-05
-6.43489e-05
-3.79058e-05
-6.79312e-05
-3.1948e-05
-6.30995e-05
-2.46544e-05
-6.29524e-05
-1.73446e-05
-6.17349e-05
-7.94834e-06
-4.15932e-05
3.86663e-06
-5.27483e-05
-5.54918e-05
1.66545e-05
-4.60875e-06
-1.08147e-05
-8.11402e-06
-2.01748e-05
-9.78919e-06
-2.91404e-05
-1.00173e-05
-3.66224e-05
-1.51636e-06
-3.74889e-05
1.41385e-05
-2.99756e-05
3.58525e-05
-3.57976e-05
3.0949e-05
3.91524e-05
1.21387e-05
5.29317e-05
3.35229e-07
3.87341e-06
6.18068e-06
-2.9844e-05
4.17773e-05
-4.94722e-05
5.98828e-05
-5.5824e-05
7.01106e-05
-5.23906e-05
7.98907e-05
-4.9366e-05
9.23715e-05
-3.97776e-05
6.53163e-05
-6.0079e-06
3.46331e-05
-1.5227e-05
2.11353e-05
-3.25451e-05
1.14685e-05
-3.55635e-05
1.80475e-05
-4.78515e-05
2.2551e-05
-3.38977e-05
-3.4772e-05
2.34856e-05
8.06704e-07
-1.22614e-05
-3.48915e-07
-2.00738e-05
-2.55667e-06
-2.72156e-05
-5.24007e-06
-3.37979e-05
-4.13078e-06
-3.86909e-05
-2.57617e-07
-3.38727e-05
7.5989e-06
-4.39504e-05
3.5931e-05
1.07251e-05
4.48363e-05
4.39102e-05
2.80749e-05
2.08736e-05
3.40788e-06
-5.19672e-06
1.3352e-06
-4.73762e-05
3.03435e-06
-5.75014e-05
6.03323e-06
-5.53942e-05
6.6711e-06
-5.00512e-05
1.04092e-05
-4.37256e-05
4.13319e-05
-3.67604e-05
7.57586e-05
-3.95914e-05
0.000100209
-3.76489e-05
0.000114775
-3.57425e-05
0.000103382
-3.51222e-05
0.000106368
-3.84878e-05
-4.39457e-05
0.000103274
-3.25944e-06
-8.10691e-06
-4.66005e-06
-1.78364e-05
-6.13729e-06
-2.48923e-05
-8.24197e-06
-3.1323e-05
-1.15151e-05
-3.53891e-05
-1.14172e-05
-3.39645e-05
-1.82342e-05
-3.71333e-05
1.06126e-05
-1.7945e-05
3.97774e-05
1.46175e-05
4.50372e-05
1.55792e-05
4.64781e-05
-6.63615e-06
4.1895e-05
-4.27501e-05
4.04404e-05
-5.60557e-05
4.45852e-05
-5.95357e-05
5.07619e-05
-5.62211e-05
5.578e-05
-4.87388e-05
5.56462e-05
-3.66227e-05
5.02604e-05
-3.42043e-05
4.67078e-05
-3.40957e-05
3.84017e-05
-2.74356e-05
3.65341e-05
-3.32539e-05
3.71173e-05
-3.90704e-05
-4.39787e-05
3.71511e-05
4.38959e-06
-1.33265e-05
6.06017e-06
-1.99458e-05
5.31668e-06
-2.4466e-05
2.49352e-06
-2.85934e-05
-1.80763e-06
-3.11031e-05
-5.06429e-06
-3.07166e-05
-1.15761e-05
-3.0629e-05
-7.5756e-06
-2.1891e-05
1.26543e-05
-5.28859e-06
2.67779e-05
1.50072e-06
3.49562e-05
-1.47156e-05
3.0924e-05
-3.86616e-05
2.33503e-05
-4.85079e-05
1.70522e-05
-5.32459e-05
1.47238e-05
-5.38941e-05
1.7206e-05
-5.12214e-05
2.75041e-05
-4.69213e-05
3.73057e-05
-4.40065e-05
4.18435e-05
-3.86343e-05
4.59521e-05
-3.15447e-05
4.16239e-05
-2.89256e-05
3.43562e-05
-3.18024e-05
-3.40535e-05
2.4431e-05
1.62498e-06
-1.42906e-05
3.09757e-06
-2.122e-05
3.2511e-06
-2.45477e-05
1.64824e-06
-2.69706e-05
-1.56777e-06
-2.788e-05
-4.86385e-06
-2.74177e-05
-8.99154e-06
-2.64962e-05
-8.90057e-06
-2.19847e-05
2.19174e-06
-1.64532e-05
1.53322e-05
-1.1852e-05
2.19427e-05
-2.13732e-05
1.83701e-05
-3.50496e-05
1.30892e-05
-4.32199e-05
8.35331e-06
-4.85087e-05
4.1528e-06
-4.96925e-05
1.59603e-07
-4.72274e-05
-2.7155e-06
-4.40458e-05
-4.65783e-06
-4.20637e-05
-4.48352e-06
-3.88084e-05
-1.38989e-06
-3.46379e-05
2.08066e-06
-3.23957e-05
2.94075e-06
-3.26619e-05
-3.27496e-05
1.63697e-06
2.66024e-06
-1.69852e-05
4.13417e-06
-2.27044e-05
4.20454e-06
-2.46181e-05
2.77879e-06
-2.55447e-05
4.93056e-07
-2.55939e-05
-1.81369e-06
-2.51107e-05
-4.05772e-06
-2.42518e-05
-3.94233e-06
-2.20996e-05
3.09117e-07
-2.07041e-05
6.95528e-06
-1.85036e-05
9.56646e-06
-2.39849e-05
5.77239e-06
-3.12549e-05
8.81539e-07
-3.83285e-05
-3.90805e-06
-4.37188e-05
-8.01555e-06
-4.55849e-05
-1.08625e-05
-4.43805e-05
-1.25299e-05
-4.23782e-05
-1.38809e-05
-4.07128e-05
-1.49979e-05
-3.76911e-05
-1.50055e-05
-3.46302e-05
-1.43313e-05
-3.30695e-05
-1.40811e-05
-3.29122e-05
-3.25564e-05
-1.42742e-05
1.62554e-06
-1.86092e-05
2.36759e-06
-2.3446e-05
1.92976e-06
-2.41802e-05
8.25645e-07
-2.44405e-05
-3.48831e-07
-2.44194e-05
-1.32947e-06
-2.41299e-05
-2.0163e-06
-2.35647e-05
-1.27833e-06
-2.28373e-05
5.6255e-07
-2.25447e-05
3.52344e-06
-2.14641e-05
4.0554e-06
-2.45164e-05
1.22154e-06
-2.84206e-05
-3.1105e-06
-3.39962e-05
-7.86201e-06
-3.89671e-05
-1.19259e-05
-4.15211e-05
-1.44799e-05
-4.18263e-05
-1.62291e-05
-4.06292e-05
-1.77455e-05
-3.91961e-05
-1.87321e-05
-3.67046e-05
-1.82528e-05
-3.51091e-05
-1.71158e-05
-3.42066e-05
-1.6512e-05
-3.35159e-05
-3.27991e-05
-1.62698e-05
7.20746e-07
-1.93298e-05
6.67736e-07
-2.33928e-05
1.41374e-07
-2.36537e-05
-3.63007e-07
-2.39361e-05
-7.08917e-07
-2.40735e-05
-8.74349e-07
-2.39644e-05
-7.17242e-07
-2.37217e-05
-5.33201e-08
-2.35011e-05
9.55291e-07
-2.35531e-05
2.55955e-06
-2.3068e-05
2.77961e-06
-2.47361e-05
1.48634e-06
-2.7127e-05
-1.62289e-06
-3.08867e-05
-6.1636e-06
-3.44264e-05
-1.05165e-05
-3.7168e-05
-1.35625e-05
-3.87805e-05
-1.53149e-05
-3.88764e-05
-1.61939e-05
-3.83175e-05
-1.67746e-05
-3.61235e-05
-1.73866e-05
-3.44973e-05
-1.76325e-05
-3.39607e-05
-1.76042e-05
-3.35446e-05
-3.28592e-05
-1.7544e-05
2.47101e-07
-1.95769e-05
6.4615e-08
-2.32104e-05
-1.92514e-07
-2.33966e-05
-4.419e-07
-2.36867e-05
-5.87027e-07
-2.39284e-05
-4.96288e-07
-2.40552e-05
-1.57559e-07
-2.40604e-05
3.80771e-07
-2.40394e-05
1.05547e-06
-2.42276e-05
2.10654e-06
-2.41189e-05
2.49169e-06
-2.51211e-05
2.37012e-06
-2.70053e-05
1.10716e-06
-2.96237e-05
-1.45008e-06
-3.18692e-05
-4.61394e-06
-3.40041e-05
-7.73166e-06
-3.56626e-05
-1.02897e-05
-3.63187e-05
-1.25097e-05
-3.6097e-05
-1.39552e-05
-3.46784e-05
-1.56916e-05
-3.27608e-05
-1.73887e-05
-3.2264e-05
-1.84611e-05
-3.24721e-05
-3.20835e-05
-1.92374e-05
7.02327e-08
-1.96472e-05
6.14455e-09
-2.31463e-05
-4.28325e-08
-2.33477e-05
-1.1533e-07
-2.36143e-05
-2.4742e-07
-2.37963e-05
-2.85515e-07
-2.40171e-05
-1.83015e-07
-2.41629e-05
1.18956e-07
-2.43413e-05
4.80262e-07
-2.45889e-05
1.21027e-06
-2.48488e-05
1.72882e-06
-2.56395e-05
1.73431e-06
-2.70107e-05
7.42942e-07
-2.86323e-05
-9.91225e-07
-3.01349e-05
-3.12059e-06
-3.18748e-05
-5.88561e-06
-3.28976e-05
-8.78486e-06
-3.3419e-05
-1.14556e-05
-3.34267e-05
-1.33279e-05
-3.28059e-05
-1.50457e-05
-3.10434e-05
-1.72578e-05
-3.00519e-05
-1.90318e-05
-3.06985e-05
-3.11206e-05
-1.99944e-05
5.07326e-08
-1.9698e-05
9.47958e-08
-2.31905e-05
4.5841e-08
-2.32988e-05
-9.67371e-08
-2.34718e-05
-3.44472e-07
-2.35487e-05
-6.65331e-07
-2.36963e-05
-9.35981e-07
-2.38923e-05
-1.12096e-06
-2.41563e-05
-1.18556e-06
-2.45242e-05
-8.89114e-07
-2.51452e-05
-6.16457e-07
-2.5912e-05
-7.17801e-07
-2.69091e-05
-1.47271e-06
-2.78772e-05
-2.62093e-06
-2.89867e-05
-4.58886e-06
-2.99066e-05
-7.3108e-06
-3.01756e-05
-9.96103e-06
-3.07688e-05
-1.21699e-05
-3.12179e-05
-1.42649e-05
-3.07109e-05
-1.60773e-05
-2.92311e-05
-1.77583e-05
-2.83708e-05
-1.91181e-05
-2.93386e-05
-2.99818e-05
-2.02569e-05
5.11534e-08
-1.97492e-05
-8.37949e-08
-2.30556e-05
-3.22274e-07
-2.30604e-05
-6.09102e-07
-2.3185e-05
-8.75551e-07
-2.32823e-05
-1.18085e-06
-2.3391e-05
-1.44325e-06
-2.36299e-05
-1.70154e-06
-2.3898e-05
-1.95555e-06
-2.42702e-05
-2.20309e-06
-2.48976e-05
-2.52467e-06
-2.55904e-05
-3.12251e-06
-2.63112e-05
-4.03688e-06
-2.69628e-05
-5.20124e-06
-2.78223e-05
-6.77875e-06
-2.83292e-05
-8.35428e-06
-2.86001e-05
-1.00508e-05
-2.90723e-05
-1.20159e-05
-2.92528e-05
-1.39177e-05
-2.8809e-05
-1.53287e-05
-2.78199e-05
-1.64439e-05
-2.72555e-05
-1.7608e-05
-2.81743e-05
-2.88194e-05
-1.87702e-05
-5.65884e-08
-1.96926e-05
-2.83997e-07
-2.28282e-05
-4.98689e-07
-2.28458e-05
-6.85002e-07
-2.29987e-05
-8.69195e-07
-2.30981e-05
-1.03762e-06
-2.32226e-05
-1.2668e-06
-2.34008e-05
-1.57668e-06
-2.35882e-05
-1.97635e-06
-2.38705e-05
-2.49481e-06
-2.43791e-05
-3.10493e-06
-2.49802e-05
-3.89785e-06
-2.55182e-05
-4.92609e-06
-2.59345e-05
-6.15523e-06
-2.65931e-05
-7.46001e-06
-2.70243e-05
-8.6371e-06
-2.7423e-05
-1.01681e-05
-2.75413e-05
-1.2133e-05
-2.72878e-05
-1.39372e-05
-2.70048e-05
-1.54754e-05
-2.62816e-05
-1.67196e-05
-2.60112e-05
-1.80758e-05
-2.68179e-05
-2.74349e-05
-1.94602e-05
-1.47874e-07
-1.95448e-05
-2.97923e-07
-2.26782e-05
-4.217e-07
-2.2722e-05
-6.08844e-07
-2.28116e-05
-8.13381e-07
-2.28936e-05
-1.0283e-06
-2.30077e-05
-1.27488e-06
-2.31542e-05
-1.5231e-06
-2.33399e-05
-1.8e-06
-2.35936e-05
-2.32668e-06
-2.38524e-05
-3.01555e-06
-2.42913e-05
-3.80327e-06
-2.47305e-05
-4.6447e-06
-2.50931e-05
-5.82157e-06
-2.54162e-05
-7.07145e-06
-2.57745e-05
-8.44767e-06
-2.60468e-05
-9.90573e-06
-2.60832e-05
-1.12676e-05
-2.59259e-05
-1.26e-05
-2.56723e-05
-1.37882e-05
-2.50934e-05
-1.49418e-05
-2.48575e-05
-1.64629e-05
-2.52966e-05
-2.53856e-05
-1.85121e-05
-1.05914e-07
-1.94389e-05
-3.33821e-07
-2.24503e-05
-5.95037e-07
-2.24608e-05
-8.82775e-07
-2.25239e-05
-1.17224e-06
-2.26041e-05
-1.45858e-06
-2.27214e-05
-1.74437e-06
-2.28684e-05
-2.03161e-06
-2.30527e-05
-2.35888e-06
-2.32663e-05
-2.76776e-06
-2.34435e-05
-3.41242e-06
-2.36466e-05
-4.18772e-06
-2.39552e-05
-4.94378e-06
-2.4337e-05
-5.83251e-06
-2.45275e-05
-6.92428e-06
-2.46827e-05
-8.36947e-06
-2.46017e-05
-9.95636e-06
-2.44963e-05
-1.129e-05
-2.45923e-05
-1.26644e-05
-2.42977e-05
-1.39886e-05
-2.37691e-05
-1.52003e-05
-2.36456e-05
-1.66813e-05
-2.38154e-05
-2.34005e-05
-1.86662e-05
-2.21047e-07
-1.92179e-05
-5.02702e-07
-2.21687e-05
-7.75023e-07
-2.21885e-05
-1.0472e-06
-2.22517e-05
-1.33253e-06
-2.23188e-05
-1.65417e-06
-2.23998e-05
-2.01741e-06
-2.25052e-05
-2.41072e-06
-2.26594e-05
-2.84165e-06
-2.28354e-05
-3.35867e-06
-2.29265e-05
-4.03113e-06
-2.29741e-05
-4.78144e-06
-2.32048e-05
-5.7086e-06
-2.34098e-05
-6.64914e-06
-2.3587e-05
-7.66184e-06
-2.36701e-05
-8.61735e-06
-2.36462e-05
-9.48476e-06
-2.36289e-05
-1.07115e-05
-2.33655e-05
-1.2018e-05
-2.29912e-05
-1.31883e-05
-2.25987e-05
-1.44561e-05
-2.23776e-05
-1.61517e-05
-2.21197e-05
-2.1658e-05
-1.78939e-05
-1.24313e-07
-1.90936e-05
-3.43416e-07
-2.19496e-05
-5.94502e-07
-2.19374e-05
-8.75301e-07
-2.19709e-05
-1.18229e-06
-2.20118e-05
-1.50712e-06
-2.20749e-05
-1.86126e-06
-2.2151e-05
-2.28107e-06
-2.22396e-05
-2.81304e-06
-2.23034e-05
-3.35285e-06
-2.23866e-05
-3.81115e-06
-2.25158e-05
-4.40136e-06
-2.26146e-05
-5.22372e-06
-2.25874e-05
-6.20291e-06
-2.26078e-05
-7.21395e-06
-2.2659e-05
-8.23564e-06
-2.26245e-05
-9.49869e-06
-2.23659e-05
-1.08605e-05
-2.20037e-05
-1.19641e-05
-2.18875e-05
-1.30088e-05
-2.15539e-05
-1.42896e-05
-2.10967e-05
-1.57967e-05
-2.06124e-05
-2.01912e-05
-1.72632e-05
-2.39256e-07
-1.88543e-05
-5.33779e-07
-2.1655e-05
-8.1983e-07
-2.16514e-05
-1.12291e-06
-2.16678e-05
-1.45121e-06
-2.16835e-05
-1.81653e-06
-2.17096e-05
-2.20927e-06
-2.17583e-05
-2.64108e-06
-2.18078e-05
-3.10184e-06
-2.18426e-05
-3.62239e-06
-2.1866e-05
-4.24792e-06
-2.18902e-05
-4.9645e-06
-2.1898e-05
-5.62415e-06
-2.19278e-05
-6.44372e-06
-2.17882e-05
-7.47529e-06
-2.16275e-05
-8.47979e-06
-2.162e-05
-9.39507e-06
-2.14506e-05
-1.01919e-05
-2.12068e-05
-1.12375e-05
-2.08418e-05
-1.24515e-05
-2.03397e-05
-1.37665e-05
-1.97815e-05
-1.50699e-05
-1.9309e-05
-1.87615e-05
-1.64994e-05
-2.09436e-07
-1.86449e-05
-4.78235e-07
-2.13862e-05
-7.45849e-07
-2.13838e-05
-1.01945e-06
-2.13942e-05
-1.30276e-06
-2.14002e-05
-1.61469e-06
-2.13977e-05
-1.97505e-06
-2.13979e-05
-2.3842e-06
-2.13986e-05
-2.8407e-06
-2.13861e-05
-3.38232e-06
-2.13244e-05
-4.04753e-06
-2.1225e-05
-4.78585e-06
-2.11596e-05
-5.57704e-06
-2.11366e-05
-6.29721e-06
-2.10681e-05
-6.9101e-06
-2.10146e-05
-7.73584e-06
-2.07943e-05
-8.72572e-06
-2.04607e-05
-9.91379e-06
-2.00187e-05
-1.11654e-05
-1.95902e-05
-1.22357e-05
-1.92693e-05
-1.32115e-05
-1.88056e-05
-1.43673e-05
-1.81531e-05
-1.74305e-05
-1.56981e-05
-2.24696e-07
-1.84202e-05
-5.0794e-07
-2.1103e-05
-8.02485e-07
-2.10892e-05
-1.12697e-06
-2.10697e-05
-1.48316e-06
-2.1044e-05
-1.85904e-06
-2.10218e-05
-2.26215e-06
-2.09948e-05
-2.70546e-06
-2.09553e-05
-3.18032e-06
-2.09112e-05
-3.6369e-06
-2.08678e-05
-4.06622e-06
-2.07957e-05
-4.55422e-06
-2.06716e-05
-5.20137e-06
-2.04894e-05
-5.98351e-06
-2.02859e-05
-6.98508e-06
-2.0013e-05
-7.98829e-06
-1.9791e-05
-8.88705e-06
-1.95619e-05
-9.67886e-06
-1.92269e-05
-1.04298e-05
-1.88392e-05
-1.14045e-05
-1.82944e-05
-1.25866e-05
-1.76235e-05
-1.37392e-05
-1.70004e-05
-1.63262e-05
-1.48433e-05
-2.06579e-07
-1.82136e-05
-4.55647e-07
-2.08539e-05
-7.01849e-07
-2.0843e-05
-9.58933e-07
-2.08127e-05
-1.23597e-06
-2.0767e-05
-1.54959e-06
-2.07081e-05
-1.90856e-06
-2.06358e-05
-2.3165e-06
-2.05473e-05
-2.78777e-06
-2.04399e-05
-3.34804e-06
-2.03075e-05
-3.99914e-06
-2.01445e-05
-4.697e-06
-1.99737e-05
-5.36978e-06
-1.98166e-05
-6.03051e-06
-1.96252e-05
-6.62445e-06
-1.9419e-05
-7.24551e-06
-1.917e-05
-8.02637e-06
-1.8781e-05
-8.95001e-06
-1.83032e-05
-1.00262e-05
-1.77629e-05
-1.10797e-05
-1.72409e-05
-1.19758e-05
-1.67273e-05
-1.29377e-05
-1.60383e-05
-1.52497e-05
-1.4014e-05
-2.23459e-07
-1.79901e-05
-4.94458e-07
-2.05829e-05
-7.70003e-07
-2.05674e-05
-1.06597e-06
-2.05167e-05
-1.38198e-06
-2.04509e-05
-1.71987e-06
-2.03702e-05
-2.08374e-06
-2.02719e-05
-2.47533e-06
-2.01557e-05
-2.89242e-06
-2.00228e-05
-3.32145e-06
-1.98785e-05
-3.7516e-06
-1.97144e-05
-4.22523e-06
-1.95e-05
-4.78485e-06
-1.92569e-05
-5.42576e-06
-1.89842e-05
-6.18344e-06
-1.86614e-05
-7.06403e-06
-1.82894e-05
-7.93507e-06
-1.791e-05
-8.75659e-06
-1.74816e-05
-9.50606e-06
-1.70133e-05
-1.03091e-05
-1.64377e-05
-1.12596e-05
-1.57767e-05
-1.22151e-05
-1.50827e-05
-1.43095e-05
-1.31552e-05
-1.84668e-07
-1.78055e-05
-4.01722e-07
-2.03658e-05
-6.23912e-07
-2.03452e-05
-8.67582e-07
-2.0273e-05
-1.13964e-06
-2.01789e-05
-1.44813e-06
-2.00617e-05
-1.79706e-06
-1.9923e-05
-2.18732e-06
-1.97655e-05
-2.62058e-06
-1.95895e-05
-3.10448e-06
-1.93946e-05
-3.64041e-06
-1.91784e-05
-4.20782e-06
-1.89326e-05
-4.80075e-06
-1.8664e-05
-5.41389e-06
-1.83711e-05
-6.03197e-06
-1.80433e-05
-6.64664e-06
-1.76747e-05
-7.31147e-06
-1.72451e-05
-8.05337e-06
-1.67397e-05
-8.89111e-06
-1.61755e-05
-9.74667e-06
-1.55821e-05
-1.05736e-05
-1.49497e-05
-1.14225e-05
-1.42337e-05
-1.34317e-05
-1.23002e-05
-1.81648e-07
-1.76238e-05
-4.00676e-07
-2.01468e-05
-6.23946e-07
-2.0122e-05
-8.66735e-07
-2.00302e-05
-1.12997e-06
-1.99156e-05
-1.41735e-06
-1.97743e-05
-1.73243e-06
-1.96079e-05
-2.07886e-06
-1.9419e-05
-2.46001e-06
-1.92084e-05
-2.87904e-06
-1.89755e-05
-3.33357e-06
-1.87238e-05
-3.8119e-06
-1.84542e-05
-4.32779e-06
-1.81481e-05
-4.89516e-06
-1.78037e-05
-5.51575e-06
-1.74227e-05
-6.19038e-06
-1.7e-05
-6.89984e-06
-1.65356e-05
-7.61017e-06
-1.60293e-05
-8.31587e-06
-1.54698e-05
-9.0516e-06
-1.48463e-05
-9.83525e-06
-1.4166e-05
-1.06353e-05
-1.34336e-05
-1.26283e-05
-1.14385e-05
-1.36359e-07
-1.74874e-05
-3.17321e-07
-1.99658e-05
-5.0404e-07
-1.99352e-05
-7.11728e-07
-1.98225e-05
-9.42458e-07
-1.96849e-05
-1.20185e-06
-1.95149e-05
-1.49751e-06
-1.93122e-05
-1.83008e-06
-1.90864e-05
-2.19887e-06
-1.88396e-05
-2.60248e-06
-1.85719e-05
-3.04481e-06
-1.82815e-05
-3.53087e-06
-1.79682e-05
-4.04725e-06
-1.76317e-05
-4.58468e-06
-1.72663e-05
-5.1462e-06
-1.68611e-05
-5.73153e-06
-1.64148e-05
-6.34306e-06
-1.59241e-05
-6.99044e-06
-1.53819e-05
-7.67255e-06
-1.47876e-05
-8.37505e-06
-1.41437e-05
-9.09131e-06
-1.34496e-05
-9.82527e-06
-1.26996e-05
-1.18837e-05
-1.05697e-05
-1.05686e-07
-1.73817e-05
-2.66923e-07
-1.98046e-05
-4.33722e-07
-1.97684e-05
-6.17885e-07
-1.96383e-05
-8.18478e-07
-1.94843e-05
-1.03649e-06
-1.92969e-05
-1.27845e-06
-1.90703e-05
-1.55258e-06
-1.88123e-05
-1.86933e-06
-1.85228e-05
-2.23824e-06
-1.82029e-05
-2.65485e-06
-1.78648e-05
-3.10809e-06
-1.75149e-05
-3.59473e-06
-1.7145e-05
-4.11221e-06
-1.67487e-05
-4.65482e-06
-1.63185e-05
-5.22152e-06
-1.5848e-05
-5.80793e-06
-1.53376e-05
-6.40927e-06
-1.47805e-05
-7.027e-06
-1.41698e-05
-7.66466e-06
-1.3506e-05
-8.32516e-06
-1.27891e-05
-9.00394e-06
-1.20207e-05
-1.11945e-05
-9.69304e-06
-6.20947e-08
-1.73196e-05
-2.17104e-07
-1.96496e-05
-3.76899e-07
-1.96086e-05
-5.47037e-07
-1.94682e-05
-7.28389e-07
-1.93029e-05
-9.17488e-07
-1.91078e-05
-1.10902e-06
-1.88787e-05
-1.31703e-06
-1.86043e-05
-1.55432e-06
-1.82855e-05
-1.8318e-06
-1.79255e-05
-2.16537e-06
-1.75312e-05
-2.56668e-06
-1.71136e-05
-3.03126e-06
-1.66804e-05
-3.55151e-06
-1.62285e-05
-4.09773e-06
-1.57723e-05
-4.6502e-06
-1.52956e-05
-5.20772e-06
-1.47801e-05
-5.77137e-06
-1.42168e-05
-6.34859e-06
-1.35926e-05
-6.93781e-06
-1.29168e-05
-7.54306e-06
-1.21838e-05
-8.16658e-06
-1.13972e-05
-1.05562e-05
-8.80474e-06
-2.59228e-08
-1.72937e-05
-2.13245e-07
-1.94622e-05
-4.02323e-07
-1.94195e-05
-5.87719e-07
-1.92828e-05
-7.76351e-07
-1.91143e-05
-9.70585e-07
-1.89136e-05
-1.16778e-06
-1.86815e-05
-1.36769e-06
-1.84043e-05
-1.57495e-06
-1.80782e-05
-1.79381e-06
-1.77066e-05
-2.03308e-06
-1.7292e-05
-2.30458e-06
-1.6842e-05
-2.61848e-06
-1.63665e-05
-2.99063e-06
-1.58563e-05
-3.43568e-06
-1.53273e-05
-3.94923e-06
-1.4782e-05
-4.51075e-06
-1.42186e-05
-5.08033e-06
-1.36473e-05
-5.63387e-06
-1.3039e-05
-6.18325e-06
-1.23674e-05
-6.74006e-06
-1.1627e-05
-7.3126e-06
-1.08246e-05
-9.96565e-06
-7.90312e-06
-3.58343e-08
-1.72579e-05
-3.09793e-07
-1.91883e-05
-5.84583e-07
-1.91447e-05