/*--------------------------------*- C++ -*----------------------------------*\
| =========                 |                                                 |
| \\      /  F ield         | OpenFOAM: The Open Source CFD Toolbox           |
|  \\    /   O peration     | Version:  2.4.0                                 |
|   \\  /    A nd           | Web:      www.OpenFOAM.org                      |
|    \\/     M anipulation  |                                                 |
\*---------------------------------------------------------------------------*/
FoamFile
{
    version     2.0;
    format      ascii;
    class       surfaceScalarField;
    location    "0.5";
    object      phi.oil;
}
// * * * * * * * * * * * * * * * * * * * * * * * * * * * * * * * * * * * * * //

dimensions      [0 3 -1 0 0 0 0];

internalField   nonuniform List<scalar> 
4432
(
2.7325e-06
-2.73248e-06
5.63137e-06
-2.89885e-06
7.80417e-06
-2.17278e-06
1.14016e-05
-3.59738e-06
1.37499e-05
-2.34833e-06
1.60119e-05
-2.26194e-06
1.9215e-05
-3.20311e-06
2.23144e-05
-3.09934e-06
2.5153e-05
-2.83868e-06
2.67207e-05
-1.56769e-06
2.83987e-05
-1.67804e-06
3.06136e-05
-2.21491e-06
3.26558e-05
-2.04214e-06
3.37256e-05
-1.06977e-06
3.30864e-05
6.39332e-07
3.099e-05
2.09688e-06
2.6924e-05
4.06727e-06
2.16139e-05
5.31242e-06
1.61054e-05
5.51178e-06
1.205e-05
4.05972e-06
8.17176e-06
3.86014e-06
2.69111e-06
5.65333e-06
5.35932e-06
2.74037e-06
-5.47288e-06
5.63217e-06
-5.79067e-06
7.95533e-06
-4.49595e-06
1.12962e-05
-6.93826e-06
1.36745e-05
-4.72663e-06
1.61885e-05
-4.77599e-06
1.93715e-05
-6.3861e-06
2.22557e-05
-5.9836e-06
2.48701e-05
-5.45309e-06
2.6752e-05
-3.44969e-06
2.90877e-05
-4.01378e-06
3.12622e-05
-4.38952e-06
3.27191e-05
-3.49905e-06
3.33936e-05
-1.74428e-06
3.36422e-05
3.90867e-07
3.14672e-05
4.27217e-06
2.74438e-05
8.09159e-06
2.1817e-05
1.09421e-05
1.68217e-05
1.05136e-05
1.24207e-05
8.46824e-06
8.2434e-06
8.02135e-06
3.09737e-06
1.05949e-05
8.61942e-06
2.75646e-06
-8.21158e-06
5.56122e-06
-8.57469e-06
8.13322e-06
-7.05282e-06
1.1105e-05
-9.87806e-06
1.36799e-05
-7.27945e-06
1.65042e-05
-7.57164e-06
1.95025e-05
-9.33403e-06
2.20369e-05
-8.46977e-06
2.44087e-05
-7.77167e-06
2.69628e-05
-5.94992e-06
3.00114e-05
-6.98959e-06
3.20941e-05
-6.40362e-06
3.36612e-05
-5.00984e-06
3.42361e-05
-2.29204e-06
3.32177e-05
1.41118e-06
3.12067e-05
6.28284e-06
2.75547e-05
1.17439e-05
2.21449e-05
1.63569e-05
1.69733e-05
1.57059e-05
1.32937e-05
1.21791e-05
1.00488e-05
1.12714e-05
6.08003e-06
1.43318e-05
1.48914e-05
2.76169e-06
-1.06514e-05
5.45349e-06
-1.09591e-05
8.41491e-06
-9.69307e-06
1.08016e-05
-1.20171e-05
1.36709e-05
-9.87123e-06
1.67228e-05
-1.03994e-05
1.94314e-05
-1.19894e-05
2.16017e-05
-1.06108e-05
2.42107e-05
-1.04789e-05
2.73785e-05
-9.31293e-06
3.0212e-05
-1.03108e-05
3.15963e-05
-8.29187e-06
3.26201e-05
-6.44727e-06
3.2932e-05
-2.65771e-06
3.40911e-05
6.05936e-07
3.33315e-05
7.29189e-06
2.95832e-05
1.55284e-05
2.43145e-05
2.16351e-05
1.81271e-05
2.19306e-05
1.26406e-05
1.77352e-05
8.94942e-06
1.5006e-05
5.17239e-06
1.79382e-05
2.03549e-05
2.75238e-06
-2.14997e-05
5.31109e-06
-2.19114e-05
8.66643e-06
-2.11912e-05
1.03229e-05
-2.29373e-05
1.35631e-05
-2.20598e-05
1.6976e-05
-2.33345e-05
1.8748e-05
-2.43379e-05
2.11508e-05
-2.37445e-05
2.40863e-05
-2.46928e-05
2.7449e-05
-2.44483e-05
2.94043e-05
-2.50184e-05
3.15405e-05
-2.35107e-05
3.34729e-05
-2.19403e-05
3.52433e-05
-1.75352e-05
3.44992e-05
-9.62434e-06
3.17881e-05
3.20402e-06
2.9378e-05
1.62292e-05
2.48574e-05
2.68521e-05
1.87151e-05
2.85376e-05
1.21283e-05
2.46011e-05
7.09853e-06
2.01331e-05
4.5871e-06
2.0369e-05
2.5209e-05
2.32243e-06
-4.15698e-05
4.4535e-06
-4.08511e-05
7.52396e-06
-4.10437e-05
8.82961e-06
-3.76326e-05
1.11163e-05
-3.74492e-05
1.3713e-05
-3.57452e-05
1.53061e-05
-3.01417e-05
1.73926e-05
-2.73069e-05
1.96186e-05
-2.58227e-05
2.17633e-05
-2.39308e-05
2.31828e-05
-2.15844e-05
2.53111e-05
-1.97545e-05
2.68071e-05
-1.68542e-05
2.76461e-05
-1.33755e-05
2.7932e-05
-1.09125e-05
2.85712e-05
-1.36757e-05
2.52069e-05
4.16586e-06
2.15537e-05
2.48348e-05
1.71557e-05
3.39021e-05
1.16946e-05
3.12019e-05
5.78386e-06
2.65204e-05
2.65746e-06
2.35279e-05
2.81873e-05
3.39839e-07
-1.66188e-05
8.33477e-07
-1.65686e-05
1.08553e-06
-1.69616e-05
1.98085e-06
-1.60528e-05
2.36022e-06
-1.61737e-05
3.18144e-06
-1.74636e-05
4.74966e-06
-1.67638e-05
6.36952e-06
-1.66563e-05
8.10198e-06
-1.71676e-05
9.50817e-06
-1.60331e-05
1.03109e-05
-1.39491e-05
1.02199e-05
-1.19574e-05
9.68659e-06
-8.83386e-06
1.03325e-05
-5.54271e-06
1.45574e-05
-2.27016e-06
2.23132e-05
2.61521e-06
2.28658e-05
3.43194e-06
1.40223e-05
2.0918e-05
1.20955e-05
3.49453e-05
1.02653e-05
3.41651e-05
5.62653e-06
3.1572e-05
2.44397e-06
2.67129e-05
3.08931e-05
1.61516e-07
-1.65332e-05
3.70262e-07
-1.65724e-05
7.17305e-07
-1.71168e-05
1.11287e-06
-1.63453e-05
2.01556e-06
-1.69905e-05
3.42003e-06
-1.88237e-05
4.57532e-06
-1.79052e-05
6.65064e-06
-1.87263e-05
9.00568e-06
-1.95148e-05
1.14869e-05
-1.84932e-05
1.29208e-05
-1.53853e-05
1.42792e-05
-1.33615e-05
1.40356e-05
-8.64521e-06
1.05424e-05
-2.07915e-06
3.46446e-06
4.52089e-06
3.74315e-06
3.75137e-06
1.23025e-05
1.6274e-05
8.01158e-06
2.35824e-05
1.71139e-06
3.18636e-05
4.52015e-06
3.67388e-05
4.87233e-06
3.57187e-05
3.3603e-06
2.90195e-05
3.42818e-05
-1.37796e-05
1.42928e-05
-2.16044e-05
8.29845e-06
-2.7292e-05
6.28005e-06
-3.16338e-05
5.37137e-06
-3.11217e-05
1.05144e-06
-2.36484e-05
-4.76897e-06
-1.46215e-05
-4.52816e-06
-4.78816e-06
-3.13049e-06
6.06541e-06
-2.20888e-06
1.37359e-05
2.91031e-06
8.0377e-06
1.79322e-05
6.57778e-06
1.45461e-05
7.27095e-06
1.36665e-05
1.19878e-05
2.38575e-05
9.74543e-06
3.54478e-05
1.94876e-05
2.44967e-05
2.34304e-05
2.8349e-05
1.23992e-05
3.77897e-05
4.79479e-05
-9.41748e-06
2.38975e-05
-1.16842e-05
1.10908e-05
-1.23549e-05
7.28908e-06
-1.52295e-05
7.93096e-06
-1.63611e-05
1.28876e-06
-8.75455e-06
-1.37955e-05
1.16356e-06
-1.65197e-05
8.98163e-06
-1.33855e-05
1.73841e-05
-1.30364e-05
1.99829e-05
-3.44428e-06
1.41179e-05
1.54821e-05
6.3923e-06
-3.08261e-06
6.01067e-06
-3.95198e-05
6.80487e-06
-2.12387e-05
4.55212e-06
3.73127e-07
2.38607e-05
-2.36608e-05
4.01729e-05
-1.38654e-06
2.87108e-05
4.80601e-05
8.16676e-05
-2.75659e-06
2.76617e-05
1.40465e-06
8.84003e-06
3.73833e-06
6.75058e-06
7.9334e-06
5.35207e-06
1.8111e-05
-7.33748e-06
2.7715e-05
-2.13815e-05
3.62194e-05
-2.27526e-05
4.71084e-05
-2.13623e-05
6.22083e-05
-2.44696e-05
8.37369e-05
-2.17815e-05
7.55257e-05
-2.2673e-05
4.61224e-05
-6.88326e-05
2.55111e-05
-0.000130177
1.53818e-05
-0.000145994
5.68429e-06
-9.1536e-05
1.93471e-05
-5.55279e-05
2.64374e-05
-2.11078e-05
1.86589e-05
5.11413e-05
0.000107845
5.5583e-06
2.4035e-05
1.96663e-05
-2.24626e-06
3.10824e-05
-1.69418e-06
4.0546e-05
-1.15622e-06
5.37869e-05
-1.71588e-05
6.71464e-05
-3.11596e-05
7.46951e-05
-2.64908e-05
8.05052e-05
-2.35137e-05
9.12325e-05
-3.0877e-05
0.000115396
-4.66604e-05
0.000138343
-8.55056e-05
0.000129829
-0.000107538
0.0001088
-0.000119836
9.30522e-05
-0.000169898
7.02234e-05
-0.000143883
3.74136e-05
-0.000150575
3.26791e-05
-2.59148e-05
1.14944e-05
5.92128e-05
0.000126947
9.82013e-06
1.73158e-05
2.84347e-05
-1.6788e-05
4.39854e-05
-1.27919e-05
5.73092e-05
-9.97957e-06
6.96423e-05
-2.50253e-05
7.62465e-05
-3.3663e-05
8.04126e-05
-2.73952e-05
8.23987e-05
-2.30477e-05
8.30997e-05
-2.98981e-05
8.67182e-05
-5.96715e-05
8.47228e-05
-0.000112859
7.93364e-05
-0.00012046
9.33503e-05
-0.000124591
0.000136654
-0.000179434
0.000123439
-0.000246554
7.80965e-05
-0.000202229
3.6431e-05
-5.32912e-05
7.06367e-06
8.04178e-05
0.000139232
1.46585e-05
7.22911e-06
3.01239e-05
-2.79382e-05
4.49131e-05
-2.22346e-05
5.86946e-05
-1.83243e-05
6.76743e-05
-2.89868e-05
7.16561e-05
-3.3616e-05
7.43579e-05
-2.72986e-05
7.46315e-05
-2.149e-05
7.24635e-05
-2.64336e-05
6.71035e-05
-5.41249e-05
6.7479e-05
-9.53107e-05
6.95728e-05
-0.000108437
8.19669e-05
-0.000110292
0.000152531
-0.000173165
0.000153811
-0.00026057
0.000106625
-0.000177813
4.31401e-05
-5.76638e-05
9.48252e-06
0.000105212
0.000154597
2.10839e-05
-8.74052e-06
3.10267e-05
-3.42423e-05
4.16327e-05
-2.97335e-05
5.25516e-05
-2.47624e-05
5.88649e-05
-3.09464e-05
6.10948e-05
-3.29167e-05
6.37837e-05
-2.7911e-05
6.66709e-05
-2.27498e-05
6.65486e-05
-2.54287e-05
6.02274e-05
-4.71989e-05
5.5411e-05
-7.37252e-05
5.54618e-05
-8.60633e-05
7.05578e-05
-9.91448e-05
0.000166595
-0.000177257
0.000187427
-0.00023093
0.0001087
-0.000127834
5.288e-05
-3.2059e-05
1.64585e-05
0.000133286
0.000175723
2.34381e-05
-2.97772e-05
3.24754e-05
-3.87408e-05
3.92084e-05
-3.47377e-05
4.76352e-05
-3.08368e-05
5.27416e-05
-3.35583e-05
5.4342e-05
-3.35595e-05
5.6338e-05
-2.93501e-05
5.95712e-05
-2.558e-05
6.08396e-05
-2.65595e-05
5.59249e-05
-4.229e-05
4.91479e-05
-5.7378e-05
5.08606e-05
-6.07547e-05
6.07891e-05
-9.04835e-05
0.000169205
-0.000170154
0.000210109
-0.00018034
0.000119267
-7.22411e-05
5.8764e-05
1.2091e-05
2.00393e-05
0.00016622
0.000198399
1.92133e-07
-1.67243e-05
6.82641e-07
-1.70619e-05
1.09563e-06
-1.75288e-05
1.99903e-06
-1.72478e-05
3.07048e-06
-1.80611e-05
5.59882e-06
-2.13514e-05
8.74329e-06
-2.10586e-05
1.36468e-05
-2.36328e-05
1.81956e-05
-2.38326e-05
2.14525e-05
-1.93975e-05
2.32518e-05
-1.42275e-05
2.42139e-05
-1.20012e-05
2.4946e-05
-8.47127e-06
2.90164e-05
-5.80418e-06
3.50571e-05
-1.2924e-06
3.04005e-05
6.92702e-06
2.37446e-05
2.46248e-05
2.43879e-05
4.13837e-05
-2.47074e-06
4.29193e-05
-1.27877e-05
4.23964e-05
-5.90498e-07
4.45448e-05
1.56013e-05
2.99497e-05
2.10331e-05
3.29153e-05
5.22364e-07
-1.72468e-05
1.23832e-06
-1.7778e-05
1.84321e-06
-1.81338e-05
2.97911e-06
-1.83839e-05
4.13649e-06
-1.92187e-05
5.55684e-06
-2.27664e-05
9.24439e-06
-2.43563e-05
1.54201e-05
-1.50236e-05
1.95389e-05
-1.28608e-05
2.47291e-05
-1.02532e-05
2.84533e-05
-9.03926e-06
3.11011e-05
-5.43036e-06
3.2636e-05
1.5663e-06
3.15686e-05
6.14932e-06
2.73306e-05
5.43976e-06
2.51834e-05
1.03634e-05
2.62298e-05
2.1358e-05
3.19245e-05
3.98236e-05
2.82867e-05
5.97143e-05
9.08421e-06
5.01499e-05
1.22918e-06
3.16309e-05
6.81175e-06
3.17106e-05
2.6423e-05
2.41934e-05
7.52404e-07
-1.80308e-05
1.49564e-06
-1.85458e-05
1.78431e-06
-1.8431e-05
1.49234e-06
-1.80924e-05
1.28766e-06
-1.90136e-05
3.33925e-06
-2.29657e-05
5.38054e-06
-1.42226e-05
1.4047e-05
-2.47285e-05
2.29198e-05
-2.32988e-05
2.90998e-05
-1.85736e-05
3.32313e-05
-1.21402e-05
3.74898e-05
-7.85428e-06
3.99345e-05
9.11767e-07
3.85866e-05
6.71118e-06
3.98424e-05
1.25978e-05
4.16544e-05
1.49931e-05
4.18625e-05
2.04421e-05
4.56604e-05
2.82144e-05
5.56275e-05
4.61139e-05
7.18487e-05
5.33957e-05
5.50718e-05
3.71376e-05
5.05904e-05
2.54463e-05
4.72634e-06
5.00836e-05
8.34156e-09
-2.69758e-05
2.80286e-07
-2.64718e-05
1.31972e-06
-2.40456e-05
2.58375e-06
-2.07825e-05
7.0775e-07
-1.82424e-05
-1.7366e-06
-1.59561e-05
-1.65133e-07
-2.62088e-05
9.5701e-06
-3.48614e-05
1.80669e-05
-3.25685e-05
2.40164e-05
-2.7253e-05
2.78808e-05
-1.92379e-05
3.02559e-05
-1.41678e-05
3.42102e-05
-6.56381e-06
3.82965e-05
-5.15268e-07
4.20633e-05
1.147e-05
4.52393e-05
2.14512e-05
5.0792e-05
3.10076e-05
5.76074e-05
3.56039e-05
7.4968e-05
3.61207e-05
9.84033e-05
3.30052e-05
0.000112024
2.90498e-05
0.000120926
1.19165e-05
-6.46304e-06
0.000127545
2.34935e-06
-9.30688e-05
3.5888e-06
-9.1554e-05
1.51234e-06
-8.70633e-05
-8.16975e-06
-7.97032e-05
-1.1012e-05
-6.48469e-05
-1.85092e-05
-6.38189e-05
-1.72211e-05
-6.46787e-05
-1.66108e-05
-6.58524e-05
-1.18706e-05
-5.34577e-05
-4.4964e-06
-4.61804e-05
1.41893e-06
-3.38288e-05
6.64538e-06
-2.71845e-05
1.52275e-05
-2.20134e-05
2.19464e-05
-1.29282e-05
2.91992e-05
-3.03875e-06
3.58707e-05
7.60718e-06
4.39529e-05
1.71089e-05
5.47556e-05
2.08017e-05
6.99656e-05
2.42154e-05
8.7763e-05
1.72223e-05
0.000100878
1.76488e-05
0.00011593
-2.49174e-06
-1.52117e-05
0.000126175
2.97698e-06
-5.69726e-05
5.2198e-06
-5.58915e-05
9.22916e-06
-5.71827e-05
1.40864e-05
-8.716e-05
-3.22444e-06
-7.70191e-05
-2.37435e-05
-9.53139e-05
-4.9719e-05
-0.000146095
-7.46243e-05
-0.000124664
-8.87993e-05
-0.00010431
-8.42566e-05
-9.80095e-05
-7.39115e-05
-8.29136e-05
-6.417e-05
-5.91341e-05
-5.18349e-05
-4.6135e-05
-3.80969e-05
-3.4099e-05
-2.2964e-05
-2.51366e-05
-7.04407e-06
-1.57504e-05
1.13779e-05
-8.29742e-06
2.83005e-05
-1.76364e-06
4.46532e-05
5.44228e-06
6.27334e-05
-3.89731e-06
7.83179e-05
-1.49719e-06
8.982e-05
-1.62523e-05
-2.53227e-05
9.8076e-05
1.97933e-05
-3.76773e-05
4.16588e-05
-3.84465e-05
6.20206e-05
-4.00285e-05
8.25712e-05
-5.21204e-05
-1.68337e-06
-3.48089e-05
-4.25822e-05
-7.28319e-05
-8.13825e-05
-0.000125882
-0.000111179
-0.000120309
-0.000120433
-0.000115412
-0.000111735
-0.000113739
-9.37568e-05
-0.000151165
-8.2336e-05
-0.000127689
-7.50853e-05
-0.00010794
-6.98512e-05
-8.91591e-05
-6.43343e-05
-7.52263e-05
-5.67221e-05
-6.15683e-05
-4.27153e-05
-5.36834e-05
-2.20624e-05
-4.4304e-05
-6.91089e-07
-3.46052e-05
1.68412e-05
-4.20525e-05
3.62115e-05
-3.80122e-05
4.6053e-05
-4.96807e-05
-5.91842e-05
5.50369e-05
-2.25453e-05
-1.51558e-05
-3.67418e-05
-2.43418e-05
-4.41529e-05
-2.89786e-05
-4.30124e-05
-2.94448e-05
-1.62343e-05
-3.40883e-05
1.19106e-05
-6.33536e-05
2.60414e-05
-7.92603e-05
6.11646e-06
-7.11295e-05
-9.94512e-06
-6.29826e-05
-4.84583e-05
-4.45745e-05
-7.27052e-05
-7.63333e-05
-6.38576e-05
-7.11864e-05
-5.73957e-05
-6.46917e-05
-5.22022e-05
-6.2227e-05
-4.71944e-05
-8.41317e-05
-4.40838e-05
-7.44661e-05
-3.95501e-05
-0.000113973
-3.53063e-05
-0.000134216
-2.81109e-05
-0.000126606
-2.13807e-05
-0.000125318
-9.78153e-06
-0.000113355
1.49576e-06
-0.00012816
-0.0001416
1.4116e-05
-4.50187e-06
-1.066e-05
-8.19132e-06
-2.0704e-05
-8.46574e-06
-2.59674e-05
-1.15944e-05
-2.15151e-05
-5.68134e-06
-2.31676e-05
1.4359e-05
-2.74777e-05
3.62376e-05
-3.56836e-05
3.04791e-05
3.98686e-05
1.22124e-05
5.3035e-05
8.1716e-07
4.5292e-06
5.31392e-06
-2.97888e-05
3.3738e-05
-5.05461e-05
3.49157e-05
-5.9141e-05
2.62235e-05
-5.7888e-05
1.8516e-05
-5.47952e-05
1.37914e-05
-3.59688e-05
3.74134e-06
-6.16023e-05
-3.26902e-06
-8.69589e-05
-1.47979e-06
-8.45901e-05
-2.61584e-06
-8.13061e-05
1.05445e-06
-7.25086e-05
1.36646e-05
-7.8581e-05
-8.6806e-05
2.59574e-05
8.31742e-07
-1.14917e-05
-3.69707e-07
-1.95577e-05
-2.61911e-06
-2.69044e-05
-5.39501e-06
-3.55972e-05
-4.73974e-06
-4.22587e-05
-1.92634e-07
-3.45025e-05
7.58845e-06
-4.40212e-05
3.63084e-05
1.04868e-05
4.48442e-05
4.39458e-05
2.91209e-05
2.01983e-05
3.44095e-06
-5.46783e-06
1.37057e-06
-4.74982e-05
3.1117e-06
-5.755e-05
6.19653e-06
-5.34711e-05
6.90958e-06
-4.65588e-05
1.11824e-05
-3.9579e-05
4.1842e-05
-2.97681e-05
7.50704e-05
-3.22052e-05
9.8533e-05
-3.63671e-05
0.000111566
-3.77296e-05
0.000100668
-3.76316e-05
0.000105368
-4.04986e-05
-4.57822e-05
0.000102497
-3.28672e-06
-8.2052e-06
-4.66385e-06
-1.81747e-05
-6.15186e-06
-2.50866e-05
-8.25199e-06
-3.13681e-05
-1.1515e-05
-3.53872e-05
-1.1442e-05
-3.39601e-05
-1.82398e-05
-3.71348e-05
1.13109e-05
-1.79978e-05
3.9528e-05
1.44033e-05
4.49338e-05
1.5031e-05
4.62344e-05
-6.93368e-06
4.18658e-05
-4.28246e-05
3.94491e-05
-5.61635e-05
4.36768e-05
-5.98618e-05
4.99529e-05
-5.92542e-05
5.50584e-05
-5.17021e-05
5.4917e-05
-3.89723e-05
4.903e-05
-3.74252e-05
4.65459e-05
-3.67771e-05
3.83894e-05
-2.73356e-05
3.65832e-05
-3.27018e-05
3.7198e-05
-3.95789e-05
-4.37851e-05
3.72721e-05
4.48964e-06
-1.26943e-05
6.06482e-06
-1.97612e-05
5.31249e-06
-2.44015e-05
2.49097e-06
-2.85753e-05
-1.80924e-06
-3.10961e-05
-5.07832e-06
-3.07162e-05
-1.16064e-05
-3.06468e-05
-7.41101e-06
-2.18675e-05
1.36983e-05
-4.86094e-06
2.64925e-05
2.15199e-06
3.46027e-05
-1.4397e-05
3.01154e-05
-3.87453e-05
2.0191e-05
-4.78617e-05
1.68117e-05
-5.52751e-05
1.49046e-05
-5.64673e-05
1.78486e-05
-5.36393e-05
2.84911e-05
-5.03967e-05
3.66687e-05
-4.7126e-05
4.05433e-05
-4.13138e-05
4.59191e-05
-3.2341e-05
4.12567e-05
-2.93787e-05
3.44312e-05
-3.28784e-05
-3.47879e-05
2.44376e-05
1.62916e-06
-1.4323e-05
3.09978e-06
-2.12307e-05
3.25095e-06
-2.45478e-05
1.64821e-06
-2.69704e-05
-1.5678e-06
-2.78797e-05
-4.86404e-06
-2.74175e-05
-8.99185e-06
-2.64962e-05
-8.89986e-06
-2.19859e-05
2.45989e-06
-1.64533e-05
1.52347e-05
-1.17689e-05
2.19393e-05
-2.13661e-05
1.68763e-05
-3.51055e-05
1.19254e-05
-4.38285e-05
8.1793e-06
-4.87591e-05
4.23949e-06
-4.64098e-05
1.46672e-07
-4.62892e-05
-2.61507e-06
-4.32649e-05
-4.67631e-06
-4.21113e-05
-4.46794e-06
-3.89008e-05
-1.28262e-06
-3.47659e-05
2.11765e-06
-3.26247e-05
2.94722e-06
-3.28789e-05
-3.293e-05
1.67994e-06
2.66095e-06
-1.69837e-05
4.13428e-06
-2.27039e-05
4.20453e-06
-2.4618e-05
2.77878e-06
-2.55446e-05
4.93058e-07
-2.55939e-05
-1.81369e-06
-2.51106e-05
-4.05774e-06
-2.42517e-05
-3.94231e-06
-2.20998e-05
3.0939e-07
-2.07046e-05
6.95627e-06
-1.85042e-05
9.53467e-06
-2.39873e-05
5.26668e-06
-3.1309e-05
5.82773e-07
-3.8416e-05
-3.51626e-06
-4.2957e-05
-7.97458e-06
-4.58782e-05
-1.08676e-05
-4.44451e-05
-1.25389e-05
-4.25267e-05
-1.38959e-05
-4.08748e-05
-1.50136e-05
-3.77939e-05
-1.50234e-05
-3.46367e-05
-1.43398e-05
-3.29406e-05
-1.40853e-05
-3.28516e-05
-3.25377e-05
-1.42694e-05
1.62553e-06
-1.86091e-05
2.3676e-06
-2.34458e-05
1.92975e-06
-2.41801e-05
8.2564e-07
-2.44404e-05
-3.48833e-07
-2.44194e-05
-1.32948e-06
-2.41299e-05
-2.01629e-06
-2.35648e-05
-1.2783e-06
-2.28375e-05
5.62586e-07
-2.25452e-05
3.52474e-06
-2.1465e-05
4.02731e-06
-2.4521e-05
1.20776e-06
-2.84851e-05
-3.15576e-06
-3.4094e-05
-7.93172e-06
-3.90971e-05
-1.19797e-05
-4.16356e-05
-1.44429e-05
-4.21253e-05
-1.62391e-05
-4.07539e-05
-1.7726e-05
-3.9387e-05
-1.8739e-05
-3.68068e-05
-1.82599e-05
-3.51896e-05
-1.71214e-05
-3.4258e-05
-1.65155e-05
-3.35509e-05
-3.28152e-05
-1.62704e-05
7.20745e-07
-1.93298e-05
6.67734e-07
-2.33928e-05
1.41372e-07
-2.36537e-05
-3.63008e-07
-2.39361e-05
-7.08918e-07
-2.40735e-05
-8.7435e-07
-2.39644e-05
-7.17232e-07
-2.37218e-05
-5.33048e-08
-2.35013e-05
9.55382e-07
-2.35535e-05
2.56017e-06
-2.3069e-05
2.77611e-06
-2.47393e-05
1.47441e-06
-2.71453e-05
-1.69946e-06
-3.09497e-05
-6.29965e-06
-3.46022e-05
-1.05707e-05
-3.7538e-05
-1.35707e-05
-3.92198e-05
-1.52875e-05
-3.92459e-05
-1.6181e-05
-3.8556e-05
-1.67663e-05
-3.62511e-05
-1.73855e-05
-3.45444e-05
-1.76331e-05
-3.39808e-05
-1.76047e-05
-3.35535e-05
-3.28661e-05
-1.75443e-05
2.47101e-07
-1.95769e-05
6.46148e-08
-2.32103e-05
-1.92514e-07
-2.33966e-05
-4.419e-07
-2.36867e-05
-5.87027e-07
-2.39284e-05
-4.96288e-07
-2.40552e-05
-1.57554e-07
-2.40605e-05
3.8078e-07
-2.40395e-05
1.05553e-06
-2.42279e-05
2.1066e-06
-2.41197e-05
2.49142e-06
-2.51223e-05
2.36324e-06
-2.70127e-05
1.05348e-06
-2.96951e-05
-1.55847e-06
-3.20892e-05
-4.64196e-06
-3.44223e-05
-7.7173e-06
-3.60944e-05
-1.0269e-05
-3.66624e-05
-1.24863e-05
-3.6341e-05
-1.39378e-05
-3.48188e-05
-1.56788e-05
-3.28188e-05
-1.73871e-05
-3.22837e-05
-1.84611e-05
-3.24802e-05
-3.20875e-05
-1.92376e-05
7.02327e-08
-1.96472e-05
6.14455e-09
-2.31463e-05
-4.28325e-08
-2.33477e-05
-1.1533e-07
-2.36143e-05
-2.4742e-07
-2.37963e-05
-2.85515e-07
-2.40171e-05
-1.83013e-07
-2.4163e-05
1.18958e-07
-2.43414e-05
4.8028e-07
-2.45891e-05
1.21028e-06
-2.48493e-05
1.72889e-06
-2.56402e-05
1.72877e-06
-2.70143e-05
7.07824e-07
-2.86836e-05
-1.05281e-06
-3.03006e-05
-3.14952e-06
-3.20391e-05
-5.86762e-06
-3.31853e-05
-8.7626e-06
-3.37075e-05
-1.14313e-05
-3.3635e-05
-1.33106e-05
-3.29309e-05
-1.50349e-05
-3.11051e-05
-1.72516e-05
-3.0076e-05
-1.90312e-05
-3.07057e-05
-3.11229e-05
-1.99944e-05
5.07326e-08
-1.9698e-05
9.47958e-08
-2.31905e-05
4.5841e-08
-2.32988e-05
-9.67371e-08
-2.34718e-05
-3.44472e-07
-2.35487e-05
-6.65331e-07
-2.36963e-05
-9.35982e-07
-2.38923e-05
-1.12097e-06
-2.41563e-05
-1.18556e-06
-2.45243e-05
-8.89117e-07
-2.51454e-05
-6.1645e-07
-2.59124e-05
-7.20946e-07
-2.69102e-05
-1.48721e-06
-2.79003e-05
-2.62635e-06
-2.90626e-05
-4.6194e-06
-3.00235e-05
-7.33105e-06
-3.03546e-05
-9.94924e-06
-3.095e-05
-1.21562e-05
-3.1357e-05
-1.42497e-05
-3.08032e-05
-1.60698e-05
-2.92796e-05
-1.7755e-05
-2.83906e-05
-1.91175e-05
-2.93447e-05
-2.99831e-05
-2.02568e-05
5.11534e-08
-1.97492e-05
-8.37949e-08
-2.30556e-05
-3.22274e-07
-2.30604e-05
-6.09102e-07
-2.3185e-05
-8.75551e-07
-2.32823e-05
-1.18085e-06
-2.3391e-05
-1.44325e-06
-2.36299e-05
-1.70154e-06
-2.3898e-05
-1.95555e-06
-2.42702e-05
-2.2031e-06
-2.48977e-05
-2.52468e-06
-2.55905e-05
-3.12356e-06
-2.63114e-05
-4.041e-06
-2.69675e-05
-5.21459e-06
-2.78444e-05
-6.79207e-06
-2.83868e-05
-8.3599e-06
-2.86816e-05
-1.00486e-05
-2.91724e-05
-1.20075e-05
-2.934e-05
-1.39114e-05
-2.88643e-05
-1.53267e-05
-2.78493e-05
-1.6442e-05
-2.72679e-05
-1.76076e-05
-2.81783e-05
-2.88203e-05
-1.87701e-05
-5.65884e-08
-1.96926e-05
-2.83997e-07
-2.28282e-05
-4.98689e-07
-2.28458e-05
-6.85002e-07
-2.29987e-05
-8.69195e-07
-2.30981e-05
-1.03762e-06
-2.32226e-05
-1.2668e-06
-2.34008e-05
-1.57668e-06
-2.35882e-05
-1.97635e-06
-2.38705e-05
-2.49481e-06
-2.43791e-05
-3.10493e-06
-2.49802e-05
-3.89795e-06
-2.55183e-05
-4.92777e-06
-2.5935e-05
-6.15817e-06
-2.65993e-05
-7.46501e-06
-2.70397e-05
-8.64139e-06
-2.74528e-05
-1.01671e-05
-2.75794e-05
-1.21294e-05
-2.73205e-05
-1.39353e-05
-2.7025e-05
-1.54742e-05
-2.62937e-05
-1.67188e-05
-2.60168e-05
-1.80756e-05
-2.68199e-05
-2.74354e-05
-1.94601e-05
-1.47874e-07
-1.95448e-05
-2.97923e-07
-2.26782e-05
-4.217e-07
-2.2722e-05
-6.08844e-07
-2.28116e-05
-8.13381e-07
-2.28936e-05
-1.0283e-06
-2.30077e-05
-1.27488e-06
-2.31542e-05
-1.5231e-06
-2.33399e-05
-1.8e-06
-2.35936e-05
-2.32668e-06
-2.38524e-05
-3.01555e-06
-2.42913e-05
-3.80328e-06
-2.47305e-05
-4.64478e-06
-2.50931e-05
-5.82216e-06
-2.54166e-05
-7.07338e-06
-2.57769e-05
-8.44917e-06
-2.60556e-05
-9.90605e-06
-2.60967e-05
-1.12666e-05
-2.59376e-05
-1.25996e-05
-2.56792e-05
-1.37879e-05
-2.50971e-05
-1.49416e-05
-2.48593e-05
-1.64628e-05
-2.52974e-05
-2.53858e-05
-1.8512e-05
-1.05914e-07
-1.94389e-05
-3.33821e-07
-2.24503e-05
-5.95037e-07
-2.24608e-05
-8.82775e-07
-2.25239e-05
-1.17224e-06
-2.26041e-05
-1.45858e-06
-2.27214e-05
-1.74437e-06
-2.28684e-05
-2.03161e-06
-2.30527e-05
-2.35888e-06
-2.32663e-05
-2.76776e-06
-2.34435e-05
-3.41242e-06
-2.36466e-05
-4.18772e-06
-2.39552e-05
-4.94379e-06
-2.4337e-05
-5.83252e-06
-2.45276e-05
-6.92448e-06
-2.46828e-05
-8.36996e-06
-2.46024e-05
-9.9565e-06
-2.44981e-05
-1.12899e-05
-2.45942e-05
-1.26643e-05
-2.4299e-05
-1.39885e-05
-2.37696e-05
-1.52003e-05
-2.36459e-05
-1.66813e-05
-2.38155e-05
-2.34005e-05
-1.86662e-05
-2.21047e-07
-1.92179e-05
-5.02702e-07
-2.21687e-05
-7.75023e-07
-2.21885e-05
-1.0472e-06
-2.22517e-05
-1.33253e-06
-2.23188e-05
-1.65417e-06
-2.23998e-05
-2.01741e-06
-2.25052e-05
-2.41072e-06
-2.26594e-05
-2.84165e-06
-2.28354e-05
-3.35867e-06
-2.29265e-05
-4.03113e-06
-2.29741e-05
-4.78144e-06
-2.32048e-05
-5.7086e-06
-2.34098e-05
-6.64914e-06
-2.3587e-05
-7.66185e-06
-2.36701e-05
-8.61737e-06
-2.36462e-05
-9.48479e-06
-2.36291e-05
-1.07115e-05
-2.33658e-05
-1.2018e-05
-2.29914e-05
-1.31883e-05
-2.25988e-05
-1.44561e-05
-2.23777e-05
-1.61517e-05
-2.21197e-05
-2.1658e-05
-1.78939e-05
-1.24313e-07
-1.90936e-05
-3.43416e-07
-2.19496e-05
-5.94502e-07
-2.19374e-05
-8.75301e-07
-2.19709e-05
-1.18229e-06
-2.20118e-05
-1.50712e-06
-2.20749e-05
-1.86126e-06
-2.2151e-05
-2.28107e-06
-2.22396e-05
-2.81304e-06
-2.23034e-05
-3.35285e-06
-2.23866e-05
-3.81115e-06
-2.25158e-05
-4.40136e-06
-2.26146e-05
-5.22372e-06
-2.25874e-05
-6.20291e-06
-2.26078e-05
-7.21395e-06
-2.2659e-05
-8.23564e-06
-2.26245e-05
-9.49869e-06
-2.23659e-05
-1.08605e-05
-2.20037e-05
-1.19641e-05
-2.18875e-05
-1.30088e-05
-2.15539e-05
-1.42896e-05
-2.10967e-05
-1.57967e-05
-2.06124e-05
-2.01913e-05
-1.72632e-05
-2.39256e-07
-1.88543e-05
-5.33779e-07
-2.1655e-05
-8.1983e-07
-2.16514e-05
-1.12291e-06
-2.16678e-05
-1.45121e-06
-2.16835e-05
-1.81653e-06
-2.17096e-05
-2.20927e-06
-2.17583e-05
-2.64108e-06
-2.18078e-05
-3.10184e-06
-2.18426e-05
-3.62239e-06
-2.1866e-05
-4.24792e-06
-2.18902e-05
-4.9645e-06
-2.1898e-05
-5.62415e-06
-2.19278e-05
-6.44372e-06
-2.17882e-05
-7.47529e-06
-2.16275e-05
-8.47979e-06
-2.162e-05
-9.39507e-06
-2.14506e-05
-1.01919e-05
-2.12068e-05
-1.12375e-05
-2.08418e-05
-1.24515e-05
-2.03397e-05
-1.37665e-05
-1.97815e-05
-1.50699e-05
-1.9309e-05
-1.87615e-05
-1.64994e-05
-2.09436e-07
-1.86449e-05
-4.78235e-07
-2.13862e-05
-7.45849e-07
-2.13838e-05
-1.01945e-06
-2.13942e-05
-1.30276e-06
-2.14002e-05
-1.61469e-06
-2.13977e-05
-1.97505e-06
-2.13979e-05
-2.3842e-06
-2.13986e-05
-2.8407e-06
-2.13861e-05
-3.38232e-06
-2.13244e-05
-4.04753e-06
-2.1225e-05
-4.78585e-06
-2.11596e-05
-5.57704e-06
-2.11366e-05
-6.29721e-06
-2.10681e-05
-6.9101e-06
-2.10146e-05
-7.73584e-06
-2.07943e-05
-8.72572e-06
-2.04607e-05
-9.91379e-06
-2.00187e-05
-1.11654e-05
-1.95902e-05
-1.22357e-05
-1.92693e-05
-1.32115e-05
-1.88056e-05
-1.43673e-05
-1.81531e-05
-1.74305e-05
-1.56981e-05
-2.24696e-07
-1.84202e-05
-5.0794e-07
-2.1103e-05
-8.02485e-07
-2.10892e-05
-1.12697e-06
-2.10697e-05
-1.48316e-06
-2.1044e-05
-1.85904e-06
-2.10218e-05
-2.26215e-06
-2.09948e-05
-2.70546e-06
-2.09553e-05
-3.18032e-06
-2.09112e-05
-3.6369e-06
-2.08678e-05
-4.06622e-06
-2.07957e-05
-4.55422e-06
-2.06716e-05
-5.20137e-06
-2.04894e-05
-5.98351e-06
-2.02859e-05
-6.98508e-06
-2.0013e-05
-7.98829e-06
-1.9791e-05
-8.88705e-06
-1.95619e-05
-9.67886e-06
-1.92269e-05
-1.04298e-05
-1.88392e-05
-1.14045e-05
-1.82944e-05
-1.25866e-05
-1.76235e-05
-1.37392e-05
-1.70004e-05
-1.63262e-05
-1.48433e-05
-2.06579e-07
-1.82136e-05
-4.55647e-07
-2.08539e-05
-7.01849e-07
-2.0843e-05
-9.58933e-07
-2.08127e-05
-1.23597e-06
-2.0767e-05
-1.54959e-06
-2.07081e-05
-1.90856e-06
-2.06358e-05
-2.3165e-06
-2.05473e-05
-2.78777e-06
-2.04399e-05
-3.34804e-06
-2.03075e-05
-3.99914e-06
-2.01445e-05
-4.697e-06
-1.99737e-05
-5.36978e-06
-1.98166e-05
-6.03051e-06
-1.96252e-05
-6.62445e-06
-1.9419e-05
-7.24551e-06
-1.917e-05
-8.02637e-06
-1.8781e-05
-8.95001e-06
-1.83032e-05
-1.00262e-05
-1.77629e-05
-1.10797e-05
-1.72409e-05
-1.19758e-05
-1.67273e-05
-1.29377e-05
-1.60383e-05
-1.52497e-05
-1.4014e-05
-2.23459e-07
-1.79901e-05
-4.94458e-07
-2.05829e-05
-7.70003e-07
-2.05674e-05
-1.06597e-06
-2.05167e-05
-1.38198e-06
-2.04509e-05
-1.71987e-06
-2.03702e-05
-2.08374e-06
-2.02719e-05
-2.47533e-06
-2.01557e-05
-2.89242e-06
-2.00228e-05
-3.32145e-06
-1.98785e-05
-3.7516e-06
-1.97144e-05
-4.22523e-06
-1.95e-05
-4.78485e-06
-1.92569e-05
-5.42576e-06
-1.89842e-05
-6.18344e-06
-1.86614e-05
-7.06403e-06
-1.82894e-05
-7.93507e-06
-1.791e-05
-8.75659e-06
-1.74816e-05
-9.50606e-06
-1.70133e-05
-1.03091e-05
-1.64377e-05
-1.12596e-05
-1.57767e-05
-1.22151e-05
-1.50827e-05
-1.43095e-05
-1.31552e-05
-1.84668e-07
-1.78055e-05
-4.01722e-07
-2.03658e-05
-6.23912e-07
-2.03452e-05
-8.67582e-07
-2.0273e-05
-1.13964e-06
-2.01789e-05
-1.44813e-06
-2.00617e-05
-1.79706e-06
-1.9923e-05
-2.18732e-06
-1.97655e-05
-2.62058e-06
-1.95895e-05
-3.10448e-06
-1.93946e-05
-3.64041e-06
-1.91784e-05
-4.20782e-06
-1.89326e-05
-4.80075e-06
-1.8664e-05
-5.41389e-06
-1.83711e-05
-6.03197e-06
-1.80433e-05
-6.64664e-06
-1.76747e-05
-7.31147e-06
-1.72451e-05
-8.05337e-06
-1.67397e-05
-8.89111e-06
-1.61755e-05
-9.74667e-06
-1.55821e-05
-1.05736e-05
-1.49497e-05
-1.14225e-05
-1.42337e-05
-1.34317e-05
-1.23002e-05
-1.81648e-07
-1.76238e-05
-4.00676e-07
-2.01468e-05
-6.23946e-07
-2.0122e-05
-8.66735e-07
-2.00302e-05
-1.12997e-06
-1.99156e-05
-1.41735e-06
-1.97743e-05
-1.73243e-06
-1.96079e-05
-2.07886e-06
-1.9419e-05
-2.46001e-06
-1.92084e-05
-2.87904e-06
-1.89755e-05
-3.33357e-06
-1.87238e-05
-3.8119e-06
-1.84542e-05
-4.32779e-06
-1.81481e-05
-4.89516e-06
-1.78037e-05
-5.51575e-06
-1.74227e-05
-6.19038e-06
-1.7e-05
-6.89984e-06
-1.65356e-05
-7.61017e-06
-1.60293e-05
-8.31587e-06
-1.54698e-05
-9.0516e-06
-1.48463e-05
-9.83525e-06
-1.4166e-05
-1.06353e-05
-1.34336e-05
-1.26283e-05
-1.14385e-05
-1.36359e-07
-1.74874e-05
-3.17321e-07
-1.99658e-05
-5.0404e-07
-1.99352e-05
-7.11728e-07
-1.98225e-05
-9.42458e-07
-1.96849e-05
-1.20185e-06
-1.95149e-05
-1.49751e-06
-1.93122e-05
-1.83008e-06
-1.90864e-05
-2.19887e-06
-1.88396e-05
-2.60248e-06
-1.85719e-05
-3.04481e-06
-1.82815e-05
-3.53087e-06
-1.79682e-05
-4.04725e-06
-1.76317e-05
-4.58468e-06
-1.72663e-05
-5.1462e-06
-1.68611e-05
-5.73153e-06
-1.64148e-05
-6.34306e-06
-1.59241e-05
-6.99044e-06
-1.53819e-05
-7.67255e-06
-1.47876e-05
-8.37505e-06
-1.41437e-05
-9.09131e-06
-1.34496e-05
-9.82527e-06
-1.26996e-05
-1.18837e-05
-1.05697e-05
-1.05686e-07
-1.73817e-05
-2.66923e-07
-1.98046e-05
-4.33722e-07
-1.97684e-05
-6.17885e-07
-1.96383e-05
-8.18478e-07
-1.94843e-05
-1.03649e-06
-1.92969e-05
-1.27845e-06
-1.90703e-05
-1.55258e-06
-1.88123e-05
-1.86933e-06
-1.85228e-05
-2.23824e-06
-1.82029e-05
-2.65485e-06
-1.78648e-05
-3.10809e-06
-1.75149e-05
-3.59473e-06
-1.7145e-05
-4.11221e-06
-1.67487e-05
-4.65482e-06
-1.63185e-05
-5.22152e-06
-1.5848e-05
-5.80793e-06
-1.53376e-05
-6.40927e-06
-1.47805e-05
-7.027e-06
-1.41698e-05
-7.66466e-06
-1.3506e-05
-8.32516e-06
-1.27891e-05
-9.00394e-06
-1.20207e-05
-1.11945e-05
-9.69304e-06
-6.20947e-08
-1.73196e-05
-2.17104e-07
-1.96496e-05
-3.76899e-07
-1.96086e-05
-5.47037e-07
-1.94682e-05
-7.28389e-07
-1.93029e-05
-9.17488e-07
-1.91078e-05
-1.10902e-06
-1.88787e-05
-1.31703e-06
-1.86043e-05
-1.55432e-06
-1.82855e-05
-1.8318e-06
-1.79255e-05
-2.16537e-06
-1.75312e-05
-2.56668e-06
-1.71136e-05
-3.03126e-06
-1.66804e-05
-3.55151e-06
-1.62285e-05
-4.09773e-06
-1.57723e-05
-4.6502e-06
-1.52956e-05
-5.20772e-06
-1.47801e-05
-5.77137e-06
-1.42168e-05
-6.34859e-06
-1.35926e-05
-6.93781e-06
-1.29168e-05
-7.54306e-06
-1.21838e-05
-8.16658e-06
-1.13972e-05
-1.05562e-05
-8.80474e-06
-2.59228e-08
-1.72937e-05
-2.13245e-07
-1.94622e-05
-4.02323e-07
-1.94195e-05
-5.87719e-07
-1.92828e-05
-7.76351e-07
-1.91143e-05
-9.70585e-07
-1.89136e-05
-1.16778e-06
-1.86815e-05
-1.36769e-06
-1.84043e-05
-1.57495e-06
-1.80782e-05
-1.79381e-06
-1.77066e-05
-2.03308e-06
-1.7292e-05
-2.30458e-06
-1.6842e-05
-2.61848e-06
-1.63665e-05
-2.99063e-06
-1.58563e-05
-3.43568e-06
-1.53273e-05
-3.94923e-06
-1.4782e-05
-4.51075e-06
-1.42186e-05
-5.08033e-06
-1.36473e-05
-5.63387e-06
-1.3039e-05
-6.18325e-06
-1.23674e-05
-6.74006e-06
-1.1627e-05
-7.3126e-06
-1.08246e-05
-9.96565e-06
-7.90312e-06
-3.58343e-08
-1.72579e-05
-3.09793e-07
-1.91883e-05
-5.84583e-07
-1.91447e-05
-8.35751e-07