/*--------------------------------*- C++ -*----------------------------------*\
| =========                 |                                                 |
| \\      /  F ield         | OpenFOAM: The Open Source CFD Toolbox           |
|  \\    /   O peration     | Version:  2.4.0                                 |
|   \\  /    A nd           | Web:      www.OpenFOAM.org                      |
|    \\/     M anipulation  |                                                 |
\*---------------------------------------------------------------------------*/
FoamFile
{
    version     2.0;
    format      ascii;
    class       surfaceScalarField;
    location    "0.5";
    object      phi.air;
}
// * * * * * * * * * * * * * * * * * * * * * * * * * * * * * * * * * * * * * //

dimensions      [0 3 -1 0 0 0 0];

internalField   nonuniform List<scalar> 
4432
(
2.7325e-06
-2.73248e-06
5.63137e-06
-2.89885e-06
7.80417e-06
-2.17278e-06
1.14016e-05
-3.59738e-06
1.37499e-05
-2.34832e-06
1.60119e-05
-2.26193e-06
1.9215e-05
-3.20311e-06
2.23144e-05
-3.09934e-06
2.5153e-05
-2.83868e-06
2.67207e-05
-1.56769e-06
2.83987e-05
-1.67804e-06
3.06136e-05
-2.21491e-06
3.26558e-05
-2.04216e-06
3.37256e-05
-1.06981e-06
3.30864e-05
6.39186e-07
3.09901e-05
2.09639e-06
2.69241e-05
4.06598e-06
2.16141e-05
5.31005e-06
1.61057e-05
5.50841e-06
1.20505e-05
4.05525e-06
8.19769e-06
3.85289e-06
2.853e-06
5.34478e-06
2.85302e-06
2.74037e-06
-5.47287e-06
5.63217e-06
-5.79066e-06
7.95533e-06
-4.49594e-06
1.12962e-05
-6.93825e-06
1.36745e-05
-4.72662e-06
1.61885e-05
-4.77598e-06
1.93715e-05
-6.38609e-06
2.22557e-05
-5.98359e-06
2.48701e-05
-5.45308e-06
2.6752e-05
-3.44969e-06
2.90877e-05
-4.01377e-06
3.12622e-05
-4.38952e-06
3.27191e-05
-3.49908e-06
3.33936e-05
-1.74435e-06
3.36422e-05
3.90592e-07
3.14674e-05
4.27128e-06
2.74443e-05
8.08919e-06
2.18178e-05
1.09367e-05
1.68226e-05
1.05037e-05
1.24217e-05
8.4562e-06
8.26753e-06
8.0072e-06
3.31082e-06
1.03016e-05
6.16397e-06
2.75646e-06
-8.20127e-06
5.56122e-06
-8.5627e-06
8.13322e-06
-7.04397e-06
1.1105e-05
-9.85967e-06
1.36799e-05
-7.2667e-06
1.65042e-05
-7.55516e-06
1.95025e-05
-9.31065e-06
2.20369e-05
-8.44724e-06
2.44087e-05
-7.74736e-06
2.69628e-05
-5.92551e-06
3.00114e-05
-6.95843e-06
3.20941e-05
-6.374e-06
3.36612e-05
-4.98485e-06
3.42361e-05
-2.27687e-06
3.32177e-05
1.41226e-06
3.1207e-05
6.28209e-06
2.75556e-05
1.17406e-05
2.21471e-05
1.63452e-05
1.6976e-05
1.56748e-05
1.32961e-05
1.21362e-05
1.00682e-05
1.12352e-05
6.31358e-06
1.40562e-05
1.24776e-05
2.76173e-06
-1.04877e-05
5.45348e-06
-1.07918e-05
8.41502e-06
-9.53045e-06
1.08017e-05
-1.18414e-05
1.3671e-05
-9.69933e-06
1.6723e-05
-1.02204e-05
1.94316e-05
-1.18589e-05
2.16018e-05
-1.04778e-05
2.42109e-05
-1.03495e-05
2.73787e-05
-9.18502e-06
3.02118e-05
-1.01967e-05
3.15956e-05
-8.17306e-06
3.26186e-05
-6.31719e-06
3.29288e-05
-2.44337e-06
3.40907e-05
7.83428e-07
3.33318e-05
7.36993e-06
2.95848e-05
1.55342e-05
2.43212e-05
2.16092e-05
1.8138e-05
2.18581e-05
1.26481e-05
1.76262e-05
8.97041e-06
1.49129e-05
5.39715e-06
1.76295e-05
1.78747e-05
2.75244e-06
-2.24449e-05
5.31104e-06
-2.28525e-05
8.66655e-06
-2.21281e-05
1.03228e-05
-2.38873e-05
1.35632e-05
-2.30002e-05
1.6976e-05
-2.42602e-05
1.87479e-05
-2.52061e-05
2.11508e-05
-2.45596e-05
2.40863e-05
-2.54468e-05
2.7449e-05
-2.51367e-05
2.94045e-05
-2.56045e-05
3.15409e-05
-2.39828e-05
3.34737e-05
-2.2303e-05
3.52434e-05
-1.79261e-05
3.44941e-05
-1.02953e-05
3.17732e-05
1.82881e-06
2.93698e-05
1.59931e-05
2.48713e-05
2.64606e-05
1.87395e-05
2.80245e-05
1.21469e-05
2.42189e-05
7.12505e-06
1.99346e-05
4.75812e-06
1.99964e-05
2.26328e-05
2.32568e-06
-4.58746e-05
4.47122e-06
-4.5089e-05
7.53256e-06
-4.52122e-05
8.86873e-06
-4.16121e-05
1.11557e-05
-4.12894e-05
1.37667e-05
-3.92648e-05
1.54049e-05
-3.32268e-05
1.75189e-05
-2.99284e-05
1.97759e-05
-2.81452e-05
2.19376e-05
-2.61051e-05
2.33864e-05
-2.3699e-05
2.55356e-05
-2.17984e-05
2.7057e-05
-1.89295e-05
2.79389e-05
-1.56229e-05
2.83309e-05
-1.37714e-05
2.87697e-05
-1.69944e-05
2.52016e-05
2.76224e-06
2.16642e-05
2.34647e-05
1.72875e-05
3.28063e-05
1.17533e-05
2.98132e-05
5.82032e-06
2.58676e-05
2.79162e-06
2.3025e-05
2.54243e-05
3.5074e-07
-1.6873e-05
8.51537e-07
-1.67878e-05
1.10933e-06
-1.71691e-05
2.00215e-06
-1.61783e-05
2.37929e-06
-1.62811e-05
3.19124e-06
-1.75246e-05
4.75145e-06
-1.67866e-05
6.36959e-06
-1.66651e-05
8.10195e-06
-1.71711e-05
9.50816e-06
-1.60344e-05
1.03109e-05
-1.39492e-05
1.02199e-05
-1.19568e-05
9.68663e-06
-8.83299e-06
1.0334e-05
-5.54213e-06
1.47193e-05
-2.32626e-06
2.30629e-05
1.26524e-06
2.34377e-05
-4.2418e-07
1.42684e-05
1.8614e-05
1.24748e-05
3.05989e-05
1.05423e-05
3.20286e-05
5.69897e-06
3.07241e-05
2.57424e-06
2.61496e-05
2.79984e-05
1.61515e-07
-1.65336e-05
3.7026e-07
-1.65727e-05
7.17303e-07
-1.71171e-05
1.11287e-06
-1.63457e-05
2.01556e-06
-1.69907e-05
3.42003e-06
-1.88239e-05
4.57532e-06
-1.79052e-05
6.65064e-06
-1.87263e-05
9.00568e-06
-1.95198e-05
1.14869e-05
-1.85125e-05
1.29208e-05
-1.53817e-05
1.42792e-05
-1.33149e-05
1.40356e-05
-8.59021e-06
1.05494e-05
-2.05788e-06
3.71913e-06
4.51393e-06
3.79172e-06
3.68036e-06
1.30095e-05
1.47309e-05
8.73524e-06
1.82828e-05
2.78794e-06
2.61229e-05
4.88203e-06
2.93973e-05
4.95547e-06
3.07322e-05
3.49242e-06
2.76131e-05
3.14907e-05
-1.5925e-05
-1.33203e-05
-2.36005e-05
-2.17697e-05
-3.08235e-05
-2.67487e-05
-3.49047e-05
-3.7071e-05
-3.15903e-05
-4.87306e-05
-2.2056e-05
-6.35418e-05
-1.24664e-05
-7.05944e-05
-4.69521e-06
-6.99848e-05
9.78017e-07
-5.85168e-05
2.65496e-06
-1.39923e-05
1.57284e-06
3.30711e-05
5.9483e-06
0.00012725
1.12228e-05
0.000124857
1.99102e-05
0.000126775
2.63462e-05
-4.86536e-06
3.49495e-05
-7.4181e-05
3.82688e-05
-5.28551e-05
2.2526e-05
-1.79606e-05
2.18434e-05
-5.10651e-06
-9.66779e-06
-5.60829e-06
-2.81139e-05
-5.2735e-06
-2.89682e-05
-5.63758e-06
-2.4658e-05
-1.11527e-06
-3.56113e-05
1.22785e-05
-6.30054e-05
2.47514e-05
-8.01679e-05
3.36215e-05
-9.34028e-05
4.57802e-05
-0.00011572
6.43296e-05
-0.00017794
6.67377e-05
-5.82051e-05
2.07286e-05
5.87385e-05
6.46669e-06
7.09987e-05
1.40288e-05
4.41079e-05
7.23837e-06
-1.03091e-05
5.41725e-05
-0.000156049
5.99684e-05
-0.000104265
3.8549e-05
-1.4793e-05
5.41723e-05
3.11039e-06
-2.16004e-05
9.58293e-06
-4.59109e-05
1.37884e-05
-4.41831e-05
2.0125e-05
-4.13465e-05
3.50977e-05
-5.27064e-05
4.50602e-05
-6.43798e-05
5.60881e-05
-5.31947e-05
6.25209e-05
-2.60804e-05
6.73358e-05
1.30948e-06
0.000111988
8.82699e-05
0.000187925
0.000175489
8.07962e-05
0.000113511
2.77092e-05
7.01129e-05
1.00838e-05
6.82858e-05
-5.68112e-05
0.000114887
2.29583e-05
7.67519e-05
5.5654e-05
-3.98476e-05
3.10725e-05
-3.72744e-05
7.56687e-05
1.00544e-05
-3.44084e-05
2.25082e-05
-6.11448e-05
3.3594e-05
-5.64297e-05
4.43939e-05
-5.36588e-05
5.5739e-05
-6.82908e-05
6.71238e-05
-8.32422e-05
7.35275e-05
-7.87127e-05
7.52505e-05
-6.11302e-05
8.5639e-05
-3.04197e-05
0.000153526
2.16577e-05
0.000239204
-3.47698e-05
0.00027036
-7.96532e-06
0.000165212
0.000132508
3.52231e-05
0.000132704
-2.7231e-05
3.63419e-05
-1.03249e-05
1.12615e-05
2.459e-05
6.79262e-05
3.4289e-05
-3.61963e-05
7.72424e-05
1.37972e-05
-5.58051e-05
2.75115e-05
-7.28211e-05
3.95856e-05
-7.44113e-05
5.18009e-05
-6.42211e-05
6.25491e-05
-7.41793e-05
6.8538e-05
-8.38152e-05
7.21015e-05
-8.15771e-05
7.44047e-05
-5.4931e-05
8.0203e-05
1.36476e-05
0.000126422
2.95222e-05
0.000130622
-4.36256e-05
0.000166907
-5.81768e-05
0.000119423
0.000175831
-4.22802e-06
0.000255931
-3.28575e-05
4.65598e-05
-6.12676e-05
-9.18973e-05
4.65811e-06
-6.53541e-06
2.04453e-05
4.92635e-05
8.48758e-05
1.83491e-05
4.51406e-05
2.86082e-05
8.86442e-06
3.8935e-05
7.35667e-06
5.13274e-05
-6.32044e-05
5.95768e-05
-7.84231e-05
6.37718e-05
-8.41443e-05
6.80414e-05
-8.14279e-05
7.27734e-05
-5.98921e-05
7.38173e-05
2.37078e-06
9.0974e-05
1.32483e-05
6.89398e-05
-4.45502e-05
8.84231e-05
-7.98352e-05
9.08069e-05
0.000170399
5.94248e-05
0.00028703
1.63841e-05
8.40511e-05
-5.92019e-06
-0.000118784
2.91324e-06
-5.20519e-06
-2.75791e-06
0.000144879
9.79416e-05
2.05718e-05
2.48924e-05
3.66309e-05
-1.56777e-06
4.46572e-05
1.23755e-05
4.84462e-05
1.23783e-05
5.29378e-05
-7.83938e-05
5.57959e-05
-9.08108e-05
5.84721e-05
-8.51612e-05
6.1163e-05
-8.86182e-05
6.27533e-05
-9.63124e-05
7.23047e-05
-5.43023e-05
2.1376e-05
-1.17513e-05
3.92989e-06
-3.77295e-05
5.70274e-05
0.000126142
0.000139247
0.000204895
0.000126213
9.23054e-05
5.05941e-05
-5.97127e-05
1.37068e-05
3.20117e-05
-1.86723e-06
0.000193596
0.000115778
2.07248e-05
-7.88577e-06
3.58206e-05
-6.36049e-06
4.29012e-05
4.36383e-06
5.12546e-05
1.12025e-05
4.82849e-05
7.26882e-07
5.06853e-05
-4.68492e-05
5.37341e-05
-8.90985e-05
5.75843e-05
-8.7683e-05
5.97791e-05
-8.59283e-05
5.85824e-05
-4.29626e-05
2.30569e-05
1.48754e-05
-5.13903e-07
3.24472e-05
8.27681e-05
8.88901e-05
0.000209703
0.000119497
0.000223007
0.000129212
9.37384e-05
0.000107062
3.10102e-05
0.000125218
3.27152e-06
0.000219754
0.000136693
1.92132e-07
-1.6701e-05
6.82644e-07
-1.70426e-05
1.09564e-06
-1.75194e-05
1.99903e-06
-1.72443e-05
3.07047e-06
-1.80568e-05
5.59878e-06
-2.13406e-05
8.74316e-06
-2.10405e-05
1.36217e-05
-2.36013e-05
1.81835e-05
-2.40795e-05
2.14553e-05
-2.17825e-05
2.32618e-05
-1.71861e-05
2.4231e-05
-1.42806e-05
2.49592e-05
-9.31222e-06
2.90178e-05
-6.10452e-06
3.50414e-05
-1.49799e-06
3.18725e-05
6.85807e-06
2.45163e-05
2.37418e-05
2.70802e-05
3.74455e-05
2.52522e-06
3.18664e-05
-4.35122e-06
2.37627e-05
3.73635e-06
2.11633e-05
1.58269e-05
1.58733e-05
1.49533e-05
3.24362e-05
5.20986e-07
-1.71001e-05
1.23681e-06
-1.76547e-05
1.84245e-06
-1.80565e-05
2.97874e-06
-1.8323e-05
4.13593e-06
-1.91309e-05
5.55293e-06
-2.26899e-05
9.23646e-06
-2.47012e-05
1.52837e-05
-2.96383e-05
2.01327e-05
-2.89059e-05
2.45211e-05
-2.60894e-05
2.86786e-05
-2.12542e-05
3.22622e-05
-1.77889e-05
3.2944e-05
-9.96181e-06
3.1569e-05
-4.72257e-06
2.73398e-05
2.72648e-06
2.54241e-05
8.77334e-06
2.89634e-05
2.0207e-05
3.25926e-05
3.7698e-05
2.74551e-05
5.13384e-05
8.71845e-06
3.12063e-05
6.34914e-06
1.49491e-05
1.28278e-05
3.30675e-06
-6.53505e-07
2.54751e-05
7.48972e-07
1.71856e-05
1.49027e-06
1.44931e-05
1.77907e-06
4.26757e-06
1.48283e-06
-1.18483e-05
1.27329e-06
-1.74371e-05
3.28692e-06
-2.21661e-05
8.92308e-06
-2.69994e-05
1.72579e-05
-3.42317e-05
2.43071e-05
-3.32168e-05
3.02358e-05
-3.13121e-05
3.4839e-05
-2.63187e-05
3.90816e-05
-2.18461e-05
4.21751e-05
-1.27441e-05
4.48957e-05
-7.11727e-06
4.55729e-05
2.23406e-06
4.4358e-05
1.00291e-05
4.24532e-05
2.21054e-05
4.80262e-05
3.20389e-05
5.89019e-05
4.38304e-05
5.8921e-05
3.84111e-05
4.76177e-05
1.90898e-05
4.25029e-05
2.35938e-06
-1.66072e-05
4.90049e-05
-4.11882e-06
6.01678e-05
-8.81082e-06
5.7022e-05
-3.6071e-06
4.95472e-05
1.94403e-06
3.963e-05
1.29783e-06
3.51316e-05
1.11446e-07
2.85374e-05
3.9062e-06
1.39307e-05
1.31959e-05
6.39263e-06
2.12519e-05
3.39527e-05
2.69558e-05
4.79294e-05
3.07752e-05
-1.13734e-05
3.31144e-05
-2.00543e-05
3.69498e-05
-1.47699e-05
4.03557e-05
-1.01307e-05
4.38213e-05
-2.11953e-06
4.63857e-05
6.15552e-06
5.05024e-05
1.74656e-05
5.94733e-05
2.34608e-05
7.2359e-05
3.10408e-05
9.15481e-05
2.58326e-05
0.000103335
1.85205e-05
0.000111422
5.47825e-07
-1.60053e-05
0.000117631
6.48142e-07
3.39894e-05
4.69099e-07
3.60722e-05
3.82101e-07
4.5456e-05
-1.24466e-05
7.42015e-05
-2.59237e-05
8.83921e-05
-2.5861e-05
6.58374e-05
-1.1154e-05
5.03495e-05
-1.55331e-05
7.19552e-05
-9.18292e-06
5.4434e-05
-5.54136e-06
3.82693e-05
3.34271e-06
3.29918e-05
1.06109e-05
3.28625e-05
1.92084e-05
3.03219e-05
2.54379e-05
3.22589e-05
3.25576e-05
3.91211e-05
3.8574e-05
3.69416e-05
4.58946e-05
2.90393e-05
5.52747e-05
1.34229e-05
6.88085e-05
1.67907e-05
8.42039e-05
1.05021e-05
9.68612e-05
8.85477e-06
0.000113541
-8.13498e-06
-1.87245e-05
0.000126562
-2.29578e-06
-1.73282e-05
-5.9039e-06
-1.59223e-05
-6.13698e-06
-1.72821e-05
5.89362e-06
-1.75901e-05
9.29719e-06
1.12215e-06
-1.5987e-05
2.44768e-05
-4.06558e-05
4.20375e-05
-8.20011e-05
4.82683e-05
-9.37866e-05
1.54686e-05
-9.24238e-05
-5.08538e-07
-8.69304e-05
1.9946e-05
-8.08783e-05
2.99058e-05
-6.85219e-05
2.58547e-05
-4.94114e-05
2.49246e-05
-2.94016e-05
2.90265e-05
-1.00455e-05
3.33872e-05
1.35983e-05
3.71932e-05
3.19526e-05
4.3084e-05
4.65749e-05
4.85377e-05
6.41627e-05
4.61672e-05
7.91234e-05
4.30996e-05
9.16291e-05
2.70614e-05
1.98471e-05
0.000100802
1.97927e-05
-3.76716e-05
4.16317e-05
-3.84419e-05
6.23664e-05
-3.91442e-05
8.41657e-05
-4.3727e-05
8.31284e-05
-8.88462e-06
4.66285e-05
3.57444e-05
-2.69045e-05
6.26672e-05
-9.97727e-05
6.10723e-05
-0.000127751
-4.86837e-06
-0.000126828
-4.90774e-05
-0.000104223
-5.41518e-05
-9.4611e-05
-2.2326e-05
-8.36716e-05
-6.89031e-06
-7.48837e-05
1.59358e-05
-7.03914e-05
3.67887e-05
-6.23297e-05
5.36078e-05
-4.8908e-05
5.65303e-05
-3.00792e-05
5.00766e-05
3.4366e-06
5.45377e-05
1.87465e-05
4.53026e-05
4.31462e-05
3.89454e-05
5.36049e-05
3.78917e-05
2.47887e-05
6.3398e-05
-2.25215e-05
-1.51502e-05
-3.66425e-05
-2.43208e-05
-4.5222e-05
-3.05648e-05
-5.24871e-05
-3.64619e-05
-3.24165e-05
-2.89552e-05
1.76527e-05
-1.4329e-05
9.45319e-05
-1.43474e-05
0.000120722
3.42091e-05
7.99755e-05
3.39085e-05
3.46879e-05
-7.92886e-06
-1.21131e-05
-2.35189e-05
-5.14944e-05
-1.37338e-05
-6.21525e-05
-3.72653e-05
-5.80619e-05
-4.09364e-05
-4.7057e-05
-3.37078e-05
-4.36821e-05
-1.60718e-05
-4.56961e-05
2.2616e-06
-4.03407e-05
1.40914e-05
-2.72827e-05
2.01497e-05
-2.34269e-05
1.25763e-05
-5.49713e-06
-1.0842e-06
4.22175e-06
-7.04921e-06
-2.18486e-05
1.94496e-05
-4.49406e-06
-1.06561e-05
-8.07076e-06
-2.07441e-05
-9.75621e-06
-2.88793e-05
-1.00254e-05
-3.61927e-05
-1.49594e-06
-3.74848e-05
1.4172e-05
-2.99971e-05
3.59222e-05
-3.60979e-05
3.10948e-05
3.90354e-05
1.21185e-05
5.2884e-05
1.56164e-07
4.03327e-06
6.26002e-06
-2.96277e-05
4.18128e-05
-4.93932e-05
5.99024e-05
-5.57922e-05
7.01241e-05
-5.24014e-05
7.9925e-05
-4.94156e-05
9.33824e-05
-3.99849e-05
7.44205e-05
-5.83243e-06
4.98696e-05
-5.14163e-06
3.43195e-05
-1.31082e-05
2.4734e-05
-2.10834e-05
3.20141e-05
-4.64082e-05
2.66949e-05
-3.54401e-05
-4.69982e-05
2.21055e-05
8.3255e-07
-1.14887e-05
-3.54155e-07
-1.95574e-05
-2.59334e-06
-2.66401e-05
-5.29096e-06
-3.34951e-05
-4.12078e-06
-3.86549e-05
-2.53285e-07
-3.38646e-05
7.60003e-06
-4.39512e-05
3.58624e-05
1.0773e-05
4.48239e-05
4.39225e-05
2.78892e-05
2.0968e-05
3.39804e-06
-5.13653e-06
1.3228e-06
-4.7318e-05
3.03104e-06
-5.75004e-05
6.02901e-06
-5.53994e-05
6.66438e-06
-5.00509e-05
1.04021e-05
-4.37226e-05
4.13255e-05
-3.67566e-05
7.57515e-05
-3.95895e-05
0.000100204
-3.76466e-05
0.000114772
-3.57392e-05
0.000103381
-3.51185e-05
0.000106367
-3.84844e-05
-4.39414e-05
0.000103278
-3.28531e-06
-8.20334e-06
-4.65922e-06
-1.81835e-05
-6.1514e-06
-2.51479e-05
-8.2525e-06
-3.1394e-05
-1.15131e-05
-3.53944e-05
-1.14111e-05
-3.39666e-05
-1.823e-05
-3.71323e-05
1.04792e-05
-1.79362e-05
3.9734e-05
1.46677e-05
4.50346e-05
1.56674e-05
4.64781e-05
-6.58005e-06
4.18805e-05
-4.27203e-05
4.0439e-05
-5.60589e-05
4.45838e-05
-5.95441e-05
5.07574e-05
-5.62244e-05
5.57752e-05
-4.87403e-05
5.5642e-05
-3.66233e-05
5.02565e-05
-3.42039e-05
4.67047e-05
-3.40947e-05
3.83996e-05
-2.7434e-05
3.65329e-05
-3.32517e-05
3.71167e-05
-3.90682e-05
-4.39766e-05
3.71516e-05
4.48979e-06
-1.26931e-05
6.06551e-06
-1.97592e-05
5.31342e-06
-2.43959e-05
2.49203e-06
-2.85726e-05
-1.80688e-06
-3.10955e-05
-5.05993e-06
-3.07136e-05
-1.15682e-05
-3.06241e-05
-7.60971e-06
-2.18947e-05
1.24406e-05
-5.38267e-06
2.68029e-05
1.30516e-06
3.49947e-05
-1.47718e-05
3.09003e-05
-3.8626e-05
2.33453e-05
-4.85039e-05
1.70486e-05
-5.32474e-05
1.47195e-05
-5.38953e-05
1.72013e-05
-5.1222e-05
2.74995e-05
-4.69214e-05
3.73016e-05
-4.4006e-05
4.18404e-05
-3.86334e-05
4.595e-05
-3.15435e-05
4.16228e-05
-2.89245e-05
3.4356e-05
-3.18014e-05
-3.40528e-05
2.4432e-05
1.62934e-06
-1.43225e-05
3.10025e-06
-2.12302e-05
3.25177e-06
-2.45474e-05
1.64933e-06
-2.69701e-05
-1.56643e-06
-2.78797e-05
-4.86233e-06
-2.74177e-05
-8.98988e-06
-2.64965e-05
-8.89907e-06
-2.19855e-05
2.1729e-06
-1.64546e-05
1.53379e-05
-1.18598e-05
2.19426e-05
-2.13765e-05
1.83685e-05
-3.50518e-05
1.30868e-05
-4.32222e-05
8.35028e-06
-4.85109e-05
4.14941e-06
-4.96943e-05
1.56114e-07
-4.72287e-05
-2.71878e-06
-4.40464e-05
-4.66079e-06
-4.20639e-05
-4.486e-06
-3.88081e-05
-1.39196e-06
-3.46375e-05
2.07904e-06
-3.23955e-05
2.93964e-06
-3.2662e-05
-3.275e-05
1.63665e-06
2.6611e-06
-1.69836e-05
4.13466e-06
-2.27037e-05
4.20518e-06
-2.46179e-05
2.77967e-06
-2.55446e-05
4.94134e-07
-2.55941e-05
-1.81246e-06
-2.51111e-05
-4.05649e-06
-2.42525e-05
-3.94124e-06
-2.21007e-05
3.09762e-07
-2.07056e-05
6.95539e-06
-1.85054e-05
9.56577e-06
-2.39869e-05
5.77093e-06
-3.1257e-05
8.79377e-07
-3.83306e-05
-3.91071e-06
-4.37207e-05
-8.0185e-06
-4.55865e-05
-1.08654e-05
-4.43816e-05
-1.25328e-05
-4.2379e-05
-1.38834e-05
-4.07132e-05
-1.50002e-05
-3.76913e-05
-1.50074e-05
-3.46303e-05
-1.4333e-05
-3.30699e-05
-1.40823e-05
-3.29127e-05
-3.25573e-05
-1.42751e-05
1.62564e-06
-1.86092e-05
2.36787e-06
-2.34459e-05
1.93023e-06
-2.41802e-05
8.26305e-07
-2.44407e-05
-3.48018e-07
-2.44198e-05
-1.32857e-06
-2.41305e-05
-2.01542e-06
-2.35656e-05
-1.27762e-06
-2.28385e-05
5.62911e-07
-2.25462e-05
3.5233e-06
-2.14658e-05
4.05465e-06
-2.45183e-05
1.22015e-06
-2.84224e-05
-3.11243e-06
-3.3998e-05
-7.86436e-06
-3.89688e-05
-1.19284e-05
-4.15224e-05
-1.44826e-05
-4.18274e-05
-1.62315e-05
-4.06299e-05
-1.77479e-05
-3.91967e-05
-1.87342e-05
-3.6705e-05
-1.82549e-05
-3.51096e-05
-1.71176e-05
-3.42071e-05
-1.65137e-05
-3.35166e-05
-3.28e-05
-1.62711e-05
7.20829e-07
-1.933e-05
6.67945e-07
-2.33931e-05
1.41733e-07
-2.3654e-05
-3.62511e-07
-2.39365e-05
-7.08317e-07
-2.4074e-05
-8.73703e-07
-2.39651e-05
-7.16649e-07
-2.37227e-05
-5.28952e-08
-2.35023e-05
9.55413e-07
-2.35545e-05
2.55925e-06
-2.30696e-05
2.77881e-06
-2.47378e-05
1.48506e-06
-2.71287e-05
-1.6246e-06
-3.08883e-05
-6.16553e-06
-3.44278e-05
-1.05187e-05
-3.71692e-05
-1.35647e-05
-3.87814e-05
-1.53173e-05
-3.88773e-05
-1.6196e-05
-3.83179e-05
-1.67769e-05
-3.61241e-05
-1.73886e-05
-3.44977e-05
-1.76346e-05
-3.39613e-05
-1.76059e-05
-3.35451e-05
-3.28601e-05
-1.7546e-05
2.4717e-07
-1.95772e-05
6.47787e-08
-2.32107e-05
-1.92247e-07
-2.3397e-05
-4.41541e-07
-2.36872e-05
-5.86606e-07
-2.39289e-05
-4.95854e-07
-2.40559e-05
-1.57194e-07
-2.40613e-05
3.80979e-07
-2.40404e-05
1.05541e-06
-2.42289e-05
2.10612e-06
-2.41203e-05
2.49087e-06
-2.51225e-05
2.3689e-06
-2.70067e-05
1.10564e-06
-2.9625e-05
-1.45182e-06
-3.18703e-05
-4.61584e-06
-3.40052e-05
-7.73381e-06
-3.56635e-05
-1.02917e-05
-3.63193e-05
-1.2512e-05
-3.60977e-05
-1.39573e-05
-3.46787e-05
-1.56938e-05
-3.27613e-05
-1.73907e-05
-3.22643e-05
-1.84633e-05
-3.24726e-05
-3.20839e-05
-1.92395e-05
7.02771e-08
-1.96475e-05
6.25891e-09
-2.31467e-05
-4.2645e-08
-2.33481e-05
-1.15088e-07
-2.36147e-05
-2.47148e-07
-2.37969e-05
-2.85258e-07
-2.40178e-05
-1.82828e-07
-2.41637e-05
1.18993e-07
-2.43422e-05
4.80072e-07
-2.45899e-05
1.20978e-06
-2.485e-05
1.72799e-06
-2.56407e-05
1.73315e-06
-2.70118e-05
7.41526e-07
-2.86334e-05
-9.9284e-07
-3.0136e-05
-3.12236e-06
-3.18756e-05
-5.88747e-06
-3.28983e-05
-8.78709e-06
-3.34197e-05
-1.14576e-05
-3.34271e-05
-1.33301e-05
-3.28063e-05
-1.50477e-05
-3.10436e-05
-1.726e-05
-3.00521e-05
-1.90339e-05
-3.06986e-05
-3.11209e-05
-1.9997e-05
5.07671e-08
-1.96983e-05
9.4874e-08
-2.31908e-05
4.59556e-08
-2.32992e-05
-9.65916e-08
-2.34722e-05
-3.44326e-07
-2.35491e-05
-6.65212e-07
-2.36969e-05
-9.35934e-07
-2.3893e-05
-1.12104e-06
-2.41571e-05
-1.18583e-06
-2.45251e-05
-8.89636e-07
-2.51462e-05
-6.17264e-07
-2.59131e-05
-7.18902e-07
-2.69102e-05
-1.47404e-06
-2.78782e-05
-2.62239e-06
-2.89876e-05
-4.59055e-06
-2.99075e-05
-7.31257e-06
-3.01763e-05
-9.96297e-06
-3.07693e-05
-1.21718e-05
-3.12182e-05
-1.42669e-05
-3.07111e-05
-1.60793e-05
-2.92312e-05
-1.77604e-05
-2.83709e-05
-1.91204e-05
-2.93387e-05
-2.99819e-05
-2.02594e-05
5.11732e-08
-1.97494e-05
-8.37536e-08
-2.30558e-05
-3.22218e-07
-2.30607e-05
-6.09038e-07
-2.31854e-05
-8.75504e-07
-2.32827e-05
-1.18084e-06
-2.33915e-05
-1.44332e-06
-2.36305e-05
-1.70172e-06
-2.38987e-05
-1.95589e-06
-2.4271e-05
-2.20364e-06
-2.48984e-05
-2.52546e-06
-2.55912e-05
-3.12354e-06
-2.63121e-05
-4.03811e-06
-2.69636e-05
-5.20265e-06
-2.7823e-05
-6.78026e-06
-2.83298e-05
-8.35593e-06
-2.86006e-05
-1.00525e-05
-2.90727e-05
-1.20177e-05
-2.92531e-05
-1.39196e-05
-2.88092e-05
-1.53307e-05
-2.782e-05
-1.6446e-05
-2.72556e-05
-1.76104e-05
-2.81744e-05
-2.88195e-05
-1.87728e-05
-5.65791e-08
-1.96929e-05
-2.83987e-07
-2.28284e-05
-4.9868e-07
-2.2846e-05
-6.85005e-07
-2.2999e-05
-8.69228e-07
-2.30984e-05
-1.0377e-06
-2.32231e-05
-1.26696e-06
-2.34013e-05
-1.57694e-06
-2.35887e-05
-1.97675e-06
-2.38711e-05
-2.49539e-06
-2.43798e-05
-3.10571e-06
-2.49809e-05
-3.89884e-06
-2.55189e-05
-4.92726e-06
-2.59352e-05
-6.15651e-06
-2.65937e-05
-7.46145e-06
-2.70249e-05
-8.6386e-06
-2.74234e-05
-1.01697e-05
-2.75416e-05
-1.21347e-05
-2.7288e-05
-1.3939e-05
-2.70049e-05
-1.54774e-05
-2.62817e-05
-1.67217e-05
-2.60112e-05
-1.80782e-05
-2.68179e-05
-2.7435e-05
-1.94629e-05
-1.4788e-07
-1.9545e-05
-2.97941e-07
-2.26784e-05
-4.21734e-07
-2.27222e-05
-6.08903e-07
-2.28119e-05
-8.13479e-07
-2.28939e-05
-1.02846e-06
-2.30081e-05
-1.27511e-06
-2.31546e-05
-1.52343e-06
-2.33404e-05
-1.80046e-06
-2.35941e-05
-2.32728e-06
-2.38529e-05
-3.01633e-06
-2.42918e-05
-3.80422e-06
-2.4731e-05
-4.6458e-06
-2.50936e-05
-5.82281e-06
-2.54167e-05
-7.07276e-06
-2.57749e-05
-8.44909e-06
-2.60471e-05
-9.90723e-06
-2.60834e-05
-1.12692e-05
-2.59261e-05
-1.26017e-05
-2.56724e-05
-1.37901e-05
-2.50934e-05
-1.49439e-05
-2.48575e-05
-1.64653e-05
-2.52965e-05
-2.53855e-05
-1.85148e-05
-1.0593e-07
-1.94391e-05
-3.33859e-07
-2.24504e-05
-5.95103e-07
-2.2461e-05
-8.82877e-07
-2.25241e-05
-1.17239e-06
-2.26044e-05
-1.45879e-06
-2.27217e-05
-1.74465e-06
-2.28687e-05
-2.03198e-06
-2.3053e-05
-2.35936e-06
-2.32667e-05
-2.76838e-06
-2.34439e-05
-3.41318e-06
-2.3647e-05
-4.18863e-06
-2.39555e-05
-4.94484e-06
-2.43373e-05
-5.83366e-06
-2.45278e-05
-6.92555e-06
-2.4683e-05
-8.37079e-06
-2.46018e-05
-9.95777e-06
-2.44964e-05
-1.12915e-05
-2.45924e-05
-1.26661e-05
-2.42977e-05
-1.39905e-05
-2.3769e-05
-1.52024e-05
-2.36455e-05
-1.66837e-05
-2.38153e-05
-2.34003e-05
-1.8669e-05
-2.21074e-07
-1.9218e-05
-5.02756e-07
-2.21688e-05
-7.75112e-07
-2.21886e-05
-1.04733e-06
-2.22519e-05
-1.33271e-06
-2.2319e-05
-1.65441e-06
-2.24e-05
-2.01773e-06
-2.25054e-05
-2.41112e-06
-2.26596e-05
-2.84215e-06
-2.28356e-05
-3.35929e-06
-2.29267e-05
-4.03188e-06
-2.29744e-05
-4.78232e-06
-2.32051e-05
-5.7096e-06
-2.341e-05
-6.65026e-06
-2.35871e-05
-7.66302e-06
-2.36702e-05
-8.61862e-06
-2.36462e-05
-9.48611e-06
-2.36289e-05
-1.0713e-05
-2.33655e-05
-1.20197e-05
-2.29911e-05
-1.31901e-05
-2.25986e-05
-1.44582e-05
-2.23775e-05
-1.6154e-05
-2.21195e-05
-2.16577e-05
-1.78967e-05
-1.24344e-07
-1.90936e-05
-3.43483e-07
-2.19496e-05
-5.9461e-07
-2.19375e-05
-8.75454e-07
-2.1971e-05
-1.1825e-06
-2.20119e-05
-1.50739e-06
-2.20751e-05
-1.8616e-06
-2.21512e-05
-2.28149e-06
-2.22397e-05
-2.81355e-06
-2.23036e-05
-3.35347e-06
-2.23868e-05
-3.81188e-06
-2.25159e-05
-4.40221e-06
-2.26147e-05
-5.22469e-06
-2.25875e-05
-6.20396e-06
-2.26079e-05
-7.2151e-06
-2.2659e-05
-8.23684e-06
-2.26245e-05
-9.49999e-06
-2.23658e-05
-1.08619e-05
-2.20035e-05
-1.19657e-05
-2.18873e-05
-1.30106e-05
-2.15537e-05
-1.42917e-05
-2.10964e-05
-1.57991e-05
-2.06121e-05
-2.01909e-05
-1.7266e-05
-2.39295e-07
-1.88543e-05
-5.33857e-07
-2.16551e-05
-8.19951e-07
-2.16514e-05
-1.12308e-06
-2.16679e-05
-1.45144e-06
-2.16836e-05
-1.81681e-06
-2.17097e-05
-2.20962e-06
-2.17584e-05
-2.6415e-06
-2.18078e-05
-3.10234e-06
-2.18427e-05
-3.62299e-06
-2.18661e-05
-4.24862e-06
-2.18903e-05
-4.96532e-06
-2.1898e-05
-5.62507e-06
-2.19278e-05
-6.44474e-06
-2.17882e-05
-7.47636e-06
-2.16274e-05
-8.48095e-06
-2.16199e-05
-9.39632e-06
-2.14504e-05
-1.01933e-05
-2.12066e-05
-1.1239e-05
-2.08416e-05
-1.24533e-05
-2.03394e-05
-1.37686e-05
-1.97811e-05
-1.50722e-05
-1.93085e-05
-1.8761e-05
-1.6502e-05
-2.09476e-07
-1.86449e-05
-4.78318e-07
-2.13862e-05
-7.45979e-07
-2.13838e-05
-1.01963e-06
-2.13942e-05
-1.30299e-06
-2.14002e-05
-1.61498e-06
-2.13977e-05
-1.9754e-06
-2.13979e-05
-2.38462e-06
-2.13986e-05
-2.8412e-06
-2.13861e-05
-3.3829e-06
-2.13244e-05
-4.04821e-06
-2.1225e-05
-4.78664e-06
-2.11596e-05
-5.57792e-06
-2.11365e-05
-6.29816e-06
-2.10679e-05
-6.91115e-06
-2.10144e-05
-7.73694e-06
-2.0794e-05
-8.72693e-06
-2.04604e-05
-9.91513e-06
-2.00184e-05
-1.11669e-05
-1.95898e-05
-1.22375e-05
-1.92689e-05
-1.32135e-05
-1.88051e-05
-1.43695e-05
-1.81525e-05
-1.74298e-05
-1.57007e-05
-2.2474e-07
-1.84201e-05
-5.08028e-07
-2.11029e-05
-8.0262e-07
-2.10892e-05
-1.12715e-06
-2.10697e-05
-1.48339e-06
-2.10439e-05
-1.85933e-06
-2.10217e-05
-2.2625e-06
-2.09947e-05
-2.70587e-06
-2.09552e-05
-3.18081e-06
-2.09112e-05
-3.63746e-06
-2.08677e-05
-4.06687e-06
-2.07955e-05
-4.55496e-06
-2.06714e-05
-5.20221e-06
-2.04892e-05
-5.98443e-06
-2.02857e-05
-6.98605e-06
-2.00128e-05
-7.98936e-06
-1.97907e-05
-8.88821e-06
-1.95615e-05
-9.68015e-06
-1.92265e-05
-1.04313e-05
-1.88387e-05
-1.14062e-05
-1.82939e-05
-1.25885e-05
-1.76229e-05
-1.37413e-05
-1.69997e-05
-1.63254e-05
-1.48457e-05
-2.06621e-07
-1.82135e-05
-4.55735e-07
-2.08538e-05
-7.01984e-07
-2.08429e-05
-9.59117e-07
-2.08126e-05
-1.2362e-06
-2.07669e-05
-1.54988e-06
-2.0708e-05
-1.9089e-06
-2.06357e-05
-2.3169e-06
-2.05472e-05
-2.78824e-06
-2.04398e-05
-3.34858e-06
-2.03074e-05
-3.99976e-06
-2.01444e-05
-4.69771e-06
-1.99735e-05
-5.37057e-06
-1.98163e-05
-6.03136e-06
-1.96249e-05
-6.6254e-06
-1.94187e-05
-7.24652e-06
-1.91696e-05
-8.02748e-06
-1.87806e-05
-8.95125e-06
-1.83027e-05
-1.00276e-05
-1.77623e-05
-1.10813e-05
-1.72402e-05
-1.19776e-05
-1.67266e-05
-1.29397e-05
-1.60376e-05
-1.52488e-05
-1.40164e-05
-2.23504e-07
-1.799e-05
-4.94546e-07
-2.05828e-05
-7.70137e-07
-2.05673e-05
-1.06615e-06
-2.05165e-05
-1.38221e-06
-2.04508e-05
-1.72015e-06
-2.03701e-05
-2.08407e-06
-2.02718e-05
-2.47572e-06
-2.01556e-05
-2.89287e-06
-2.00226e-05
-3.32196e-06
-1.98783e-05
-3.75219e-06
-1.97141e-05
-4.2259e-06
-1.94998e-05
-4.7856e-06
-1.92566e-05
-5.42659e-06
-1.89839e-05
-6.18432e-06
-1.8661e-05
-7.065e-06
-1.82889e-05
-7.93613e-06
-1.79094e-05
-8.75778e-06
-1.7481e-05
-9.5074e-06
-1.70127e-05
-1.03106e-05
-1.6437e-05
-1.12613e-05
-1.57759e-05
-1.22171e-05
-1.50818e-05
-1.43085e-05
-1.31574e-05
-1.84708e-07
-1.78053e-05
-4.01806e-07
-2.03657e-05
-6.24041e-07
-2.03451e-05
-8.67755e-07
-2.02728e-05
-1.13986e-06
-2.01787e-05
-1.44839e-06
-2.00616e-05
-1.79737e-06
-1.99228e-05
-2.18768e-06
-1.97652e-05
-2.62101e-06
-1.95893e-05
-3.10496e-06
-1.93943e-05
-3.64096e-06
-1.91781e-05
-4.20845e-06
-1.89323e-05
-4.80145e-06
-1.86636e-05
-5.41465e-06
-1.83707e-05
-6.03282e-06
-1.80428e-05
-6.64754e-06
-1.76742e-05
-7.31247e-06
-1.72445e-05
-8.05449e-06
-1.6739e-05
-8.89239e-06
-1.61748e-05
-9.7481e-06
-1.55813e-05
-1.05752e-05
-1.49488e-05
-1.14244e-05
-1.42327e-05
-1.34306e-05
-1.23023e-05
-1.81691e-07
-1.76236e-05
-4.00757e-07
-2.01466e-05
-6.24069e-07
-2.01218e-05
-8.66899e-07
-2.003e-05
-1.13017e-06
-1.99154e-05
-1.4176e-06
-1.97741e-05
-1.73272e-06
-1.96077e-05
-2.07921e-06
-1.94187e-05
-2.4604e-06
-1.92081e-05
-2.87949e-06
-1.89752e-05
-3.33409e-06
-1.87235e-05
-3.81249e-06
-1.84538e-05
-4.32844e-06
-1.81476e-05
-4.89589e-06
-1.78032e-05
-5.51652e-06
-1.74222e-05
-6.19124e-06
-1.69995e-05
-6.90079e-06
-1.6535e-05
-7.61123e-06
-1.60286e-05
-8.31706e-06
-1.5469e-05
-9.05294e-06
-1.48454e-05
-9.83676e-06
-1.4165e-05
-1.06369e-05
-1.34325e-05
-1.26271e-05
-1.14405e-05
-1.36395e-07
-1.74872e-05
-3.17396e-07
-1.99656e-05
-5.04155e-07
-1.9935e-05
-7.11881e-07
-1.98223e-05
-9.42651e-07
-1.96846e-05
-1.20209e-06
-1.95147e-05
-1.49778e-06
-1.9312e-05
-1.8304e-06
-1.90861e-05
-2.19924e-06
-1.88392e-05
-2.6029e-06
-1.85715e-05
-3.0453e-06
-1.82811e-05
-3.53141e-06
-1.79677e-05
-4.04786e-06
-1.76312e-05
-4.58533e-06
-1.72657e-05
-5.14694e-06
-1.68606e-05
-5.73232e-06
-1.64141e-05
-6.34394e-06
-1.59234e-05
-6.99142e-06
-1.53811e-05
-7.67366e-06
-1.47868e-05
-8.37629e-06
-1.41428e-05
-9.0927e-06
-1.34486e-05
-9.82681e-06
-1.26984e-05
-1.18824e-05
-1.05715e-05
-1.05723e-07
-1.73815e-05
-2.66994e-07
-1.98043e-05
-4.33827e-07
-1.97682e-05
-6.18026e-07
-1.96381e-05
-8.18655e-07
-1.9484e-05
-1.03671e-06
-1.92966e-05
-1.2787e-06
-1.907e-05
-1.55287e-06
-1.88119e-05
-1.86967e-06
-1.85224e-05
-2.23862e-06
-1.82025e-05
-2.65529e-06
-1.78644e-05
-3.10859e-06
-1.75144e-05
-3.59529e-06
-1.71445e-05
-4.11283e-06
-1.67482e-05
-4.65548e-06
-1.63179e-05
-5.22226e-06
-1.58473e-05
-5.80874e-06
-1.53369e-05
-6.41017e-06
-1.47797e-05
-7.02802e-06
-1.41689e-05
-7.66579e-06
-1.3505e-05
-8.32642e-06
-1.2788e-05
-9.00534e-06
-1.20195e-05
-1.11931e-05
-9.69466e-06
-6.21241e-08
-1.73194e-05
-2.17167e-07
-1.96493e-05
-3.76994e-07
-1.96083e-05
-5.47165e-07
-1.94679e-05
-7.2855e-07
-1.93026e-05
-9.17683e-07
-1.91075e-05
-1.10925e-06
-1.88784e-05
-1.31729e-06
-1.86039e-05
-1.55463e-06
-1.82851e-05
-1.83215e-06
-1.7925e-05
-2.16577e-06
-1.75308e-05
-2.56713e-06
-1.7113e-05
-3.03177e-06
-1.66798e-05
-3.55206e-06
-1.62279e-05
-4.09835e-06
-1.57716e-05
-4.65086e-06
-1.52948e-05
-5.20846e-06
-1.47793e-05
-5.77219e-06
-1.4216e-05
-6.3495e-06
-1.35916e-05
-6.93883e-06
-1.29157e-05
-7.54419e-06
-1.21826e-05
-8.16783e-06
-1.13958e-05
-1.05547e-05
-8.80618e-06
-2.59523e-08
-1.72934e-05
-2.13302e-07
-1.94619e-05
-4.02409e-07
-1.94192e-05
-5.87833e-07
-1.92825e-05
-7.76495e-07
-1.9114e-05
-9.70759e-07
-1.89132e-05
-1.16798e-06
-1.86812e-05
-1.36793e-06
-1.84039e-05
-1.57522e-06
-1.80778e-05
-1.79412e-06
-1.77061e-05
-2.03344e-06
-1.72914e-05
-2.30499e-06
-1.68415e-05
-2.61894e-06
-1.63659e-05
-2.99114e-06
-1.58557e-05
-3.43621e-06
-1.53266e-05
-3.94983e-06
-1.47812e-05
-4.51141e-06
-1.42177e-05
-5.08105e-06
-1.36463e-05
-5.63467e-06
-1.3038e-05
-6.18413e-06
-1.23662e-05
-6.74105e-06
-1.16257e-05
-7.31369e-06
-1.08232e-05
-9.96407e-06
-7.90438e-06
-3.58568e-08
-1.72576e-05
-3.09841e-07
-1.9188e-05
-5.84657e-07
-1.91444e-05
-8.3585e-07
-1.90313e-05
-1.07314e-06
-1.88767e-05