/*--------------------------------*- C++ -*----------------------------------*\
| =========                 |                                                 |
| \\      /  F ield         | OpenFOAM: The Open Source CFD Toolbox           |
|  \\    /   O peration     | Version:  2.4.0                                 |
|   \\  /    A nd           | Web:      www.OpenFOAM.org                      |
|    \\/     M anipulation  |                                                 |
\*---------------------------------------------------------------------------*/
FoamFile
{
    version     2.0;
    format      ascii;
    class       volVectorField;
    location    "0.5";
    object      U;
}
// * * * * * * * * * * * * * * * * * * * * * * * * * * * * * * * * * * * * * //

dimensions      [0 1 -1 0 0 0 0];

internalField   nonuniform List<vector> 
2268
(
(0.0163665 -0.00734938 0)
(0.0462288 -0.0077323 0)
(0.079779 -0.00593929 0)
(0.103258 -0.00956881 0)
(0.150796 -0.00635267 0)
(0.168165 -0.00632627 0)
(0.196275 -0.00805486 0)
(0.237499 -0.0087101 0)
(0.274911 -0.00702273 0)
(0.296988 -0.00418412 0)
(0.308902 -0.0042778 0)
(0.337237 -0.0057116 0)
(0.356355 -0.00523792 0)
(0.38146 -0.00660041 0)
(0.381693 -0.00965581 0)
(0.369171 -0.00962426 0)
(0.340716 0.0035144 0)
(0.281057 0.00474301 0)
(0.222621 0.014201 0)
(0.155218 0.00344247 0)
(0.126909 0.0149483 0)
(0.0653031 0.0161399 0)
(-0.00345895 0.00696 0)
(0.0165295 -0.022346 0)
(0.0458197 -0.0238689 0)
(0.0809456 -0.0176188 0)
(0.104737 -0.0299506 0)
(0.147904 -0.0187147 0)
(0.168789 -0.0185049 0)
(0.199357 -0.027175 0)
(0.238384 -0.0255077 0)
(0.273057 -0.0234162 0)
(0.292035 -0.0123675 0)
(0.315165 -0.0132832 0)
(0.344168 -0.0168162 0)
(0.36477 -0.0128373 0)
(0.37552 -0.00107379 0)
(0.383372 0.0195247 0)
(0.373023 0.0365966 0)
(0.342814 0.0435026 0)
(0.290201 0.0541179 0)
(0.219412 0.0464769 0)
(0.174837 0.039065 0)
(0.116595 0.0283559 0)
(0.0758197 0.040683 0)
(-0.00362204 0.0214335 0)
(0.0166592 -0.0380149 0)
(0.0455643 -0.040008 0)
(0.0814408 -0.0323801 0)
(0.106658 -0.0467587 0)
(0.143209 -0.0341926 0)
(0.172831 -0.0352123 0)
(0.202036 -0.0440113 0)
(0.239783 -0.0422649 0)
(0.266626 -0.0394513 0)
(0.287719 -0.0289786 0)
(0.325387 -0.0348734 0)
(0.356392 -0.0368143 0)
(0.372807 -0.0328686 0)
(0.386938 -0.0248743 0)
(0.384058 -0.0186546 0)
(0.371895 0.000663149 0)
(0.33846 0.0379693 0)
(0.297716 0.0626339 0)
(0.217946 0.0691309 0)
(0.181454 0.0543904 0)
(0.128864 0.0559011 0)
(0.102351 0.0683315 0)
(0.0406486 0.0496726 0)
(0.0168489 -0.0428681 0)
(0.0449759 -0.0445144 0)
(0.0816079 -0.0360894 0)
(0.108195 -0.0509101 0)
(0.13895 -0.036257 0)
(0.175188 -0.037977 0)
(0.203477 -0.0468443 0)
(0.239083 -0.0390403 0)
(0.257235 -0.0341635 0)
(0.291788 -0.0257972 0)
(0.331318 -0.0302078 0)
(0.352898 -0.0214287 0)
(0.364668 -0.00934723 0)
(0.376208 0.0101326 0)
(0.376591 0.0422913 0)
(0.386125 0.0813512 0)
(0.364839 0.0968895 0)
(0.318114 0.110363 0)
(0.249801 0.0943862 0)
(0.178747 0.0739056 0)
(0.114179 0.0634018 0)
(0.0929278 0.0874941 0)
(0.0277534 0.0818927 0)
(0.0172225 -0.0976063 0)
(0.0436393 -0.100104 0)
(0.0815761 -0.0934278 0)
(0.110401 -0.107239 0)
(0.131625 -0.096626 0)
(0.176528 -0.102262 0)
(0.206299 -0.113958 0)
(0.227057 -0.106787 0)
(0.254241 -0.110785 0)
(0.298133 -0.105934 0)
(0.323776 -0.11235 0)
(0.347195 -0.0986419 0)
(0.369806 -0.0919697 0)
(0.391863 -0.0707488 0)
(0.393957 -0.0553062 0)
(0.385818 -0.0233658 0)
(0.35466 0.0622603 0)
(0.321072 0.137503 0)
(0.255241 0.146885 0)
(0.188366 0.117925 0)
(0.0932931 0.0985939 0)
(0.0672504 0.0964982 0)
(0.0381703 0.105069 0)
(0.0139262 -0.0513053 0)
(0.0364932 -0.0470686 0)
(0.0666091 -0.0498875 0)
(0.096 -0.0327029 0)
(0.106289 -0.0377953 0)
(0.137878 -0.031609 0)
(0.160522 -0.00607476 0)
(0.178875 0.00176897 0)
(0.198812 0.0125341 0)
(0.227395 0.0270949 0)
(0.243633 0.052972 0)
(0.260967 0.0718305 0)
(0.284978 0.0975021 0)
(0.289565 0.125042 0)
(0.284081 0.17901 0)
(0.297203 0.169069 0)
(0.303641 0.103593 0)
(0.302265 0.12391 0)
(0.225708 0.156278 0)
(0.180316 0.145051 0)
(0.0918959 0.120361 0)
(0.038989 0.121812 0)
(0.0214079 0.136805 0)
(0.000523713 -0.0532444 0)
(0.00810712 -0.0585226 0)
(0.00811633 -0.0610782 0)
(0.0188803 -0.0738805 0)
(0.0230141 -0.0755146 0)
(0.0295016 -0.0941144 0)
(0.0460511 -0.111202 0)
(0.0614422 -0.118909 0)
(0.081563 -0.13219 0)
(0.101813 -0.136716 0)
(0.115023 -0.14426 0)
(0.119509 -0.147776 0)
(0.115243 -0.146525 0)
(0.113709 -0.14257 0)
(0.131025 -0.132562 0)
(0.190981 -0.0111348 0)
(0.200418 0.249362 0)
(0.173958 0.209898 0)
(0.16247 0.175146 0)
(0.141892 0.168333 0)
(0.0979087 0.152227 0)
(0.0338976 0.129633 0)
(0.0206265 0.141821 0)
(9.16655e-05 -0.122099 0)
(0.00386236 -0.120726 0)
(0.00469154 -0.12285 0)
(0.0110833 -0.114894 0)
(0.0157145 -0.11667 0)
(0.0303055 -0.120198 0)
(0.0465634 -0.106202 0)
(0.0599395 -0.101137 0)
(0.0907334 -0.0962722 0)
(0.11769 -0.0823363 0)
(0.140204 -0.0559348 0)
(0.15687 -0.0335634 0)
(0.16187 0.000229335 0)
(0.149083 0.0386694 0)
(0.0891068 0.0809648 0)
(-0.00113556 0.0303166 0)
(0.103424 0.020022 0)
(0.0263655 0.259217 0)
(0.0225959 0.177241 0)
(0.0487965 0.165954 0)
(0.0663262 0.175049 0)
(0.047536 0.150034 0)
(0.0272143 0.167085 0)
(-0.0893803 0.058119 0)
(-0.206377 0.0143963 0)
(-0.302057 -0.0334354 0)
(-0.360292 -0.0942149 0)
(-0.383229 -0.149814 0)
(-0.296581 -0.206792 0)
(-0.207536 -0.264195 0)
(-0.107274 -0.318769 0)
(0.0165973 -0.352764 0)
(0.128632 -0.405297 0)
(0.0940775 -0.453364 0)
(0.0554815 -0.421699 0)
(0.084834 -0.524924 0)
(0.120134 -0.508589 0)
(0.175005 -0.476877 0)
(0.252095 -0.337993 0)
(0.356128 -0.0830754 0)
(0.286227 -0.107799 0)
(0.269674 -0.120115 0)
(-0.0647351 0.0807972 0)
(-0.129214 0.0518648 0)
(-0.145363 0.0706844 0)
(-0.163438 0.111533 0)
(-0.197315 0.129333 0)
(-0.147625 0.104697 0)
(-0.0229341 0.14527 0)
(0.0679143 0.194301 0)
(0.178981 0.219288 0)
(0.249786 0.304851 0)
(0.182107 0.488599 0)
(0.116584 0.474904 0)
(0.0632269 0.559378 0)
(0.0909628 0.671078 0)
(0.0172683 0.633061 0)
(0.147132 0.219052 0)
(0.5138 -0.0892383 0)
(0.550617 0.10304 0)
(0.397442 0.213405 0)
(-0.0394179 0.134865 0)
(-0.00689995 0.0555169 0)
(0.0439736 0.0164332 0)
(0.0402185 -0.00561628 0)
(0.134544 -0.105226 0)
(0.299166 -0.19491 0)
(0.383324 -0.250521 0)
(0.485456 -0.276092 0)
(0.654165 -0.297902 0)
(0.842164 -0.281367 0)
(0.905699 -0.246622 0)
(1.16013 -0.23539 0)
(0.490187 -0.531955 0)
(0.237116 -0.682331 0)
(0.00916917 -0.595346 0)
(0.192658 -0.379509 0)
(0.245576 -0.0426051 0)
(0.372857 0.141307 0)
(0.345549 0.363139 0)
(0.0227451 0.130983 0)
(0.132115 0.00986767 0)
(0.312208 0.00635341 0)
(0.36804 0.0126416 0)
(0.527942 -0.0227508 0)
(0.744664 -0.103911 0)
(0.82462 -0.0910369 0)
(0.893766 -0.0775621 0)
(0.953936 -0.110086 0)
(1.06101 -0.118011 0)
(1.44861 -0.0332561 0)
(2.30376 0.280958 0)
(3.48653 1.0362 0)
(0.588664 1.15808 0)
(-0.257645 0.491431 0)
(0.371291 -0.242234 0)
(0.501683 -0.198717 0)
(0.18751 0.204728 0)
(0.311649 0.418372 0)
(0.0548607 0.0897503 0)
(0.20986 -0.0775915 0)
(0.419397 -0.0641439 0)
(0.544999 -0.0598742 0)
(0.741783 -0.15724 0)
(0.855431 -0.220183 0)
(0.894511 -0.208316 0)
(0.926589 -0.204802 0)
(0.934347 -0.243546 0)
(0.898221 -0.355014 0)
(1.06568 -0.448436 0)
(1.20776 -0.299844 0)
(2.44885 0.616641 0)
(0.470925 0.706956 0)
(-1.11238 0.152582 0)
(-0.10284 -0.391956 0)
(0.713418 -0.201396 0)
(0.0336282 0.339816 0)
(0.286388 0.532331 0)
(0.121332 0.0347752 0)
(0.258435 -0.158055 0)
(0.413935 -0.140167 0)
(0.572605 -0.119028 0)
(0.733175 -0.190247 0)
(0.794996 -0.230575 0)
(0.828695 -0.200136 0)
(0.847847 -0.162028 0)
(0.841561 -0.18854 0)
(0.771947 -0.328668 0)
(0.704305 -0.477034 0)
(0.606461 -0.395777 0)
(1.29595 0.680416 0)
(0.524265 1.32491 0)
(0.0044461 0.292291 0)
(0.0986911 -0.495764 0)
(0.780857 -0.278566 0)
(0.0558676 0.410208 0)
(0.27819 0.622559 0)
(0.22289 -0.062326 0)
(0.300555 -0.227587 0)
(0.383306 -0.212643 0)
(0.532144 -0.18989 0)
(0.635448 -0.237914 0)
(0.681006 -0.258514 0)
(0.701218 -0.22827 0)
(0.740992 -0.186636 0)
(0.762399 -0.194155 0)
(0.724553 -0.301811 0)
(0.596031 -0.41918 0)
(0.244034 -0.32598 0)
(-0.231597 1.20567 0)
(1.08526 1.03535 0)
(0.990328 0.0836407 0)
(0.772163 -0.510075 0)
(0.973999 -0.240575 0)
(0.156729 0.484517 0)
(0.301582 0.707154 0)
(0.276951 -0.220458 0)
(0.318275 -0.274208 0)
(0.387327 -0.251196 0)
(0.487436 -0.248167 0)
(0.567964 -0.269506 0)
(0.613703 -0.27063 0)
(0.629765 -0.241734 0)
(0.658099 -0.20152 0)
(0.688329 -0.198778 0)
(0.675256 -0.279728 0)
(0.572517 -0.340109 0)
(0.317855 -0.16613 0)
(-0.242707 0.650199 0)
(1.56422 1.8562 0)
(2.3103 1.58881 0)
(1.23923 0.0261776 0)
(1.11991 -0.0136313 0)
(0.206489 0.691987 0)
(0.301878 0.835063 0)
(0.000236746 -0.0476212 0)
(0.00231462 -0.0495006 0)
(0.00427347 -0.0538071 0)
(0.00870171 -0.0520935 0)
(0.0125631 -0.0574181 0)
(0.0217811 -0.0756905 0)
(0.0395267 -0.0734602 0)
(0.0557181 -0.0824964 0)
(0.0869988 -0.0913504 0)
(0.106915 -0.0872998 0)
(0.118898 -0.0784835 0)
(0.129726 -0.0831898 0)
(0.131369 -0.0786636 0)
(0.145106 -0.0793018 0)
(0.169806 -0.0483448 0)
(0.191469 0.0277052 0)
(0.141827 0.182658 0)
(0.14566 0.227107 0)
(0.011187 0.358649 0)
(-0.0351642 0.136427 0)
(-0.00908701 0.132273 0)
(0.0527575 0.139777 0)
(0.118991 0.154674 0)
(0.00130301 -0.108278 0)
(0.00479146 -0.110346 0)
(0.00854934 -0.111289 0)
(0.0121296 -0.11181 0)
(0.0203021 -0.117215 0)
(0.0227972 -0.136997 0)
(0.0396558 -0.139374 0)
(0.0606596 -0.158805 0)
(0.0986712 -0.157385 0)
(0.11915 -0.142873 0)
(0.139571 -0.11744 0)
(0.17031 -0.0965979 0)
(0.174163 -0.0507876 0)
(0.181325 -0.0143378 0)
(0.158049 0.0191121 0)
(0.13521 0.0269752 0)
(0.15 0.0748311 0)
(0.170764 0.18969 0)
(0.2046 0.338109 0)
(0.0723258 0.316819 0)
(0.0246061 0.102261 0)
(0.0466408 0.0088521 0)
(0.100399 0.015673 0)
(0.00216544 -0.106172 0)
(0.00609258 -0.110416 0)
(0.00977437 -0.114568 0)
(0.00824452 -0.116797 0)
(0.00906891 -0.117953 0)
(0.00697498 -0.131451 0)
(0.0310029 -0.144908 0)
(0.0638696 -0.17782 0)
(0.115599 -0.169709 0)
(0.143306 -0.152234 0)
(0.176992 -0.122474 0)
(0.200376 -0.10177 0)
(0.213279 -0.0501762 0)
(0.243005 -0.0230963 0)
(0.237283 0.0202246 0)
(0.254653 0.0782344 0)
(0.236661 0.139321 0)
(0.231028 0.211173 0)
(0.29845 0.276966 0)
(0.384813 0.343492 0)
(0.340212 0.269366 0)
(0.260353 0.133786 0)
(0.242399 -0.00402639 0)
(0.000351844 -0.0567777 0)
(-0.00020954 -0.0561747 0)
(0.00491991 -0.0474913 0)
(0.0110681 -0.0395619 0)
(0.0175781 -0.0498022 0)
(-0.00474658 -0.103323 0)
(0.00209677 -0.166514 0)
(0.0372334 -0.231887 0)
(0.0947317 -0.231732 0)
(0.123683 -0.21398 0)
(0.161208 -0.172954 0)
(0.16699 -0.140484 0)
(0.191209 -0.0881001 0)
(0.213277 -0.0552711 0)
(0.220544 -0.000424414 0)
(0.255076 0.033527 0)
(0.25411 0.104157 0)
(0.297041 0.137697 0)
(0.353769 0.207732 0)
(0.447144 0.189566 0)
(0.541091 0.190262 0)
(0.618059 0.127811 0)
(0.671526 0.0297788 0)
(0.00811442 -0.197306 0)
(0.0142284 -0.199869 0)
(0.0206061 -0.203516 0)
(-0.00971291 -0.208462 0)
(-0.079857 -0.18092 0)
(-0.107193 -0.18224 0)
(-0.0810611 -0.220681 0)
(-0.0694386 -0.293131 0)
(-0.0584192 -0.269305 0)
(-0.042414 -0.224243 0)
(0.0145449 -0.175105 0)
(0.0282117 -0.150585 0)
(0.0727034 -0.117362 0)
(0.119841 -0.0788482 0)
(0.13918 -0.0302962 0)
(0.205409 0.0328317 0)
(0.22134 0.0732738 0)
(0.277041 0.0998674 0)
(0.329147 0.129781 0)
(0.411997 0.10389 0)
(0.48572 0.0870061 0)
(0.562838 -0.00194355 0)
(0.656663 -0.0871173 0)
(-0.000396278 0.575614 0)
(-0.0277495 0.510043 0)
(-0.0425243 0.300484 0)
(0.0148609 0.0200334 0)
(0.0630465 -0.152939 0)
(0.0118425 -0.283452 0)
(-0.125028 -0.365241 0)
(-0.329857 -0.366912 0)
(-0.489891 -0.298545 0)
(-0.505425 -0.296204 0)
(-0.404562 -0.239242 0)
(-0.372951 -0.1886 0)
(-0.307629 -0.135306 0)
(-0.250277 -0.079504 0)
(-0.167768 -0.0408756 0)
(-0.0827079 0.00866082 0)
(0.0210626 0.0620614 0)
(0.127515 0.0608956 0)
(0.220529 0.0587286 0)
(0.280939 0.00156966 0)
(0.396988 -0.00231521 0)
(0.455949 -0.0946569 0)
(0.508309 -0.14404 0)
(0.0592135 -0.486354 0)
(0.158675 -0.416235 0)
(0.297409 -0.248695 0)
(0.315907 0.0624939 0)
(0.597764 0.476559 0)
(0.340137 0.941646 0)
(0.110729 1.44528 0)
(-0.441781 1.25541 0)
(-0.662825 0.362477 0)
(-0.648383 -0.177708 0)
(-0.574323 -0.359059 0)
(-0.481422 -0.340257 0)
(-0.43533 -0.325083 0)
(-0.389393 -0.288571 0)
(-0.369941 -0.245533 0)
(-0.324139 -0.190606 0)
(-0.277317 -0.150776 0)
(-0.182673 -0.0956434 0)
(-0.0344427 -0.0224582 0)
(0.0257762 -0.0696365 0)
(0.169418 -0.0488781 0)
(0.219108 -0.11179 0)
(0.282218 -0.170173 0)
(-0.0714086 -0.148636 0)
(-0.161646 -0.208088 0)
(-0.22569 -0.334199 0)
(-0.290887 -0.469007 0)
(-0.264019 -0.496057 0)
(-0.0531445 -0.366404 0)
(0.286847 -0.438071 0)
(0.638738 -0.253513 0)
(0.627932 -0.212661 0)
(0.300856 -0.0597533 0)
(0.0363873 0.210575 0)
(-0.203279 0.477048 0)
(-0.300722 0.241746 0)
(-0.297902 -0.0956629 0)
(-0.27342 -0.218616 0)
(-0.239095 -0.247929 0)
(-0.240872 -0.276521 0)
(-0.20265 -0.285074 0)
(-0.181691 -0.275331 0)
(-0.137985 -0.291949 0)
(-0.0795125 -0.289356 0)
(-0.0214123 -0.307578 0)
(0.0591402 -0.327702 0)
(-0.0186419 0.0802127 0)
(-0.0386651 0.0405911 0)
(-0.0513055 0.0227354 0)
(-0.0424927 0.0112142 0)
(-0.0924744 0.0722461 0)
(0.0882289 0.112383 0)
(0.0439969 0.155715 0)
(0.297533 0.442216 0)
(0.0608394 0.412633 0)
(0.0554223 -0.0875668 0)
(-0.0451251 -0.402004 0)
(0.133137 -0.517223 0)
(0.273584 -0.446857 0)
(0.357216 -0.19441 0)
(0.399485 0.0187956 0)
(0.50453 0.211897 0)
(0.450308 0.687283 0)
(0.309795 0.892764 0)
(0.22133 0.827433 0)
(0.147256 0.724056 0)
(0.140235 0.44512 0)
(0.170363 0.52005 0)
(0.132203 0.43048 0)
(0.0036779 -0.21219 0)
(0.00312331 -0.249055 0)
(-0.00772787 -0.289118 0)
(-0.0175194 -0.332605 0)
(-0.0474422 -0.375327 0)
(0.01559 -0.333315 0)
(-0.0206399 -0.413804 0)
(0.114241 0.116888 0)
(0.229553 0.285956 0)
(0.26483 0.156199 0)
(0.0203238 0.00769266 0)
(0.013786 -0.160744 0)
(0.00434432 -0.28509 0)
(0.0244875 -0.374423 0)
(0.0407252 -0.453515 0)
(0.00673593 -0.53636 0)
(0.137978 -0.681858 0)
(0.309406 -0.809032 0)
(0.473154 -0.775856 0)
(0.603108 -0.741399 0)
(0.59159 -0.635627 0)
(0.562597 -0.641416 0)
(0.554484 -0.653736 0)
(-0.0126615 0.0625959 0)
(-0.0224799 0.00149342 0)
(-0.0277383 -0.046217 0)
(-0.0373434 -0.0892653 0)
(-0.0556015 -0.118762 0)
(-0.0524596 -0.111523 0)
(-0.0867284 -0.153853 0)
(-0.0944381 -0.0487499 0)
(0.201709 0.142375 0)
(0.234703 0.0894827 0)
(0.248869 -0.036753 0)
(0.241093 -0.258813 0)
(0.215192 -0.283141 0)
(0.218297 -0.255462 0)
(0.252604 -0.162672 0)
(0.285988 -0.0350166 0)
(0.305981 0.134328 0)
(0.287579 0.181624 0)
(0.259789 0.150902 0)
(0.226826 0.137806 0)
(0.197431 0.0470215 0)
(0.19849 0.0113792 0)
(0.201901 -0.031152 0)
(0.0133885 -0.126599 0)
(0.031784 -0.162553 0)
(0.0327579 -0.184379 0)
(0.0234597 -0.203344 0)
(0.00118012 -0.212424 0)
(-0.0157777 -0.200349 0)
(-0.0468489 -0.190534 0)
(-0.0688799 -0.108716 0)
(-0.0106698 0.0255606 0)
(0.138272 0.0609334 0)
(0.165221 -0.0516579 0)
(0.193249 -0.237191 0)
(0.144326 -0.311501 0)
(0.101208 -0.350784 0)
(0.0800681 -0.381686 0)
(0.0795808 -0.405503 0)
(0.117211 -0.415625 0)
(0.175256 -0.412848 0)
(0.210967 -0.365174 0)
(0.24571 -0.290808 0)
(0.241265 -0.251064 0)
(0.213179 -0.271196 0)
(0.157222 -0.285415 0)
(0.00458049 -0.0372425 0)
(0.0140737 -0.0817402 0)
(0.0193261 -0.110632 0)
(0.0157057 -0.136218 0)
(0.00185604 -0.153563 0)
(-0.016256 -0.158324 0)
(-0.0408304 -0.161267 0)
(-0.0508326 -0.132782 0)
(-0.0447448 -0.0841277 0)
(0.0661811 -0.0445055 0)
(0.109326 -0.101584 0)
(0.114113 -0.181045 0)
(0.0866312 -0.223982 0)
(0.0554345 -0.24731 0)
(0.0327535 -0.241249 0)
(0.00968693 -0.211472 0)
(-0.00786224 -0.17907 0)
(-0.0211348 -0.167243 0)
(-0.0303168 -0.160714 0)
(-0.0199617 -0.152166 0)
(0.00655117 -0.156898 0)
(0.0144396 -0.167981 0)
(0.01593 -0.17364 0)
(0.00782228 -0.0957963 0)
(0.0194717 -0.124375 0)
(0.0244384 -0.133841 0)
(0.0204519 -0.140196 0)
(0.00979258 -0.141229 0)
(-0.00354036 -0.137458 0)
(-0.0177552 -0.131931 0)
(-0.0238001 -0.114028 0)
(-0.0197611 -0.103438 0)
(0.0228113 -0.0922648 0)
(0.0567248 -0.137074 0)
(0.0418394 -0.191716 0)
(0.0177122 -0.231825 0)
(-0.00867598 -0.260161 0)
(-0.0338011 -0.269598 0)
(-0.052313 -0.260302 0)
(-0.0635327 -0.2457 0)
(-0.0728336 -0.228281 0)
(-0.0794655 -0.199413 0)
(-0.0802278 -0.168517 0)
(-0.0781287 -0.151812 0)
(-0.0764079 -0.151953 0)
(-0.0724987 -0.15309 0)
(0.00512194 -0.0976737 0)
(0.0120445 -0.125855 0)
(0.012846 -0.132196 0)
(0.00762947 -0.133516 0)
(0.00128223 -0.132581 0)
(-0.00460321 -0.131052 0)
(-0.010538 -0.127324 0)
(-0.00977014 -0.120544 0)
(-0.00493586 -0.116644 0)
(0.0114629 -0.108627 0)
(0.0262471 -0.12876 0)
(0.0165667 -0.156136 0)
(-0.00395405 -0.193611 0)
(-0.0293262 -0.224988 0)
(-0.0569232 -0.237329 0)
(-0.0726386 -0.23532 0)
(-0.0825716 -0.227545 0)
(-0.092633 -0.221303 0)
(-0.100109 -0.209778 0)
(-0.0984691 -0.201527 0)
(-0.0945877 -0.195659 0)
(-0.0894968 -0.191507 0)
(-0.0856158 -0.187306 0)
(0.00309707 -0.103266 0)
(0.00455234 -0.127095 0)
(0.0022909 -0.128826 0)
(-0.00073566 -0.13028 0)
(-0.00294952 -0.130505 0)
(-0.00464442 -0.129406 0)
(-0.00507847 -0.127086 0)
(-0.00185346 -0.124722 0)
(0.000994101 -0.12455 0)
(0.00990696 -0.120871 0)
(0.0170573 -0.131606 0)
(0.0127911 -0.14712 0)
(0.00280542 -0.169871 0)
(-0.0200401 -0.192267 0)
(-0.0479044 -0.20884 0)
(-0.0669701 -0.216489 0)
(-0.079015 -0.213695 0)
(-0.0861832 -0.207009 0)
(-0.0879327 -0.193794 0)
(-0.0903358 -0.187047 0)
(-0.0942331 -0.184002 0)
(-0.0947647 -0.179635 0)
(-0.0929341 -0.17514 0)
(0.00163091 -0.105538 0)
(0.000955058 -0.126041 0)
(-0.000304551 -0.127194 0)
(-0.0016354 -0.128793 0)
(-0.00298548 -0.129963 0)
(-0.0032315 -0.129581 0)
(-0.00206863 -0.129131 0)
(0.000719216 -0.128497 0)
(0.00313424 -0.129014 0)
(0.00874071 -0.12725 0)
(0.013408 -0.133216 0)
(0.0134987 -0.144495 0)
(0.0114526 -0.162309 0)
(0.000598507 -0.177437 0)
(-0.0171225 -0.189973 0)
(-0.0336491 -0.200216 0)
(-0.0498553 -0.204092 0)
(-0.0618592 -0.204962 0)
(-0.0710356 -0.194829 0)
(-0.0775991 -0.183823 0)
(-0.0899264 -0.181449 0)
(-0.0967954 -0.18146 0)
(-0.0996049 -0.177697 0)
(0.000579904 -0.106221 0)
(0.000188206 -0.125201 0)
(-0.000140255 -0.126058 0)
(-0.000228354 -0.12741 0)
(-0.000961645 -0.128832 0)
(-0.00155456 -0.130092 0)
(-0.00149287 -0.130657 0)
(-0.000167079 -0.131077 0)
(0.00136621 -0.132177 0)
(0.00404802 -0.1319 0)
(0.00863152 -0.136993 0)
(0.010103 -0.146055 0)
(0.00802714 -0.157215 0)
(0.00012586 -0.166015 0)
(-0.011468 -0.177302 0)
(-0.0228752 -0.185562 0)
(-0.0405793 -0.188517 0)
(-0.0551524 -0.186361 0)
(-0.0664109 -0.181522 0)
(-0.0759212 -0.170755 0)
(-0.085725 -0.165759 0)
(-0.0986177 -0.167316 0)
(-0.105032 -0.167904 0)
(0.000143663 -0.105754 0)
(0.00041714 -0.124716 0)
(0.000559604 -0.12598 0)
(-5.24077e-05 -0.127413 0)
(-0.000917891 -0.128312 0)
(-0.00267055 -0.129626 0)
(-0.0042784 -0.130392 0)
(-0.00554709 -0.13162 0)
(-0.00643259 -0.133149 0)
(-0.00579064 -0.135777 0)
(-0.00407381 -0.140005 0)
(-0.00269864 -0.146458 0)
(-0.00539731 -0.152749 0)
(-0.0099756 -0.160268 0)
(-0.0190392 -0.167968 0)
(-0.0306962 -0.169815 0)
(-0.0474198 -0.172188 0)
(-0.0606499 -0.17354 0)
(-0.0704053 -0.171766 0)
(-0.0820679 -0.163399 0)
(-0.0910407 -0.157677 0)
(-0.0997557 -0.163017 0)
(-0.105068 -0.166808 0)
(0.000435639 -0.106141 0)
(0.000109912 -0.124698 0)
(-0.00096735 -0.12472 0)
(-0.00255241 -0.125367 0)
(-0.00385651 -0.126157 0)
(-0.00546948 -0.127018 0)
(-0.00696308 -0.12832 0)
(-0.00834859 -0.129745 0)
(-0.00967296 -0.132123 0)
(-0.0109636 -0.135267 0)
(-0.0127704 -0.138561 0)
(-0.0145987 -0.14249 0)
(-0.0191812 -0.147593 0)
(-0.0245477 -0.153102 0)
(-0.0321622 -0.155879 0)
(-0.0405389 -0.157176 0)
(-0.0495556 -0.161955 0)
(-0.0589632 -0.165258 0)
(-0.0703691 -0.161191 0)
(-0.0797593 -0.153588 0)
(-0.0845451 -0.149196 0)
(-0.0920998 -0.154361 0)
(-0.0970951 -0.157954 0)
(5.446e-05 -0.106426 0)
(-0.00070054 -0.123361 0)
(-0.00230213 -0.123444 0)
(-0.00303867 -0.124135 0)
(-0.0042195 -0.124733 0)
(-0.00499996 -0.125216 0)
(-0.00599196 -0.126327 0)
(-0.00740269 -0.127365 0)
(-0.00920884 -0.128814 0)
(-0.0118085 -0.132034 0)
(-0.0152918 -0.136327 0)
(-0.0182855 -0.140655 0)
(-0.0235438 -0.142988 0)
(-0.0299631 -0.146689 0)
(-0.0364819 -0.149003 0)
(-0.0436685 -0.151505 0)
(-0.0497381 -0.15161 0)
(-0.0597588 -0.150718 0)
(-0.070838 -0.149296 0)
(-0.0798232 -0.145234 0)
(-0.086583 -0.14369 0)
(-0.0937324 -0.148299 0)
(-0.100163 -0.151029 0)
(-0.000266517 -0.105515 0)
(-0.00137642 -0.122539 0)
(-0.00177531 -0.12277 0)
(-0.00269785 -0.12367 0)
(-0.0037354 -0.124069 0)
(-0.00484358 -0.124656 0)
(-0.0060933 -0.125406 0)
(-0.00739008 -0.126459 0)
(-0.00873925 -0.128192 0)
(-0.0107116 -0.130238 0)
(-0.0145672 -0.132867 0)
(-0.0181621 -0.135415 0)
(-0.0222801 -0.137035 0)
(-0.0281508 -0.140182 0)
(-0.034546 -0.142704 0)
(-0.0420165 -0.145188 0)
(-0.0491359 -0.146227 0)
(-0.0569 -0.144389 0)
(-0.064723 -0.1438 0)
(-0.0709577 -0.139926 0)
(-0.0779712 -0.13847 0)
(-0.0832933 -0.142277 0)
(-0.0932611 -0.145292 0)
(-0.000126936 -0.105086 0)
(-0.00102127 -0.121532 0)
(-0.00250785 -0.121652 0)
(-0.00391665 -0.121923 0)
(-0.00545616 -0.122585 0)
(-0.00703332 -0.12358 0)
(-0.00850307 -0.1245 0)
(-0.0100216 -0.125428 0)
(-0.0117423 -0.126132 0)
(-0.0138582 -0.127133 0)
(-0.0158839 -0.128543 0)
(-0.0205625 -0.1301 0)
(-0.0246681 -0.133076 0)
(-0.0286883 -0.134093 0)
(-0.0339805 -0.135417 0)
(-0.0406135 -0.135457 0)
(-0.049468 -0.134753 0)
(-0.0579081 -0.135185 0)
(-0.0643541 -0.13336 0)
(-0.0716301 -0.130277 0)
(-0.0793575 -0.129155 0)
(-0.0849502 -0.130431 0)
(-0.0945129 -0.12919 0)
(-0.000496951 -0.103919 0)
(-0.00191116 -0.120094 0)
(-0.00343777 -0.120275 0)
(-0.00486024 -0.120732 0)
(-0.0063368 -0.1211 0)
(-0.00789325 -0.121453 0)
(-0.00975955 -0.122147 0)
(-0.0118522 -0.123154 0)
(-0.0141404 -0.124387 0)
(-0.0164688 -0.124694 0)
(-0.0196989 -0.125734 0)
(-0.0234655 -0.128011 0)
(-0.0281643 -0.12917 0)
(-0.0331758 -0.129968 0)
(-0.0385157 -0.130751 0)
(-0.0438902 -0.130147 0)
(-0.0486826 -0.130092 0)
(-0.0540279 -0.1311 0)
(-0.0611733 -0.128609 0)
(-0.0685157 -0.126688 0)
(-0.073622 -0.125448 0)
(-0.082837 -0.125535 0)
(-0.0911344 -0.122315 0)
(-0.000229159 -0.103542 0)
(-0.00113136 -0.119093 0)
(-0.00250765 -0.118989 0)
(-0.00388886 -0.119164 0)
(-0.00546361 -0.119435 0)
(-0.00718998 -0.119881 0)
(-0.00899687 -0.120336 0)
(-0.0110357 -0.120894 0)
(-0.0134813 -0.121536 0)
(-0.016771 -0.12266 0)
(-0.0195404 -0.123234 0)
(-0.0215794 -0.123593 0)
(-0.0254563 -0.123947 0)
(-0.0307457 -0.12492 0)
(-0.036171 -0.12527 0)
(-0.0411158 -0.124989 0)
(-0.0477525 -0.124638 0)
(-0.0548492 -0.121115 0)
(-0.0620812 -0.12013 0)
(-0.066712 -0.11824 0)
(-0.0733399 -0.117379 0)
(-0.0811902 -0.114435 0)
(-0.0890138 -0.112295 0)
(-0.000550019 -0.101934 0)
(-0.00204769 -0.117218 0)
(-0.00364536 -0.117255 0)
(-0.00517201 -0.117466 0)
(-0.0068559 -0.117684 0)
(-0.00875175 -0.117999 0)
(-0.0107692 -0.118374 0)
(-0.012982 -0.11876 0)
(-0.0154354 -0.118983 0)
(-0.0180424 -0.118874 0)
(-0.0208524 -0.119087 0)
(-0.0248942 -0.119587 0)
(-0.0286591 -0.119534 0)
(-0.0319252 -0.119064 0)
(-0.0370129 -0.118616 0)
(-0.0433604 -0.119074 0)
(-0.0481959 -0.117429 0)
(-0.0530369 -0.117031 0)
(-0.056948 -0.116581 0)
(-0.0636697 -0.113863 0)
(-0.0703034 -0.109583 0)
(-0.0782973 -0.107294 0)
(-0.0844293 -0.105866 0)
(-0.000498338 -0.10136 0)
(-0.00177861 -0.116325 0)
(-0.00331929 -0.116302 0)
(-0.00473107 -0.11638 0)
(-0.00623972 -0.116404 0)
(-0.00776101 -0.116308 0)
(-0.00958307 -0.116345 0)
(-0.0116943 -0.116461 0)
(-0.0140077 -0.116561 0)
(-0.0164989 -0.116637 0)
(-0.0198427 -0.11671 0)
(-0.0238034 -0.11636 0)
(-0.0276464 -0.116538 0)
(-0.0322655 -0.115821 0)
(-0.0357188 -0.115719 0)
(-0.0386665 -0.114703 0)
(-0.0442879 -0.113463 0)
(-0.0499299 -0.111474 0)
(-0.0565712 -0.107787 0)
(-0.0635959 -0.105961 0)
(-0.0683711 -0.105098 0)
(-0.0738492 -0.102026 0)
(-0.0812145 -0.0970127 0)
(-0.000543161 -0.0996564 0)
(-0.0018958 -0.114242 0)
(-0.00352171 -0.114198 0)
(-0.00513635 -0.11418 0)
(-0.00698279 -0.114189 0)
(-0.00896627 -0.114298 0)
(-0.0110392 -0.114352 0)
(-0.0133137 -0.11428 0)
(-0.015797 -0.114129 0)
(-0.0183875 -0.113756 0)
(-0.0208063 -0.112939 0)
(-0.0228826 -0.112576 0)
(-0.0261346 -0.112084 0)
(-0.0297962 -0.111714 0)
(-0.0345264 -0.110229 0)
(-0.0404507 -0.108805 0)
(-0.0456203 -0.107473 0)
(-0.0501092 -0.105209 0)
(-0.0542287 -0.104717 0)
(-0.0578276 -0.102743 0)
(-0.0643939 -0.0977393 0)
(-0.0714263 -0.0942811 0)
(-0.0767767 -0.0915281 0)
(-0.000522977 -0.09902 0)
(-0.00172062 -0.113415 0)
(-0.00313781 -0.113342 0)
(-0.00444094 -0.113188 0)
(-0.00586971 -0.112933 0)
(-0.00743944 -0.112608 0)
(-0.00925401 -0.112278 0)
(-0.0113022 -0.111935 0)
(-0.013633 -0.111572 0)
(-0.016336 -0.111215 0)
(-0.0195548 -0.110839 0)
(-0.0234639 -0.109973 0)
(-0.0270581 -0.108889 0)
(-0.0306695 -0.107635 0)
(-0.0341782 -0.106742 0)
(-0.0372237 -0.106038 0)
(-0.0406631 -0.104421 0)
(-0.0454934 -0.10227 0)
(-0.0508431 -0.0980455 0)
(-0.0570783 -0.0948221 0)
(-0.0619656 -0.0931685 0)
(-0.0668928 -0.089642 0)
(-0.0726624 -0.0850293 0)
(-0.000559866 -0.0973749 0)
(-0.00186477 -0.111463 0)
(-0.00340997 -0.111408 0)
(-0.00490289 -0.111213 0)
(-0.00655788 -0.110954 0)
(-0.00831375 -0.110621 0)
(-0.0101952 -0.110159 0)
(-0.0122154 -0.109561 0)
(-0.0143838 -0.108843 0)
(-0.0166934 -0.108 0)
(-0.0190437 -0.106987 0)
(-0.0212804 -0.106091 0)
(-0.0240709 -0.10525 0)
(-0.0273368 -0.104066 0)
(-0.0310021 -0.10238 0)
(-0.0354832 -0.100148 0)
(-0.0404621 -0.0979628 0)
(-0.0449712 -0.0957449 0)
(-0.0491381 -0.0943016 0)
(-0.0529505 -0.0916551 0)
(-0.0578353 -0.0876278 0)
(-0.0633404 -0.0838825 0)
(-0.0683001 -0.0798755 0)
(-0.000494755 -0.0967548 0)
(-0.00150452 -0.110662 0)
(-0.00277668 -0.110566 0)
(-0.0039695 -0.110243 0)
(-0.00535904 -0.10982 0)
(-0.00690541 -0.109304 0)
(-0.00866463 -0.108711 0)
(-0.0106481 -0.108051 0)
(-0.0128585 -0.107319 0)
(-0.0153069 -0.106516 0)
(-0.0180231 -0.105534 0)
(-0.0210401 -0.104089 0)
(-0.0241778 -0.102565 0)
(-0.0274189 -0.101076 0)
(-0.0307673 -0.0994409 0)
(-0.0340591 -0.0977328 0)
(-0.0373806 -0.095667 0)
(-0.0411456 -0.0928938 0)
(-0.0454699 -0.0894372 0)
(-0.0501123 -0.0861395 0)
(-0.054557 -0.083046 0)
(-0.0591503 -0.0792517 0)
(-0.0638884 -0.0748615 0)
(-0.000464603 -0.0953214 0)
(-0.00149918 -0.109009 0)
(-0.00277257 -0.108881 0)
(-0.00397083 -0.108414 0)
(-0.00533903 -0.107822 0)
(-0.00680891 -0.107085 0)
(-0.00842007 -0.106207 0)
(-0.0101918 -0.105214 0)
(-0.0121399 -0.104116 0)
(-0.0142824 -0.102922 0)
(-0.0166427 -0.101722 0)
(-0.0191399 -0.100571 0)
(-0.0217869 -0.0991295 0)
(-0.0246975 -0.0973782 0)
(-0.0278855 -0.0954391 0)
(-0.0313759 -0.0932109 0)
(-0.0351456 -0.090747 0)
(-0.0389947 -0.0882143 0)
(-0.0427706 -0.0855112 0)
(-0.0465772 -0.082302 0)
(-0.0506641 -0.0786053 0)
(-0.0550643 -0.0746904 0)
(-0.0594199 -0.0703542 0)
(-0.000352071 -0.0948386 0)
(-0.00113565 -0.108425 0)
(-0.00223371 -0.108291 0)
(-0.00322363 -0.107769 0)
(-0.00441081 -0.107117 0)
(-0.00571471 -0.106316 0)
(-0.00720136 -0.105385 0)
(-0.00888602 -0.104324 0)
(-0.0107652 -0.103124 0)
(-0.0128359 -0.101766 0)
(-0.0150938 -0.100208 0)
(-0.0175976 -0.0984796 0)
(-0.0203115 -0.0966954 0)
(-0.0231437 -0.0948041 0)
(-0.0260937 -0.0926908 0)
(-0.0291764 -0.0903761 0)
(-0.0323781 -0.0878194 0)
(-0.0357549 -0.0849016 0)
(-0.0393537 -0.0816659 0)
(-0.0430813 -0.0782203 0)
(-0.0468674 -0.0745672 0)
(-0.0508334 -0.0705689 0)
(-0.0548786 -0.0661582 0)
(-0.000236513 -0.0939341 0)
(-0.000912245 -0.107091 0)
(-0.00192098 -0.106902 0)
(-0.00278198 -0.106217 0)
(-0.00383608 -0.105404 0)
(-0.00496211 -0.104414 0)
(-0.00618286 -0.103231 0)
(-0.00754946 -0.101918 0)
(-0.0091125 -0.100494 0)
(-0.0109481 -0.0990014 0)
(-0.0130766 -0.0974612 0)
(-0.0154218 -0.0958009 0)
(-0.017935 -0.0939156 0)
(-0.0206479 -0.0918096 0)
(-0.0235015 -0.0895118 0)
(-0.0264813 -0.0870132 0)
(-0.0295847 -0.0842996 0)
(-0.0327814 -0.0813717 0)
(-0.0360575 -0.0781707 0)
(-0.0394233 -0.0746554 0)
(-0.0428982 -0.0708317 0)
(-0.0465467 -0.0667332 0)
(-0.0502866 -0.0622848 0)
(-3.59479e-05 -0.093697 0)
(-0.000639751 -0.106623 0)
(-0.00166035 -0.10642 0)
(-0.00243771 -0.105684 0)
(-0.00341861 -0.104822 0)
(-0.00442471 -0.103774 0)
(-0.00542801 -0.102459 0)
(-0.00647476 -0.100933 0)
(-0.00766594 -0.0992206 0)
(-0.0090294 -0.0973024 0)
(-0.0106389 -0.0952441 0)
(-0.0126017 -0.0931706 0)
(-0.014931 -0.0911097 0)
(-0.0176204 -0.0890305 0)
(-0.0205222 -0.0867829 0)
(-0.023462 -0.0842365 0)
(-0.0264421 -0.0814233 0)
(-0.029456 -0.0783196 0)
(-0.0325216 -0.0749461 0)
(-0.0356538 -0.0713138 0)
(-0.0388502 -0.0674041 0)
(-0.0421758 -0.063207 0)
(-0.0456225 -0.0586912 0)
(0.000187051 -0.0932037 0)
(-0.000479935 -0.105404 0)
(-0.00176656 -0.105175 0)
(-0.00261613 -0.104403 0)
(-0.00367266 -0.103483 0)
(-0.00468066 -0.102398 0)
(-0.0057398 -0.101188 0)
(-0.00680767 -0.0997262 0)
(-0.00789214 -0.0979782 0)
(-0.00902612 -0.0959727 0)
(-0.01024 -0.0937607 0)
(-0.0115968 -0.0913623 0)
(-0.0131672 -0.0888327 0)
(-0.0149754 -0.086156 0)
(-0.0171278 -0.0834966 0)
(-0.0197335 -0.0809122 0)
(-0.022653 -0.0782297 0)
(-0.0257783 -0.0753221 0)
(-0.0287567 -0.0719738 0)
(-0.0317135 -0.0682922 0)
(-0.0346716 -0.0642805 0)
(-0.0377126 -0.0599762 0)
(-0.040882 -0.0553724 0)
(0.000284314 -0.0931251 0)
(-0.000688399 -0.104304 0)
(-0.00257691 -0.104067 0)
(-0.00377938 -0.103385 0)
(-0.00515811 -0.102511 0)
(-0.00638313 -0.101489 0)
(-0.00758781 -0.100279 0)
(-0.00872304 -0.0988241 0)
(-0.00977172 -0.0970906 0)
(-0.0107368 -0.0950865 0)
(-0.0116632 -0.0928059 0)
(-0.012639 -0.090316 0)
(-0.0137397 -0.0876648 0)
(-0.0149324 -0.0847902 0)
(-0.0162325 -0.0817896 0)
(-0.0177134 -0.0785973 0)
(-0.0194716 -0.0752883 0)
(-0.0216504 -0.0720461 0)
(-0.0244071 -0.0688373 0)
(-0.0273413 -0.0653477 0)
(-0.0302427 -0.0613901 0)
(-0.0330872 -0.0570377 0)
(-0.0360192 -0.0523315 0)
(0.000261115 -0.0930867 0)
(-0.00139923 -0.102783 0)
(-0.00418137 -0.102544 0)
(-0.00609652 -0.102038 0)
(-0.00814411 -0.101293 0)
(-0.00988299 -0.100304 0)
(-0.0115395 -0.0991487 0)
(-0.0129968 -0.0977991 0)
(-0.0142605 -0.0962459 0)
(-0.0152497 -0.0944224 0)