/*--------------------------------*- C++ -*----------------------------------*\
| =========                 |                                                 |
| \\      /  F ield         | OpenFOAM: The Open Source CFD Toolbox           |
|  \\    /   O peration     | Version:  2.4.0                                 |
|   \\  /    A nd           | Web:      www.OpenFOAM.org                      |
|    \\/     M anipulation  |                                                 |
\*---------------------------------------------------------------------------*/
FoamFile
{
    version     2.0;
    format      ascii;
    class       volVectorField;
    location    "0.5";
    object      U.air;
}
// * * * * * * * * * * * * * * * * * * * * * * * * * * * * * * * * * * * * * //

dimensions      [0 1 -1 0 0 0 0];

internalField   nonuniform List<vector> 
2268
(
(0.0163665 -0.00734932 0)
(0.0462288 -0.00773224 0)
(0.0797791 -0.00593924 0)
(0.103258 -0.00956876 0)
(0.150796 -0.00635262 0)
(0.168165 -0.00632622 0)
(0.196276 -0.00805482 0)
(0.237499 -0.00871009 0)
(0.274912 -0.00702273 0)
(0.296988 -0.00418414 0)
(0.308903 -0.00427781 0)
(0.337237 -0.0057116 0)
(0.356355 -0.00523791 0)
(0.38146 -0.00660039 0)
(0.381693 -0.00965577 0)
(0.36917 -0.00962421 0)
(0.340716 0.0035145 0)
(0.281057 0.00474308 0)
(0.22262 0.0142011 0)
(0.155218 0.00344257 0)
(0.126909 0.0149484 0)
(0.0653033 0.0161401 0)
(-0.00345883 0.00696008 0)
(0.0165295 -0.022346 0)
(0.0458198 -0.0238688 0)
(0.0809457 -0.0176188 0)
(0.104737 -0.0299505 0)
(0.147904 -0.0187146 0)
(0.168789 -0.0185049 0)
(0.199357 -0.027175 0)
(0.238385 -0.0255078 0)
(0.273058 -0.0234164 0)
(0.292036 -0.0123676 0)
(0.315165 -0.0132833 0)
(0.344169 -0.0168163 0)
(0.36477 -0.0128374 0)
(0.37552 -0.00107375 0)
(0.383371 0.0195249 0)
(0.373022 0.036597 0)
(0.342813 0.043503 0)
(0.290201 0.0541182 0)
(0.219412 0.0464772 0)
(0.174837 0.0390653 0)
(0.116595 0.0283564 0)
(0.0758199 0.0406838 0)
(-0.00362193 0.0214341 0)
(0.0166592 -0.0380147 0)
(0.0455643 -0.0400079 0)
(0.0814409 -0.03238 0)
(0.106658 -0.0467586 0)
(0.143209 -0.0341925 0)
(0.172831 -0.0352121 0)
(0.202037 -0.0440112 0)
(0.239784 -0.042265 0)
(0.266627 -0.0394515 0)
(0.287719 -0.0289789 0)
(0.325387 -0.0348737 0)
(0.356393 -0.0368145 0)
(0.372807 -0.0328687 0)
(0.386938 -0.0248742 0)
(0.384058 -0.0186543 0)
(0.371894 0.000663673 0)
(0.338459 0.0379701 0)
(0.297716 0.0626346 0)
(0.217946 0.0691314 0)
(0.181454 0.054391 0)
(0.128865 0.055902 0)
(0.102351 0.0683326 0)
(0.0406488 0.0496738 0)
(0.0168497 -0.0424757 0)
(0.0449765 -0.04406 0)
(0.0816091 -0.0357491 0)
(0.108199 -0.0502275 0)
(0.138951 -0.0357675 0)
(0.175194 -0.037346 0)
(0.203488 -0.0459265 0)
(0.239089 -0.0381428 0)
(0.257243 -0.0332021 0)
(0.291799 -0.0248075 0)
(0.331318 -0.0290291 0)
(0.352877 -0.0202863 0)
(0.364621 -0.00830399 0)
(0.376154 0.0108494 0)
(0.376585 0.0423626 0)
(0.386125 0.081355 0)
(0.364839 0.0968907 0)
(0.318113 0.110364 0)
(0.249801 0.094387 0)
(0.178747 0.0739064 0)
(0.114179 0.0634028 0)
(0.0929282 0.0874954 0)
(0.0277536 0.0818941 0)
(0.0172138 -0.101443 0)
(0.0436386 -0.104531 0)
(0.0815608 -0.0972422 0)
(0.110378 -0.113565 0)
(0.131626 -0.102073 0)
(0.176432 -0.109339 0)
(0.206152 -0.12459 0)
(0.226982 -0.118079 0)
(0.254188 -0.124329 0)
(0.2981 -0.121268 0)
(0.323848 -0.131765 0)
(0.347445 -0.118914 0)
(0.370338 -0.11212 0)
(0.392389 -0.0863208 0)
(0.394463 -0.0607136 0)
(0.385526 -0.0219455 0)
(0.354408 0.0632265 0)
(0.321068 0.137513 0)
(0.25524 0.146886 0)
(0.188366 0.117925 0)
(0.0932938 0.0985949 0)
(0.067251 0.0964995 0)
(0.0381705 0.10507 0)
(0.014142 -0.176345 0)
(0.0373753 -0.175657 0)
(0.0678476 -0.176226 0)
(0.0982389 -0.171679 0)
(0.109427 -0.174751 0)
(0.142411 -0.174444 0)
(0.166883 -0.155018 0)
(0.187962 -0.146684 0)
(0.210508 -0.136899 0)
(0.240627 -0.122971 0)
(0.257476 -0.0966735 0)
(0.276513 -0.074993 0)
(0.302335 -0.0485849 0)
(0.309575 -0.0303512 0)
(0.312667 -0.00263572 0)
(0.32826 0.0143639 0)
(0.319082 0.0494726 0)
(0.302879 0.122349 0)
(0.225266 0.157229 0)
(0.180314 0.145056 0)
(0.0918965 0.120361 0)
(0.0389897 0.121813 0)
(0.0214082 0.136806 0)
(0.000722159 -0.0620315 0)
(0.00845831 -0.0660327 0)
(0.00872577 -0.0682392 0)
(0.0193883 -0.0780414 0)
(0.0235122 -0.0791134 0)
(0.0298481 -0.0961598 0)
(0.0461327 -0.111887 0)
(0.0614545 -0.119142 0)
(0.0815674 -0.132278 0)
(0.101817 -0.13675 0)
(0.115027 -0.144274 0)
(0.119513 -0.147782 0)
(0.115247 -0.146528 0)
(0.113712 -0.142572 0)
(0.131163 -0.132668 0)
(0.203129 -0.0352548 0)
(0.255823 0.0902545 0)
(0.21226 0.133944 0)
(0.162861 0.174413 0)
(0.141624 0.16896 0)
(0.0979093 0.152227 0)
(0.0338984 0.129634 0)
(0.0206268 0.141821 0)
(9.18147e-05 -0.122101 0)
(0.00386284 -0.120728 0)
(0.00469241 -0.122851 0)
(0.0110847 -0.114895 0)
(0.0157165 -0.116671 0)
(0.0303081 -0.120199 0)
(0.0465666 -0.106204 0)
(0.059943 -0.101139 0)
(0.090737 -0.0962738 0)
(0.117693 -0.0823375 0)
(0.140207 -0.0559362 0)
(0.156873 -0.0335648 0)
(0.161873 0.00022615 0)
(0.149085 0.0386645 0)
(0.0891083 0.0809589 0)
(-0.00113366 0.030311 0)
(0.108203 0.0129025 0)
(0.116685 0.135298 0)
(0.0400639 0.148582 0)
(0.0481379 0.167255 0)
(0.0663232 0.175061 0)
(0.0475373 0.150034 0)
(0.0272149 0.167086 0)
(-0.123203 -0.0868834 0)
(-0.224833 -0.152294 0)
(-0.328744 -0.229082 0)
(-0.408619 -0.35005 0)
(-0.401222 -0.428812 0)
(-0.292791 -0.496443 0)
(-0.185487 -0.548013 0)
(-0.0897131 -0.579745 0)
(-0.00457989 -0.575726 0)
(0.0391271 -0.522042 0)
(-0.0030747 -0.49587 0)
(0.0285833 -0.364269 0)
(0.105033 -0.396973 0)
(0.17164 -0.291206 0)
(0.273807 -0.312537 0)
(0.344196 -0.436311 0)
(0.439212 -0.206119 0)
(0.351626 -0.206233 0)
(0.307954 -0.141104 0)
(-0.0347951 -0.0373084 0)
(-0.0669674 -0.0639887 0)
(-0.0689737 -0.0349389 0)
(-0.0762994 0.0172445 0)
(-0.0721075 0.0213709 0)
(0.0549165 -0.0816677 0)
(0.22098 -0.13195 0)
(0.332438 -0.143775 0)
(0.464691 -0.134703 0)
(0.656756 -0.069425 0)
(0.761402 0.350473 0)
(0.478527 0.966786 0)
(0.143611 1.1608 0)
(0.111508 1.22824 0)
(0.127891 0.399076 0)
(0.345285 -0.438555 0)
(0.687976 -0.411419 0)
(0.613818 -0.0372416 0)
(0.425708 0.204667 0)
(0.00710769 -0.0566273 0)
(0.0740353 -0.165554 0)
(0.137435 -0.180535 0)
(0.161447 -0.174923 0)
(0.293189 -0.272687 0)
(0.482238 -0.375728 0)
(0.581086 -0.400661 0)
(0.674253 -0.365494 0)
(0.761075 -0.358887 0)
(0.993882 -0.389251 0)
(1.71429 0.187013 0)
(1.66889 0.111516 0)
(0.568289 -0.368008 0)
(0.22255 -0.498666 0)
(-0.390906 -0.295164 0)
(0.0288263 -0.421667 0)
(0.476685 -0.358794 0)
(0.482134 -0.0768732 0)
(0.377806 0.338746 0)
(0.0659897 -0.120236 0)
(0.182352 -0.240684 0)
(0.327888 -0.227544 0)
(0.40574 -0.212106 0)
(0.571058 -0.277495 0)
(0.75198 -0.353221 0)
(0.831275 -0.319147 0)
(0.869047 -0.210501 0)
(0.887194 -0.05485 0)
(1.28894 0.358206 0)
(1.97979 0.46896 0)
(2.45342 0.403645 0)
(3.5063 1.05145 0)
(0.587523 1.16177 0)
(-0.361657 0.568396 0)
(-0.223467 0.357609 0)
(0.292688 -0.0853259 0)
(0.301145 -0.218711 0)
(0.353143 0.351528 0)
(0.101458 -0.170197 0)
(0.235483 -0.289861 0)
(0.384543 -0.282977 0)
(0.510792 -0.273822 0)
(0.684219 -0.362154 0)
(0.785335 -0.422141 0)
(0.831158 -0.408661 0)
(0.853096 -0.303245 0)
(0.87683 -0.0643196 0)
(1.17819 0.0930089 0)
(1.35529 -0.248176 0)
(1.24476 -0.240098 0)
(2.45743 0.625414 0)
(0.469864 0.70953 0)
(-1.12797 0.1615 0)
(-0.313807 -0.275924 0)
(-0.210457 0.181084 0)
(0.240599 0.0654276 0)
(0.235187 0.393313 0)
(0.1719 -0.0413502 0)
(0.272838 -0.174926 0)
(0.371796 -0.181349 0)
(0.519491 -0.283381 0)
(0.667438 -0.368688 0)
(0.729122 -0.40893 0)
(0.775239 -0.393381 0)
(0.814287 -0.274829 0)
(0.853433 0.066963 0)
(0.943447 0.106967 0)
(0.879861 -0.19413 0)
(0.575277 -0.312616 0)
(1.30097 0.693519 0)
(0.523375 1.32829 0)
(-0.00704084 0.303139 0)
(-0.0126068 -0.45383 0)
(0.0983542 -0.0454947 0)
(0.0862444 0.428497 0)
(0.0800748 0.443458 0)
(0.229818 0.206048 0)
(0.327503 0.0334631 0)
(0.443821 0.0624077 0)
(0.5382 -0.135461 0)
(0.604953 -0.370635 0)
(0.639878 -0.422771 0)
(0.661448 -0.412987 0)
(0.692206 -0.357886 0)
(0.718664 -0.261004 0)
(0.776502 -0.136487 0)
(0.518478 -0.115665 0)
(0.129809 -0.253665 0)
(-0.235299 1.21353 0)
(1.08525 1.03842 0)
(0.986562 0.0878588 0)
(0.650883 -0.446631 0)
(0.49995 0.0366845 0)
(0.0543405 0.814567 0)
(0.112582 0.510791 0)
(0.260212 0.0258109 0)
(0.322929 -0.0258007 0)
(0.435765 0.0399727 0)
(0.547166 0.0564785 0)
(0.583125 -0.206505 0)
(0.585023 -0.34523 0)
(0.607149 -0.417965 0)
(0.637746 -0.411912 0)
(0.674999 -0.415165 0)
(0.685061 -0.233551 0)
(0.436696 0.0262228 0)
(0.151986 0.015705 0)
(-0.263806 0.681565 0)
(1.56514 1.86259 0)
(2.31003 1.59862 0)
(1.18659 0.18158 0)
(0.844301 0.382504 0)
(0.149497 1.02303 0)
(0.142536 0.612849 0)
(0.000236931 -0.0475586 0)
(0.00231518 -0.0494489 0)
(0.00427445 -0.0537818 0)
(0.00870321 -0.0520846 0)
(0.012565 -0.0574067 0)
(0.0217834 -0.0756608 0)
(0.0395292 -0.0734373 0)
(0.0557207 -0.0824882 0)
(0.0870012 -0.0913451 0)
(0.106917 -0.0872949 0)
(0.118899 -0.0784781 0)
(0.129725 -0.0831818 0)
(0.131368 -0.0786521 0)
(0.145105 -0.07928 0)
(0.169806 -0.0483209 0)
(0.19147 0.0277237 0)
(0.141835 0.182635 0)
(0.159236 0.18493 0)
(0.0507017 0.214381 0)
(-0.0274048 0.120788 0)
(-0.00953992 0.133427 0)
(0.052728 0.139963 0)
(0.118994 0.154675 0)
(0.00129941 -0.107817 0)
(0.00478404 -0.109959 0)
(0.00854383 -0.111051 0)
(0.0121275 -0.111633 0)
(0.0203008 -0.116963 0)
(0.0227948 -0.136752 0)
(0.0396541 -0.139265 0)
(0.0606602 -0.15876 0)
(0.0986725 -0.157363 0)
(0.119151 -0.142858 0)
(0.139572 -0.117425 0)
(0.170311 -0.0965795 0)
(0.174163 -0.0507621 0)
(0.181322 -0.0142972 0)
(0.158041 0.0191558 0)
(0.135201 0.0270181 0)
(0.149995 0.0748668 0)
(0.170788 0.189582 0)
(0.20107 0.27251 0)
(0.064284 0.188633 0)
(0.0287667 0.0741465 0)
(0.0472219 0.00651376 0)
(0.100208 0.0167874 0)
(0.00215731 -0.0137871 0)
(0.00606861 -0.0239801 0)
(0.00974604 -0.0555796 0)
(0.00820539 -0.100375 0)
(0.00900396 -0.113572 0)
(0.0069186 -0.124344 0)
(0.0309853 -0.135874 0)
(0.0638705 -0.167613 0)
(0.115591 -0.161715 0)
(0.143253 -0.148618 0)
(0.176911 -0.121072 0)
(0.200267 -0.100732 0)
(0.213222 -0.0496757 0)
(0.242976 -0.0228932 0)
(0.237279 0.0202608 0)
(0.25465 0.0782676 0)
(0.23666 0.139358 0)
(0.231031 0.211204 0)
(0.298135 0.275156 0)
(0.350536 0.259607 0)
(0.277946 0.142646 0)
(0.235429 0.0419684 0)
(0.236141 -0.0593104 0)
(-0.0106805 0.272843 0)
(-0.0357203 0.258058 0)
(-0.0326874 0.211723 0)
(-0.0036778 0.138138 0)
(0.0157888 0.0959852 0)
(-0.0040633 0.0421494 0)
(0.00392103 -0.0299172 0)
(0.0394089 -0.0784505 0)
(0.0967513 -0.0228775 0)
(0.125445 0.00027983 0)
(0.162863 -0.126741 0)
(0.167512 -0.126009 0)
(0.19125 -0.0779952 0)
(0.213087 -0.048062 0)
(0.220373 0.00345086 0)
(0.25493 0.0348836 0)
(0.254087 0.104621 0)
(0.297054 0.137865 0)
(0.353774 0.207761 0)
(0.446484 0.187336 0)
(0.516402 0.153224 0)
(0.564509 0.068604 0)
(0.624055 -0.0319136 0)
(0.00449009 0.136672 0)
(0.00362974 0.152475 0)
(0.0106486 0.202919 0)
(-0.0235991 0.283471 0)
(-0.111481 0.337274 0)
(-0.147065 0.283016 0)
(-0.0967182 0.211822 0)
(-0.0729184 0.222575 0)
(-0.0670868 0.213787 0)
(-0.054226 0.226515 0)
(0.00703543 0.0313628 0)
(0.0329418 -0.0039879 0)
(0.0802614 0.003126 0)
(0.126735 0.0222895 0)
(0.143759 0.0668875 0)
(0.208316 0.113091 0)
(0.222454 0.118137 0)
(0.276923 0.103427 0)
(0.329183 0.131531 0)
(0.412164 0.106962 0)
(0.483708 0.0825559 0)
(0.554039 -0.0186822 0)
(0.646945 -0.0991237 0)
(-0.000758765 0.601848 0)
(-0.0292643 0.541732 0)
(-0.0470503 0.347514 0)
(0.00788811 0.0994783 0)
(0.0571398 -0.0229337 0)
(0.000503952 -0.118116 0)
(-0.134924 -0.1391 0)
(-0.342886 -0.0381131 0)
(-0.516648 0.0734264 0)
(-0.536696 0.0931513 0)
(-0.459678 0.176083 0)
(-0.451562 0.20328 0)
(-0.396455 0.201545 0)
(-0.324554 0.211095 0)
(-0.21607 0.233483 0)
(-0.110543 0.238771 0)
(0.0149873 0.222148 0)
(0.133471 0.158168 0)
(0.224246 0.156345 0)
(0.283145 0.119886 0)
(0.397659 0.105913 0)
(0.459098 0.00843178 0)
(0.514291 -0.0337272 0)
(0.0592135 -0.486354 0)
(0.158675 -0.416235 0)
(0.297409 -0.248695 0)
(0.315907 0.0624939 0)
(0.597765 0.476559 0)
(0.34017 0.941747 0)
(0.111292 1.44864 0)
(-0.441038 1.26981 0)
(-0.663625 0.398763 0)
(-0.649178 -0.109866 0)
(-0.58707 -0.234618 0)
(-0.514639 -0.15735 0)
(-0.479345 -0.0678694 0)
(-0.422988 0.0524522 0)
(-0.398631 0.142248 0)
(-0.354704 0.214269 0)
(-0.308513 0.247632 0)
(-0.221072 0.270485 0)
(-0.0454385 0.333586 0)
(0.0419345 0.292594 0)
(0.191858 0.278309 0)
(0.256891 0.231623 0)
(0.323548 0.163753 0)
(-0.0714086 -0.148636 0)
(-0.161646 -0.208088 0)
(-0.225691 -0.3342 0)
(-0.290887 -0.469008 0)
(-0.264019 -0.496058 0)
(-0.0531449 -0.366402 0)
(0.286849 -0.438069 0)
(0.63875 -0.253503 0)
(0.627943 -0.212655 0)
(0.300859 -0.0597485 0)
(0.0364741 0.210792 0)
(-0.202706 0.481946 0)
(-0.300091 0.273533 0)
(-0.299483 -0.0240224 0)
(-0.274247 -0.110812 0)
(-0.238008 -0.10639 0)
(-0.248238 -0.110432 0)
(-0.220208 -0.088994 0)
(-0.189043 -0.0475881 0)
(-0.140137 -0.0787066 0)
(-0.0754669 -0.0718459 0)
(-0.0109398 -0.117123 0)
(0.0695085 -0.159891 0)
(-0.018642 0.0802128 0)
(-0.0386652 0.0405912 0)
(-0.0513056 0.0227355 0)
(-0.0424928 0.0112143 0)
(-0.0924744 0.0722462 0)
(0.0882289 0.112383 0)
(0.0439969 0.155715 0)
(0.297533 0.442216 0)
(0.0608394 0.412633 0)
(0.0554223 -0.0875669 0)
(-0.0451251 -0.402004 0)
(0.133137 -0.517224 0)
(0.273584 -0.446857 0)
(0.357216 -0.19441 0)
(0.399485 0.0187957 0)
(0.504531 0.211899 0)
(0.45032 0.687326 0)
(0.309972 0.893759 0)
(0.221897 0.831641 0)
(0.147697 0.728764 0)
(0.141521 0.454662 0)
(0.170728 0.523814 0)
(0.132235 0.432748 0)
(0.0036779 -0.21219 0)
(0.00312331 -0.249056 0)
(-0.00772788 -0.289119 0)
(-0.0175194 -0.332605 0)
(-0.0474422 -0.375327 0)
(0.0155901 -0.333315 0)
(-0.0206399 -0.413805 0)
(0.114241 0.116888 0)
(0.229553 0.285956 0)
(0.26483 0.1562 0)
(0.0203238 0.00769266 0)
(0.013786 -0.160745 0)
(0.00434432 -0.28509 0)
(0.0244876 -0.374423 0)
(0.0407253 -0.453516 0)
(0.00673593 -0.536361 0)
(0.137978 -0.681859 0)
(0.309406 -0.809033 0)
(0.473155 -0.775857 0)
(0.603109 -0.7414 0)
(0.591591 -0.635627 0)
(0.562597 -0.641416 0)
(0.554484 -0.653736 0)
(-0.0126615 0.0625959 0)
(-0.0224799 0.00149342 0)
(-0.0277383 -0.0462171 0)
(-0.0373435 -0.0892654 0)
(-0.0556016 -0.118762 0)
(-0.0524597 -0.111523 0)
(-0.0867285 -0.153853 0)
(-0.0944381 -0.0487499 0)
(0.201709 0.142375 0)
(0.234703 0.0894827 0)
(0.248869 -0.036753 0)
(0.241093 -0.258813 0)
(0.215192 -0.283141 0)
(0.218297 -0.255462 0)
(0.252604 -0.162672 0)
(0.285988 -0.0350166 0)
(0.305981 0.134328 0)
(0.287579 0.181624 0)
(0.259789 0.150902 0)
(0.226827 0.137806 0)
(0.197431 0.0470215 0)
(0.19849 0.0113792 0)
(0.201901 -0.031152 0)
(0.0133885 -0.126599 0)
(0.0317841 -0.162553 0)
(0.032758 -0.184379 0)
(0.0234597 -0.203344 0)
(0.00118012 -0.212425 0)
(-0.0157777 -0.200349 0)
(-0.046849 -0.190535 0)
(-0.06888 -0.108716 0)
(-0.0106698 0.0255606 0)
(0.138272 0.0609334 0)
(0.165221 -0.0516579 0)
(0.193249 -0.237191 0)
(0.144326 -0.311501 0)
(0.101208 -0.350784 0)
(0.0800681 -0.381686 0)
(0.0795808 -0.405504 0)
(0.117211 -0.415625 0)
(0.175256 -0.412848 0)
(0.210967 -0.365174 0)
(0.24571 -0.290809 0)
(0.241265 -0.251064 0)
(0.213179 -0.271196 0)
(0.157222 -0.285415 0)
(0.0045805 -0.0372426 0)
(0.0140737 -0.0817403 0)
(0.0193261 -0.110632 0)
(0.0157057 -0.136218 0)
(0.00185604 -0.153563 0)
(-0.016256 -0.158324 0)
(-0.0408305 -0.161267 0)
(-0.0508326 -0.132782 0)
(-0.0447448 -0.0841277 0)
(0.0661812 -0.0445055 0)
(0.109326 -0.101584 0)
(0.114113 -0.181045 0)
(0.0866312 -0.223982 0)
(0.0554345 -0.247311 0)
(0.0327535 -0.241249 0)
(0.00968693 -0.211472 0)
(-0.00786224 -0.17907 0)
(-0.0211348 -0.167244 0)
(-0.0303168 -0.160714 0)
(-0.0199617 -0.152166 0)
(0.00655117 -0.156898 0)
(0.0144396 -0.167981 0)
(0.01593 -0.17364 0)
(0.00782229 -0.0957965 0)
(0.0194717 -0.124375 0)
(0.0244384 -0.133841 0)
(0.0204519 -0.140196 0)
(0.00979259 -0.141229 0)
(-0.00354036 -0.137458 0)
(-0.0177552 -0.131931 0)
(-0.0238001 -0.114028 0)
(-0.0197611 -0.103438 0)
(0.0228113 -0.0922649 0)
(0.0567248 -0.137074 0)
(0.0418394 -0.191716 0)
(0.0177122 -0.231825 0)
(-0.00867598 -0.260162 0)
(-0.0338011 -0.269598 0)
(-0.0523131 -0.260302 0)
(-0.0635328 -0.2457 0)
(-0.0728336 -0.228281 0)
(-0.0794655 -0.199413 0)
(-0.0802278 -0.168517 0)
(-0.0781287 -0.151812 0)
(-0.0764079 -0.151953 0)
(-0.0724987 -0.15309 0)
(0.00512195 -0.0976739 0)
(0.0120445 -0.125855 0)
(0.012846 -0.132196 0)
(0.00762948 -0.133516 0)
(0.00128223 -0.132581 0)
(-0.00460322 -0.131052 0)
(-0.010538 -0.127324 0)
(-0.00977015 -0.120544 0)
(-0.00493587 -0.116644 0)
(0.0114629 -0.108627 0)
(0.0262471 -0.12876 0)
(0.0165668 -0.156136 0)
(-0.00395405 -0.193612 0)
(-0.0293262 -0.224988 0)
(-0.0569232 -0.237329 0)
(-0.0726386 -0.23532 0)
(-0.0825716 -0.227545 0)
(-0.092633 -0.221303 0)
(-0.100109 -0.209778 0)
(-0.0984691 -0.201527 0)
(-0.0945877 -0.195659 0)
(-0.0894969 -0.191507 0)
(-0.0856159 -0.187306 0)
(0.00309708 -0.103266 0)
(0.00455234 -0.127095 0)
(0.0022909 -0.128826 0)
(-0.000735661 -0.13028 0)
(-0.00294952 -0.130505 0)
(-0.00464442 -0.129406 0)
(-0.00507847 -0.127086 0)
(-0.00185346 -0.124722 0)
(0.000994101 -0.12455 0)
(0.00990696 -0.120871 0)
(0.0170574 -0.131606 0)
(0.0127911 -0.14712 0)
(0.00280542 -0.169871 0)
(-0.0200401 -0.192267 0)
(-0.0479044 -0.20884 0)
(-0.0669701 -0.216489 0)
(-0.079015 -0.213695 0)
(-0.0861832 -0.207009 0)
(-0.0879326 -0.193794 0)
(-0.0903358 -0.187047 0)
(-0.0942331 -0.184002 0)
(-0.0947648 -0.179635 0)
(-0.0929341 -0.17514 0)
(0.00163091 -0.105538 0)
(0.000955059 -0.126041 0)
(-0.000304551 -0.127194 0)
(-0.0016354 -0.128793 0)
(-0.00298548 -0.129963 0)
(-0.0032315 -0.129581 0)
(-0.00206863 -0.129131 0)
(0.000719216 -0.128497 0)
(0.00313424 -0.129014 0)
(0.00874071 -0.12725 0)
(0.013408 -0.133216 0)
(0.0134987 -0.144495 0)
(0.0114526 -0.162309 0)
(0.000598507 -0.177437 0)
(-0.0171225 -0.189973 0)
(-0.0336491 -0.200216 0)
(-0.0498553 -0.204092 0)
(-0.0618592 -0.204962 0)
(-0.0710356 -0.194829 0)
(-0.077599 -0.183823 0)
(-0.0899264 -0.181449 0)
(-0.0967954 -0.18146 0)
(-0.099605 -0.177698 0)
(0.000579904 -0.106221 0)
(0.000188206 -0.125202 0)
(-0.000140255 -0.126058 0)
(-0.000228354 -0.12741 0)
(-0.000961646 -0.128832 0)
(-0.00155456 -0.130092 0)
(-0.00149287 -0.130657 0)
(-0.000167079 -0.131077 0)
(0.00136621 -0.132177 0)
(0.00404802 -0.1319 0)
(0.00863153 -0.136993 0)
(0.010103 -0.146055 0)
(0.00802714 -0.157215 0)
(0.00012586 -0.166015 0)
(-0.011468 -0.177302 0)
(-0.0228753 -0.185562 0)
(-0.0405793 -0.188517 0)
(-0.0551523 -0.186361 0)
(-0.0664109 -0.181522 0)
(-0.0759212 -0.170755 0)
(-0.085725 -0.165759 0)
(-0.0986178 -0.167316 0)
(-0.105032 -0.167904 0)
(0.000143663 -0.105754 0)
(0.00041714 -0.124717 0)
(0.000559605 -0.12598 0)
(-5.24078e-05 -0.127413 0)
(-0.000917892 -0.128312 0)
(-0.00267055 -0.129626 0)
(-0.0042784 -0.130392 0)
(-0.00554709 -0.13162 0)
(-0.00643259 -0.133149 0)
(-0.00579064 -0.135777 0)
(-0.00407381 -0.140005 0)
(-0.00269864 -0.146458 0)
(-0.00539731 -0.15275 0)
(-0.0099756 -0.160268 0)
(-0.0190392 -0.167969 0)
(-0.0306962 -0.169815 0)
(-0.0474198 -0.172188 0)
(-0.0606499 -0.17354 0)
(-0.0704053 -0.171766 0)
(-0.0820678 -0.163399 0)
(-0.0910407 -0.157677 0)
(-0.0997557 -0.163017 0)
(-0.105068 -0.166808 0)
(0.000435639 -0.106141 0)
(0.000109912 -0.124698 0)
(-0.00096735 -0.12472 0)
(-0.00255241 -0.125367 0)
(-0.00385651 -0.126157 0)
(-0.00546948 -0.127018 0)
(-0.00696308 -0.12832 0)
(-0.00834859 -0.129745 0)
(-0.00967296 -0.132123 0)
(-0.0109636 -0.135267 0)
(-0.0127704 -0.138562 0)
(-0.0145987 -0.14249 0)
(-0.0191812 -0.147593 0)
(-0.0245477 -0.153102 0)
(-0.0321622 -0.155879 0)
(-0.0405389 -0.157176 0)
(-0.0495556 -0.161955 0)
(-0.0589632 -0.165258 0)
(-0.070369 -0.161191 0)
(-0.0797593 -0.153588 0)
(-0.0845451 -0.149196 0)
(-0.0920998 -0.154361 0)
(-0.097095 -0.157954 0)
(5.44601e-05 -0.106426 0)
(-0.00070054 -0.123361 0)
(-0.00230213 -0.123444 0)
(-0.00303867 -0.124135 0)
(-0.0042195 -0.124733 0)
(-0.00499997 -0.125216 0)
(-0.00599196 -0.126327 0)
(-0.00740269 -0.127365 0)
(-0.00920884 -0.128814 0)
(-0.0118085 -0.132034 0)
(-0.0152918 -0.136327 0)
(-0.0182855 -0.140655 0)
(-0.0235439 -0.142988 0)
(-0.0299632 -0.146689 0)
(-0.0364819 -0.149003 0)
(-0.0436686 -0.151505 0)
(-0.0497381 -0.151611 0)
(-0.0597589 -0.150718 0)
(-0.070838 -0.149296 0)
(-0.0798232 -0.145234 0)
(-0.086583 -0.14369 0)
(-0.0937323 -0.148299 0)
(-0.100163 -0.151029 0)
(-0.000266517 -0.105515 0)
(-0.00137643 -0.122539 0)
(-0.00177531 -0.12277 0)
(-0.00269785 -0.12367 0)
(-0.0037354 -0.124069 0)
(-0.00484358 -0.124656 0)
(-0.0060933 -0.125406 0)
(-0.00739008 -0.126459 0)
(-0.00873925 -0.128192 0)
(-0.0107116 -0.130238 0)
(-0.0145672 -0.132867 0)
(-0.0181622 -0.135415 0)
(-0.0222801 -0.137035 0)
(-0.0281508 -0.140183 0)
(-0.034546 -0.142704 0)
(-0.0420165 -0.145188 0)
(-0.0491359 -0.146227 0)
(-0.0569001 -0.144389 0)
(-0.0647231 -0.1438 0)
(-0.0709578 -0.139927 0)
(-0.0779712 -0.13847 0)
(-0.0832933 -0.142277 0)
(-0.0932611 -0.145292 0)
(-0.000126936 -0.105086 0)
(-0.00102127 -0.121532 0)
(-0.00250786 -0.121652 0)
(-0.00391665 -0.121923 0)
(-0.00545616 -0.122585 0)
(-0.00703332 -0.12358 0)
(-0.00850307 -0.1245 0)
(-0.0100216 -0.125428 0)
(-0.0117423 -0.126132 0)
(-0.0138581 -0.127133 0)
(-0.0158839 -0.128543 0)
(-0.0205625 -0.1301 0)
(-0.0246681 -0.133076 0)
(-0.0286883 -0.134093 0)
(-0.0339805 -0.135417 0)
(-0.0406135 -0.135457 0)
(-0.049468 -0.134753 0)
(-0.0579082 -0.135185 0)
(-0.0643542 -0.133361 0)
(-0.0716301 -0.130277 0)
(-0.0793576 -0.129156 0)
(-0.0849503 -0.130432 0)
(-0.0945129 -0.12919 0)
(-0.000496952 -0.103919 0)
(-0.00191116 -0.120094 0)
(-0.00343777 -0.120275 0)
(-0.00486024 -0.120732 0)
(-0.0063368 -0.1211 0)
(-0.00789325 -0.121453 0)
(-0.00975955 -0.122147 0)
(-0.0118522 -0.123154 0)
(-0.0141404 -0.124387 0)
(-0.0164688 -0.124694 0)
(-0.0196989 -0.125734 0)
(-0.0234655 -0.128011 0)
(-0.0281643 -0.12917 0)
(-0.0331758 -0.129968 0)
(-0.0385157 -0.130751 0)
(-0.0438902 -0.130147 0)
(-0.0486827 -0.130092 0)
(-0.0540279 -0.1311 0)
(-0.0611734 -0.12861 0)
(-0.0685158 -0.126688 0)
(-0.0736222 -0.125448 0)
(-0.0828371 -0.125535 0)
(-0.0911345 -0.122315 0)
(-0.000229159 -0.103542 0)
(-0.00113136 -0.119093 0)
(-0.00250765 -0.118989 0)
(-0.00388886 -0.119164 0)
(-0.00546361 -0.119435 0)
(-0.00718998 -0.119881 0)
(-0.00899687 -0.120336 0)
(-0.0110357 -0.120894 0)
(-0.0134813 -0.121536 0)
(-0.016771 -0.12266 0)
(-0.0195404 -0.123234 0)
(-0.0215794 -0.123593 0)
(-0.0254563 -0.123947 0)
(-0.0307457 -0.12492 0)
(-0.036171 -0.12527 0)
(-0.0411158 -0.124989 0)
(-0.0477526 -0.124638 0)
(-0.0548493 -0.121115 0)
(-0.0620813 -0.120131 0)
(-0.0667122 -0.11824 0)
(-0.07334 -0.117379 0)
(-0.0811904 -0.114435 0)
(-0.089014 -0.112296 0)
(-0.000550019 -0.101934 0)
(-0.0020477 -0.117218 0)
(-0.00364536 -0.117255 0)
(-0.00517201 -0.117466 0)
(-0.00685591 -0.117684 0)
(-0.00875175 -0.117999 0)
(-0.0107692 -0.118374 0)
(-0.012982 -0.11876 0)
(-0.0154354 -0.118983 0)
(-0.0180424 -0.118874 0)
(-0.0208524 -0.119087 0)
(-0.0248942 -0.119587 0)
(-0.0286591 -0.119534 0)
(-0.0319252 -0.119064 0)
(-0.0370129 -0.118616 0)
(-0.0433604 -0.119074 0)
(-0.0481959 -0.117429 0)
(-0.0530369 -0.117031 0)
(-0.0569481 -0.116581 0)
(-0.0636698 -0.113863 0)
(-0.0703035 -0.109583 0)
(-0.0782975 -0.107294 0)
(-0.0844295 -0.105866 0)
(-0.000498338 -0.10136 0)
(-0.00177861 -0.116325 0)
(-0.00331929 -0.116302 0)
(-0.00473107 -0.11638 0)
(-0.00623972 -0.116404 0)
(-0.00776101 -0.116308 0)
(-0.00958307 -0.116345 0)
(-0.0116943 -0.116461 0)
(-0.0140077 -0.116561 0)
(-0.0164989 -0.116637 0)
(-0.0198427 -0.11671 0)
(-0.0238034 -0.11636 0)
(-0.0276464 -0.116538 0)
(-0.0322655 -0.115821 0)
(-0.0357188 -0.115719 0)
(-0.0386665 -0.114703 0)
(-0.044288 -0.113463 0)
(-0.04993 -0.111474 0)
(-0.0565712 -0.107787 0)
(-0.063596 -0.105962 0)
(-0.0683712 -0.105099 0)
(-0.0738494 -0.102026 0)
(-0.0812147 -0.097013 0)
(-0.000543162 -0.0996565 0)
(-0.0018958 -0.114242 0)
(-0.00352171 -0.114198 0)
(-0.00513636 -0.11418 0)
(-0.00698279 -0.114189 0)
(-0.00896627 -0.114298 0)
(-0.0110392 -0.114352 0)
(-0.0133137 -0.11428 0)
(-0.015797 -0.114129 0)
(-0.0183875 -0.113756 0)
(-0.0208063 -0.112939 0)
(-0.0228826 -0.112576 0)
(-0.0261346 -0.112084 0)
(-0.0297962 -0.111714 0)
(-0.0345264 -0.110229 0)
(-0.0404507 -0.108805 0)
(-0.0456203 -0.107473 0)
(-0.0501093 -0.105209 0)
(-0.0542288 -0.104717 0)
(-0.0578276 -0.102743 0)
(-0.0643941 -0.0977395 0)
(-0.0714264 -0.0942814 0)
(-0.0767769 -0.0915283 0)
(-0.000522978 -0.09902 0)
(-0.00172062 -0.113415 0)
(-0.00313781 -0.113342 0)
(-0.00444094 -0.113188 0)
(-0.00586971 -0.112933 0)
(-0.00743944 -0.112608 0)
(-0.00925401 -0.112278 0)
(-0.0113022 -0.111935 0)
(-0.013633 -0.111572 0)
(-0.016336 -0.111215 0)
(-0.0195548 -0.110839 0)
(-0.0234639 -0.109973 0)
(-0.0270581 -0.108889 0)
(-0.0306695 -0.107635 0)
(-0.0341782 -0.106742 0)
(-0.0372237 -0.106038 0)
(-0.0406631 -0.104421 0)
(-0.0454934 -0.10227 0)
(-0.0508431 -0.0980456 0)
(-0.0570783 -0.0948222 0)
(-0.0619657 -0.0931686 0)
(-0.0668929 -0.0896422 0)
(-0.0726626 -0.0850295 0)
(-0.000559866 -0.097375 0)
(-0.00186477 -0.111463 0)
(-0.00340997 -0.111408 0)
(-0.0049029 -0.111213 0)
(-0.00655788 -0.110954 0)
(-0.00831375 -0.110621 0)
(-0.0101952 -0.110159 0)
(-0.0122154 -0.109561 0)
(-0.0143838 -0.108843 0)
(-0.0166934 -0.108 0)
(-0.0190437 -0.106987 0)
(-0.0212804 -0.106091 0)
(-0.0240709 -0.10525 0)
(-0.0273368 -0.104066 0)
(-0.0310021 -0.10238 0)
(-0.0354832 -0.100148 0)
(-0.0404621 -0.0979628 0)
(-0.0449713 -0.0957449 0)
(-0.0491381 -0.0943016 0)
(-0.0529506 -0.0916552 0)
(-0.0578353 -0.0876279 0)
(-0.0633405 -0.0838827 0)
(-0.0683003 -0.0798757 0)
(-0.000494755 -0.0967549 0)
(-0.00150452 -0.110662 0)
(-0.00277668 -0.110566 0)
(-0.0039695 -0.110243 0)
(-0.00535904 -0.10982 0)
(-0.00690541 -0.109304 0)
(-0.00866463 -0.108711 0)
(-0.0106481 -0.108051 0)
(-0.0128585 -0.107319 0)
(-0.0153069 -0.106516 0)
(-0.0180231 -0.105534 0)
(-0.0210401 -0.104089 0)
(-0.0241778 -0.102565 0)
(-0.0274189 -0.101076 0)
(-0.0307673 -0.0994409 0)
(-0.0340591 -0.0977328 0)
(-0.0373806 -0.095667 0)
(-0.0411456 -0.0928939 0)
(-0.0454699 -0.0894372 0)
(-0.0501124 -0.0861396 0)
(-0.0545571 -0.0830461 0)
(-0.0591503 -0.0792519 0)
(-0.0638886 -0.0748616 0)
(-0.000464603 -0.0953215 0)
(-0.00149918 -0.109009 0)
(-0.00277257 -0.108882 0)
(-0.00397083 -0.108414 0)
(-0.00533903 -0.107822 0)
(-0.00680891 -0.107085 0)
(-0.00842007 -0.106207 0)
(-0.0101918 -0.105214 0)
(-0.0121399 -0.104116 0)
(-0.0142824 -0.102922 0)
(-0.0166427 -0.101722 0)
(-0.0191399 -0.100571 0)
(-0.0217869 -0.0991294 0)
(-0.0246975 -0.0973782 0)
(-0.0278855 -0.0954391 0)
(-0.0313759 -0.0932109 0)
(-0.0351456 -0.0907471 0)
(-0.0389947 -0.0882143 0)
(-0.0427707 -0.0855112 0)
(-0.0465773 -0.082302 0)
(-0.0506642 -0.0786054 0)
(-0.0550643 -0.0746905 0)
(-0.05942 -0.0703543 0)
(-0.000352071 -0.0948387 0)
(-0.00113565 -0.108425 0)
(-0.00223371 -0.108291 0)
(-0.00322363 -0.107769 0)
(-0.00441081 -0.107117 0)
(-0.00571471 -0.106316 0)
(-0.00720136 -0.105385 0)
(-0.00888602 -0.104324 0)
(-0.0107652 -0.103124 0)
(-0.0128359 -0.101766 0)
(-0.0150938 -0.100208 0)
(-0.0175976 -0.0984795 0)
(-0.0203115 -0.0966954 0)
(-0.0231437 -0.0948041 0)
(-0.0260937 -0.0926908 0)
(-0.0291765 -0.0903761 0)
(-0.0323781 -0.0878195 0)
(-0.035755 -0.0849016 0)
(-0.0393538 -0.081666 0)
(-0.0430813 -0.0782203 0)
(-0.0468674 -0.0745673 0)
(-0.0508335 -0.0705689 0)
(-0.0548787 -0.0661583 0)
(-0.000236513 -0.0939341 0)
(-0.000912245 -0.107091 0)
(-0.00192098 -0.106902 0)
(-0.00278198 -0.106218 0)
(-0.00383608 -0.105404 0)
(-0.00496211 -0.104414 0)
(-0.00618286 -0.103231 0)
(-0.00754946 -0.101918 0)
(-0.0091125 -0.100494 0)
(-0.0109481 -0.0990014 0)
(-0.0130766 -0.0974612 0)
(-0.0154218 -0.0958009 0)
(-0.017935 -0.0939156 0)
(-0.0206479 -0.0918096 0)
(-0.0235016 -0.0895118 0)
(-0.0264813 -0.0870133 0)
(-0.0295847 -0.0842997 0)
(-0.0327814 -0.0813717 0)
(-0.0360575 -0.0781707 0)
(-0.0394233 -0.0746554 0)
(-0.0428982 -0.0708317 0)
(-0.0465467 -0.0667332 0)
(-0.0502867 -0.0622849 0)
(-3.59479e-05 -0.093697 0)
(-0.000639751 -0.106623 0)
(-0.00166035 -0.10642 0)
(-0.00243771 -0.105684 0)
(-0.00341861 -0.104822 0)
(-0.00442471 -0.103774 0)
(-0.00542801 -0.102459 0)
(-0.00647476 -0.100933 0)
(-0.00766594 -0.0992206 0)
(-0.0090294 -0.0973024 0)
(-0.0106389 -0.095244 0)
(-0.0126017 -0.0931706 0)
(-0.014931 -0.0911097 0)
(-0.0176204 -0.0890305 0)
(-0.0205222 -0.0867829 0)
(-0.023462 -0.0842365 0)
(-0.0264422 -0.0814234 0)
(-0.029456 -0.0783197 0)
(-0.0325216 -0.0749461 0)
(-0.0356538 -0.0713138 0)
(-0.0388502 -0.0674041 0)
(-0.0421759 -0.0632071 0)
(-0.0456225 -0.0586913 0)
(0.000187051 -0.0932037 0)
(-0.000479935 -0.105404 0)
(-0.00176656 -0.105175 0)
(-0.00261613 -0.104403 0)
(-0.00367266 -0.103483 0)
(-0.00468066 -0.102398 0)
(-0.0057398 -0.101188 0)
(-0.00680767 -0.0997262 0)
(-0.00789214 -0.0979782 0)
(-0.00902612 -0.0959727 0)
(-0.01024 -0.0937607 0)
(-0.0115968 -0.0913623 0)
(-0.0131672 -0.0888327 0)
(-0.0149754 -0.086156 0)
(-0.0171278 -0.0834967 0)
(-0.0197335 -0.0809123 0)
(-0.022653 -0.0782298 0)
(-0.0257784 -0.0753221 0)
(-0.0287567 -0.0719738 0)
(-0.0317135 -0.0682922 0)
(-0.0346717 -0.0642805 0)
(-0.0377126 -0.0599762 0)
(-0.040882 -0.0553724 0)
(0.000284314 -0.0931251 0)
(-0.000688399 -0.104304 0)
(-0.00257691 -0.104067 0)
(-0.00377938 -0.103385 0)
(-0.00515811 -0.102511 0)
(-0.00638313 -0.101489 0)
(-0.00758781 -0.100279 0)
(-0.00872304 -0.0988241 0)
(-0.00977172 -0.0970906 0)
(-0.0107368 -0.0950865 0)
(-0.0116632 -0.0928059 0)
(-0.012639 -0.090316 0)
(-0.0137397 -0.0876648 0)
(-0.0149324 -0.0847902 0)
(-0.0162325 -0.0817896 0)
(-0.0177134 -0.0785973 0)
(-0.0194716 -0.0752884 0)
(-0.0216505 -0.0720462 0)
(-0.0244071 -0.0688373 0)
(-0.0273413 -0.0653477 0)
(-0.0302427 -0.0613901 0)
(-0.0330872 -0.0570378 0)
(-0.0360192 -0.0523315 0)
(0.000261115 -0.0930867 0)
(-0.00139923 -0.102783 0)
(-0.00418137 -0.102544 0)
(-0.00609652 -0.102038 0)
(-0.00814411 -0.101293 0)
(-0.00988299 -0.100304 0)
(-0.0115395 -0.0991487 0)
(-0.0129968 -0.0977991 0)
(-0.0142605 -0.0962459 0)
(-0.0152497 -0.0944224 0)
(-0.0159347 -0.0922604 0)