/*--------------------------------*- C++ -*----------------------------------*\
| =========                 |                                                 |
| \\      /  F ield         | OpenFOAM: The Open Source CFD Toolbox           |
|  \\    /   O peration     | Version:  2.4.0                                 |
|   \\  /    A nd           | Web:      www.OpenFOAM.org                      |
|    \\/     M anipulation  |                                                 |
\*---------------------------------------------------------------------------*/
FoamFile
{
    version     2.0;
    format      ascii;
    class       volVectorField;
    location    "0.5";
    object      U.oil;
}
// * * * * * * * * * * * * * * * * * * * * * * * * * * * * * * * * * * * * * //

dimensions      [0 1 -1 0 0 0 0];

internalField   nonuniform List<vector> 
2268
(
(0.0163665 -0.00734932 0)
(0.0462288 -0.00773224 0)
(0.0797791 -0.00593925 0)
(0.103258 -0.00956876 0)
(0.150796 -0.00635262 0)
(0.168165 -0.00632622 0)
(0.196276 -0.00805482 0)
(0.237499 -0.00871009 0)
(0.274912 -0.00702274 0)
(0.296988 -0.00418414 0)
(0.308903 -0.00427781 0)
(0.337237 -0.00571159 0)
(0.356355 -0.00523783 0)
(0.38146 -0.00660017 0)
(0.381693 -0.00965513 0)
(0.36917 -0.00962233 0)
(0.340715 0.00351915 0)
(0.281055 0.00475153 0)
(0.222617 0.014214 0)
(0.155213 0.00346114 0)
(0.126828 0.0149832 0)
(0.0648937 0.0177843 0)
(-0.00379855 0.0199418 0)
(0.0165295 -0.022346 0)
(0.0458198 -0.0238688 0)
(0.0809457 -0.0176188 0)
(0.104737 -0.0299505 0)
(0.147904 -0.0187146 0)
(0.168789 -0.0185049 0)
(0.199357 -0.027175 0)
(0.238385 -0.0255078 0)
(0.273058 -0.0234164 0)
(0.292036 -0.0123676 0)
(0.315165 -0.0132833 0)
(0.344169 -0.0168163 0)
(0.36477 -0.0128373 0)
(0.37552 -0.00107342 0)
(0.383371 0.019526 0)
(0.373021 0.0366007 0)
(0.34281 0.0435128 0)
(0.290194 0.0541388 0)
(0.219403 0.0465122 0)
(0.174827 0.0391089 0)
(0.116506 0.0284131 0)
(0.075349 0.0423099 0)
(-0.00402641 0.0348675 0)
(0.0166592 -0.0380149 0)
(0.0455643 -0.0400081 0)
(0.0814409 -0.0323802 0)
(0.106658 -0.0467588 0)
(0.143209 -0.0341926 0)
(0.172831 -0.0352123 0)
(0.202037 -0.0440114 0)
(0.239784 -0.0422652 0)
(0.266627 -0.0394516 0)
(0.287719 -0.0289789 0)
(0.325387 -0.0348737 0)
(0.356393 -0.0368146 0)
(0.372807 -0.0328686 0)
(0.386938 -0.0248739 0)
(0.384058 -0.0186531 0)
(0.371893 0.000668193 0)
(0.338453 0.0379853 0)
(0.297701 0.0626797 0)
(0.21792 0.0692392 0)
(0.181426 0.0545354 0)
(0.128776 0.0560361 0)
(0.101826 0.0698688 0)
(0.0401728 0.0628017 0)
(0.0168494 -0.0426196 0)
(0.0449763 -0.0442263 0)
(0.0816087 -0.0358746 0)
(0.108198 -0.0504763 0)
(0.13895 -0.0359466 0)
(0.175192 -0.0375763 0)
(0.203485 -0.0461726 0)
(0.239088 -0.0383855 0)
(0.257241 -0.0334548 0)
(0.291797 -0.025064 0)
(0.331318 -0.0293113 0)
(0.352883 -0.0205637 0)
(0.364633 -0.0085674 0)
(0.376173 0.0105961 0)
(0.376587 0.0423381 0)
(0.386123 0.0813703 0)
(0.364829 0.0969305 0)
(0.318073 0.110465 0)
(0.249712 0.0946596 0)
(0.178645 0.0743036 0)
(0.114042 0.0637415 0)
(0.0923927 0.0890694 0)
(0.0272902 0.09508 0)
(0.0172135 -0.101574 0)
(0.0436386 -0.104644 0)
(0.0815602 -0.0973738 0)
(0.110377 -0.113623 0)
(0.131626 -0.102155 0)
(0.176431 -0.109375 0)
(0.206153 -0.12453 0)
(0.226982 -0.117999 0)
(0.254189 -0.124191 0)
(0.2981 -0.121084 0)
(0.323847 -0.131486 0)
(0.347442 -0.118617 0)
(0.37033 -0.111833 0)
(0.392383 -0.0861508 0)
(0.394471 -0.0608068 0)
(0.385586 -0.0222366 0)
(0.354465 0.0633673 0)
(0.320972 0.139704 0)
(0.255038 0.148723 0)
(0.188127 0.119287 0)
(0.0930613 0.0993749 0)
(0.0666942 0.0983295 0)
(0.0377262 0.118665 0)
(0.0141133 -0.159679 0)
(0.0372585 -0.158624 0)
(0.0676833 -0.159451 0)
(0.0979423 -0.153248 0)
(0.109012 -0.156605 0)
(0.141806 -0.155347 0)
(0.16601 -0.134579 0)
(0.186691 -0.125897 0)
(0.208824 -0.115382 0)
(0.238667 -0.100738 0)
(0.255326 -0.0734313 0)
(0.274003 -0.0512774 0)
(0.299442 -0.0242331 0)
(0.306337 -0.00519941 0)
(0.308481 0.0239505 0)
(0.324368 0.0336413 0)
(0.317658 0.0535038 0)
(0.301947 0.126737 0)
(0.223454 0.163149 0)
(0.179033 0.150111 0)
(0.0913383 0.122655 0)
(0.0383766 0.124168 0)
(0.0209644 0.151166 0)
(0.000637624 -0.0582856 0)
(0.00830396 -0.0627272 0)
(0.00845553 -0.0650589 0)
(0.01914 -0.0760012 0)
(0.0232634 -0.0773077 0)
(0.0296614 -0.0950479 0)
(0.0460841 -0.11146 0)
(0.0614493 -0.118996 0)
(0.0815673 -0.132227 0)
(0.101817 -0.136733 0)
(0.115027 -0.144269 0)
(0.119513 -0.147782 0)
(0.115246 -0.146529 0)
(0.113711 -0.142573 0)
(0.13108 -0.13255 0)
(0.199271 -0.0271607 0)
(0.246844 0.115061 0)
(0.205959 0.145308 0)
(0.15866 0.191884 0)
(0.137174 0.179253 0)
(0.0958549 0.156272 0)
(0.0329704 0.132516 0)
(0.0201638 0.157095 0)
(9.1818e-05 -0.122099 0)
(0.00386285 -0.120726 0)
(0.00469243 -0.122849 0)
(0.0110847 -0.114893 0)
(0.0157165 -0.116669 0)
(0.0303081 -0.120198 0)
(0.0465665 -0.106202 0)
(0.0599429 -0.101138 0)
(0.0907369 -0.0962559 0)
(0.117693 -0.0823129 0)
(0.140207 -0.0559323 0)
(0.156873 -0.0335894 0)
(0.161873 0.00019607 0)
(0.149079 0.0386541 0)
(0.0889121 0.0809822 0)
(-0.00164652 0.0306867 0)
(0.10572 0.016763 0)
(0.0993278 0.154964 0)
(0.028585 0.175718 0)
(0.0375312 0.201277 0)
(0.0638461 0.197378 0)
(0.0466669 0.156588 0)
(0.0267861 0.182374 0)
(-0.0887912 0.0607587 0)
(-0.206048 0.0173613 0)
(-0.301508 -0.0294578 0)
(-0.358659 -0.0855514 0)
(-0.382318 -0.135753 0)
(-0.296842 -0.185665 0)
(-0.209764 -0.234666 0)
(-0.10947 -0.282324 0)
(0.0201606 -0.311986 0)
(0.143923 -0.362683 0)
(0.114894 -0.413216 0)
(0.0655072 -0.37598 0)
(0.0825339 -0.476592 0)
(0.10161 -0.450065 0)
(0.12036 -0.405412 0)
(0.171466 -0.228552 0)
(0.277086 0.0357004 0)
(0.19335 -0.0160257 0)
(0.209909 -0.0260442 0)
(-0.065205 0.0827857 0)
(-0.130071 0.0535054 0)
(-0.146238 0.0719773 0)
(-0.16426 0.112583 0)
(-0.198501 0.130528 0)
(-0.150797 0.107823 0)
(-0.0295211 0.152846 0)
(0.0572556 0.208391 0)
(0.167654 0.237262 0)
(0.240555 0.321581 0)
(0.172316 0.505079 0)
(0.111107 0.469582 0)
(0.0619458 0.550568 0)
(0.0900495 0.664103 0)
(0.00809761 0.650365 0)
(0.106248 0.286209 0)
(0.444199 0.0381278 0)
(0.457335 0.238297 0)
(0.34688 0.34646 0)
(-0.0406353 0.140022 0)
(-0.00987538 0.0637032 0)
(0.040813 0.0232332 0)
(0.0367261 -0.000485315 0)
(0.129531 -0.0993354 0)
(0.290617 -0.184515 0)
(0.370474 -0.235419 0)
(0.47063 -0.256038 0)
(0.645795 -0.273974 0)
(0.843706 -0.257512 0)
(0.896707 -0.235772 0)
(0.834665 -0.45178 0)
(0.328615 -0.869755 0)
(0.246648 -0.809853 0)
(0.0213815 -0.60389 0)
(0.15951 -0.346844 0)
(0.195525 0.0169299 0)
(0.29203 0.256469 0)
(0.287439 0.487015 0)
(0.0204981 0.144156 0)
(0.128245 0.0292082 0)
(0.311063 0.0236841 0)
(0.365398 0.0287289 0)
(0.524513 -0.001217 0)
(0.744653 -0.0743412 0)
(0.826572 -0.0511244 0)
(0.901119 -0.0285553 0)
(0.970418 -0.054255 0)
(1.09211 -0.0574006 0)
(1.31254 -0.135751 0)
(1.49421 -0.305419 0)
(1.3463 -0.470298 0)
(1.13624 -0.700965 0)
(0.9143 -0.326986 0)
(0.487518 -0.34494 0)
(0.457894 -0.151064 0)
(0.128348 0.280956 0)
(0.249987 0.537421 0)
(0.0503299 0.115477 0)
(0.206139 -0.0427938 0)
(0.424741 -0.0298332 0)
(0.550358 -0.0264495 0)
(0.75213 -0.120453 0)
(0.870736 -0.176161 0)
(0.909784 -0.158331 0)
(0.944159 -0.15259 0)
(0.956533 -0.189938 0)
(0.919706 -0.310722 0)
(0.890967 -0.529277 0)
(0.870559 -0.67583 0)
(0.880256 -0.696738 0)
(1.22025 -0.946064 0)
(1.8358 -1.14261 0)
(0.976147 -0.970219 0)
(0.749172 -0.173774 0)
(-0.0211711 0.396857 0)
(0.233622 0.638175 0)
(0.114143 0.0813275 0)
(0.256159 -0.104456 0)
(0.424338 -0.0835549 0)
(0.587978 -0.0605384 0)
(0.755597 -0.129059 0)
(0.819274 -0.165234 0)
(0.850563 -0.132913 0)
(0.865668 -0.0958129 0)
(0.857474 -0.12488 0)
(0.783982 -0.273506 0)
(0.679903 -0.473543 0)
(0.693747 -0.5429 0)
(0.762072 -0.544258 0)
(1.0636 -0.811663 0)
(2.32039 -1.24458 0)
(1.35056 -0.9348 0)
(0.921379 -0.279731 0)
(0.00372775 0.466046 0)
(0.234282 0.715527 0)
(0.215577 0.0106664 0)
(0.300851 -0.161087 0)
(0.392662 -0.136647 0)
(0.54887 -0.11052 0)
(0.657119 -0.156103 0)
(0.702092 -0.174856 0)
(0.718314 -0.147243 0)
(0.755878 -0.111045 0)
(0.773568 -0.125235 0)
(0.731072 -0.237166 0)
(0.591283 -0.386114 0)
(0.522031 -0.427869 0)
(0.61986 -0.520828 0)
(0.966097 -0.873496 0)
(2.78893 -1.30747 0)
(1.34117 -0.725252 0)
(1.07349 -0.256813 0)
(0.114292 0.531513 0)
(0.265674 0.790277 0)
(0.270823 -0.145763 0)
(0.316003 -0.206033 0)
(0.395352 -0.174729 0)
(0.503668 -0.15367 0)
(0.587336 -0.171332 0)
(0.629499 -0.175902 0)
(0.640044 -0.15325 0)
(0.665543 -0.120897 0)
(0.692302 -0.12703 0)
(0.673964 -0.210546 0)
(0.562957 -0.298629 0)
(0.481428 -0.296012 0)
(0.502897 -0.381244 0)
(0.854029 -0.797731 0)
(2.99266 -0.913039 0)
(1.53344 -0.452997 0)
(1.17319 -0.0372356 0)
(0.174978 0.730298 0)
(0.272805 0.909156 0)
(0.000236928 -0.0476194 0)
(0.00231517 -0.0494988 0)
(0.00427442 -0.0538052 0)
(0.00870315 -0.0520919 0)
(0.0125649 -0.0574164 0)
(0.0217834 -0.0756886 0)
(0.0395293 -0.0734501 0)
(0.0557169 -0.0824406 0)
(0.0870178 -0.0909584 0)
(0.106903 -0.0856091 0)
(0.118872 -0.0762813 0)
(0.129694 -0.0810134 0)
(0.13134 -0.0775602 0)
(0.145087 -0.0789213 0)
(0.169806 -0.0480909 0)
(0.191362 0.0280022 0)
(0.141247 0.185828 0)
(0.15804 0.200781 0)
(0.036554 0.249041 0)
(-0.0678748 0.200693 0)
(-0.0420952 0.222805 0)
(0.0451217 0.185503 0)
(0.121575 0.181807 0)
(0.00130311 -0.108273 0)
(0.00479178 -0.110341 0)
(0.00854992 -0.111284 0)
(0.0121305 -0.111805 0)
(0.0203033 -0.117211 0)
(0.0227978 -0.136989 0)
(0.0396522 -0.139003 0)
(0.0606334 -0.154456 0)
(0.098784 -0.150083 0)
(0.120034 -0.12893 0)
(0.140927 -0.101756 0)
(0.170768 -0.0840079 0)
(0.174254 -0.0441165 0)
(0.18127 -0.0102429 0)
(0.157972 0.0223609 0)
(0.134942 0.0297574 0)
(0.149675 0.0787478 0)
(0.172245 0.201435 0)
(0.218011 0.303318 0)
(0.074996 0.290543 0)
(0.00890288 0.201347 0)
(0.0166503 0.127859 0)
(0.0852594 0.098356 0)
(0.00216547 -0.106167 0)
(0.00609266 -0.110412 0)
(0.00977453 -0.114564 0)
(0.00824494 -0.116793 0)
(0.00906883 -0.117949 0)
(0.00691436 -0.130959 0)
(0.0304662 -0.140523 0)
(0.0563327 -0.1432 0)
(0.107768 -0.10533 0)
(0.136247 -0.0818593 0)
(0.170637 -0.0484459 0)
(0.190787 -0.0264507 0)
(0.203865 0.0238872 0)
(0.231295 0.0514259 0)
(0.232817 0.0601281 0)
(0.252958 0.0967591 0)
(0.236326 0.149909 0)
(0.232023 0.225419 0)
(0.308746 0.303041 0)
(0.387393 0.33059 0)
(0.325816 0.232424 0)
(0.276887 0.212388 0)
(0.251408 0.0884493 0)
(0.000371612 -0.0573657 0)
(-0.000156822 -0.0566391 0)
(0.00494761 -0.0476811 0)
(0.0110702 -0.039588 0)
(0.0175571 -0.0497449 0)
(-0.00637696 -0.0952301 0)
(-0.0196549 -0.121515 0)
(0.0180646 -0.169326 0)
(0.077702 -0.165811 0)
(0.108813 -0.146011 0)
(0.147682 -0.103501 0)
(0.153092 -0.0701855 0)
(0.177167 -0.0157479 0)
(0.201015 0.0213981 0)
(0.212658 0.0792081 0)
(0.245372 0.113435 0)
(0.25016 0.17968 0)
(0.302708 0.210253 0)
(0.361552 0.251297 0)
(0.469351 0.235212 0)
(0.567014 0.217473 0)
(0.621592 0.137884 0)
(0.682003 0.0265951 0)
(0.00904744 -0.283242 0)
(0.0166025 -0.278737 0)
(0.0220135 -0.260921 0)
(-0.00903371 -0.232706 0)
(-0.0810189 -0.189195 0)
(-0.114693 -0.172433 0)
(-0.107115 -0.207406 0)
(-0.0947404 -0.255022 0)
(-0.0794238 -0.231656 0)
(-0.055179 -0.190773 0)
(0.00488199 -0.13999 0)
(0.0147793 -0.114949 0)
(0.0591399 -0.0786504 0)
(0.106367 -0.0358911 0)
(0.128232 0.0188135 0)
(0.195359 0.0906524 0)
(0.21296 0.137591 0)
(0.272161 0.167393 0)
(0.330413 0.192149 0)
(0.423062 0.162007 0)
(0.496185 0.132796 0)
(0.571823 0.0212235 0)
(0.656403 -0.0769204 0)
(0.0131778 -0.406721 0)
(0.0179187 -0.445284 0)
(0.0363176 -0.518711 0)
(0.0660012 -0.562523 0)
(0.0798213 -0.523027 0)
(-0.0429683 -0.51986 0)
(-0.191272 -0.55205 0)
(-0.342773 -0.514613 0)
(-0.478061 -0.395813 0)
(-0.500673 -0.350238 0)
(-0.402417 -0.255878 0)
(-0.372079 -0.191061 0)
(-0.307131 -0.133899 0)
(-0.249699 -0.0766198 0)
(-0.167689 -0.0369976 0)
(-0.0834697 0.0151082 0)
(0.0132405 0.0772245 0)
(0.116614 0.0869481 0)
(0.212727 0.0955195 0)
(0.275931 0.039426 0)
(0.39664 0.0364884 0)
(0.450365 -0.0602982 0)
(0.501466 -0.114453 0)
(0.0592159 -0.486368 0)
(0.158626 -0.416231 0)
(0.296657 -0.248802 0)
(0.313242 0.0597059 0)
(0.575656 0.450092 0)
(-0.0994328 -0.277166 0)
(-0.322351 -0.773945 0)
(-0.553036 -0.644725 0)
(-0.641373 -0.617659 0)
(-0.643108 -0.638221 0)
(-0.549179 -0.605221 0)
(-0.457847 -0.470061 0)
(-0.422745 -0.398612 0)
(-0.385596 -0.327069 0)
(-0.368511 -0.264849 0)
(-0.323423 -0.200109 0)
(-0.276885 -0.156696 0)
(-0.182766 -0.0989627 0)
(-0.0356169 -0.0222432 0)
(0.0252971 -0.0739039 0)
(0.168317 -0.0488252 0)
(0.218138 -0.11311 0)
(0.280859 -0.173978 0)
(-0.0714105 -0.148679 0)
(-0.16163 -0.208296 0)
(-0.22463 -0.336588 0)
(-0.285058 -0.471393 0)
(-0.23639 -0.505284 0)
(-0.0034895 -0.614674 0)
(0.12917 -0.74884 0)
(0.140804 -0.690066 0)
(-0.073703 -0.646455 0)
(-0.0213925 -0.538934 0)
(-0.422421 -0.93672 0)
(-0.357072 -0.837718 0)
(-0.31987 -0.723138 0)
(-0.28595 -0.637329 0)
(-0.270717 -0.57093 0)
(-0.241044 -0.501579 0)
(-0.232426 -0.46696 0)
(-0.1905 -0.42077 0)
(-0.177974 -0.39048 0)
(-0.136703 -0.419156 0)
(-0.0814883 -0.395375 0)
(-0.0298865 -0.46151 0)
(0.0485696 -0.498611 0)
(-0.0186456 0.0801955 0)
(-0.0386955 0.0405756 0)
(-0.0521022 0.0226169 0)
(-0.0493337 0.00564111 0)
(-0.0947357 0.0574479 0)
(0.0883563 0.106789 0)
(0.0437935 0.152056 0)
(0.297012 0.438341 0)
(0.0600234 0.408424 0)
(0.0573804 -0.0933034 0)
(-0.0429891 -0.404253 0)
(0.12255 -0.525859 0)
(0.197751 -0.476848 0)
(0.173415 -0.311157 0)
(0.128088 -0.207923 0)
(0.146658 -0.114701 0)
(0.0836302 -0.565768 0)
(-0.0204511 -0.962316 0)
(-0.0136194 -0.91861 0)
(-0.00255431 -0.878079 0)
(-0.0249515 -0.780763 0)
(0.0354601 -0.870247 0)
(0.111723 -0.978622 0)
(0.00367607 -0.212211 0)
(0.00311684 -0.249095 0)
(-0.00772444 -0.289813 0)
(-0.0172652 -0.336286 0)
(-0.0458977 -0.381105 0)
(0.0157045 -0.334028 0)
(-0.0206926 -0.413956 0)
(0.114066 0.116612 0)
(0.229362 0.285811 0)
(0.264238 0.155307 0)
(0.0204343 0.00647117 0)
(0.014027 -0.16167 0)
(0.00452591 -0.285876 0)
(0.0248504 -0.375795 0)
(0.0411246 -0.455867 0)
(0.0131519 -0.53364 0)
(0.143793 -0.674842 0)
(0.31306 -0.800344 0)
(0.466308 -0.775621 0)
(0.592523 -0.74317 0)
(0.569278 -0.640366 0)
(0.554373 -0.643616 0)
(0.552373 -0.660426 0)
(-0.0126628 0.062583 0)
(-0.0224856 0.00147146 0)
(-0.0277561 -0.046342 0)
(-0.0373591 -0.089725 0)
(-0.0556136 -0.119729 0)
(-0.0524758 -0.111675 0)
(-0.0867624 -0.154061 0)
(-0.0944532 -0.0492136 0)
(0.201836 0.141487 0)
(0.235026 0.0868207 0)
(0.248868 -0.0378881 0)
(0.241003 -0.258863 0)
(0.214992 -0.284076 0)
(0.216079 -0.260468 0)
(0.247989 -0.172402 0)
(0.281855 -0.0433389 0)
(0.30272 0.123036 0)
(0.283491 0.165793 0)
(0.258726 0.142181 0)
(0.226619 0.134123 0)
(0.197528 0.0437518 0)
(0.198847 0.0073595 0)
(0.202375 -0.0344232 0)
(0.0133877 -0.126608 0)
(0.0317813 -0.162566 0)
(0.0327528 -0.184416 0)
(0.0234526 -0.203364 0)
(0.00117173 -0.212432 0)
(-0.0157881 -0.20036 0)
(-0.0468709 -0.190608 0)
(-0.0689236 -0.108956 0)
(-0.0108213 0.0248025 0)
(0.138207 0.0581014 0)
(0.165111 -0.0532851 0)
(0.193199 -0.237566 0)
(0.144005 -0.313761 0)
(0.0999968 -0.36032 0)
(0.0799616 -0.391202 0)
(0.0824688 -0.413368 0)
(0.121658 -0.420836 0)
(0.180867 -0.416692 0)
(0.213004 -0.364954 0)
(0.245696 -0.290565 0)
(0.241013 -0.251061 0)
(0.212659 -0.270954 0)
(0.156803 -0.285567 0)
(0.00458001 -0.0372475 0)
(0.014072 -0.0817453 0)
(0.0193226 -0.110639 0)
(0.0157005 -0.136222 0)
(0.00184944 -0.153565 0)
(-0.0162637 -0.158326 0)
(-0.0408391 -0.161289 0)
(-0.0508413 -0.132881 0)
(-0.0447531 -0.0844005 0)
(0.0661891 -0.0454973 0)
(0.109313 -0.102042 0)
(0.114084 -0.181323 0)
(0.0859326 -0.228251 0)
(0.0536447 -0.257357 0)
(0.0318515 -0.248801 0)
(0.00933298 -0.215809 0)
(-0.00807874 -0.18306 0)
(-0.0212356 -0.169966 0)
(-0.0303952 -0.162927 0)
(-0.020018 -0.154581 0)
(0.00670598 -0.160333 0)
(0.0146225 -0.17183 0)
(0.0160763 -0.175569 0)
(0.00782188 -0.0957981 0)
(0.0194703 -0.124376 0)
(0.0244356 -0.133842 0)
(0.0204478 -0.140197 0)
(0.00978737 -0.141228 0)
(-0.00354648 -0.137456 0)
(-0.0177617 -0.131928 0)
(-0.0238063 -0.114025 0)
(-0.0197659 -0.10344 0)
(0.0228094 -0.092385 0)
(0.0567258 -0.137099 0)
(0.041812 -0.19205 0)
(0.0173182 -0.23513 0)
(-0.00943734 -0.265764 0)
(-0.0340001 -0.272102 0)
(-0.0523832 -0.261787 0)
(-0.063568 -0.246844 0)
(-0.0728745 -0.229012 0)
(-0.0795245 -0.200054 0)
(-0.0803247 -0.169345 0)
(-0.0782086 -0.152859 0)
(-0.0764357 -0.152872 0)
(-0.0725035 -0.15356 0)
(0.00512165 -0.0976741 0)
(0.0120435 -0.125855 0)
(0.012844 -0.132196 0)
(0.00762644 -0.133515 0)
(0.00127828 -0.132579 0)
(-0.00460783 -0.131049 0)
(-0.0105428 -0.12732 0)
(-0.00977444 -0.120539 0)
(-0.00493884 -0.116639 0)
(0.0114623 -0.108622 0)
(0.0262484 -0.12877 0)
(0.0165374 -0.156512 0)
(-0.00399962 -0.194646 0)
(-0.0294022 -0.226624 0)
(-0.0570291 -0.238718 0)
(-0.0727411 -0.23702 0)
(-0.0826229 -0.228763 0)
(-0.0926821 -0.222347 0)
(-0.100134 -0.210422 0)
(-0.0984922 -0.202102 0)
(-0.0946004 -0.196145 0)
(-0.0895004 -0.191829 0)
(-0.0856132 -0.187451 0)
(0.00309685 -0.103265 0)
(0.00455156 -0.127094 0)
(0.00228937 -0.128825 0)
(-0.000737962 -0.130278 0)
(-0.00295246 -0.130502 0)
(-0.00464777 -0.129402 0)
(-0.00508179 -0.127081 0)
(-0.00185622 -0.124717 0)
(0.000992534 -0.124545 0)
(0.00990728 -0.120867 0)
(0.0170592 -0.131618 0)
(0.0127882 -0.147307 0)
(0.00279326 -0.170244 0)
(-0.020096 -0.193222 0)
(-0.0480346 -0.210759 0)
(-0.0671189 -0.21872 0)
(-0.0791425 -0.215506 0)
(-0.0862558 -0.208235 0)
(-0.0879577 -0.194431 0)
(-0.0903377 -0.187354 0)
(-0.0942292 -0.184164 0)
(-0.0947578 -0.179727 0)
(-0.0929273 -0.175194 0)
(0.00163073 -0.105536 0)
(0.000954435 -0.12604 0)
(-0.000305709 -0.127192 0)
(-0.00163708 -0.128791 0)
(-0.00298757 -0.12996 0)
(-0.00323379 -0.129578 0)
(-0.00207078 -0.129126 0)
(0.000717681 -0.128491 0)
(0.00313378 -0.129009 0)
(0.00874184 -0.127247 0)
(0.0134109 -0.13322 0)
(0.0135016 -0.144554 0)
(0.0114375 -0.162675 0)
(0.000530766 -0.178569 0)
(-0.0172679 -0.192224 0)
(-0.0337859 -0.202556 0)
(-0.0499572 -0.205972 0)
(-0.061928 -0.206247 0)
(-0.0710698 -0.19555 0)
(-0.0776057 -0.184119 0)
(-0.0899214 -0.181561 0)
(-0.0967868 -0.181503 0)
(-0.0995949 -0.177724 0)
(0.000579789 -0.106219 0)
(0.000187773 -0.1252 0)
(-0.000141072 -0.126056 0)
(-0.000229512 -0.127408 0)
(-0.000963018 -0.128829 0)
(-0.00155598 -0.130088 0)
(-0.00149406 -0.130653 0)
(-0.000167672 -0.131072 0)
(0.0013666 -0.132172 0)
(0.00404974 -0.131896 0)
(0.00863489 -0.136992 0)
(0.0101071 -0.146078 0)
(0.00801774 -0.157535 0)
(7.71003e-05 -0.16704 0)
(-0.0115662 -0.179107 0)
(-0.0229821 -0.187546 0)
(-0.0406602 -0.190164 0)
(-0.055208 -0.187537 0)
(-0.0664397 -0.182218 0)
(-0.0759295 -0.171081 0)
(-0.0857212 -0.165882 0)
(-0.0986086 -0.167354 0)
(-0.10502 -0.167918 0)
(0.000143568 -0.105752 0)
(0.000416838 -0.124715 0)
(0.000559088 -0.125978 0)
(-5.31105e-05 -0.127411 0)
(-0.000918669 -0.128309 0)
(-0.00267126 -0.129622 0)
(-0.00427885 -0.130388 0)
(-0.005547 -0.131616 0)
(-0.00643166 -0.133144 0)
(-0.00578856 -0.135774 0)
(-0.00407033 -0.140002 0)
(-0.00269382 -0.146465 0)
(-0.00539842 -0.152934 0)
(-0.01 -0.160925 0)
(-0.0190665 -0.168874 0)
(-0.0307465 -0.171043 0)
(-0.0474718 -0.173401 0)
(-0.0606878 -0.174438 0)
(-0.0704244 -0.172316 0)
(-0.0820725 -0.163679 0)
(-0.091036 -0.157789 0)
(-0.0997459 -0.163051 0)
(-0.105056 -0.166816 0)
(0.000435582 -0.10614 0)
(0.000109749 -0.124696 0)
(-0.000967609 -0.124718 0)
(-0.00255274 -0.125365 0)
(-0.00385681 -0.126155 0)
(-0.00546963 -0.127015 0)
(-0.00696293 -0.128317 0)
(-0.00834793 -0.129741 0)
(-0.00967157 -0.132119 0)
(-0.0109612 -0.135263 0)
(-0.0127668 -0.138558 0)
(-0.0145938 -0.142488 0)
(-0.019177 -0.147654 0)
(-0.0245486 -0.153357 0)
(-0.0321749 -0.156318 0)
(-0.040562 -0.157858 0)
(-0.049579 -0.162674 0)
(-0.0589794 -0.165814 0)
(-0.0703762 -0.161543 0)
(-0.0797584 -0.153776 0)
(-0.0845381 -0.149276 0)
(-0.0920891 -0.154386 0)
(-0.0970819 -0.157959 0)
(5.44316e-05 -0.106425 0)
(-0.000700588 -0.123359 0)
(-0.00230219 -0.123442 0)
(-0.00303868 -0.124133 0)
(-0.00421941 -0.124731 0)
(-0.00499965 -0.125214 0)
(-0.0059913 -0.126324 0)
(-0.00740153 -0.127362 0)
(-0.00920707 -0.12881 0)
(-0.0118059 -0.132031 0)
(-0.0152881 -0.136323 0)
(-0.0182807 -0.140652 0)
(-0.0235382 -0.142995 0)
(-0.0299585 -0.14675 0)
(-0.0364795 -0.149178 0)
(-0.0436702 -0.151798 0)
(-0.0497426 -0.151948 0)
(-0.0597609 -0.150988 0)
(-0.0708361 -0.149467 0)
(-0.0798177 -0.145331 0)
(-0.0865741 -0.143733 0)
(-0.0937209 -0.148313 0)
(-0.100149 -0.151032 0)
(-0.000266502 -0.105514 0)
(-0.00137636 -0.122538 0)
(-0.00177517 -0.122769 0)
(-0.0026976 -0.123668 0)
(-0.00373498 -0.124068 0)
(-0.0048429 -0.124654 0)
(-0.00609226 -0.125404 0)
(-0.00738856 -0.126457 0)
(-0.00873717 -0.128189 0)
(-0.0107088 -0.130235 0)
(-0.0145635 -0.132864 0)
(-0.0181575 -0.135412 0)
(-0.0222746 -0.137033 0)
(-0.0281446 -0.140193 0)
(-0.0345398 -0.14274 0)
(-0.0420115 -0.145273 0)
(-0.0491315 -0.146346 0)
(-0.0568949 -0.14449 0)
(-0.064716 -0.143861 0)
(-0.070949 -0.139962 0)
(-0.0779608 -0.138486 0)
(-0.0832813 -0.142283 0)
(-0.0932473 -0.145294 0)
(-0.000126892 -0.105085 0)
(-0.00102112 -0.121531 0)
(-0.00250758 -0.121651 0)
(-0.0039162 -0.121922 0)
(-0.00545549 -0.122584 0)
(-0.00703237 -0.123579 0)
(-0.00850176 -0.124498 0)
(-0.0100199 -0.125426 0)
(-0.01174 -0.12613 0)
(-0.0138552 -0.12713 0)
(-0.0158802 -0.128541 0)
(-0.020558 -0.130098 0)
(-0.0246628 -0.133074 0)
(-0.0286824 -0.134091 0)
(-0.033974 -0.13542 0)
(-0.0406067 -0.135474 0)
(-0.0494612 -0.134782 0)
(-0.0579009 -0.135212 0)
(-0.0643459 -0.133377 0)
(-0.0716207 -0.130286 0)
(-0.0793469 -0.12916 0)
(-0.0849382 -0.130434 0)
(-0.0944991 -0.129191 0)
(-0.000496881 -0.103919 0)
(-0.00191094 -0.120094 0)
(-0.00343738 -0.120275 0)
(-0.00485965 -0.120731 0)
(-0.00633596 -0.121099 0)
(-0.00789211 -0.121452 0)
(-0.00975805 -0.122146 0)
(-0.0118503 -0.123152 0)
(-0.014138 -0.124385 0)
(-0.0164658 -0.124692 0)
(-0.0196953 -0.125733 0)
(-0.0234612 -0.12801 0)
(-0.0281592 -0.129169 0)
(-0.0331701 -0.129967 0)
(-0.0385095 -0.13075 0)
(-0.0438837 -0.130148 0)
(-0.0486757 -0.130096 0)
(-0.0540204 -0.131105 0)
(-0.061165 -0.128613 0)
(-0.0685064 -0.12669 0)
(-0.0736115 -0.12545 0)
(-0.0828251 -0.125536 0)
(-0.0911207 -0.122316 0)
(-0.000229074 -0.103541 0)
(-0.00113109 -0.119093 0)
(-0.00250718 -0.118989 0)
(-0.00388816 -0.119164 0)
(-0.00546264 -0.119435 0)
(-0.00718871 -0.11988 0)
(-0.00899525 -0.120335 0)
(-0.0110337 -0.120893 0)
(-0.0134788 -0.121535 0)
(-0.016768 -0.122659 0)
(-0.0195368 -0.123233 0)
(-0.0215752 -0.123593 0)
(-0.0254514 -0.123946 0)
(-0.0307403 -0.124919 0)
(-0.0361651 -0.12527 0)
(-0.0411095 -0.124989 0)
(-0.0477459 -0.124639 0)
(-0.054842 -0.121116 0)
(-0.0620732 -0.120132 0)
(-0.0667029 -0.118241 0)
(-0.0733296 -0.117381 0)
(-0.0811785 -0.114437 0)
(-0.0890004 -0.112297 0)
(-0.000549915 -0.101934 0)
(-0.00204738 -0.117218 0)
(-0.00364483 -0.117255 0)
(-0.00517123 -0.117465 0)
(-0.00685486 -0.117684 0)
(-0.0087504 -0.117999 0)
(-0.0107675 -0.118373 0)
(-0.01298 -0.118759 0)
(-0.0154329 -0.118982 0)
(-0.0180394 -0.118874 0)
(-0.0208489 -0.119086 0)
(-0.0248901 -0.119586 0)
(-0.0286544 -0.119533 0)
(-0.03192 -0.119065 0)
(-0.0370073 -0.118616 0)
(-0.0433544 -0.119074 0)
(-0.0481894 -0.11743 0)
(-0.0530298 -0.117032 0)
(-0.0569402 -0.116582 0)
(-0.0636608 -0.113865 0)
(-0.0702933 -0.109585 0)
(-0.0782859 -0.107296 0)
(-0.0844161 -0.105868 0)
(-0.000498232 -0.10136 0)
(-0.00177828 -0.116325 0)
(-0.00331872 -0.116302 0)
(-0.00473024 -0.11638 0)
(-0.00623862 -0.116403 0)
(-0.00775961 -0.116308 0)
(-0.00958135 -0.116345 0)
(-0.0116923 -0.116461 0)
(-0.0140053 -0.116561 0)
(-0.016496 -0.116636 0)
(-0.0198393 -0.11671 0)
(-0.0237994 -0.11636 0)
(-0.0276419 -0.116538 0)
(-0.0322606 -0.115821 0)
(-0.0357135 -0.11572 0)
(-0.0386608 -0.114704 0)
(-0.0442818 -0.113464 0)
(-0.0499231 -0.111476 0)
(-0.0565635 -0.107789 0)
(-0.0635872 -0.105964 0)
(-0.0683613 -0.105101 0)
(-0.0738381 -0.102029 0)
(-0.0812018 -0.0970161 0)
(-0.000543043 -0.0996566 0)
(-0.00189545 -0.114242 0)
(-0.00352112 -0.114198 0)
(-0.0051355 -0.11418 0)
(-0.00698167 -0.114189 0)
(-0.00896487 -0.114298 0)
(-0.0110375 -0.114352 0)
(-0.0133117 -0.114281 0)
(-0.0157946 -0.114129 0)
(-0.0183847 -0.113757 0)
(-0.020803 -0.112939 0)
(-0.0228788 -0.112577 0)
(-0.0261303 -0.112085 0)
(-0.0297915 -0.111715 0)
(-0.0345213 -0.110231 0)
(-0.0404452 -0.108807 0)
(-0.0456143 -0.107475 0)
(-0.0501027 -0.105211 0)
(-0.0542214 -0.104719 0)
(-0.0578192 -0.102746 0)
(-0.0643845 -0.0977424 0)
(-0.0714156 -0.0942847 0)
(-0.0767645 -0.0915322 0)
(-0.000522864 -0.0990204 0)
(-0.00172027 -0.113416 0)
(-0.00313721 -0.113342 0)
(-0.00444009 -0.113188 0)
(-0.00586859 -0.112933 0)
(-0.00743804 -0.112608 0)
(-0.00925233 -0.112279 0)
(-0.0113002 -0.111936 0)
(-0.0136307 -0.111572 0)
(-0.0163333 -0.111216 0)
(-0.0195516 -0.110839 0)
(-0.0234604 -0.109974 0)
(-0.0270541 -0.10889 0)
(-0.0306651 -0.107637 0)
(-0.0341733 -0.106744 0)
(-0.0372185 -0.10604 0)
(-0.0406575 -0.104424 0)
(-0.0454871 -0.102273 0)
(-0.050836 -0.0980484 0)
(-0.0570703 -0.0948253 0)
(-0.0619565 -0.0931721 0)
(-0.0668826 -0.0896461 0)
(-0.0726508 -0.085034 0)
(-0.000559745 -0.0973755 0)
(-0.00186441 -0.111463 0)
(-0.00340938 -0.111409 0)
(-0.00490205 -0.111214 0)
(-0.00655679 -0.110955 0)
(-0.0083124 -0.110621 0)
(-0.0101936 -0.11016 0)
(-0.0122135 -0.109562 0)
(-0.0143816 -0.108844 0)
(-0.0166908 -0.108001 0)
(-0.0190407 -0.106988 0)
(-0.021277 -0.106093 0)
(-0.0240671 -0.105251 0)
(-0.0273325 -0.104067 0)
(-0.0309976 -0.102382 0)
(-0.0354783 -0.100151 0)
(-0.0404566 -0.0979654 0)
(-0.0449652 -0.0957478 0)
(-0.0491313 -0.0943048 0)
(-0.0529429 -0.0916587 0)
(-0.0578266 -0.0876319 0)
(-0.0633307 -0.0838872 0)
(-0.0682891 -0.0798809 0)
(-0.000494646 -0.0967556 0)
(-0.00150418 -0.110662 0)
(-0.00277611 -0.110566 0)
(-0.00396869 -0.110244 0)
(-0.00535799 -0.10982 0)
(-0.00690411 -0.109305 0)
(-0.00866308 -0.108712 0)
(-0.0106463 -0.108052 0)
(-0.0128564 -0.10732 0)
(-0.0153045 -0.106517 0)
(-0.0180203 -0.105535 0)
(-0.0210369 -0.10409 0)
(-0.0241742 -0.102567 0)
(-0.027415 -0.101078 0)
(-0.0307629 -0.0994433 0)
(-0.0340544 -0.0977355 0)
(-0.0373755 -0.09567 0)
(-0.0411399 -0.0928971 0)
(-0.0454635 -0.0894408 0)
(-0.0501051 -0.0861436 0)
(-0.0545489 -0.0830506 0)
(-0.0591411 -0.0792569 0)
(-0.0638781 -0.0748674 0)
(-0.00046449 -0.0953224 0)
(-0.00149885 -0.10901 0)
(-0.00277202 -0.108882 0)
(-0.00397006 -0.108415 0)
(-0.00533803 -0.107823 0)
(-0.00680768 -0.107086 0)
(-0.00841861 -0.106208 0)
(-0.0101901 -0.105216 0)
(-0.0121379 -0.104118 0)
(-0.0142802 -0.102924 0)
(-0.0166401 -0.101724 0)
(-0.0191369 -0.100573 0)
(-0.0217835 -0.0991316 0)
(-0.0246938 -0.0973806 0)
(-0.0278815 -0.0954418 0)
(-0.0313715 -0.0932139 0)
(-0.0351408 -0.0907504 0)
(-0.0389894 -0.0882179 0)
(-0.0427646 -0.0855153 0)
(-0.0465705 -0.0823065 0)
(-0.0506565 -0.0786104 0)
(-0.0550558 -0.0746961 0)
(-0.0594103 -0.0703606 0)
(-0.000351975 -0.0948397 0)
(-0.00113536 -0.108426 0)
(-0.00223321 -0.108292 0)
(-0.00322291 -0.10777 0)
(-0.00440988 -0.107118 0)
(-0.00571357 -0.106317 0)
(-0.0072 -0.105387 0)
(-0.00888442 -0.104326 0)
(-0.0107634 -0.103126 0)
(-0.0128338 -0.101768 0)
(-0.0150914 -0.10021 0)
(-0.0175948 -0.0984818 0)
(-0.0203084 -0.0966978 0)
(-0.0231403 -0.0948068 0)
(-0.02609 -0.0926938 0)
(-0.0291724 -0.0903794 0)
(-0.0323736 -0.0878231 0)
(-0.03575 -0.0849056 0)
(-0.0393482 -0.0816704 0)
(-0.043075 -0.0782252 0)
(-0.0468604 -0.0745727 0)
(-0.0508256 -0.070575 0)
(-0.0548698 -0.0661651 0)
(-0.000236414 -0.0939353 0)
(-0.000911956 -0.107092 0)
(-0.00192051 -0.106903 0)
(-0.00278132 -0.106219 0)
(-0.00383523 -0.105406 0)
(-0.00496106 -0.104416 0)
(-0.0061816 -0.103233 0)
(-0.00754799 -0.10192 0)
(-0.00911081 -0.100496 0)
(-0.0109461 -0.0990034 0)
(-0.0130744 -0.0974634 0)
(-0.0154193 -0.0958034 0)
(-0.0179322 -0.0939183 0)
(-0.0206448 -0.0918126 0)
(-0.0234981 -0.0895151 0)
(-0.0264776 -0.0870168 0)
(-0.0295806 -0.0843035 0)
(-0.0327768 -0.081376 0)
(-0.0360524 -0.0781754 0)
(-0.0394176 -0.0746607 0)
(-0.0428918 -0.0708376 0)
(-0.0465395 -0.0667397 0)
(-0.0502786 -0.0622922 0)
(-3.58701e-05 -0.0936984 0)
(-0.000639504 -0.106624 0)
(-0.00165992 -0.106421 0)
(-0.00243711 -0.105685 0)
(-0.00341783 -0.104824 0)
(-0.00442376 -0.103776 0)
(-0.00542687 -0.102461 0)
(-0.00647343 -0.100935 0)
(-0.00766441 -0.0992227 0)
(-0.00902764 -0.0973046 0)
(-0.0106369 -0.0952465 0)
(-0.0125994 -0.0931733 0)
(-0.0149284 -0.0911126 0)
(-0.0176176 -0.0890337 0)
(-0.0205191 -0.0867864 0)
(-0.0234586 -0.0842403 0)
(-0.0264384 -0.0814275 0)
(-0.0294519 -0.0783243 0)
(-0.032517 -0.0749512 0)
(-0.0356487 -0.0713194 0)
(-0.0388445 -0.0674104 0)
(-0.0421695 -0.0632141 0)
(-0.0456153 -0.0586991 0)
(0.000187128 -0.0932052 0)
(-0.000479703 -0.105406 0)
(-0.00176618 -0.105177 0)
(-0.00261559 -0.104405 0)
(-0.00367197 -0.103485 0)
(-0.00467981 -0.1024 0)
(-0.00573879 -0.10119 0)
(-0.00680648 -0.0997283 0)
(-0.00789077 -0.0979804 0)
(-0.00902454 -0.0959752 0)
(-0.0102382 -0.0937633 0)
(-0.0115948 -0.0913651 0)
(-0.0131649 -0.0888358 0)
(-0.0149728 -0.0861594 0)
(-0.017125 -0.0835004 0)
(-0.0197304 -0.0809163 0)
(-0.0226496 -0.0782342 0)
(-0.0257747 -0.075327 0)
(-0.0287526 -0.0719792 0)
(-0.031709 -0.0682982 0)
(-0.0346666 -0.0642872 0)
(-0.037707 -0.0599836 0)
(-0.0408757 -0.0553807 0)
(0.000284373 -0.0931267 0)
(-0.000688209 -0.104305 0)
(-0.00257658 -0.104068 0)
(-0.00377891 -0.103387 0)
(-0.0051575 -0.102513 0)
(-0.00638239 -0.101491 0)
(-0.00758692 -0.100281 0)
(-0.008722 -0.0988263 0)
(-0.00977052 -0.097093 0)
(-0.0107354 -0.0950891 0)
(-0.0116617 -0.0928087 0)
(-0.0126371 -0.090319 0)
(-0.0137377 -0.0876682 0)
(-0.0149301 -0.0847938 0)
(-0.01623 -0.0817935 0)
(-0.0177106 -0.0786016 0)
(-0.0194687 -0.0752931 0)
(-0.0216473 -0.0720514 0)
(-0.0244036 -0.0688431 0)
(-0.0273374 -0.0653541 0)
(-0.0302384 -0.0613972 0)
(-0.0330824 -0.0570456 0)
(-0.0360138 -0.0523403 0)
(0.000261176 -0.0930884 0)
(-0.00139905 -0.102784 0)
(-0.00418109 -0.102546 0)
(-0.00609613 -0.10204 0)
(-0.0081436 -0.101295 0)
(-0.00988236 -0.100306 0)
(-0.0115388 -0.0991509 0)
(-0.0129959 -0.0978014 0)