/*--------------------------------*- C++ -*----------------------------------*\
| =========                 |                                                 |
| \\      /  F ield         | OpenFOAM: The Open Source CFD Toolbox           |
|  \\    /   O peration     | Version:  2.4.0                                 |
|   \\  /    A nd           | Web:      www.OpenFOAM.org                      |
|    \\/     M anipulation  |                                                 |
\*---------------------------------------------------------------------------*/
FoamFile
{
    version     2.0;
    format      ascii;
    class       volVectorField;
    location    "0.5";
    object      U.water;
}
// * * * * * * * * * * * * * * * * * * * * * * * * * * * * * * * * * * * * * //

dimensions      [0 1 -1 0 0 0 0];

internalField   nonuniform List<vector> 
2268
(
(0.0163665 -0.00732678 0)
(0.0462289 -0.00770975 0)
(0.0797791 -0.0059204 0)
(0.103258 -0.00954105 0)
(0.150797 -0.00633006 0)
(0.168165 -0.00630309 0)
(0.196276 -0.00802287 0)
(0.2375 -0.00867595 0)
(0.274912 -0.00699023 0)
(0.296988 -0.00415422 0)
(0.308903 -0.00424438 0)
(0.337237 -0.00567182 0)
(0.356354 -0.00519607 0)
(0.381458 -0.00656107 0)
(0.38169 -0.00962256 0)
(0.369168 -0.00959791 0)
(0.340714 0.00353445 0)
(0.281054 0.00475934 0)
(0.222618 0.0142151 0)
(0.155216 0.00345447 0)
(0.126908 0.0149569 0)
(0.0653029 0.0161432 0)
(-0.00345889 0.00696064 0)
(0.0165296 -0.0221597 0)
(0.04582 -0.0236447 0)
(0.0809458 -0.0174734 0)
(0.104738 -0.0295118 0)
(0.147904 -0.0184913 0)
(0.168789 -0.0182148 0)
(0.199358 -0.0263854 0)
(0.238386 -0.024814 0)
(0.273058 -0.0226848 0)
(0.292036 -0.0116915 0)
(0.315164 -0.0119946 0)
(0.344165 -0.0155816 0)
(0.364764 -0.0118577 0)
(0.37551 -0.00060514 0)
(0.383358 0.0197199 0)
(0.373007 0.036697 0)
(0.342797 0.0435763 0)
(0.290186 0.0541777 0)
(0.2194 0.0465195 0)
(0.17483 0.0390959 0)
(0.116592 0.0283742 0)
(0.075819 0.0406898 0)
(-0.00362202 0.0214357 0)
(0.0166641 -0.00834724 0)
(0.0455659 -0.0100481 0)
(0.0814423 -0.00308274 0)
(0.106666 -0.0157709 0)
(0.143213 -0.00451807 0)
(0.172842 -0.0050916 0)
(0.202069 -0.0126102 0)
(0.239815 -0.0115157 0)
(0.266643 -0.00891379 0)
(0.287744 0.00130062 0)
(0.325412 -0.00309073 0)
(0.356365 -0.0056997 0)
(0.372744 -0.00389031 0)
(0.386864 8.66871e-05 0)
(0.383995 -0.00302268 0)
(0.371845 0.00727802 0)
(0.338412 0.0399969 0)
(0.29767 0.0635324 0)
(0.217911 0.069708 0)
(0.181434 0.0547172 0)
(0.128856 0.0560003 0)
(0.102349 0.0683652 0)
(0.0406484 0.0496803 0)
(0.017178 0.125513 0)
(0.0451967 0.125115 0)
(0.0821736 0.129126 0)
(0.109106 0.120982 0)
(0.139349 0.133254 0)
(0.176736 0.133211 0)
(0.205578 0.127414 0)
(0.240165 0.135023 0)
(0.258656 0.139711 0)
(0.293633 0.14848 0)
(0.331258 0.145708 0)
(0.349565 0.155809 0)
(0.356585 0.169236 0)
(0.362518 0.191397 0)
(0.366327 0.165928 0)
(0.38164 0.144709 0)
(0.362775 0.135147 0)
(0.317085 0.123502 0)
(0.249127 0.0968607 0)
(0.17836 0.0748847 0)
(0.114055 0.0637139 0)
(0.0929059 0.0876164 0)
(0.0277508 0.0819196 0)
(0.0175949 0.0656072 0)
(0.0436759 0.0626093 0)
(0.0822527 0.0692185 0)
(0.111012 0.053979 0)
(0.131618 0.0641602 0)
(0.178725 0.0569707 0)
(0.208492 0.0424625 0)
(0.228119 0.0475219 0)
(0.254866 0.0413065 0)
(0.298488 0.0443281 0)
(0.323253 0.0360838 0)
(0.345385 0.0500184 0)
(0.365803 0.0606296 0)
(0.386469 0.0898955 0)
(0.377856 0.117167 0)
(0.348053 0.160097 0)
(0.305076 0.253304 0)
(0.299688 0.210261 0)
(0.249718 0.180764 0)
(0.187484 0.129248 0)
(0.093074 0.0997592 0)
(0.0672026 0.0968483 0)
(0.038163 0.105138 0)
(0.0138106 0.0156669 0)
(0.0360483 0.0178218 0)
(0.0659681 0.0155601 0)
(0.0950493 0.0263467 0)
(0.104927 0.0216603 0)
(0.136169 0.0222657 0)
(0.158658 0.0375809 0)
(0.176501 0.0405726 0)
(0.196226 0.0455803 0)
(0.224902 0.0553703 0)
(0.241587 0.075094 0)
(0.259044 0.0899963 0)
(0.283145 0.112924 0)
(0.287302 0.142617 0)
(0.279728 0.206673 0)
(0.281874 0.245435 0)
(0.264876 0.239543 0)
(0.234088 0.298567 0)
(0.151983 0.314733 0)
(0.15641 0.19829 0)
(0.0878461 0.127506 0)
(0.0387732 0.123009 0)
(0.0213885 0.137051 0)
(0.00052197 -0.0531672 0)
(0.0081041 -0.0584579 0)
(0.00811112 -0.0610168 0)
(0.018876 -0.0738454 0)
(0.0230099 -0.0754842 0)
(0.0294986 -0.0940962 0)
(0.0460503 -0.111194 0)
(0.0614421 -0.118905 0)
(0.081563 -0.132188 0)
(0.101813 -0.136715 0)
(0.115023 -0.14426 0)
(0.119509 -0.147775 0)
(0.115243 -0.146524 0)
(0.113709 -0.14257 0)
(0.131022 -0.13256 0)
(0.190699 -0.0105754 0)
(0.19369 0.268682 0)
(0.120484 0.315968 0)
(0.0788618 0.332933 0)
(0.0782553 0.316811 0)
(0.0837403 0.177106 0)
(0.0322008 0.131273 0)
(0.0205497 0.142422 0)
(9.16654e-05 -0.122099 0)
(0.00386236 -0.120726 0)
(0.00469154 -0.122849 0)
(0.0110833 -0.114893 0)
(0.0157145 -0.116669 0)
(0.0303055 -0.120198 0)
(0.0465634 -0.106202 0)
(0.0599395 -0.101137 0)
(0.0907334 -0.0962719 0)
(0.11769 -0.082336 0)
(0.140204 -0.0559346 0)
(0.15687 -0.0335631 0)
(0.16187 0.000229599 0)
(0.149083 0.0386697 0)
(0.0891067 0.080965 0)
(-0.00113566 0.0303169 0)
(0.103362 0.0201144 0)
(0.0135938 0.276741 0)
(-0.0493579 0.295366 0)
(-0.0274614 0.316386 0)
(0.0439569 0.241699 0)
(0.044009 0.170485 0)
(0.0271811 0.174248 0)
(-0.116136 -0.0617363 0)
(-0.221456 -0.120957 0)
(-0.324327 -0.194224 0)
(-0.401557 -0.312892 0)
(-0.399097 -0.394036 0)
(-0.293454 -0.464568 0)
(-0.188208 -0.521381 0)
(-0.0924321 -0.566839 0)
(-0.0043949 -0.591554 0)
(0.0514401 -0.62183 0)
(0.00620968 -0.625941 0)
(0.0195013 -0.583468 0)
(0.0899817 -0.614326 0)
(0.131679 -0.459947 0)
(0.139223 -0.363352 0)
(0.189843 -0.20664 0)
(0.316797 -0.0195213 0)
(0.295625 -0.101723 0)
(0.294263 -0.16259 0)
(-0.0416763 -0.0168202 0)
(-0.0808287 -0.0407521 0)
(-0.0884 -0.013577 0)
(-0.102808 0.0339782 0)
(-0.106375 0.0375363 0)
(0.0139983 -0.0546917 0)
(0.185351 -0.0943705 0)
(0.302064 -0.115319 0)
(0.397638 -0.128436 0)
(0.457062 -0.0805887 0)
(0.409474 0.0158673 0)
(0.212158 0.290622 0)
(0.0738518 0.505053 0)
(0.183651 0.406258 0)
(0.189446 0.263456 0)
(0.230136 0.106198 0)
(0.440829 0.0635049 0)
(0.465061 0.206643 0)
(0.411564 0.179075 0)
(-0.0012038 -0.0270567 0)
(0.0614013 -0.132427 0)
(0.121362 -0.150092 0)
(0.137687 -0.14887 0)
(0.259267 -0.251849 0)
(0.443532 -0.37063 0)
(0.536436 -0.430931 0)
(0.61778 -0.455914 0)
(0.715782 -0.475318 0)
(0.827907 -0.481902 0)
(0.928553 -0.504879 0)
(0.962172 -0.681391 0)
(0.387351 -0.924256 0)
(0.344329 -0.916033 0)
(0.35387 -0.890691 0)
(0.403899 -0.546886 0)
(0.309643 -0.0583646 0)
(0.306352 0.262077 0)
(0.330322 0.369227 0)
(0.0598898 -0.086821 0)
(0.176045 -0.209709 0)
(0.325692 -0.197752 0)
(0.400262 -0.183594 0)
(0.563995 -0.249281 0)
(0.744717 -0.340287 0)
(0.811758 -0.352858 0)
(0.851984 -0.356133 0)
(0.873266 -0.386751 0)
(0.903588 -0.426561 0)
(1.04881 -0.54224 0)
(1.35675 -0.892087 0)
(1.7514 -0.867676 0)
(1.16777 -0.763095 0)
(1.18287 -0.982218 0)
(0.834199 -0.678885 0)
(0.654966 -0.270325 0)
(0.182573 0.272576 0)
(0.265556 0.467434 0)
(0.0957583 -0.142523 0)
(0.231687 -0.28182 0)
(0.388497 -0.262558 0)
(0.514336 -0.251089 0)
(0.690068 -0.341059 0)
(0.791578 -0.403815 0)
(0.833336 -0.408508 0)
(0.855547 -0.416258 0)
(0.848723 -0.452838 0)
(0.793246 -0.553755 0)
(0.776628 -0.731157 0)
(0.886826 -0.967227 0)
(1.16902 -0.826127 0)
(0.893107 -0.621807 0)
(1.30474 -1.16982 0)
(1.13448 -1.04263 0)
(0.964734 -0.297653 0)
(0.142501 0.309759 0)
(0.241575 0.598409 0)
(0.155038 -0.1832 0)
(0.26568 -0.328855 0)
(0.382539 -0.310966 0)
(0.526978 -0.292644 0)
(0.673481 -0.353151 0)
(0.734582 -0.393076 0)
(0.770065 -0.380318 0)
(0.792504 -0.368083 0)
(0.788905 -0.401603 0)
(0.727269 -0.510352 0)
(0.716122 -0.61209 0)
(0.729469 -0.756742 0)
(0.846862 -0.669264 0)
(1.02054 -0.458706 0)
(1.85168 -1.26751 0)
(1.36445 -1.00164 0)
(1.10356 -0.378639 0)
(0.199081 0.322221 0)
(0.230462 0.674872 0)
(0.23779 -0.239265 0)
(0.299397 -0.35566 0)
(0.366296 -0.34252 0)
(0.502689 -0.328551 0)
(0.597766 -0.370286 0)
(0.642132 -0.40059 0)
(0.664514 -0.392284 0)
(0.701978 -0.379919 0)
(0.728899 -0.403855 0)
(0.691974 -0.450804 0)
(0.611634 -0.361223 0)
(0.646789 -0.530005 0)
(0.540874 -0.453408 0)
(1.24908 -0.603379 0)
(2.56978 -1.46809 0)
(1.31743 -0.694513 0)
(1.18088 -0.290044 0)
(0.374914 0.346786 0)
(0.29397 0.715515 0)
(0.306849 -0.341318 0)
(0.324255 -0.239757 0)
(0.40813 -0.261681 0)
(0.510039 -0.372313 0)
(0.579514 -0.304178 0)
(0.604502 -0.282583 0)
(0.619478 -0.302936 0)
(0.649134 -0.346723 0)
(0.68951 -0.405189 0)
(0.667728 -0.299926 0)
(0.595947 -0.289275 0)
(0.597482 -0.360434 0)
(0.652809 -0.576337 0)
(1.42978 -0.598917 0)
(3.05317 -1.3138 0)
(1.49837 -0.570932 0)
(1.26334 -0.107161 0)
(0.428274 0.523634 0)
(0.312403 0.816545 0)
(0.000236741 -0.0476209 0)
(0.00231461 -0.0495003 0)
(0.00427345 -0.0538068 0)
(0.00870169 -0.0520932 0)
(0.012563 -0.0574178 0)
(0.0217811 -0.0756902 0)
(0.0395267 -0.07346 0)
(0.0557181 -0.0824962 0)
(0.0869988 -0.0913503 0)
(0.106915 -0.0872997 0)
(0.118898 -0.0784834 0)
(0.129726 -0.0831896 0)
(0.131369 -0.0786635 0)
(0.145106 -0.0793017 0)
(0.169806 -0.0483446 0)
(0.191469 0.0277055 0)
(0.141827 0.182659 0)
(0.145322 0.228156 0)
(-0.0014088 0.40465 0)
(-0.0932042 0.253538 0)
(-0.0654167 0.275447 0)
(0.0309655 0.269678 0)
(0.121008 0.193411 0)
(0.00130301 -0.108278 0)
(0.00479146 -0.110346 0)
(0.00854934 -0.111289 0)
(0.0121296 -0.11181 0)
(0.0203021 -0.117215 0)
(0.0227972 -0.136997 0)
(0.0396558 -0.139374 0)
(0.0606596 -0.158805 0)
(0.0986712 -0.157385 0)
(0.11915 -0.142873 0)
(0.139571 -0.117441 0)
(0.17031 -0.0965984 0)
(0.174163 -0.0507877 0)
(0.181325 -0.0143378 0)
(0.158049 0.0191121 0)
(0.13521 0.0269752 0)
(0.15 0.0748311 0)
(0.170763 0.189692 0)
(0.204715 0.340321 0)
(0.0752307 0.36324 0)
(0.0102343 0.199561 0)
(0.016924 0.129214 0)
(0.078024 0.145715 0)
(0.00216544 -0.106172 0)
(0.00609258 -0.110417 0)
(0.00977437 -0.114568 0)
(0.00824452 -0.116797 0)
(0.00906891 -0.117953 0)
(0.00697498 -0.131451 0)
(0.0310029 -0.144908 0)
(0.0638732 -0.177836 0)
(0.115624 -0.169914 0)
(0.143367 -0.152844 0)
(0.177054 -0.123202 0)
(0.200449 -0.102345 0)
(0.213311 -0.0504307 0)
(0.243021 -0.0231957 0)
(0.237285 0.0202101 0)
(0.254654 0.0782324 0)
(0.236661 0.13932 0)
(0.231028 0.211172 0)
(0.298451 0.276979 0)
(0.386311 0.347175 0)
(0.35334 0.296099 0)
(0.274265 0.184931 0)
(0.250492 0.0672551 0)
(0.000372224 -0.0573866 0)
(-0.000155147 -0.056656 0)
(0.00494869 -0.0476896 0)
(0.0110706 -0.0395918 0)
(0.0175781 -0.049807 0)
(-0.00474658 -0.10333 0)
(0.00212524 -0.16658 0)
(0.0377611 -0.233618 0)
(0.0965161 -0.23865 0)
(0.126689 -0.227727 0)
(0.164183 -0.18823 0)
(0.1696 -0.153684 0)
(0.19292 -0.0969203 0)
(0.21419 -0.060982 0)
(0.220799 -0.00300049 0)
(0.255184 0.0326408 0)
(0.254124 0.103899 0)
(0.297034 0.137609 0)
(0.353765 0.20771 0)
(0.447137 0.189564 0)
(0.541682 0.191162 0)
(0.620619 0.130627 0)
(0.67424 0.0333631 0)
(0.00908095 -0.286371 0)
(0.0166871 -0.281606 0)
(0.022064 -0.263022 0)
(-0.00900242 -0.233632 0)
(-0.0793296 -0.189562 0)
(-0.106403 -0.191423 0)
(-0.0801647 -0.228145 0)
(-0.0629407 -0.312852 0)
(-0.0391759 -0.315829 0)
(-0.0201047 -0.290415 0)
(0.0340345 -0.246117 0)
(0.0533825 -0.217401 0)
(0.0932642 -0.17606 0)
(0.135516 -0.128826 0)
(0.148003 -0.0698747 0)
(0.209767 0.00775585 0)
(0.223068 0.0600129 0)
(0.277527 0.0931431 0)
(0.32909 0.126989 0)
(0.411712 0.102399 0)
(0.485618 0.0865059 0)
(0.562877 -0.00191978 0)
(0.656836 -0.0870435 0)
(0.0176238 -0.728538 0)
(0.0307808 -0.714415 0)
(0.0517465 -0.679092 0)
(0.0718589 -0.62938 0)
(0.0810199 -0.548526 0)
(0.0283218 -0.521704 0)
(-0.107988 -0.549245 0)
(-0.29261 -0.647182 0)
(-0.510382 -0.594241 0)
(-0.499432 -0.459813 0)
(-0.389051 -0.347506 0)
(-0.361364 -0.281275 0)
(-0.301433 -0.227762 0)
(-0.254952 -0.178176 0)
(-0.165914 -0.147683 0)
(-0.0702156 -0.0969665 0)
(0.0594515 -0.0126936 0)
(0.15091 0.00498191 0)
(0.227787 0.0244989 0)
(0.284757 -0.027301 0)
(0.397161 -0.0216825 0)
(0.459229 -0.114843 0)
(0.513047 -0.16454 0)
(0.148648 -0.50367 0)
(0.13033 -0.45686 0)
(0.225677 -0.347992 0)
(0.201791 -0.199042 0)
(0.311852 -0.0636212 0)
(0.113693 -0.321135 0)
(0.0614542 -1.01513 0)
(-0.239945 -1.13806 0)
(-0.601975 -0.908402 0)
(-0.572213 -0.682215 0)
(-0.47191 -0.621656 0)
(-0.454365 -0.507746 0)
(-0.425796 -0.42999 0)
(-0.397138 -0.366751 0)
(-0.369205 -0.297198 0)
(-0.317869 -0.24979 0)
(-0.248783 -0.243027 0)
(-0.106917 -0.157526 0)
(0.0109604 -0.0981903 0)
(0.0393507 -0.162205 0)
(0.19897 -0.12682 0)
(0.228104 -0.183333 0)
(0.287491 -0.232221 0)
(-0.0713621 -0.156596 0)
(-0.160865 -0.212682 0)
(-0.225314 -0.335637 0)
(-0.290679 -0.469532 0)
(-0.263027 -0.498167 0)
(-0.0524417 -0.371078 0)
(0.296398 -0.442231 0)
(0.689614 -0.268497 0)
(0.606474 -0.200925 0)
(0.288665 -0.0599632 0)
(-0.02378 0.105026 0)
(-0.276931 -0.098711 0)
(-0.308082 -0.481993 0)
(-0.287648 -0.567986 0)
(-0.270602 -0.542595 0)
(-0.240839 -0.48777 0)
(-0.233363 -0.457047 0)
(-0.190128 -0.416942 0)
(-0.172574 -0.393976 0)
(-0.127442 -0.436077 0)
(-0.0737604 -0.439821 0)
(-0.0176403 -0.516538 0)
(0.0576363 -0.554385 0)
(-0.0191318 0.0802729 0)
(-0.0394837 0.0404712 0)
(-0.0515707 0.0222713 0)
(-0.0425546 0.0108828 0)
(-0.0924974 0.0719746 0)
(0.0882165 0.112218 0)
(0.0439011 0.155057 0)
(0.297403 0.440977 0)
(0.0606732 0.410567 0)
(0.0558826 -0.0896918 0)
(-0.0448045 -0.403762 0)
(0.133172 -0.519294 0)
(0.273544 -0.449218 0)
(0.357165 -0.196998 0)
(0.39939 0.0161019 0)
(0.504042 0.208836 0)
(0.442383 0.658117 0)
(0.251427 0.562528 0)
(0.139254 0.215225 0)
(0.091145 0.123749 0)
(0.0537233 -0.199187 0)
(0.121828 0.0117315 0)
(0.127021 0.0130731 0)
(0.00358549 -0.214981 0)
(0.00304732 -0.250572 0)
(-0.00769723 -0.290004 0)
(-0.0174838 -0.332893 0)
(-0.0474391 -0.375365 0)
(0.015581 -0.333336 0)
(-0.020662 -0.413846 0)
(0.114194 0.116846 0)
(0.229504 0.285937 0)
(0.264737 0.156035 0)
(0.020339 0.00748276 0)
(0.0138527 -0.160913 0)
(0.00437557 -0.285135 0)
(0.0245107 -0.374429 0)
(0.0407526 -0.453517 0)
(0.0067736 -0.53637 0)
(0.13802 -0.681883 0)
(0.309444 -0.809062 0)
(0.473186 -0.775931 0)
(0.60313 -0.741687 0)
(0.591601 -0.636562 0)
(0.562603 -0.642492 0)
(0.554476 -0.655123 0)
(-0.0127182 0.0607525 0)
(-0.0225538 0.000585634 0)
(-0.0277919 -0.0467599 0)
(-0.0373698 -0.0894738 0)
(-0.0556128 -0.118809 0)
(-0.0524731 -0.111551 0)
(-0.0867467 -0.153896 0)
(-0.0944533 -0.0488265 0)
(0.201716 0.142239 0)
(0.234736 0.089154 0)
(0.248868 -0.0369108 0)
(0.241073 -0.258839 0)
(0.215197 -0.283154 0)
(0.218314 -0.255455 0)
(0.252627 -0.162662 0)
(0.286014 -0.0350097 0)
(0.306006 0.134327 0)
(0.287601 0.181617 0)
(0.259808 0.150886 0)
(0.22684 0.137785 0)
(0.197439 0.0469985 0)
(0.198495 0.0113576 0)
(0.201902 -0.031174 0)
(0.0133575 -0.127877 0)
(0.0317647 -0.163036 0)
(0.0327492 -0.1846 0)
(0.023452 -0.203417 0)
(0.00117217 -0.212445 0)
(-0.0157878 -0.200359 0)
(-0.0468625 -0.190549 0)
(-0.0688968 -0.10875 0)
(-0.0106963 0.0254489 0)
(0.138264 0.0605903 0)
(0.165202 -0.0518958 0)
(0.193242 -0.237272 0)
(0.144338 -0.311508 0)
(0.101224 -0.350777 0)
(0.0800892 -0.381679 0)
(0.0796052 -0.405499 0)
(0.117236 -0.415623 0)
(0.17528 -0.412848 0)
(0.210986 -0.365176 0)
(0.245724 -0.290813 0)
(0.241273 -0.251068 0)
(0.213182 -0.2712 0)
(0.15722 -0.285418 0)
(0.00458038 -0.0376623 0)
(0.0140723 -0.0818951 0)
(0.0193227 -0.110677 0)
(0.0157005 -0.136233 0)
(0.00184947 -0.15357 0)
(-0.0162637 -0.158327 0)
(-0.0408391 -0.161271 0)
(-0.0508412 -0.132795 0)
(-0.044752 -0.0841677 0)
(0.0661789 -0.0446263 0)
(0.109325 -0.101652 0)
(0.114118 -0.181058 0)
(0.0866416 -0.223972 0)
(0.0554489 -0.247299 0)
(0.0327707 -0.24124 0)
(0.00970533 -0.211466 0)
(-0.00784404 -0.179068 0)
(-0.0211181 -0.167246 0)
(-0.0303023 -0.16072 0)
(-0.0199495 -0.152174 0)
(0.00656114 -0.156907 0)
(0.014447 -0.167988 0)
(0.0159339 -0.173645 0)
(0.00782172 -0.0958476 0)
(0.0194702 -0.1244 0)
(0.0244356 -0.133845 0)
(0.0204478 -0.140198 0)
(0.00978737 -0.141229 0)
(-0.00354648 -0.137457 0)
(-0.0177617 -0.131928 0)
(-0.0238063 -0.114023 0)
(-0.0197658 -0.103431 0)
(0.0228095 -0.092264 0)
(0.0567265 -0.137066 0)
(0.041845 -0.191704 0)
(0.0177219 -0.231813 0)
(-0.00866311 -0.260151 0)
(-0.0337861 -0.269589 0)
(-0.0522973 -0.260295 0)
(-0.063517 -0.245696 0)
(-0.072819 -0.228279 0)
(-0.0794524 -0.199411 0)
(-0.0802166 -0.168516 0)
(-0.0781193 -0.151811 0)
(-0.0764003 -0.15195 0)
(-0.0724932 -0.153086 0)
(0.00512165 -0.0976787 0)
(0.0120435 -0.125857 0)
(0.012844 -0.132197 0)
(0.00762644 -0.133516 0)
(0.00127828 -0.13258 0)
(-0.00460783 -0.131049 0)
(-0.0105428 -0.12732 0)
(-0.00977442 -0.120538 0)
(-0.00493877 -0.116636 0)
(0.0114624 -0.108618 0)
(0.0262495 -0.128749 0)
(0.0165724 -0.156125 0)
(-0.00394521 -0.193601 0)
(-0.0293147 -0.224978 0)
(-0.0569102 -0.237321 0)
(-0.0726247 -0.235314 0)
(-0.0825578 -0.227541 0)
(-0.09262 -0.221301 0)
(-0.100097 -0.209776 0)
(-0.098458 -0.201525 0)
(-0.0945775 -0.195657 0)
(-0.0894878 -0.191504 0)
(-0.0856081 -0.187301 0)
(0.00309685 -0.103266 0)
(0.00455155 -0.127095 0)
(0.00228937 -0.128825 0)
(-0.000737963 -0.130278 0)
(-0.00295246 -0.130502 0)
(-0.00464777 -0.129402 0)
(-0.00508179 -0.127081 0)
(-0.0018562 -0.124716 0)
(0.000992614 -0.124543 0)
(0.00990746 -0.120862 0)
(0.0170604 -0.131596 0)
(0.0127967 -0.147111 0)
(0.00281344 -0.169861 0)
(-0.0200303 -0.192259 0)
(-0.0478933 -0.208834 0)
(-0.0669583 -0.216484 0)
(-0.0790026 -0.213691 0)
(-0.0861709 -0.207006 0)
(-0.0879208 -0.193792 0)
(-0.0903243 -0.187045 0)
(-0.0942223 -0.183999 0)
(-0.0947546 -0.179632 0)
(-0.0929241 -0.175135 0)
(0.00163073 -0.105536 0)
(0.000954435 -0.12604 0)
(-0.000305709 -0.127192 0)
(-0.00163708 -0.128791 0)
(-0.00298757 -0.12996 0)
(-0.00323379 -0.129578 0)
(-0.00207078 -0.129126 0)
(0.000717696 -0.128491 0)
(0.00313384 -0.129007 0)
(0.00874199 -0.127242 0)
(0.0134113 -0.133208 0)
(0.0135042 -0.144487 0)
(0.01146 -0.162301 0)
(0.000607286 -0.17743 0)
(-0.0171128 -0.189967 0)
(-0.0336382 -0.200211 0)
(-0.049844 -0.204088 0)
(-0.0618475 -0.204959 0)
(-0.0710239 -0.194827 0)
(-0.0775877 -0.183821 0)
(-0.0899153 -0.181447 0)
(-0.0967843 -0.181457 0)
(-0.0995935 -0.177694 0)
(0.000579789 -0.106219 0)
(0.000187773 -0.1252 0)
(-0.000141072 -0.126056 0)
(-0.000229512 -0.127408 0)
(-0.000963018 -0.128829 0)
(-0.00155598 -0.130088 0)
(-0.00149406 -0.130653 0)
(-0.000167664 -0.131072 0)
(0.00136663 -0.132171 0)
(0.00404984 -0.131893 0)
(0.00863506 -0.136986 0)
(0.0101084 -0.146048 0)
(0.00803406 -0.157209 0)
(0.000133994 -0.166009 0)
(-0.011459 -0.177297 0)
(-0.0228655 -0.185557 0)
(-0.0405683 -0.188513 0)
(-0.0551411 -0.186358 0)
(-0.0663997 -0.18152 0)
(-0.0759099 -0.170753 0)
(-0.0857137 -0.165758 0)
(-0.0986062 -0.167314 0)
(-0.105019 -0.167902 0)
(0.000143568 -0.105752 0)
(0.000416838 -0.124715 0)
(0.000559088 -0.125978 0)
(-5.31105e-05 -0.127411 0)
(-0.000918669 -0.128309 0)
(-0.00267126 -0.129622 0)
(-0.00427885 -0.130388 0)
(-0.00554699 -0.131616 0)
(-0.00643164 -0.133143 0)
(-0.00578851 -0.135772 0)
(-0.00407024 -0.139999 0)
(-0.00269352 -0.146452 0)
(-0.00539077 -0.152744 0)
(-0.00996811 -0.160263 0)
(-0.0190308 -0.167964 0)
(-0.0306869 -0.169811 0)
(-0.0474098 -0.172185 0)
(-0.0606395 -0.173538 0)
(-0.0703947 -0.171765 0)
(-0.082057 -0.163398 0)
(-0.0910296 -0.157677 0)
(-0.0997438 -0.163017 0)
(-0.105055 -0.166807 0)
(0.000435582 -0.10614 0)
(0.000109749 -0.124696 0)
(-0.000967609 -0.124718 0)
(-0.00255274 -0.125365 0)
(-0.00385681 -0.126155 0)
(-0.00546963 -0.127015 0)
(-0.00696293 -0.128317 0)
(-0.00834793 -0.129741 0)
(-0.00967156 -0.132119 0)
(-0.0109612 -0.135262 0)
(-0.0127668 -0.138556 0)
(-0.0145938 -0.142485 0)
(-0.0191752 -0.147589 0)
(-0.0245406 -0.153098 0)
(-0.0321544 -0.155875 0)
(-0.0405304 -0.157173 0)
(-0.0495465 -0.161952 0)
(-0.0589537 -0.165256 0)
(-0.0703591 -0.16119 0)
(-0.0797489 -0.153587 0)
(-0.084534 -0.149196 0)
(-0.0920877 -0.15436 0)
(-0.0970816 -0.157953 0)
(5.44316e-05 -0.106425 0)
(-0.000700588 -0.123359 0)
(-0.00230219 -0.123442 0)
(-0.00303868 -0.124133 0)
(-0.00421941 -0.124731 0)
(-0.00499965 -0.125214 0)
(-0.0059913 -0.126324 0)
(-0.00740153 -0.127362 0)
(-0.00920706 -0.12881 0)
(-0.0118058 -0.13203 0)
(-0.0152881 -0.136323 0)
(-0.0182807 -0.140651 0)
(-0.0235381 -0.142984 0)
(-0.0299566 -0.146686 0)
(-0.0364746 -0.149 0)
(-0.0436606 -0.151503 0)
(-0.0497298 -0.151609 0)
(-0.05975 -0.150717 0)
(-0.0708287 -0.149295 0)
(-0.0798131 -0.145233 0)
(-0.086572 -0.14369 0)
(-0.0937202 -0.148298 0)
(-0.100149 -0.151028 0)
(-0.000266502 -0.105514 0)
(-0.00137636 -0.122538 0)
(-0.00177517 -0.122769 0)
(-0.0026976 -0.123668 0)
(-0.00373498 -0.124068 0)
(-0.0048429 -0.124654 0)
(-0.00609226 -0.125404 0)
(-0.00738856 -0.126457 0)
(-0.00873717 -0.128189 0)
(-0.0107088 -0.130235 0)
(-0.0145635 -0.132863 0)
(-0.0181575 -0.135412 0)
(-0.0222746 -0.137032 0)
(-0.0281445 -0.14018 0)
(-0.0345391 -0.142702 0)
(-0.0420092 -0.145186 0)
(-0.0491281 -0.146226 0)
(-0.0568917 -0.144388 0)
(-0.0647141 -0.143799 0)
(-0.0709479 -0.139926 0)
(-0.0779603 -0.13847 0)
(-0.0832811 -0.142277 0)
(-0.0932473 -0.145292 0)
(-0.000126892 -0.105085 0)
(-0.00102112 -0.121531 0)
(-0.00250758 -0.121651 0)
(-0.0039162 -0.121922 0)
(-0.00545549 -0.122584 0)
(-0.00703237 -0.123579 0)
(-0.00850176 -0.124498 0)
(-0.0100199 -0.125426 0)
(-0.01174 -0.12613 0)
(-0.0138552 -0.12713 0)
(-0.0158802 -0.128541 0)
(-0.020558 -0.130098 0)
(-0.0246628 -0.133074 0)
(-0.0286824 -0.134091 0)
(-0.033974 -0.135415 0)
(-0.0406065 -0.135456 0)
(-0.0494607 -0.134753 0)
(-0.0579003 -0.135185 0)
(-0.0643455 -0.133361 0)
(-0.0716205 -0.130277 0)
(-0.0793468 -0.129156 0)
(-0.0849381 -0.130432 0)
(-0.0944991 -0.129191 0)
(-0.000496881 -0.103919 0)
(-0.00191094 -0.120094 0)
(-0.00343738 -0.120275 0)
(-0.00485965 -0.120731 0)
(-0.00633596 -0.121099 0)
(-0.00789211 -0.121452 0)
(-0.00975805 -0.122146 0)
(-0.0118503 -0.123152 0)
(-0.014138 -0.124385 0)
(-0.0164658 -0.124692 0)
(-0.0196953 -0.125733 0)
(-0.0234612 -0.12801 0)
(-0.0281592 -0.129169 0)
(-0.0331701 -0.129967 0)
(-0.0385095 -0.13075 0)
(-0.0438837 -0.130146 0)
(-0.0486756 -0.130092 0)
(-0.0540203 -0.1311 0)
(-0.0611649 -0.12861 0)
(-0.0685064 -0.126688 0)
(-0.0736115 -0.125449 0)
(-0.0828251 -0.125536 0)
(-0.0911207 -0.122316 0)
(-0.000229074 -0.103541 0)
(-0.00113109 -0.119093 0)
(-0.00250718 -0.118989 0)
(-0.00388816 -0.119164 0)
(-0.00546264 -0.119435 0)
(-0.00718871 -0.11988 0)
(-0.00899525 -0.120335 0)
(-0.0110337 -0.120893 0)
(-0.0134788 -0.121535 0)
(-0.016768 -0.122659 0)
(-0.0195368 -0.123233 0)
(-0.0215752 -0.123593 0)
(-0.0254514 -0.123946 0)
(-0.0307403 -0.124919 0)
(-0.0361651 -0.12527 0)
(-0.0411095 -0.124989 0)
(-0.0477459 -0.124638 0)
(-0.054842 -0.121116 0)
(-0.0620732 -0.120131 0)
(-0.0667029 -0.118241 0)
(-0.0733296 -0.117381 0)
(-0.0811785 -0.114437 0)
(-0.0890004 -0.112297 0)
(-0.000549915 -0.101934 0)
(-0.00204738 -0.117218 0)
(-0.00364483 -0.117255 0)
(-0.00517123 -0.117465 0)
(-0.00685486 -0.117684 0)
(-0.0087504 -0.117999 0)
(-0.0107675 -0.118373 0)
(-0.01298 -0.118759 0)
(-0.0154329 -0.118982 0)
(-0.0180394 -0.118874 0)
(-0.0208489 -0.119086 0)
(-0.0248901 -0.119586 0)
(-0.0286544 -0.119533 0)
(-0.03192 -0.119065 0)
(-0.0370073 -0.118616 0)
(-0.0433544 -0.119074 0)
(-0.0481894 -0.117429 0)
(-0.0530298 -0.117032 0)
(-0.0569402 -0.116582 0)
(-0.0636608 -0.113865 0)
(-0.0702933 -0.109585 0)
(-0.0782859 -0.107296 0)
(-0.0844161 -0.105868 0)
(-0.000498232 -0.10136 0)
(-0.00177828 -0.116325 0)
(-0.00331872 -0.116302 0)
(-0.00473024 -0.11638 0)
(-0.00623862 -0.116403 0)
(-0.00775961 -0.116308 0)
(-0.00958135 -0.116345 0)
(-0.0116923 -0.116461 0)
(-0.0140053 -0.116561 0)
(-0.016496 -0.116636 0)
(-0.0198393 -0.11671 0)
(-0.0237994 -0.11636 0)
(-0.0276419 -0.116538 0)
(-0.0322606 -0.115821 0)
(-0.0357135 -0.11572 0)
(-0.0386608 -0.114704 0)
(-0.0442818 -0.113464 0)
(-0.0499231 -0.111476 0)
(-0.0565635 -0.107789 0)
(-0.0635872 -0.105964 0)
(-0.0683613 -0.105101 0)
(-0.0738381 -0.102029 0)
(-0.0812018 -0.0970161 0)
(-0.000543043 -0.0996566 0)
(-0.00189545 -0.114242 0)
(-0.00352112 -0.114198 0)
(-0.0051355 -0.11418 0)
(-0.00698167 -0.114189 0)
(-0.00896487 -0.114298 0)
(-0.0110375 -0.114352 0)
(-0.0133117 -0.114281 0)
(-0.0157946 -0.114129 0)
(-0.0183847 -0.113757 0)
(-0.020803 -0.112939 0)
(-0.0228788 -0.112577 0)
(-0.0261303 -0.112085 0)
(-0.0297915 -0.111715 0)
(-0.0345213 -0.110231 0)
(-0.0404452 -0.108807 0)
(-0.0456143 -0.107475 0)
(-0.0501027 -0.105211 0)
(-0.0542214 -0.104719 0)
(-0.0578192 -0.102746 0)
(-0.0643845 -0.0977424 0)
(-0.0714156 -0.0942847 0)
(-0.0767645 -0.0915322 0)
(-0.000522864 -0.0990204 0)
(-0.00172027 -0.113416 0)
(-0.00313721 -0.113342 0)
(-0.00444009 -0.113188 0)
(-0.00586859 -0.112933 0)
(-0.00743804 -0.112608 0)
(-0.00925233 -0.112279 0)
(-0.0113002 -0.111936 0)
(-0.0136307 -0.111572 0)
(-0.0163333 -0.111216 0)
(-0.0195516 -0.110839 0)
(-0.0234604 -0.109974 0)
(-0.0270541 -0.10889 0)
(-0.0306651 -0.107637 0)
(-0.0341733 -0.106744 0)
(-0.0372185 -0.10604 0)
(-0.0406575 -0.104424 0)
(-0.0454871 -0.102273 0)
(-0.050836 -0.0980484 0)
(-0.0570703 -0.0948253 0)
(-0.0619565 -0.0931721 0)
(-0.0668826 -0.0896461 0)
(-0.0726508 -0.085034 0)
(-0.000559745 -0.0973755 0)
(-0.00186441 -0.111463 0)
(-0.00340938 -0.111409 0)
(-0.00490205 -0.111214 0)
(-0.00655679 -0.110955 0)
(-0.0083124 -0.110621 0)
(-0.0101936 -0.11016 0)
(-0.0122135 -0.109562 0)
(-0.0143816 -0.108844 0)
(-0.0166908 -0.108001 0)
(-0.0190407 -0.106988 0)
(-0.021277 -0.106093 0)
(-0.0240671 -0.105251 0)
(-0.0273325 -0.104067 0)
(-0.0309976 -0.102382 0)
(-0.0354783 -0.100151 0)
(-0.0404566 -0.0979654 0)
(-0.0449652 -0.0957478 0)
(-0.0491313 -0.0943048 0)
(-0.0529429 -0.0916587 0)
(-0.0578266 -0.0876319 0)
(-0.0633307 -0.0838872 0)
(-0.0682891 -0.0798809 0)
(-0.000494646 -0.0967556 0)
(-0.00150418 -0.110662 0)
(-0.00277611 -0.110566 0)
(-0.00396869 -0.110244 0)
(-0.00535799 -0.10982 0)
(-0.00690411 -0.109305 0)
(-0.00866308 -0.108712 0)
(-0.0106463 -0.108052 0)
(-0.0128564 -0.10732 0)
(-0.0153045 -0.106517 0)
(-0.0180203 -0.105535 0)
(-0.0210369 -0.10409 0)
(-0.0241742 -0.102567 0)
(-0.027415 -0.101078 0)
(-0.0307629 -0.0994433 0)
(-0.0340544 -0.0977355 0)
(-0.0373755 -0.09567 0)
(-0.0411399 -0.0928971 0)
(-0.0454635 -0.0894408 0)
(-0.0501051 -0.0861436 0)
(-0.0545489 -0.0830506 0)
(-0.0591411 -0.0792569 0)
(-0.0638781 -0.0748674 0)
(-0.00046449 -0.0953224 0)
(-0.00149885 -0.10901 0)
(-0.00277202 -0.108882 0)
(-0.00397006 -0.108415 0)
(-0.00533803 -0.107823 0)
(-0.00680768 -0.107086 0)
(-0.00841861 -0.106208 0)
(-0.0101901 -0.105216 0)
(-0.0121379 -0.104118 0)
(-0.0142802 -0.102924 0)
(-0.0166401 -0.101724 0)
(-0.0191369 -0.100573 0)
(-0.0217835 -0.0991316 0)
(-0.0246938 -0.0973806 0)
(-0.0278815 -0.0954418 0)
(-0.0313715 -0.0932139 0)
(-0.0351408 -0.0907504 0)
(-0.0389894 -0.0882179 0)
(-0.0427646 -0.0855153 0)
(-0.0465705 -0.0823065 0)
(-0.0506565 -0.0786104 0)
(-0.0550558 -0.0746961 0)
(-0.0594103 -0.0703606 0)
(-0.000351975 -0.0948397 0)
(-0.00113536 -0.108426 0)
(-0.00223321 -0.108292 0)
(-0.00322291 -0.10777 0)
(-0.00440988 -0.107118 0)
(-0.00571357 -0.106317 0)
(-0.0072 -0.105387 0)
(-0.00888442 -0.104326 0)
(-0.0107634 -0.103126 0)
(-0.0128338 -0.101768 0)
(-0.0150914 -0.10021 0)
(-0.0175948 -0.0984818 0)
(-0.0203084 -0.0966978 0)
(-0.0231403 -0.0948068 0)
(-0.02609 -0.0926938 0)
(-0.0291724 -0.0903794 0)
(-0.0323736 -0.0878231 0)
(-0.03575 -0.0849056 0)
(-0.0393482 -0.0816704 0)
(-0.043075 -0.0782252 0)
(-0.0468604 -0.0745727 0)
(-0.0508256 -0.070575 0)
(-0.0548698 -0.0661651 0)
(-0.000236414 -0.0939353 0)
(-0.000911956 -0.107092 0)
(-0.00192051 -0.106903 0)
(-0.00278132 -0.106219 0)
(-0.00383523 -0.105406 0)
(-0.00496106 -0.104416 0)
(-0.0061816 -0.103233 0)
(-0.00754799 -0.10192 0)
(-0.00911081 -0.100496 0)
(-0.0109461 -0.0990034 0)
(-0.0130744 -0.0974634 0)
(-0.0154193 -0.0958034 0)
(-0.0179322 -0.0939183 0)
(-0.0206448 -0.0918126 0)
(-0.0234981 -0.0895151 0)
(-0.0264776 -0.0870168 0)
(-0.0295806 -0.0843035 0)
(-0.0327768 -0.081376 0)
(-0.0360524 -0.0781754 0)
(-0.0394176 -0.0746607 0)
(-0.0428918 -0.0708376 0)
(-0.0465395 -0.0667397 0)
(-0.0502786 -0.0622922 0)
(-3.58701e-05 -0.0936984 0)
(-0.000639504 -0.106624 0)
(-0.00165992 -0.106421 0)
(-0.00243711 -0.105685 0)
(-0.00341783 -0.104824 0)
(-0.00442376 -0.103776 0)
(-0.00542687 -0.102461 0)
(-0.00647343 -0.100935 0)
(-0.00766441 -0.0992227 0)
(-0.00902764 -0.0973046 0)
(-0.0106369 -0.0952465 0)
(-0.0125994 -0.0931733 0)
(-0.0149284 -0.0911126 0)
(-0.0176176 -0.0890337 0)
(-0.0205191 -0.0867864 0)
(-0.0234586 -0.0842403 0)
(-0.0264384 -0.0814275 0)
(-0.0294519 -0.0783243 0)
(-0.032517 -0.0749512 0)
(-0.0356487 -0.0713194 0)
(-0.0388445 -0.0674104 0)
(-0.0421695 -0.0632141 0)
(-0.0456153 -0.0586991 0)
(0.000187128 -0.0932052 0)
(-0.000479703 -0.105406 0)
(-0.00176618 -0.105177 0)
(-0.00261559 -0.104405 0)
(-0.00367197 -0.103485 0)
(-0.00467981 -0.1024 0)
(-0.00573879 -0.10119 0)
(-0.00680648 -0.0997283 0)
(-0.00789077 -0.0979804 0)
(-0.00902454 -0.0959752 0)
(-0.0102382 -0.0937633 0)
(-0.0115948 -0.0913651 0)
(-0.0131649 -0.0888358 0)
(-0.0149728 -0.0861594 0)
(-0.017125 -0.0835004 0)
(-0.0197304 -0.0809163 0)
(-0.0226496 -0.0782342 0)
(-0.0257747 -0.075327 0)
(-0.0287526 -0.0719792 0)
(-0.031709 -0.0682982 0)
(-0.0346666 -0.0642872 0)
(-0.037707 -0.0599836 0)
(-0.0408757 -0.0553807 0)
(0.000284373 -0.0931267 0)
(-0.000688209 -0.104305 0)
(-0.00257658 -0.104068 0)
(-0.00377891 -0.103387 0)
(-0.0051575 -0.102513 0)
(-0.00638239 -0.101491 0)
(-0.00758692 -0.100281 0)
(-0.008722 -0.0988263 0)
(-0.00977052 -0.097093 0)
(-0.0107354 -0.0950891 0)
(-0.0116617 -0.0928087 0)
(-0.0126371 -0.090319 0)
(-0.0137377 -0.0876682 0)
(-0.0149301 -0.0847938 0)
(-0.01623 -0.0817935 0)
(-0.0177106 -0.0786016 0)
(-0.0194687 -0.0752931 0)
(-0.0216473 -0.0720514 0)
(-0.0244036 -0.0688431 0)
(-0.0273374 -0.0653541 0)
(-0.0302384 -0.0613972 0)
(-0.0330824 -0.0570456 0)
(-0.0360138 -0.0523403 0)
(0.000261176 -0.0930884 0)
(-0.00139905 -0.102784 0)
(-0.00418109 -0.102546 0)
(-0.00609613 -0.10204 0)
(-0.0081436 -0.101295 0)
(-0.00988236 -0.100306 0)
(-0.0115388 -0.0991509 0)
(-0.0129959 -0.0978014 0)
(-0.0142595 -0.0962484 0)
(-0.0152485 -0.0944251 0)
(-0.0159333 -0.0922633 0)