/*--------------------------------*- C++ -*----------------------------------*\
| =========                 |                                                 |
| \\      /  F ield         | OpenFOAM: The Open Source CFD Toolbox           |
|  \\    /   O peration     | Version:  2.4.0                                 |
|   \\  /    A nd           | Web:      www.OpenFOAM.org                      |
|    \\/     M anipulation  |                                                 |
\*---------------------------------------------------------------------------*/
FoamFile
{
    version     2.0;
    format      ascii;
    class       volScalarField;
    location    "0.05";
    object      alpha.mercury;
}
// * * * * * * * * * * * * * * * * * * * * * * * * * * * * * * * * * * * * * //

dimensions      [0 0 0 0 0 0 0];

internalField   nonuniform List<scalar> 
2268
(
1
1
1
1
1
1
1
1
1
1
1
1
0.972286
0.733358
0.246309
0.0180025
0.000140064
2.02912e-07
2.5665e-08
2.5135e-09
1.70966e-10
7.27772e-12
1.46803e-13
1
1
1
1
1
1
1
1
1
1
1
1
0.928507
0.495053
0.0754308
0.00178468
4.51357e-06
7.01382e-08
8.34602e-09
7.23801e-10
4.61174e-11
1.96529e-12
4.16996e-14
1
1
1
1
1
1
1
1
1
1
1
1
0.852485
0.337948
0.0284601
0.000227478
3.82832e-07
8.47051e-08
1.22599e-08
1.18056e-09
7.86997e-11
3.44592e-12
7.612e-14
1
1
1
1
1
1
1
1
1
1
1
1
0.774157
0.229046
0.0111128
4.32457e-05
1.75589e-07
3.24288e-08
4.06934e-09
3.72129e-10
2.54987e-11
1.22456e-12
3.12361e-14
1
1
1
1
1
1
1
1
1
1
1
1
0.70047
0.153453
0.004361
9.06052e-06
2.25748e-07
4.90616e-08
6.47739e-09
6.24124e-10
4.46549e-11
2.22031e-12
6.01964e-14
1
1
1
1
1
1
1
1
1
1
1
1
0.631081
0.101208
0.0016709
1.95477e-06
8.2981e-08
1.39984e-08
1.67746e-09
1.66587e-10
4.55443e-12
4.41644e-13
1.95593e-14
1
1
1
1
1
1
1
1
1
1
1
1
0.565522
0.0650931
0.000620726
4.46963e-07
2.84205e-08
2.98613e-09
2.85153e-10
2.59458e-11
1.83954e-12
1.34173e-13
6.93002e-15
1
1
1
1
1
1
1
1
1
1
1
1
0.500736
0.0399673
0.000221096
8.68412e-08
7.3427e-09
9.57183e-10
1.277e-10
1.58391e-11
1.72209e-12
1.57461e-13
1.0677e-14
1.7416e-32
2.11153e-31
6.43775e-33
1.01742e-34
1.14506e-36
1.0266e-38
8.51177e-41
6.46987e-43
4.35753e-45
2.53341e-47
1.24551e-49
5.08447e-52
1.69128e-54
4.48564e-57
9.22289e-60
1.41233e-62
1.51174e-65
1.00657e-68
3.12908e-72
3.30327e-30
4.84086e-29
1.59478e-30
2.7508e-32
3.39582e-34
3.34201e-36
3.04772e-38
2.52961e-40
1.85348e-42
1.16808e-44
6.20528e-47
2.73169e-49
9.78838e-52
2.79497e-54
6.18519e-57
1.01936e-59
1.17445e-62
8.41941e-66
2.81737e-69
2.73639e-28
4.94927e-27
1.76948e-28
3.3391e-30
4.5087e-32
4.83179e-34
4.80925e-36
4.30737e-38
3.37569e-40
2.26325e-42
1.27534e-44
5.94394e-47
2.25226e-49
6.79588e-52
1.58864e-54
2.76548e-57
3.36586e-60
2.54974e-63
9.02096e-67
1.51207e-26
2.94126e-25
1.16559e-26
2.43914e-28
3.63938e-30
4.31899e-32
4.72194e-34
4.58289e-36
3.85106e-38
2.75164e-40
1.64665e-42
8.13118e-45
3.25918e-47
1.03916e-49
2.56519e-52
4.71369e-55
6.05531e-58
4.84202e-61
1.80893e-64
6.39346e-25
1.10763e-23
5.03819e-25
1.19181e-26
1.98738e-28
2.65877e-30
3.1982e-32
3.36445e-34
3.03592e-36
2.31569e-38
1.47363e-40
7.71775e-43
3.2748e-45
1.10388e-47
2.87814e-50
5.58263e-53
7.56739e-56
6.38442e-59
2.51689e-62
2.38648e-23
2.70256e-22
1.48807e-23
4.08667e-25
7.73203e-27
1.17807e-28
1.56439e-30
1.78575e-32
1.73117e-34
1.41035e-36
9.55224e-39
5.31332e-41
2.3914e-43
8.54261e-46
2.35873e-48
4.842e-51
6.94216e-54
6.19163e-57
2.57936e-60
1.08742e-21
4.30777e-21
2.99613e-22
9.73469e-24
2.1188e-25
3.72726e-27
5.53389e-29
6.93515e-31
7.29865e-33
6.40469e-35
4.64476e-37
2.75356e-39
1.31606e-41
4.97857e-44
1.45269e-46
3.14655e-49
4.75513e-52
4.46728e-55
1.95963e-58
1.39615e-19
4.90048e-20
4.0944e-21
1.58881e-22
4.03199e-24
8.21568e-26
1.37242e-27
1.89567e-29
2.17024e-31
2.05443e-33
1.59849e-35
1.01283e-37
5.15873e-40
2.07465e-42
6.42212e-45
1.47303e-47
2.35351e-50
2.33448e-53
1.08006e-56
1
1
1
1
1
1
1
1
1
1
0.999999
0.999982
0.390751
0.0169778
4.48306e-05
9.39287e-09
1.34367e-09
2.11426e-10
2.93379e-11
3.69735e-12
4.38817e-13
5.24774e-14
6.87635e-15
0.999999
0.999999
0.999999
0.999998
0.999996
0.999992
0.999978
0.99995
0.99986
0.999646
0.999067
0.995316
0.225522
0.00303467
2.2204e-06
5.06214e-08
7.16012e-09
7.3889e-10
6.58635e-11
5.63381e-12
4.95952e-13
4.78118e-14
5.2867e-15
0.997894
0.997699
0.99729
0.996473
0.994797
0.992683
0.987823
0.982166
0.9704
0.954854
0.928552
0.862818
0.0708875
0.000158608
6.96079e-08
1.54791e-08
2.63711e-09
3.86472e-10
5.12923e-11
6.3759e-12
7.65874e-13
9.18225e-14
1.12877e-14
0.801771
0.796307
0.786711
0.768266
0.734765
0.708513
0.65219
0.614513
0.544822
0.488921
0.418431
0.324119
0.0132878
1.70856e-05
6.21456e-09
1.21099e-09
1.77389e-10
2.21292e-11
2.53519e-12
2.77098e-13
2.99146e-14
3.26076e-15
3.68017e-16
1.95096e-146
1.62131e-141
8.10382e-09
9.23711e-06
9.88373e-05
5.87135e-05
0.000198272
0.000136155
0.000270962
0.000161307
0.000204167
0.000114675
2.02848e-05
3.21895e-07
2.39613e-10
2.11413e-12
2.60549e-13
2.62631e-14
2.46898e-15
2.34266e-16
2.29277e-17
2.29332e-18
2.3314e-19
7.60173e-143
5.31841e-138
1.64733e-133
7.9798e-11
2.29532e-09
1.49946e-09
8.69556e-09
5.89761e-09
4.02159e-08
1.75109e-08
4.31583e-08
1.64159e-08
1.24656e-09
3.57317e-12
1.60866e-13
1.04566e-14
8.23607e-16
6.64949e-17
5.18669e-18
3.87913e-19
2.80178e-20
1.96942e-21
1.3554e-22
2.13112e-139
1.27431e-134
3.35044e-130
5.51077e-126
6.32738e-122
5.35125e-118
3.39039e-114
1.62951e-110
5.89578e-107
1.60034e-103
3.2624e-100
4.88049e-97
3.75482e-96
8.11198e-94
6.86479e-91
6.50681e-88
5.21496e-85
3.71944e-82
2.30274e-79
1.21186e-76
1.17992e-73
1.37516e-69
1.08146e-64
4.55272e-136
2.36642e-131
5.38872e-127
7.6358e-123
7.53025e-119
5.4295e-115
2.92186e-111
1.18401e-107
3.61531e-104
8.31129e-101
1.45332e-97
1.89155e-94
2.08524e-93
5.25109e-91
3.98437e-88
3.24151e-85
2.19666e-82
1.30551e-79
6.62702e-77
2.82021e-74
2.11731e-71
1.81813e-67
1.00382e-62
7.74396e-133
3.55381e-128
7.11364e-124
8.81333e-120
7.55458e-116
4.70165e-112
2.17129e-108
7.52092e-105
1.96228e-101
3.86764e-98
5.84446e-95
6.63069e-92
1.00668e-90
2.79849e-88
1.86588e-85
1.28367e-82
7.33319e-80
3.64681e-77
1.53294e-74
5.35529e-72
3.17122e-69
2.0825e-65
8.41428e-61
1.08572e-129
4.44818e-125
7.90713e-121
8.64494e-117
6.49195e-113
3.51476e-109
1.40427e-105
4.19453e-102
9.43207e-99
1.60593e-95
2.1065e-92
2.08361e-89
4.24713e-88
1.2466e-85
7.22413e-83
4.18021e-80
2.01423e-77
8.42082e-75
2.95765e-72
8.59656e-70
4.10818e-67
2.14067e-63
6.66867e-59
1.28676e-126
4.73981e-122
7.52974e-118
7.30326e-114
4.82887e-110
2.28678e-106
7.952e-103
2.06131e-99
4.01981e-96
5.94341e-93
6.78863e-90
5.86253e-87
1.57194e-85
4.70735e-83
2.35659e-80
1.14636e-77
4.67294e-75
1.651e-72
4.88701e-70
1.19641e-67
4.72487e-65
2.02641e-61
5.0325e-57
1.31562e-123
4.37542e-119
6.23019e-115
5.37489e-111
3.13867e-107
1.30484e-103
3.96629e-100
8.96451e-97
1.52304e-93
1.96308e-90
1.95777e-87
1.47975e-84
5.12629e-83
1.52608e-80
6.58003e-78
2.69633e-75
9.34114e-73
2.80554e-70
7.05931e-68
1.47328e-65
4.93241e-63
1.8028e-59
3.64984e-55
1.17626e-120
3.53773e-116
4.52086e-112
3.47479e-108
1.79582e-104
6.57251e-101
1.75245e-97
3.46625e-94
5.14865e-91
5.80257e-88
5.06262e-85
3.35236e-82
1.4879e-80
4.29812e-78
1.59433e-75
5.5229e-73
1.63559e-70
4.20411e-68
9.07753e-66
1.63624e-63
4.7752e-61
1.53398e-57
2.56381e-53
9.2712e-118
2.5219e-113
2.89389e-109
1.98386e-105
9.09087e-102
2.93703e-98
6.89107e-95
1.1967e-91
1.55881e-88
1.53998e-85
1.17795e-82
6.8498e-80
3.86417e-78
1.06292e-75
3.39274e-73
9.9862e-71
2.54593e-68
5.64624e-66
1.05788e-63
1.67202e-61
4.38252e-59
1.26428e-55
1.74024e-51
6.48498e-115
1.59689e-110
1.64572e-106
1.00707e-102
4.09818e-99
1.17141e-95
2.42493e-92
3.70729e-89
4.24556e-86
3.6844e-83
2.47596e-80
1.26679e-77
9.04601e-76
2.3312e-73
6.41166e-71
1.61473e-68
3.57483e-66
6.91089e-64
1.13891e-61
1.60584e-59
3.89486e-57
1.01466e-53
1.12022e-49
4.05435e-112
9.03017e-108
8.35558e-104
4.5682e-100
1.65403e-96
4.19253e-93
7.67642e-90
1.03563e-86
1.04502e-83
7.98274e-81
4.72072e-78
2.1297e-75
1.92129e-73
4.57763e-71
1.08802e-68
2.36609e-66
4.59797e-64
7.85039e-62
1.15631e-59
1.48016e-57
3.39463e-55
7.88788e-52
6.67194e-48
2.27418e-109
4.57788e-105
3.80552e-101
1.86078e-97
6.00366e-94
1.35199e-90
2.1938e-87
2.61784e-84
2.33378e-81
1.573e-78
8.20691e-76
3.27379e-73
3.72044e-71
8.11698e-69
1.67572e-66
3.18996e-64
5.51445e-62
8.44399e-60
1.12998e-57
1.33309e-55
2.91166e-53
5.89203e-50
3.61899e-46
1.15015e-106
2.09474e-102
1.56588e-98
6.85584e-95
1.97395e-91
3.95627e-88
5.70096e-85
6.03068e-82
4.75838e-79
2.83698e-76
1.31127e-73
4.64561e-71
6.56317e-69
1.30632e-66
2.37423e-64
4.0283e-62
6.2935e-60
8.77988e-58
1.08032e-55
1.18593e-53
2.44599e-51
4.19524e-48
1.79599e-44
5.27854e-104
8.69651e-100
5.85088e-96
2.29649e-92
5.90914e-89
1.0556e-85
1.35287e-82
1.27073e-79
8.89403e-77
4.70818e-74
1.94038e-71
6.12497e-69
1.0477e-66
1.92348e-64
3.16121e-62
4.86902e-60
6.98273e-58
8.9804e-56
1.01944e-53
1.03122e-51
1.96198e-49
2.76713e-46
9.22335e-44
2.20303e-101
3.27909e-97
1.98729e-93
6.99963e-90
1.61136e-86
2.56853e-83
2.93097e-80
2.44821e-77
1.52417e-74
7.20221e-72
2.65034e-69
7.50602e-67
1.54381e-64
2.63635e-62
4.04261e-60
5.75633e-58
7.5283e-56
8.8837e-54
9.18777e-52
8.07029e-50
5.76733e-48
3.2704e-46
1.31102e-44
9.3843e-105
1.39486e-100
1.05611e-96
4.82041e-93
1.44502e-89
2.98657e-86
4.38107e-83
4.64181e-80
3.58463e-77
2.01972e-74
8.24926e-72
2.50256e-69
5.97941e-67
1.44202e-64
3.15123e-62
5.96519e-60
9.76712e-58
1.34317e-55
1.50713e-53
1.33502e-51
9.11868e-50
4.85075e-48
2.16747e-46
3.1451e-107
4.74653e-103
3.24609e-99
1.3197e-95
3.55455e-92
6.71063e-89
9.18666e-86
9.32764e-83
7.14028e-80
4.17507e-77
1.88978e-74
6.7204e-72
1.92702e-69
4.73194e-67
1.00857e-64
1.87344e-62
3.03238e-60
4.26442e-58
5.20511e-56
5.5161e-54
5.00927e-52
3.68474e-50
2.16995e-48
1.97846e-110
3.17201e-106
2.29906e-102
9.92381e-99
2.84613e-95
5.7441e-92
8.44869e-89
9.27515e-86
7.73597e-83
4.97504e-80
2.5029e-77
1.00222e-74
3.27616e-72
9.05033e-70
2.13032e-67
4.30067e-65
7.48355e-63
1.12732e-60
1.47423e-58
1.67086e-56
1.62508e-54
1.35248e-52
1.03301e-50
4.8198e-114
8.22578e-110
6.3165e-106
2.89374e-102
8.84229e-99
1.91252e-95
3.03758e-92
3.63296e-89
3.33469e-86
2.38715e-83
1.35287e-80
6.16828e-78
2.30492e-75
7.18975e-73
1.89152e-70
4.23231e-68
8.12619e-66
1.35316e-63
1.97815e-61
2.56882e-59
2.98578e-57
3.12619e-55
2.98647e-53
7.15359e-118
1.32841e-113
1.11081e-109
5.55228e-106
1.857e-102
4.41437e-99
7.74412e-96
1.02903e-92
1.0564e-89
8.51743e-87
5.47461e-84
2.84651e-81
1.21482e-78
4.31114e-76
1.28516e-73
3.2475e-71
7.02563e-69
1.31711e-66
2.17119e-64
3.19748e-62
4.27417e-60
5.27111e-58
6.14292e-56
6.12663e-122
1.25545e-117
1.16049e-113
6.4276e-110
2.38947e-106
6.33652e-103
1.24529e-99
1.86255e-96
2.16335e-93
1.98384e-90
1.45731e-87
8.69105e-85
4.2604e-82
1.73572e-79
5.93457e-77
1.71882e-74
4.26087e-72
9.15578e-70
1.73251e-67
2.94196e-65
4.57637e-63
6.66033e-61
9.26439e-59
3.26858e-126
7.49062e-122
7.75935e-118
4.82898e-114
2.02323e-110
6.06707e-107
1.35317e-103
2.30575e-100
3.06331e-97
3.22584e-94
2.73089e-91
1.88211e-88
1.06808e-85
5.04254e-83
1.99942e-80
6.7215e-78
1.93586e-75
4.83712e-73
1.06511e-70
2.10706e-68
3.82872e-66
6.5422e-64
1.07574e-61
1.1327e-130
2.93951e-126
3.45316e-122
2.4433e-118
1.16737e-114
4.00488e-111
1.02524e-107
2.01175e-104
3.08778e-101
3.76825e-98
3.70735e-95
2.97645e-92
1.97144e-89
1.08806e-86
5.05142e-84
1.99159e-81
6.73813e-79
1.98035e-76
5.13194e-74
1.19449e-71
2.55189e-69
5.12497e-67
9.91154e-65
2.60606e-135
7.75717e-131
1.04513e-126
8.49648e-123
4.67729e-119
1.85468e-115
5.50518e-112
1.25629e-108
2.24887e-105
3.20918e-102
3.70073e-99
3.48995e-96
2.72044e-93
1.77026e-90
9.70811e-88
4.52997e-85
1.81728e-82
6.34209e-80
1.95254e-77
5.39478e-75
1.36492e-72
3.23558e-70
7.36299e-68
4.01036e-140
1.38943e-135
2.17305e-131
2.05105e-127
1.31356e-123
6.07723e-120
2.11121e-116
5.65539e-113
1.19158e-109
2.00624e-106
2.73552e-103
3.0563e-100
2.82777e-97
2.18809e-94
1.42956e-91
7.9622e-89
3.81962e-86
1.59623e-83
5.88744e-81
1.94696e-78
5.87928e-76
1.65585e-73
4.45293e-71
4.10574e-145
1.68521e-140
3.10389e-136
3.44147e-132
2.59011e-128
1.41119e-124
5.78965e-121
1.83705e-117
4.59746e-114
9.2163e-111
1.49937e-107
2.00253e-104
2.21872e-101
2.05945e-98
1.61687e-95
1.08405e-92
6.27032e-90
3.16329e-87
1.409e-84
5.62202e-82
2.04275e-79
6.88994e-77
2.20519e-74
2.7483e-150
1.36467e-145
3.01333e-141
3.98232e-137
3.56421e-133
2.31033e-129
1.12999e-125
4.28627e-122
1.286e-118
3.09848e-115
6.07191e-112
9.78699e-109
1.31087e-105
1.47329e-102
1.40273e-99
1.14228e-96
8.03568e-94
4.93519e-91
2.6768e-88
1.29949e-85
5.73057e-83
2.33559e-80
8.9774e-78
1.16698e-155
7.18287e-151
1.94298e-146
3.11782e-142
3.3694e-138
2.63118e-134
1.55098e-130
7.10472e-127
2.58105e-123
7.54987e-120
1.80051e-116
3.53902e-113
5.79024e-110
7.96136e-107
9.28628e-104
9.27592e-101
8.01318e-98
6.04768e-95
4.0313e-92
2.40327e-89
1.29859e-86
6.46018e-84
3.01382e-81
3.00334e-161
2.35645e-156
8.01167e-152
1.59718e-147
2.12593e-143
2.03342e-139
1.46473e-135
8.20245e-132
3.64979e-128
1.31089e-124
3.84845e-121
9.33272e-118
1.88734e-114
3.21243e-111
4.6445e-108
5.75665e-105
6.17594e-102
5.79126e-99
4.79611e-96
3.54949e-93
2.37631e-90
1.45981e-87
8.36807e-85
4.39207e-167
4.52931e-162
1.99477e-157
5.08007e-153
8.54026e-149
1.0228e-144
9.17362e-141
6.38196e-137
3.52872e-133
1.5777e-129
5.77967e-126
1.75313e-122
4.44349e-119
9.49504e-116
1.72563e-112
2.69114e-109
3.63512e-106
4.2929e-103
4.47653e-100
4.16817e-97
3.50459e-94
2.69602e-91
1.92692e-88
3.33133e-173
4.6641e-168
2.75307e-163
9.26345e-159
2.02957e-154
3.13167e-150
3.58768e-146
3.17039e-142
2.2213e-138
1.25865e-134
5.85349e-131
2.25903e-127
7.30079e-124
1.99293e-120
4.63338e-117
9.25248e-114
1.60126e-110
2.42308e-107
3.23669e-104
3.85734e-101
4.14426e-98
4.06339e-95
3.68755e-92
1.13846e-179
2.25297e-174
1.85146e-169
8.56416e-165
2.54338e-160
5.24628e-156
7.9431e-152
9.19721e-148
8.39547e-144
6.18211e-140
3.7366e-136
1.87698e-132
7.91162e-129
2.82241e-125
8.58927e-122
2.2476e-118
5.10027e-115
1.01205e-111
1.77207e-108
2.76599e-105
3.88612e-102
4.97128e-99
5.86635e-96
1.38339e-186
4.11102e-181
4.94354e-176
3.29624e-171
1.39348e-166
4.03333e-162
8.45144e-158
1.33901e-153
1.65786e-149
1.6463e-145
1.33843e-141
9.04188e-138
5.13234e-134
2.47025e-130
1.01603e-126
3.59812e-123
1.10583e-119
2.97238e-116
7.04778e-113
1.48846e-109
2.82539e-106
4.87294e-103
7.72917e-100
3.91399e-194
1.91448e-188
3.64214e-183
3.74196e-178
2.40089e-173
1.04117e-168
3.2226e-164
7.43883e-160
1.3264e-155
1.88022e-151
2.16941e-147
2.07406e-143
1.66557e-139
1.13549e-135
6.62596e-132
3.33399e-128
1.45738e-124
5.57367e-121
1.88004e-117
5.64438e-114
1.52098e-110
3.71667e-107
8.329e-104
1.10262e-202
1.01914e-196
3.47681e-191
6.16346e-186
6.64464e-181
4.76677e-176
2.40987e-171
8.95808e-167
2.5363e-162
5.64273e-158
1.01275e-153
1.49692e-149
1.85287e-145
1.94602e-141
1.75093e-137
1.36023e-133
9.19072e-130
5.4362e-126
2.83607e-122
1.31616e-118
5.47515e-115
2.06161e-111
7.10012e-108
2.14036e-213
4.86465e-207
3.87654e-201
1.519e-195
3.48067e-190
5.16517e-185
5.31969e-180
3.97723e-175
2.23133e-170
9.6947e-166
3.35628e-161
9.47241e-157
2.22225e-152
4.4037e-148
7.45767e-144
1.089e-139
1.38143e-135
1.53119e-131
1.49304e-127
1.29048e-123
9.95023e-120
6.90439e-116
4.3512e-112
1.11161e-227
6.33875e-221
1.61498e-214
1.898e-208
1.23121e-202
4.96753e-197
1.35854e-191
2.66837e-186
3.90222e-181
4.39011e-176
3.91858e-171
2.84865e-166
1.72817e-161
8.93494e-157
4.00187e-152
1.57356e-147
5.49009e-143
1.71262e-138
4.81961e-134
1.23448e-129
2.89645e-125
6.28484e-121
1.26866e-116
2.06022e-15
5.4609e-16
1.33159e-16
3.05703e-17
1.32434e-15
3.42415e-16
8.84496e-17
2.26774e-17
2.86998e-15
7.14347e-16
1.6883e-16
3.89779e-17
8.23674e-17
1.79014e-17
3.7446e-18
8.49169e-19
4.54222e-20
8.34661e-21
1.47625e-21
9.47396e-22
1.79189e-23
2.22953e-24
4.01581e-25
6.95982e-23
4.06833e-43
2.84305e-31
1.26252e-26
6.58177e-24
1.42908e-45
1.09431e-32
1.59503e-27
5.56985e-25
6.13309e-48
5.29494e-34
2.11773e-28
4.06001e-26
5.1939e-50
3.07774e-35
2.94787e-29
2.62816e-27
1.3755e-48
2.17789e-36
3.74554e-30
1.54157e-28
5.89174e-47
1.9196e-37
4.02551e-31
8.12628e-30
2.45649e-45
2.14692e-38
3.64684e-32
3.88835e-31
9.75252e-44
3.2272e-39
2.79189e-33
1.69726e-32
3.63022e-42
3.64609e-37
1.87273e-34
6.71601e-34
1.34562e-40
1.5152e-37
1.10159e-35
2.41914e-35
3.98215e-40
1.90964e-38
5.59319e-37
8.01389e-37
3.88495e-41
1.44468e-39
2.4401e-38
2.37317e-38
5.0846e-42
9.22514e-41
9.25618e-40
6.22842e-40
3.84513e-43
4.07196e-42
2.65123e-41
1.31631e-41
8.64357e-45
8.07502e-44
4.32894e-43
1.83671e-43
1.11174e-46
9.83766e-46
4.73684e-45
1.76627e-45
5.86416e-49
6.05589e-48
3.20317e-47
1.14115e-47
2.17492e-51
2.58909e-50
1.51111e-49
5.22533e-50
5.09042e-54
7.46355e-53
5.07037e-52
1.7635e-52
9.02424e-57
1.58666e-55
1.25828e-54
4.50385e-55
1.23406e-59
2.58366e-58
2.38829e-57
8.93585e-58
1.34176e-62
3.31129e-61
3.54905e-60
1.40527e-60
1.18218e-65
3.41323e-64
4.20648e-63
1.7806e-63
8.54791e-69
2.87783e-67
4.03683e-66
1.84285e-66
5.11614e-72
2.0114e-70
3.17666e-69
1.57617e-69
2.54984e-75
1.17782e-73
2.0725e-72
1.12556e-72
1.06289e-78
5.8275e-77
1.13224e-75
6.77367e-76
3.72013e-82
2.45315e-80
5.2278e-79
3.46523e-79
1.09756e-85
8.84002e-84
2.05818e-82
1.51941e-82
2.74124e-89
2.74309e-87
6.96939e-86
5.7562e-86
5.82182e-93
7.37566e-91
2.04749e-89
1.89923e-89
1.05579e-96
1.73038e-94
5.2649e-93
5.50149e-93
1.63958e-100
3.5698e-98
1.19568e-96
1.41052e-96
2.17887e-104
6.53297e-102
2.42064e-100
3.22767e-100
2.45517e-108
1.07098e-105
4.41078e-104
6.64868e-104
2.27589e-112
1.59047e-109
7.30783e-108
1.24396e-107
3.37065e-18
4.15279e-19
3.46121e-20
1.70084e-21
5.53174e-23
1.32733e-24
2.49552e-26
3.78804e-28
4.70049e-30
4.78087e-32
3.97313e-34
2.67773e-36
1.44643e-38
6.15588e-41
2.01336e-43
4.87323e-46
8.2084e-49
8.5766e-52
4.17694e-55
2.83171e-18
3.25425e-19
2.31862e-20
1.05613e-21
3.39046e-23
8.14648e-25
1.5206e-26
2.25653e-28
2.69718e-30
2.61126e-32
2.04758e-34
1.29422e-36
6.5319e-39
2.59264e-41
7.9068e-44
1.78646e-46
2.81443e-49
2.75731e-52
1.26247e-55
4.5975e-18
3.18647e-19
1.57311e-20
6.01449e-22
1.75776e-23
3.93927e-25
6.87209e-27
9.47926e-29
1.04637e-30
9.31031e-33
6.69201e-35
3.87411e-37
1.79112e-39
6.51504e-42
1.82095e-44
3.7689e-47
5.43405e-50
4.8663e-53
2.03408e-56
1.00863e-19
1.62812e-20
1.08023e-21
4.57343e-23
1.39368e-24
3.18724e-26
5.6082e-28
7.73164e-30
8.4604e-32
7.40668e-34
5.20253e-36
2.92535e-38
1.30659e-40
4.57003e-43
1.22344e-45
2.41755e-48
3.31923e-51
2.82481e-54
1.12024e-57
4.44103e-21
8.46688e-22
5.96102e-23
2.5606e-24
7.75048e-26
1.74565e-27
3.01299e-29
4.06171e-31
4.3309e-33
3.67988e-35
2.49805e-37
1.35177e-39
5.7874e-42
1.93361e-44
4.9302e-47
9.25721e-50
1.20558e-52
9.71943e-56
3.64744e-59
2.49766e-22
4.30386e-23
2.92689e-24
1.21887e-25
3.56024e-27
7.72077e-29
1.28182e-30
1.66036e-32
1.6982e-34
1.38076e-36
8.94397e-39
4.60467e-41
1.87041e-43
5.9145e-46
1.42443e-48
2.52243e-51
3.09469e-54
2.34869e-57
8.29183e-61
1.36159e-23
2.05215e-24
1.30419e-25
5.13991e-27
1.42219e-28
2.92191e-30
4.59603e-32
5.63836e-34
5.45654e-36
4.19157e-38
2.56054e-40
1.24084e-42
4.73599e-45
1.40509e-47
3.17134e-50
5.25884e-53
6.03877e-56
4.28868e-59
1.41645e-62
6.95998e-25
9.09453e-26
5.31457e-27
1.95096e-28
5.04177e-30
9.68304e-32
1.42437e-33
1.63413e-35
1.47828e-37
1.06071e-39
6.04684e-42
2.73209e-44
9.71463e-47
2.68354e-49
5.63754e-52
8.70033e-55
9.29907e-58
6.14877e-61
1.89101e-64
3.30062e-26
3.73902e-27
1.98779e-28
6.70826e-30
1.59855e-31
2.83472e-33
3.85307e-35
4.08644e-37
3.41805e-39
2.26777e-41
1.19541e-43
4.99441e-46
1.64241e-48
4.19711e-51
8.16022e-54
1.16615e-56
1.15493e-59
7.08174e-63
2.02067e-66
1.46349e-27
1.42838e-28
6.82749e-30
2.09072e-31
4.53653e-33
7.33941e-35
9.11428e-37
8.84165e-39
6.77165e-41
4.1179e-43
1.9915e-45
7.64134e-48
2.31014e-50
5.43302e-53
9.73208e-56
1.28281e-58
1.17323e-61
6.65149e-65
1.75616e-68
6.08242e-29
5.06111e-30
2.14566e-31
5.88217e-33
1.14762e-34
1.67432e-36
1.87959e-38
1.65203e-40
1.14882e-42
6.35634e-45
2.80254e-47
9.82242e-50
2.71748e-52
5.85889e-55
9.63746e-58
1.16847e-60
9.8453e-64
5.15062e-67
1.25609e-70
2.35185e-30
1.65396e-31
6.12707e-33
1.48255e-34
2.56793e-36
3.34128e-38
3.35862e-40
2.65297e-42
1.66373e-44
8.32817e-47
3.33198e-49
1.06261e-51
2.68184e-54
5.28702e-57
7.96949e-60
8.8724e-63
6.87783e-66
3.31666e-69
7.46338e-73
8.42734e-32
4.94471e-33
1.57345e-34
3.31022e-36
5.02742e-38
5.77607e-40
5.15756e-42
3.63848e-44
2.04773e-46
9.23879e-49
3.34433e-51
9.68304e-54
2.22554e-56
4.00665e-59
5.52911e-62
5.64827e-65
4.02631e-68
1.78911e-71
3.7133e-75
2.78031e-33
1.33608e-34
3.58089e-36
6.44981e-38
8.4934e-40
8.54956e-42
6.74336e-44
4.23243e-46
2.13222e-48
8.65598e-51
2.83183e-53
7.43894e-56
1.55651e-58
2.55869e-61
3.2327e-64
3.0307e-67
1.98707e-70
8.13844e-74
1.55795e-77
8.4648e-35
3.31405e-36
7.40281e-38
1.12429e-39
1.25871e-41
1.08503e-43
7.43554e-46
4.14862e-48
1.87094e-50
6.83762e-53
2.02292e-55
4.82502e-58
9.19906e-61
1.38203e-63
1.60003e-66
1.37782e-69
8.3152e-73
3.14127e-76
5.54822e-80
2.38926e-36
7.58984e-38
1.40889e-39
1.80286e-41
1.7178e-43
1.27004e-45
7.5362e-48
3.65653e-50
1.44282e-52
4.64096e-55
1.2197e-57
2.64752e-60
4.60865e-63
6.33916e-66
6.73576e-69
5.33517e-72
2.96686e-75
1.03473e-78
1.68522e-82
6.19608e-38
1.58554e-39
2.43737e-41
2.62738e-43
2.13427e-45
1.35758e-47
7.00565e-50
2.9668e-52
1.02783e-54
2.91882e-57
6.81825e-60
1.32064e-62
2.06177e-65
2.55601e-68
2.45979e-71
1.77308e-74
9.06927e-78
2.92382e-81
4.38698e-85
1.44559e-39
2.9629e-41
3.77068e-43
3.43227e-45
2.38613e-47
1.31183e-49
5.9122e-52
2.19517e-54
6.70568e-57
1.6878e-59
3.51968e-62
6.1003e-65
8.56071e-68
9.58201e-71
8.36171e-74
5.48822e-77
2.56877e-80
7.60453e-84
1.0478e-87
2.93914e-41
4.8147e-43
5.10763e-45
3.95336e-47
2.36923e-49
1.13374e-51
4.48831e-54
1.46933e-56
3.9774e-59
8.9118e-62
1.66496e-64
2.59026e-67
3.27566e-70
3.31665e-73
2.62792e-76
1.57191e-79
6.7387e-83
1.83097e-86
2.31423e-90
4.85812e-43
6.56838e-45
5.9038e-47
3.94206e-49
2.06014e-51
8.66701e-54
3.0375e-56
8.8278e-59
2.13002e-61
4.26965e-64
7.1727e-67
1.00503e-69
1.14838e-72
1.05389e-75
7.59198e-79
4.14283e-82
1.6265e-85
4.05344e-89
4.69644e-93
5.98784e-45
7.19824e-47
5.67267e-49
3.3418e-51
1.54778e-53
5.79954e-56
1.81625e-58
4.72401e-61
1.02277e-63
1.84423e-66
2.79882e-69
3.545e-72
3.67036e-75
3.0595e-78
2.00661e-81
1.00016e-84
3.59157e-88
8.20413e-92
8.70306e-96
5.35461e-47
6.12237e-49
4.43021e-51
2.37142e-53
9.93116e-56
3.36538e-58
9.52095e-61
2.23637e-63
4.37648e-66
7.14114e-69
9.83618e-72
1.1305e-74
1.06373e-77
8.07112e-81
4.82626e-84
2.19949e-87
7.22457e-91
1.51173e-94
1.46613e-98
3.54703e-49
4.03751e-51
2.78971e-53
1.39584e-55
5.39772e-58
1.6811e-60
4.34741e-63
9.31132e-66
1.65982e-68
2.46615e-71
3.09844e-74
3.24417e-77
2.78251e-80
1.92592e-83
1.0514e-86
4.38337e-90
1.3168e-93
2.52214e-97
2.23316e-101
1.74541e-51
2.07029e-53
1.4147e-55
6.79051e-58
2.47378e-60
7.19284e-63
1.72086e-65
3.39378e-68
5.55401e-71
7.5619e-74
8.71033e-77
8.34135e-80
6.54111e-83
4.13883e-86
2.06557e-89
7.88129e-93
2.16492e-96
3.79247e-100
3.06162e-104
6.51158e-54
8.33508e-56
5.79633e-58
2.73056e-60
9.54408e-63
2.62872e-65
5.88664e-68
1.07916e-70
1.63388e-73
2.05131e-76
2.17681e-79
1.914e-82
1.37625e-85
7.97669e-89
3.64371e-92
1.27328e-95
3.19766e-99
5.11963e-103
3.76434e-107
1.87666e-56
2.66551e-58
1.93052e-60
9.09993e-63
3.10135e-65
8.19843e-68
1.7372e-70
2.98699e-73
4.21454e-76
4.90882e-79
4.82091e-82
3.90626e-85
2.58248e-88
1.37365e-91
5.7496e-95
1.84083e-98
4.22594e-102
6.18033e-106
4.13589e-110
4.25768e-59
6.85296e-61
5.26585e-63
2.52413e-65
8.5057e-68
2.18309e-70
4.42037e-73
7.18739e-76
9.51494e-79
1.03402e-81
9.43697e-85
7.07038e-88
4.30842e-91
2.1067e-94
8.0882e-98
2.37356e-101
4.98093e-105
6.65264e-109
4.05161e-113
7.73297e-62
1.43329e-63
1.18583e-65
5.85763e-68
1.97501e-70
4.97081e-73
9.70196e-76
1.50276e-78
1.87801e-81
1.91427e-84
1.62947e-87
1.13227e-90
6.37369e-94
2.86927e-97
1.01144e-100
2.72194e-104
5.22325e-108
6.3741e-112
3.5363e-116
1.14079e-64
2.46563e-66
2.22246e-68
1.14373e-70
3.89732e-73
9.70003e-76
1.83877e-78
2.73069e-81
3.23884e-84
3.11118e-87
2.47802e-90
1.60131e-93
8.34338e-97
3.4628e-100
1.12205e-103
2.77042e-107
4.86566e-111
5.43256e-115
2.75155e-119
1.3842e-67
3.52405e-69
3.49378e-71
1.88988e-73
6.56307e-76
1.62671e-78
3.01423e-81
4.31553e-84
4.88069e-87
4.43623e-90
3.31529e-93
1.99701e-96
9.64837e-100
3.69701e-103
1.10275e-106
2.50088e-110
4.02726e-114
4.12466e-118
1.91386e-122
1.39665e-70
4.22357e-72
4.64128e-74
2.65812e-76
9.47266e-79
2.35174e-81
4.28249e-84
5.93859e-87
6.42925e-90
5.54834e-93
3.89965e-96
2.19417e-99
9.84659e-103
3.4887e-106
9.59753e-110
2.00353e-113
2.96733e-117
2.79877e-121
1.19475e-125
1.18333e-73
4.28065e-75
5.24708e-77
3.20047e-79
1.17698e-81
2.94071e-84
5.28576e-87
7.1265e-90
7.40942e-93
6.0874e-96
4.03262e-99
2.12351e-102
8.86747e-106
2.9109e-109
7.40608e-113
1.42742e-116
1.95262e-120
1.70373e-124
6.71275e-129
8.49371e-77
3.69768e-78
5.08202e-80
3.31707e-82
1.26449e-84
3.19157e-87
5.68242e-90
7.47154e-93
7.47967e-96
5.86294e-99
3.66804e-102
1.81121e-105
7.05336e-109
2.15117e-112
5.08159e-116
9.08124e-120
1.15291e-123
9.33878e-128
3.3959e-132
5.20757e-80
2.7424e-81
4.24389e-83
2.97539e-85
1.17984e-87
3.01715e-90
5.33561e-93
6.8582e-96
6.62474e-99
4.9637e-102
2.93862e-105
1.36372e-108
4.96683e-112
1.41271e-115
3.11352e-119
5.18552e-123
6.13333e-127
4.61338e-131
1.54019e-135
2.74853e-83
1.75854e-84
3.07443e-86
2.32207e-88
9.60273e-91
2.49359e-93
4.389e-96
5.52529e-99
5.15913e-102
3.70195e-105
2.07858e-108
9.09216e-112
3.1091e-115
8.28735e-119
1.71266e-122
2.66888e-126
2.94223e-130
2.04469e-134
6.19788e-139
1.25821e-86
9.81574e-88
1.94371e-89
1.58493e-91
6.84788e-94
1.80861e-96
3.17326e-99
3.91853e-102
3.54278e-105
2.43963e-108
1.30287e-111
5.39266e-115
1.73988e-118
4.36925e-122
8.50084e-126
1.24019e-129
1.2681e-133
8.05367e-138
2.1817e-142
5.0325e-90
4.80076e-91
1.07873e-92
9.5107e-95
4.29801e-97
1.15586e-99
2.02398e-102
2.45509e-105
2.15336e-108
1.42686e-111
7.2749e-115
2.86301e-118
8.76112e-122
2.08127e-125
3.81536e-129
5.18653e-133
4.86658e-137
2.78105e-141
6.61002e-146
1.77161e-93
2.07085e-94
5.28619e-96
5.04387e-98
2.38548e-100
6.53745e-103
1.14369e-105
1.36494e-108
1.16426e-111
7.45038e-115
3.64364e-118
1.37045e-121
3.99365e-125
8.98034e-129
1.54355e-132
1.93445e-136
1.64011e-140
8.28012e-145
1.69334e-149
5.52956e-97
7.93007e-98
2.30083e-99
2.37695e-101
1.17672e-103
3.28842e-106
5.75479e-109
6.77174e-112
5.63578e-115
3.4987e-118
1.64944e-121
5.95237e-125
1.65277e-128
3.50139e-132
5.58244e-136
6.35142e-140
4.77771e-144
2.08979e-148
3.60351e-153
1.54168e-100
2.71379e-101
8.94894e-103
1.00107e-104
5.18763e-107
1.47954e-109
2.5946e-112
3.0192e-115
2.46184e-118
1.48963e-121
6.79465e-125
2.35342e-128
6.19606e-132
1.22358e-135
1.78229e-139
1.80783e-143
1.18352e-147
4.39648e-152
6.25053e-157
3.86896e-104
8.35624e-105
3.13017e-106
3.79114e-108
2.05689e-110
5.99489e-113
1.05616e-115
1.21994e-118
9.78825e-122
5.79269e-125
2.55667e-128
8.4564e-132
2.08839e-135
3.78569e-139
4.94579e-143
4.38678e-147
2.4499e-151
7.55773e-156
8.60361e-161
8.8095e-108
2.33189e-108
9.91431e-110
1.3e-111
7.38951e-114
2.20546e-116
3.9165e-119
4.50815e-122
3.56985e-125
2.06581e-128
8.77559e-132
2.74159e-135
6.25285e-139
1.02178e-142
1.1739e-146
8.92353e-151
4.15658e-155
1.03395e-159
9.01063e-165
)
;

boundaryField
{
    leftWall
    {
        type            zeroGradient;
    }
    rightWall
    {
        type            zeroGradient;
    }
    lowerWall
    {
        type            zeroGradient;
    }
    atmosphere
    {
        type            inletOutlet;
        inletValue      uniform 0;
        value           nonuniform List<scalar> 
46
(
0
0
0
0
0
0
0
0
0
0
0
0
0
0
0
0
0
0
0
0
0
0
1.26866e-116
2.27589e-112
1.59047e-109
7.30783e-108
1.24396e-107
8.8095e-108
2.33189e-108
9.91431e-110
1.3e-111
7.38951e-114
2.20546e-116
3.9165e-119
4.50815e-122
3.56985e-125
2.06581e-128
8.77559e-132
2.74159e-135
6.25285e-139
1.02178e-142
1.1739e-146
8.92353e-151
4.15658e-155
1.03395e-159
9.01063e-165
)
;
    }
    defaultFaces
    {
        type            empty;
    }
}


// ************************************************************************* //
