/*--------------------------------*- C++ -*----------------------------------*\
| =========                 |                                                 |
| \\      /  F ield         | OpenFOAM: The Open Source CFD Toolbox           |
|  \\    /   O peration     | Version:  2.4.0                                 |
|   \\  /    A nd           | Web:      www.OpenFOAM.org                      |
|    \\/     M anipulation  |                                                 |
\*---------------------------------------------------------------------------*/
FoamFile
{
    version     2.0;
    format      ascii;
    class       volScalarField;
    location    "0.05";
    object      alpha.water;
}
// * * * * * * * * * * * * * * * * * * * * * * * * * * * * * * * * * * * * * //

dimensions      [0 0 0 0 0 0 0];

internalField   nonuniform List<scalar> 
2268
(
2.0965e-24
1.5455e-24
4.70178e-24
7.90529e-24
1.8468e-23
7.26854e-23
2.56104e-22
8.40892e-21
2.82744e-18
2.75691e-17
7.15307e-16
2.96943e-15
1.10498e-15
2.42441e-16
2.83728e-17
2.687e-18
1.74583e-19
7.99288e-21
2.8137e-22
7.8607e-24
1.69633e-25
2.54506e-27
1.9692e-29
7.56136e-22
3.80562e-22
1.09455e-21
1.59439e-21
3.22118e-21
1.07054e-20
3.21565e-20
8.76437e-19
3.00557e-16
1.95772e-15
3.53238e-14
8.74658e-14
3.5738e-14
6.64767e-15
7.60218e-16
6.40414e-17
3.97532e-18
1.91048e-19
7.31134e-21
2.2337e-22
5.25869e-24
8.58514e-26
7.23858e-28
1.29894e-19
4.0847e-20
1.1172e-19
1.39558e-19
2.45556e-19
6.98501e-19
1.88172e-18
4.09297e-17
1.39486e-14
6.22191e-14
8.01164e-13
1.22865e-12
4.71458e-13
7.7471e-14
8.31309e-15
6.54977e-16
4.02825e-17
2.01014e-18
8.17023e-20
2.68027e-21
6.85512e-23
1.23702e-24
1.18246e-26
1.39601e-17
2.53188e-18
6.75174e-18
6.99911e-18
1.09116e-17
2.73032e-17
7.25201e-17
1.18046e-15
3.72495e-13
1.19144e-12
1.08776e-11
1.0721e-11
3.53076e-12
5.32712e-13
5.383e-14
4.06618e-15
2.54741e-16
1.33995e-17
5.85537e-19
2.09893e-20
5.98956e-22
1.24035e-23
1.41172e-25
1.03162e-15
1.01721e-16
2.86286e-16
2.2501e-16
3.27104e-16
7.53845e-16
2.26988e-15
2.58643e-14
6.33824e-12
1.57081e-11
9.76892e-11
6.27556e-11
1.6988e-11
2.3966e-12
2.31958e-13
1.74964e-14
1.15418e-15
6.5553e-17
3.14262e-18
1.25535e-19
4.0889e-21
1.0039e-22
1.44098e-24
5.46389e-14
2.85202e-15
1.01349e-14
5.03374e-15
8.04137e-15
1.74271e-14
6.62916e-14
5.34012e-13
7.21044e-11
1.59616e-10
5.89922e-10
2.56123e-10
7.36287e-11
3.54524e-12
4.08488e-13
3.93566e-14
3.2657e-15
2.25213e-16
1.27663e-17
5.99183e-19
2.32719e-20
7.07091e-22
1.33469e-23
2.11343e-12
6.01061e-14
3.37596e-13
8.92091e-14
2.24103e-13
4.00117e-13
1.86128e-12
1.16724e-11
5.75409e-10
1.45961e-09
2.1921e-09
8.74564e-10
1.12878e-10
5.2614e-12
8.04704e-13
9.14235e-14
8.54928e-15
6.65123e-16
4.34709e-17
2.41891e-18
1.15045e-19
4.48749e-21
1.21015e-22
5.8486e-11
1.03749e-12
9.96784e-12
1.54434e-12
7.59745e-12
9.63964e-12
4.83872e-11
2.52327e-10
3.8109e-09
1.41375e-08
4.29475e-09
5.7446e-09
-6.71498e-13
5.30949e-13
5.33705e-13
9.84926e-14
1.23425e-14
1.23119e-15
1.02407e-16
7.30142e-18
4.52267e-19
2.39096e-20
9.71811e-22
4.67593e-39
1.76608e-37
4.21015e-39
5.07218e-41
4.31622e-43
2.91189e-45
1.81093e-47
1.0308e-49
5.20577e-52
2.2756e-54
8.43566e-57
2.60385e-59
6.56244e-62
1.32012e-64
2.05884e-67
2.38915e-70
1.93418e-73
9.71302e-77
2.26913e-80
1.18818e-36
5.34457e-35
1.38309e-36
1.82304e-38
1.70614e-40
1.26659e-42
8.67813e-45
5.39849e-47
2.96824e-49
1.40772e-51
5.6429e-54
1.8792e-56
5.10502e-59
1.10681e-61
1.86098e-64
2.32961e-67
2.03616e-70
1.10496e-73
2.79059e-77
1.32813e-34
7.2223e-33
2.03387e-34
2.93591e-36
3.01028e-38
2.43676e-40
1.8251e-42
1.22791e-44
7.23281e-47
3.65119e-49
1.55261e-51
5.47353e-54
1.57238e-56
3.60358e-59
6.40554e-62
8.48152e-65
7.84744e-68
4.51255e-71
1.2091e-74
1.04054e-32
5.67001e-31
1.77345e-32
2.84045e-34
3.22237e-36
2.89155e-38
2.38268e-40
1.74113e-42
1.10144e-44
5.92889e-47
2.67752e-49
9.99871e-52
3.03766e-54
7.35588e-57
1.38118e-59
1.93211e-62
1.88963e-65
1.14948e-68
3.2616e-72
6.40537e-31
2.8204e-29
1.01284e-30
1.83382e-32
2.32828e-34
2.36005e-36
2.14421e-38
1.70127e-40
1.15703e-42
6.6525e-45
3.19474e-47
1.26483e-49
4.0657e-52
1.04039e-54
2.06297e-57
3.04709e-60
3.14724e-63
2.02296e-66
6.0701e-70
3.47866e-29
9.0932e-28
3.94427e-29
8.28444e-31
1.19457e-32
1.3827e-34
1.39094e-36
1.20041e-38
8.78456e-41
5.39748e-43
2.75729e-45
1.15781e-47
3.94019e-50
1.06644e-52
2.23589e-55
3.49206e-58
3.815e-61
2.59484e-64
8.24375e-68
2.56956e-27
1.92209e-26
1.04598e-27
2.59519e-29
4.29874e-31
5.74678e-33
6.4704e-35
6.13786e-37
4.88289e-39
3.23696e-41
1.77358e-43
7.94898e-46
2.8757e-48
8.24773e-51
1.82803e-53
3.01328e-56
3.47095e-59
2.48819e-62
8.33212e-66
8.05142e-25
2.9304e-25
1.88862e-26
5.58124e-28
1.07413e-29
1.6607e-31
2.10558e-33
2.20536e-35
1.91195e-37
1.36907e-39
8.05261e-42
3.8574e-44
1.48662e-46
4.53054e-49
1.06484e-51
1.85844e-54
2.26393e-57
1.71499e-60
6.06604e-64
1.0952e-09
1.54311e-11
2.24492e-10
2.85808e-11
2.28278e-10
2.27686e-10
1.12575e-09
5.68779e-09
3.1703e-08
1.47506e-07
7.64355e-07
5.85822e-06
5.81337e-07
1.73669e-09
3.71975e-13
5.57731e-14
7.01365e-15
7.50497e-16
7.25842e-17
6.57119e-18
5.69405e-19
4.90772e-20
4.72143e-21
6.3374e-07
7.6031e-07
1.07528e-06
1.83151e-06
3.85452e-06
8.15291e-06
2.16233e-05
5.03464e-05
0.000139923
0.00035453
0.000932885
0.00312974
0.000240929
3.6361e-07
8.9882e-12
3.31036e-13
2.77296e-14
3.06441e-15
3.26623e-16
3.22924e-17
3.06442e-18
2.99382e-19
3.1505e-20
0.00210637
0.00230075
0.00270974
0.00352743
0.00520273
0.00731714
0.0121776
0.0178338
0.0295999
0.0451465
0.0714428
0.118455
0.0110177
1.13744e-05
2.95385e-10
2.44766e-11
3.32908e-12
4.98544e-13
8.11544e-14
1.05887e-14
1.2479e-15
1.56816e-16
2.05232e-17
0.198229
0.203693
0.213289
0.231734
0.265236
0.291487
0.34781
0.385487
0.455178
0.51108
0.581532
0.634079
0.0972781
0.000714673
1.743e-07
8.62079e-09
6.5943e-10
5.76658e-11
5.06979e-12
4.44955e-13
3.97238e-14
3.73372e-15
3.74183e-16
1
1
1
0.999991
0.999901
0.999941
0.999802
0.999864
0.999729
0.999838
0.999795
0.999329
0.241145
0.00497911
4.72347e-06
3.74836e-08
4.26195e-09
3.79562e-10
2.98345e-11
2.27853e-12
1.79264e-13
1.4863e-14
1.29854e-15
1
1
1
1
1
1
1
1
1
1
1
0.999596
0.259362
0.00648192
8.25283e-06
7.01804e-09
1.021e-09
1.23016e-10
1.29493e-11
1.24825e-12
1.13975e-13
1.0064e-14
8.67429e-16
1
1
1
1
1
1
1
1
1
1
1
0.999659
0.262687
0.0067949
8.99915e-06
3.73169e-09
4.50026e-10
5.04476e-11
5.20175e-12
4.97633e-13
4.46865e-14
3.79365e-15
3.05608e-16
1
1
1
1
1
1
1
1
1
1
1
0.999692
0.251797
0.0059769
6.95446e-06
2.74573e-10
2.09438e-12
4.11755e-13
5.52132e-14
6.22462e-15
6.25923e-16
5.7077e-17
4.73916e-18
1
1
1
1
1
1
1
1
1
1
1
0.999684
0.236508
0.00490956
4.68554e-06
1.45253e-10
1.49651e-12
2.03671e-13
2.02643e-14
1.8337e-15
1.54508e-16
1.19734e-17
8.43559e-19
1
1
1
1
1
1
1
1
1
1
1
0.999742
0.213273
0.00357968
2.49281e-06
5.70135e-11
1.56336e-12
1.47206e-13
1.20153e-14
9.40924e-16
6.77401e-17
4.40956e-18
2.5824e-19
1
1
1
1
1
1
1
1
1
1
1
0.999777
0.188951
0.00247695
1.20076e-06
2.49814e-11
1.51442e-12
1.23873e-13
9.91709e-15
6.97157e-16
4.27601e-17
2.31662e-18
1.11807e-19
1
1
1
1
1
1
1
1
1
1
1
0.999739
0.164181
0.00160507
5.06387e-07
1.40802e-11
1.23817e-12
1.06754e-13
7.42023e-15
4.28554e-16
2.13174e-17
9.35892e-19
3.66239e-20
1
1
1
1
1
1
1
1
1
1
1
0.999802
0.138372
0.000957178
1.8073e-07
3.15566e-11
3.10213e-12
2.9007e-13
1.74261e-14
8.26766e-16
3.31523e-17
1.15829e-18
3.56123e-20
1
1
1
1
1
1
1
1
1
1
1
0.999813
0.112512
0.000511779
5.62135e-08
1.02938e-10
1.0024e-11
6.20745e-13
2.90709e-14
1.11812e-15
3.67288e-17
1.05262e-18
2.63954e-20
1
1
1
1
1
1
1
1
1
1
1
0.999829
0.0859229
0.000227453
1.91155e-08
2.89899e-10
1.36484e-11
5.10174e-13
1.48281e-14
3.58734e-16
7.51186e-18
1.39189e-19
2.28178e-21
1
1
1
1
1
1
1
1
1
1
1
0.999839
0.0570809
7.77519e-05
3.20329e-08
5.82784e-10
1.67257e-12
8.86085e-14
3.01275e-15
7.49359e-17
1.44015e-18
2.222e-20
2.80248e-22
0.999899
0.999896
0.99989
0.99988
0.999866
0.999846
0.99982
0.999786
0.999742
0.999685
0.999613
0.999382
0.0281775
1.20007e-05
1.16112e-07
9.98646e-12
1.13835e-13
2.00555e-15
3.6609e-17
5.5479e-19
6.4591e-21
5.69676e-23
3.93707e-25
0.972474
0.97204
0.97122
0.969974
0.968282
0.966115
0.963442
0.96022
0.956412
0.952037
0.947141
0.940647
0.00362818
1.96822e-06
1.15013e-11
3.83172e-14
2.43871e-16
1.61829e-18
8.71046e-21
3.52563e-23
1.12716e-25
1.12836e-28
2.54407e-31
0.494971
0.49284
0.488877
0.483037
0.475402
0.4661
0.455287
0.443139
0.429905
0.415954
0.401453
0.386894
0.000677272
2.0802e-08
6.68766e-13
1.322e-15
3.46767e-19
1.00046e-24
2.71903e-35
7.13089e-37
2.65222e-35
6.54531e-33
7.48159e-31
4.49451e-80
2.69296e-76
6.77239e-73
1.01443e-69
1.01905e-66
7.24421e-64
3.76318e-61
1.45704e-58
4.26696e-56
9.5918e-54
1.69017e-51
2.29326e-49
2.24476e-47
1.7882e-45
1.23441e-43
7.5059e-42
3.93799e-40
1.75047e-38
6.45027e-37
1.93786e-35
4.63384e-34
8.78087e-33
1.20672e-31
4.79284e-83
2.70297e-79
7.98492e-76
1.46154e-72
1.80455e-69
1.57667e-66
1.00244e-63
4.71057e-61
1.64635e-58
4.2685e-56
8.12154e-54
1.1559e-51
1.29543e-49
1.44844e-47
1.43403e-45
1.18655e-43
8.09037e-42
4.3768e-40
1.82525e-38
5.72937e-37
1.34314e-35
2.42882e-34
3.7321e-33
1.95297e-85
1.11868e-81
2.99201e-78
4.89791e-75
5.46268e-72
4.38521e-69
2.61668e-66
1.1846e-63
4.12575e-61
1.11695e-58
2.37434e-56
4.0057e-54
5.47314e-52
6.37938e-50
6.36247e-48
5.3835e-46
3.81207e-44
2.2259e-42
1.06385e-40
4.17221e-39
1.34043e-37
3.39251e-36
6.80381e-35
2.85579e-88
1.68268e-84
4.61952e-81
7.78183e-78
8.96808e-75
7.48061e-72
4.67057e-69
2.23137e-66
8.28512e-64
2.42045e-61
5.62869e-59
1.0563e-56
1.63306e-54
2.13967e-52
2.37581e-50
2.22634e-48
1.74721e-46
1.13832e-44
6.10965e-43
2.68579e-41
9.61028e-40
2.82271e-38
7.41341e-37
1.61002e-91
9.79553e-88
2.76275e-84
4.79069e-81
5.70834e-78
4.9565e-75
3.24963e-72
1.64722e-69
6.56715e-67
2.08801e-64
5.36118e-62
1.12623e-59
1.96433e-57
2.88306e-55
3.57391e-53
3.74034e-51
3.29777e-49
2.44419e-47
1.52243e-45
7.99266e-44
3.55501e-42
1.3554e-40
4.53965e-39
5.65304e-95
3.64068e-91
1.08685e-87
1.99812e-84
2.53297e-81
2.35107e-78
1.65768e-75
9.10159e-73
3.96298e-70
1.38848e-67
3.96455e-65
9.33661e-63
1.83423e-60
3.03285e-58
4.24096e-56
5.02528e-54
5.04934e-52
4.30521e-50
3.12096e-48
1.93171e-46
1.02927e-44
4.79389e-43
2.01188e-41
1.18924e-98
8.23116e-95
2.6414e-91
5.22754e-88
7.15332e-85
7.19456e-82
5.52331e-79
3.32099e-76
1.59378e-73
6.1968e-71
1.97678e-68
5.23132e-66
1.15958e-63
2.1693e-61
3.44339e-59
4.65428e-57
5.37183e-55
5.30994e-53
4.51415e-51
3.32171e-49
2.13662e-47
1.21941e-45
6.3119e-44
1.5941e-102
1.20343e-98
4.213e-95
9.10645e-92
1.36382e-88
1.50577e-85
1.27385e-82
8.47828e-80
4.5266e-77
1.9684e-74
7.05924e-72
2.11013e-69
5.30465e-67
1.12972e-64
2.05007e-62
3.18484e-60
4.25366e-58
4.90643e-56
4.91514e-54
4.30847e-52
3.33854e-50
2.31856e-48
1.47002e-46
1.41361e-106
1.18008e-102
4.568e-99
1.09257e-95
1.81337e-92
2.22388e-89
2.09594e-86
1.55958e-83
9.34592e-81
4.58059e-78
1.85929e-75
6.31594e-73
1.81143e-70
4.4189e-68
9.22662e-66
1.65807e-63
2.57801e-61
3.48753e-59
4.13169e-57
4.32106e-55
4.02948e-53
3.39231e-51
2.61886e-49
8.4659e-111
7.91638e-107
3.43122e-103
9.19238e-100
1.71069e-96
2.35626e-93
2.49973e-90
2.09947e-87
1.42447e-84
7.93111e-82
3.66986e-79
1.42617e-76
4.69648e-74
1.32064e-71
3.19248e-69
6.67555e-67
1.2147e-64
1.93556e-62
2.71991e-60
3.39824e-58
3.81124e-56
3.88013e-54
3.63469e-52
3.45484e-115
3.66404e-111
1.80001e-107
5.46552e-104
1.15346e-100
1.80374e-97
2.17611e-94
2.08272e-91
1.61421e-88
1.02942e-85
5.47171e-83
2.4502e-80
9.32826e-78
3.04357e-75
8.57161e-73
2.09766e-70
4.48996e-68
8.46295e-66
1.41496e-63
2.11563e-61
2.85469e-59
3.51156e-57
3.98532e-55
9.60106e-120
1.16935e-115
6.59088e-112
2.29521e-108
5.55634e-105
9.97352e-102
1.3827e-98
1.52305e-95
1.36108e-92
1.00299e-89
6.17513e-87
3.21142e-84
1.4241e-81
5.42969e-79
1.79341e-76
5.16804e-74
1.30836e-71
2.93058e-69
5.85109e-67
1.04968e-64
1.70673e-62
2.53854e-60
3.49149e-58
1.79935e-124
2.5495e-120
1.66972e-116
6.75167e-113
1.89748e-109
3.95503e-106
6.37135e-103
8.16338e-100
8.4975e-97
7.30597e-94
5.25838e-91
3.204e-88
1.66882e-85
7.49456e-83
2.92491e-80
9.99377e-78
3.01117e-75
8.05931e-73
1.93052e-70
4.1714e-68
8.19772e-66
1.47789e-63
2.4686e-61
2.22912e-129
3.72606e-125
2.87454e-121
1.36784e-117
4.52134e-114
1.10827e-110
2.10014e-107
3.16717e-104
3.88402e-101
3.93908e-98
3.34932e-95
2.41527e-92
1.49196e-89
7.96508e-87
3.70514e-84
1.51334e-81
5.46801e-79
1.76082e-76
5.09173e-74
1.33242e-71
3.18027e-69
6.97987e-67
1.42177e-64
1.76626e-134
3.53783e-130
3.26477e-126
1.85588e-122
7.32207e-119
2.1412e-115
4.84003e-112
8.70867e-109
1.27489e-105
1.54474e-102
1.57098e-99
1.35685e-96
1.00553e-93
6.45254e-91
3.61566e-88
1.7832e-85
7.80004e-83
3.04906e-80
1.0732e-77
3.42732e-75
1.00069e-72
2.69192e-70
6.73086e-68
8.50354e-140
2.07855e-135
2.33585e-131
1.61439e-127
7.73454e-124
2.74436e-120
7.52327e-117
1.6414e-113
2.91409e-110
4.28394e-107
5.28963e-104
5.55243e-101
5.00697e-98
3.91543e-95
2.6782e-92
1.61542e-89
8.65986e-87
4.15768e-84
1.80129e-81
7.09562e-79
2.56035e-76
8.52579e-74
2.64229e-71
2.29791e-145
7.00789e-141
9.80167e-137
8.41462e-133
4.99985e-129
2.19761e-125
7.45656e-122
2.01255e-118
4.41915e-115
8.03547e-112
1.22764e-108
1.59536e-105
1.78254e-102
1.72897e-99
1.46873e-96
1.10179e-93
7.35741e-91
4.40757e-88
2.38673e-85
1.17707e-82
5.32553e-80
2.22655e-77
8.67333e-75
3.0739e-151
1.20308e-146
2.15333e-142
2.35999e-138
1.78672e-134
9.99084e-131
4.30753e-127
1.47603e-123
4.11246e-120
9.48544e-117
1.83815e-113
3.03056e-110
4.29779e-107
5.29437e-104
5.71675e-101
5.45664e-98
4.64165e-95
3.54653e-92
2.45254e-89
1.54657e-86
8.95759e-84
4.79934e-81
2.39795e-78
1.6514e-157
8.61566e-153
2.04905e-148
2.97534e-144
2.9773e-140
2.19616e-136
1.24712e-132
5.62167e-129
2.05854e-125
6.23621e-122
1.58663e-118
3.43381e-115
6.39259e-112
1.03404e-108
1.46673e-105
1.84022e-102
2.05914e-99
2.07134e-96
1.88746e-93
1.56975e-90
1.2001e-87
8.49413e-85
5.6101e-82
2.43364e-164
1.79356e-159
5.98949e-155
1.21662e-150
1.69799e-146
1.74271e-142
1.37424e-138
8.58857e-135
4.35472e-131
1.82487e-127
6.41755e-124
1.91876e-120
4.93328e-117
1.10193e-113
2.15852e-110
3.74079e-107
5.78402e-104
8.04362e-101
1.01382e-97
1.16692e-94
1.23535e-91
1.21137e-88
1.1089e-85
4.47852e-172
5.10247e-167
2.61957e-162
8.14388e-158
1.73333e-153
2.70495e-149
3.2354e-145
3.06082e-141
2.3453e-137
1.48314e-133
7.86194e-130
3.53984e-126
1.36956e-122
4.60093e-119
1.35498e-115
3.52974e-112
8.20342e-109
1.71487e-105
3.24948e-102
5.62411e-99
8.95477e-96
1.32093e-92
1.8192e-89
7.74056e-182
1.69445e-176
1.65549e-171
9.73457e-167
3.90173e-162
1.14262e-157
2.55701e-153
4.51387e-149
6.4382e-145
7.56163e-141
7.42806e-137
6.18448e-133
4.41494e-129
2.73048e-125
1.47696e-121
7.04962e-118
2.99424e-114
1.14072e-110
3.92725e-107
1.23089e-103
3.53596e-100
9.37191e-97
2.30829e-93
3.37912e-195
1.96398e-189
4.77673e-184
6.88977e-179
6.72938e-174
4.78712e-169
2.60033e-164
1.11573e-159
3.88122e-155
1.11773e-150
2.71201e-146
5.62912e-142
1.01314e-137
1.60083e-133
2.24641e-129
2.83048e-125
3.23608e-121
3.39047e-117
3.28581e-113
2.97304e-109
2.53221e-105
2.04546e-101
1.57524e-97
1.246e-21
2.87262e-22
6.52246e-23
5.64357e-23
1.62841e-20
1.52104e-20
7.43033e-21
3.56412e-21
5.60633e-18
1.42519e-18
3.66275e-19
9.63024e-20
7.59505e-17
1.50676e-17
3.02572e-18
6.12859e-19
2.25871e-16
3.79075e-17
6.25708e-18
1.01612e-18
1.40933e-16
2.15457e-17
3.21001e-18
3.96249e-19
4.53576e-17
6.24898e-18
8.62635e-19
9.58742e-20
6.97485e-19
9.36681e-20
1.24721e-20
5.23274e-21
1.06342e-19
1.22636e-20
1.41347e-21
3.76257e-22
2.75307e-20
2.67789e-21
2.62376e-22
3.57123e-23
9.99727e-21
8.13502e-22
5.64649e-23
4.16496e-24
2.69679e-21
1.78674e-22
9.50079e-24
4.77754e-25
2.04884e-21
1.0531e-22
2.77242e-24
6.81587e-26
1.24072e-21
5.30276e-23
7.13959e-25
7.72511e-27
7.22788e-23
3.60461e-24
5.00618e-26
5.13522e-28
6.65577e-24
2.09532e-25
3.38789e-27
3.11831e-29
4.99883e-27
1.45171e-26
2.12891e-28
1.7235e-30
1.47279e-28
9.09876e-28
1.21609e-29
8.44014e-32
1.50006e-29
5.48052e-29
6.25403e-31
3.63651e-33
1.2902e-30
2.63728e-30
2.49295e-32
1.25956e-34
4.917e-32
6.90417e-32
5.82361e-34
2.89199e-36
1.20717e-33
1.21425e-33
9.30037e-36
4.59309e-38
1.31343e-35
1.12108e-35
9.3124e-38
4.91022e-40
1.0323e-37
7.35476e-38
6.57496e-40
3.72062e-42
5.10592e-40
3.27809e-40
3.32892e-42
2.07447e-44
1.89202e-42
1.07928e-42
1.25461e-44
8.72938e-47
5.29776e-45
2.71218e-45
3.63505e-47
2.84495e-49
1.14979e-47
5.32438e-48
8.28149e-50
7.32874e-52
1.96609e-50
8.31986e-51
1.51081e-52
1.51802e-54
2.682e-53
1.05049e-53
2.24073e-55
2.56593e-57
2.94958e-56
1.08563e-56
2.73749e-58
3.58614e-60
2.64058e-59
9.29008e-60
2.78782e-61
4.19388e-63
1.94238e-62
6.65499e-63
2.39315e-64
4.15022e-66
1.18523e-65
4.03364e-66
1.75049e-67
3.51285e-69
6.05966e-69
2.0909e-69
1.10278e-70
2.57018e-72
2.62386e-72
9.37269e-73
6.04893e-74
1.64269e-75
9.73535e-76
3.67545e-76
2.92125e-77
9.26976e-79
3.13489e-79
1.27635e-79
1.25654e-80
4.66909e-82
8.88335e-83
3.97605e-83
4.87218e-84
2.12278e-85
2.24871e-86
1.12639e-86
1.72442e-87
8.81227e-89
5.16732e-90
2.94414e-90
5.64396e-91
3.38012e-92
1.09896e-93
7.21241e-94
1.73159e-94
1.2127e-95
2.64177e-23
3.45952e-24
2.15753e-25
7.97579e-27
1.96625e-28
3.58511e-30
5.1197e-32
5.89423e-34
5.53785e-36
4.25825e-38
2.67235e-40
1.35931e-42
5.54235e-45
1.78195e-47
4.40948e-50
8.09092e-53
1.03539e-55
8.23691e-59
3.06e-62
6.96772e-22
6.64833e-23
3.92768e-24
1.4799e-25
3.94968e-27
7.943e-29
1.24807e-30
1.56509e-32
1.584e-34
1.29936e-36
8.63068e-39
4.61689e-41
1.9692e-43
6.59263e-46
1.69187e-48
3.20847e-51
4.23187e-54
3.46319e-57
1.32207e-60
9.79297e-21
5.76762e-22
2.41901e-23
7.98391e-25
2.04313e-26
4.05308e-28
6.31095e-30
7.81916e-32
7.79193e-34
6.28795e-36
4.11894e-38
2.18452e-40
9.30297e-43
3.13318e-45
8.1448e-48
1.57312e-50
2.12079e-53
1.77685e-56
6.94407e-60
4.91327e-20
2.18853e-21
7.42754e-23
2.0718e-24
4.69887e-26
8.63171e-28
1.28952e-29
1.57357e-31
1.57183e-33
1.28454e-35
8.55916e-38
4.61931e-40
1.99777e-42
6.81248e-45
1.78773e-47
3.47754e-50
4.71476e-53
3.96997e-56
1.55921e-59
5.31793e-20
1.93886e-21
5.94308e-23
1.5667e-24
3.46593e-26
6.33179e-28
9.48018e-30
1.15966e-31
1.15715e-33
9.40125e-36
6.19697e-38
3.29338e-40
1.39682e-42
4.6543e-45
1.18968e-47
2.24805e-50
2.95422e-53
2.40706e-56
9.13739e-60
1.76918e-20
6.18951e-22
1.83518e-23
4.6208e-25
9.69917e-27
1.67703e-28
2.37243e-30
2.73623e-32
2.5672e-34
1.9547e-36
1.20325e-38
5.95044e-41
2.34054e-43
7.21118e-46
1.70018e-48
2.95792e-51
3.57454e-54
2.67683e-57
9.33864e-61
4.0054e-21
1.34417e-22
3.79361e-24
8.98413e-26
1.76477e-27
2.85159e-29
3.77021e-31
4.06546e-33
3.56681e-35
2.5393e-37
1.46107e-39
6.7512e-42
2.48039e-44
7.13663e-47
1.57126e-49
2.55302e-52
2.88199e-55
2.01654e-58
6.57402e-62
3.44985e-22
1.35217e-23
3.96859e-25
9.2525e-27
1.74126e-28
2.65824e-30
3.29681e-32
3.32256e-34
2.71945e-36
1.80455e-38
9.67439e-41
4.16495e-43
1.42594e-45
3.82447e-48
7.85256e-51
1.19047e-53
1.25457e-56
8.19909e-60
2.49727e-63
2.61806e-23
1.05063e-24
3.02297e-26
6.71858e-28
1.18627e-29
1.6845e-31
1.93491e-33
1.80277e-35
1.36352e-37
8.36374e-40
4.14767e-42
1.65317e-44
5.24495e-47
1.30482e-49
2.48733e-52
3.50404e-55
3.43433e-58
2.08917e-61
5.92579e-65
1.96551e-24
7.14158e-26
1.89102e-27
3.85683e-29
6.22769e-31
8.07343e-33
8.46522e-35
7.20656e-37
4.9882e-39
2.80529e-41
1.27791e-43
4.68734e-46
1.37088e-48
3.14875e-51
5.54966e-54
7.23802e-57
6.57575e-60
3.71231e-63
9.77939e-67
1.51297e-25
4.45775e-27
1.02174e-28
1.84212e-30
2.65265e-32
3.08314e-34
2.91089e-36
2.24015e-38
1.40686e-40
7.20297e-43
2.99635e-45
1.00638e-47
2.70166e-50
5.70812e-53
9.27205e-56
1.11645e-58
9.37945e-62
4.90408e-65
1.19765e-68
1.15744e-26
2.58134e-28
4.85412e-30
7.46813e-32
9.36641e-34
9.60091e-36
8.06523e-38
5.56104e-40
3.1471e-42
1.45901e-44
5.5184e-47
1.69117e-49
4.15511e-52
8.05602e-55
1.20363e-57
1.33587e-60
1.03645e-63
5.01391e-67
1.13413e-70
9.14028e-28
1.38263e-29
2.01003e-31
2.55398e-33
2.73642e-35
2.44389e-37
1.81196e-39
1.11318e-41
5.65457e-44
2.36698e-46
8.12269e-49
2.2677e-51
5.09314e-54
9.05361e-57
1.24345e-59
1.27158e-62
9.10965e-66
4.0773e-69
8.54158e-73
5.79754e-29
5.97956e-31
6.74428e-33
7.07443e-35
6.46512e-37
5.02521e-39
3.28556e-41
1.798e-43
8.19907e-46
3.1e-48
9.65621e-51
2.45714e-53
5.04782e-56
8.23258e-59
1.04015e-61
9.8083e-65
6.49337e-68
2.69113e-71
5.22407e-75
2.98832e-30
2.27447e-32
1.99457e-34
1.69505e-36
1.28639e-38
8.44032e-41
4.78052e-43
2.34153e-45
9.62435e-48
3.29781e-50
9.34897e-53
2.17343e-55
4.09286e-58
6.13628e-61
7.14497e-64
6.22305e-67
3.81276e-70
1.46518e-73
2.63818e-77
1.45827e-31
8.21975e-34
5.56481e-36
3.81222e-38
2.3979e-40
1.32748e-42
6.46195e-45
2.73526e-47
9.7982e-50
2.9481e-52
7.42908e-55
1.58414e-57
2.74389e-60
3.7928e-63
4.0804e-66
3.29e-69
1.86885e-72
6.66952e-76
1.11361e-79
6.57367e-33
2.76863e-35
1.44402e-37
7.95443e-40
4.14423e-42
1.93854e-44
8.13566e-47
2.98352e-49
9.33859e-52
2.47346e-54
5.53896e-57
1.05394e-59
1.6388e-62
2.0453e-65
1.99795e-68
1.47078e-71
7.73059e-75
2.56713e-78
3.97204e-82
2.66217e-34
8.4747e-37
3.42122e-39
1.51834e-41
6.56713e-44
2.60513e-46
9.44889e-49
3.01236e-51
8.26743e-54
1.93416e-56
3.86563e-59
6.58139e-62
9.20848e-65
1.03973e-67
9.23646e-71
6.21427e-74
3.00383e-77
9.20658e-81
1.31563e-84
9.35073e-36
2.27939e-38
7.2227e-41
2.60382e-43
9.41197e-46
3.18881e-48
1.00369e-50
2.79488e-53
6.75508e-56
1.40145e-58
2.50803e-61
3.83282e-64
4.83862e-67
4.95354e-70
4.00869e-73
2.46879e-76
1.09915e-79
3.10968e-83
4.10228e-87
2.6569e-37
5.1803e-40
1.31973e-42
3.93085e-45
1.20175e-47
3.51515e-50
9.66227e-53
2.36495e-55
5.06137e-58
9.35653e-61
1.50513e-63
2.07199e-66
2.36702e-69
2.20236e-72
1.62651e-75
9.18682e-79
3.76703e-82
9.83738e-86
1.19797e-89
5.60479e-39
9.49232e-42
2.02709e-44
5.11895e-47
1.34701e-49
3.44989e-52
8.35322e-55
1.81136e-57
3.45529e-60
5.72327e-63
8.3158e-66
1.0353e-68
1.07375e-71
9.10348e-75
6.14763e-78
3.191e-81
1.20443e-84
2.9033e-88
3.26205e-92
8.54104e-41
1.3523e-43
2.55286e-46
5.65074e-49
1.30854e-51
2.98292e-54
6.43237e-57
1.24728e-59
2.13675e-62
3.19128e-65
4.20973e-68
4.76015e-71
4.49768e-74
3.48416e-77
2.15583e-80
1.03006e-83
3.58137e-87
7.9697e-91
8.25534e-95
9.59724e-43
1.49417e-45
2.60978e-48
5.23051e-51
1.09155e-53
2.2532e-56
4.3821e-59
7.67661e-62
1.19082e-64
1.61478e-67
1.94454e-70
2.00614e-73
1.73319e-76
1.23027e-79
6.98955e-83
3.07828e-86
9.86515e-90
2.02659e-93
1.93386e-97
7.9757e-45
1.28293e-47
2.15998e-50
4.0397e-53
7.77635e-56
1.47835e-58
2.62776e-61
4.20352e-64
5.95558e-67
7.3865e-70
8.16493e-73
7.72166e-76
6.12272e-79
3.99398e-82
2.08798e-85
8.48844e-89
2.50899e-92
4.75761e-96
4.1791e-100
5.00562e-47
8.64075e-50
1.45072e-52
2.6011e-55
4.72053e-58
8.39725e-61
1.38233e-63
2.04094e-66
2.66413e-69
3.04517e-72
3.10645e-75
2.70568e-78
1.97646e-81
1.18826e-84
5.7284e-88
2.1528e-91
5.87237e-95
1.02773e-98
8.30348e-103
2.41931e-49
4.61867e-52
7.95207e-55
1.39925e-57
2.44191e-60
4.12412e-63
6.36719e-66
8.76705e-69
1.06339e-71
1.1287e-74
1.06811e-77
8.60772e-81
5.81392e-84
3.23048e-87
1.4392e-90
5.00552e-94
1.2607e-97
2.03585e-101
1.51154e-105
9.18357e-52
1.98398e-54
3.58411e-57
6.31472e-60
1.07843e-62
1.75192e-65
2.5665e-68
3.32791e-71
3.7814e-74
3.75432e-77
3.31209e-80
2.48064e-83
1.55469e-86
8.00516e-90
3.30266e-93
1.06398e-96
2.47516e-100
3.68691e-104
2.51301e-108
2.78695e-54
6.9354e-57
1.33946e-59
2.40366e-62
4.07862e-65
6.44727e-68
9.05758e-71
1.11602e-73
1.19695e-76
1.11917e-79
9.24789e-83
6.46423e-86
3.77162e-89
1.80406e-92
6.90646e-96
2.06216e-99
4.43195e-103
6.08657e-107
3.80439e-111
6.86722e-57
1.99689e-59
4.18721e-62
7.76479e-65
1.32612e-67
2.06074e-70
2.80265e-73
3.30812e-76
3.37219e-79
2.98757e-82
2.32259e-85
1.52103e-88
8.2869e-92
3.69044e-95
1.31339e-98
3.6359e-102
7.21945e-106
9.13552e-110
5.22991e-114
1.39282e-59
4.78971e-62
1.10448e-64
2.14282e-67
3.72358e-70
5.73943e-73
7.61951e-76
8.67819e-79
8.46006e-82
7.13977e-85
5.24372e-88
3.22854e-91
1.6469e-94
6.84153e-98
2.26706e-101
5.81999e-105
1.06754e-108
1.24379e-112
6.51322e-117
2.35382e-62
9.6733e-65
2.47958e-67
5.0863e-70
9.07371e-73
1.39813e-75
1.82494e-78
2.01829e-81
1.89194e-84
1.52799e-87
1.06414e-90
6.17854e-94
2.9577e-97
1.14799e-100
3.54634e-104
8.44261e-108
1.43013e-111
1.53281e-115
7.33207e-120
3.35186e-65
1.66165e-67
4.77801e-70
1.04565e-72
1.92904e-75
2.99144e-78
3.86277e-81
4.17086e-84
3.7772e-87
2.9308e-90
1.94181e-93
1.06593e-96
4.79767e-100
1.74205e-103
5.02101e-107
1.10829e-110
1.73286e-114
1.70678e-118
7.44648e-123
4.06453e-68
2.45132e-70
7.9683e-73
1.87479e-75
3.59775e-78
5.64704e-81
7.25114e-84
7.67917e-87
6.74527e-90
5.0449e-93
3.18858e-96
1.65828e-99
7.02814e-103
2.38948e-106
6.42813e-110
1.31522e-113
1.8968e-117
1.71485e-121
6.81346e-126
4.23996e-71
3.13488e-73
1.15954e-75
2.9521e-78
5.92038e-81
9.45028e-84
1.21185e-86
1.26349e-89
1.07996e-92
7.80672e-96
4.71714e-99
2.328e-102
9.30047e-106
2.96234e-109
7.43795e-113
1.41003e-116
1.87401e-120
1.55315e-124
5.61091e-129
3.84299e-74
3.50735e-76
1.48432e-78
4.11099e-81
8.64728e-84
1.40909e-86
1.81068e-89
1.86412e-92
1.55439e-95
1.08829e-98
6.29696e-102
2.95236e-105
1.11254e-108
3.32046e-112
7.7789e-116
1.36541e-119
1.6706e-123
1.26751e-127
4.15671e-132
3.05662e-77
3.46423e-79
1.68504e-81
5.09844e-84
1.12792e-86
1.88185e-89
2.42949e-92
2.47531e-95
2.01736e-98
1.3701e-101
7.59964e-105
3.38733e-108
1.20431e-111
3.3676e-115
7.35712e-119
1.1947e-122
1.34413e-126
9.3233e-131
2.7713e-135
2.1548e-80
3.0481e-82
1.71022e-84
5.671e-87
1.32215e-89
2.26346e-92
2.94121e-95
2.97023e-98
2.36894e-101
1.56211e-104
8.3113e-108
3.52259e-111
1.18148e-114
3.09419e-118
6.29887e-122
9.45361e-126
9.7689e-130
6.18652e-134
1.66434e-138
1.36001e-83
2.41091e-85
1.56459e-87
5.69777e-90
1.40179e-92
2.46587e-95
3.22879e-98
3.2347e-101
2.5264e-104
1.61809e-107
8.259e-111
3.32795e-114
1.05252e-117
2.58016e-121
4.88965e-125
6.77557e-129
6.42315e-133
3.70889e-137
9.01641e-142
7.76392e-87
1.72991e-88
1.30083e-90
5.20847e-93
1.35316e-95
2.44758e-98
3.23092e-101
3.2119e-104
2.45701e-107
1.52811e-110
7.48009e-114
2.86402e-117
8.5351e-121
1.95713e-124
3.44918e-128
4.40823e-132
3.82934e-136
2.01334e-140
4.41468e-145
4.05074e-90
1.13644e-91
9.91063e-94
4.3637e-96
1.19727e-98
2.2269e-101
2.9631e-104
2.92203e-107
2.1887e-110
1.32084e-113
6.19607e-117
2.25235e-120
6.3187e-124
1.35428e-127
2.21698e-131
2.61046e-135
2.07532e-139
9.91835e-144
1.95664e-148
1.95198e-93
6.89862e-95
6.9765e-97
3.37565e-99
9.7762e-102
1.86872e-104
2.50458e-107
2.44798e-110
1.79424e-113
1.04934e-116
4.71225e-120
1.62446e-123
4.28512e-127
8.57761e-131
1.30252e-134
1.41121e-138
1.02504e-142
4.44194e-147
7.85392e-152
8.7812e-97
3.90572e-98
4.57543e-100
2.42922e-102
7.41765e-105
1.45547e-107
1.9624e-110
1.89851e-113
1.36026e-116
7.69635e-120
3.30405e-123
1.0787e-126
2.67201e-130
4.99047e-134
7.01821e-138
6.98461e-142
4.62405e-146
1.81035e-150
2.85437e-155
)
;

boundaryField
{
    leftWall
    {
        type            zeroGradient;
    }
    rightWall
    {
        type            zeroGradient;
    }
    lowerWall
    {
        type            zeroGradient;
    }
    atmosphere
    {
        type            inletOutlet;
        inletValue      uniform 0;
        value           nonuniform List<scalar> 
46
(
0
0
0
0
0
0
0
0
0
0
0
0
0
0
0
0
0
0
0
0
0
0
1.57524e-97
1.09896e-93
7.21241e-94
1.73159e-94
1.2127e-95
8.7812e-97
3.90572e-98
4.57543e-100
2.42922e-102
7.41765e-105
1.45547e-107
1.9624e-110
1.89851e-113
1.36026e-116
7.69635e-120
3.30405e-123
1.0787e-126
2.67201e-130
4.99047e-134
7.01821e-138
6.98461e-142
4.62405e-146
1.81035e-150
2.85437e-155
)
;
    }
    defaultFaces
    {
        type            empty;
    }
}


// ************************************************************************* //
