/*--------------------------------*- C++ -*----------------------------------*\
| =========                 |                                                 |
| \\      /  F ield         | OpenFOAM: The Open Source CFD Toolbox           |
|  \\    /   O peration     | Version:  2.4.0                                 |
|   \\  /    A nd           | Web:      www.OpenFOAM.org                      |
|    \\/     M anipulation  |                                                 |
\*---------------------------------------------------------------------------*/
FoamFile
{
    version     2.0;
    format      ascii;
    class       volScalarField;
    location    "0.05";
    object      alpha.air;
}
// * * * * * * * * * * * * * * * * * * * * * * * * * * * * * * * * * * * * * //

dimensions      [0 0 0 0 0 0 0];

internalField   nonuniform List<scalar> 
2268
(
1.0981e-49
1.94011e-49
5.80408e-49
2.95645e-48
2.69208e-47
2.79991e-46
4.5143e-45
6.84635e-44
1.30914e-42
2.13197e-41
9.61539e-40
2.64925e-39
3.36346e-40
2.37479e-41
8.32334e-43
2.51946e-44
5.47733e-46
8.59253e-48
1.04577e-49
1.01035e-51
7.5069e-54
3.85633e-56
1.0171e-58
1.16013e-46
1.97078e-46
5.45226e-46
2.49969e-45
1.99652e-44
1.74901e-43
2.34455e-42
2.88279e-41
4.36725e-40
5.51395e-39
1.68041e-37
3.18517e-37
4.60098e-38
2.58902e-39
8.79403e-41
2.30903e-42
4.57404e-44
7.13564e-46
9.00385e-48
9.2055e-50
7.35725e-52
4.13471e-54
1.21541e-56
5.76321e-44
9.4119e-44
2.40814e-43
9.94092e-43
6.95327e-42
5.14771e-41
5.74258e-40
5.7365e-39
6.90341e-38
6.75626e-37
1.44933e-35
1.94955e-35
2.76077e-36
1.24706e-37
3.7874e-39
8.87182e-41
1.66583e-42
2.60564e-44
3.41807e-46
3.72645e-48
3.25381e-50
2.05089e-52
6.96156e-55
1.79857e-41
2.82316e-41
6.68141e-41
2.48446e-40
1.52008e-39
9.54425e-39
8.87439e-38
7.2272e-37
6.93488e-36
5.30586e-35
8.16562e-34
8.16637e-34
1.02582e-34
3.8043e-36
1.00653e-37
2.10223e-39
3.80393e-41
6.06217e-43
8.40596e-45
9.94127e-47
9.65132e-49
6.96001e-51
2.80345e-53
3.97409e-39
5.99376e-39
1.31234e-38
4.39758e-38
2.35176e-37
1.25695e-36
9.76345e-36
6.51141e-35
5.00454e-34
3.02737e-33
3.40371e-32
2.62109e-32
2.74893e-33
8.53389e-35
1.97062e-36
3.7795e-38
6.74083e-40
1.10317e-41
1.61318e-43
2.06051e-45
2.22986e-47
1.87531e-49
9.42938e-52
6.64246e-37
9.62094e-37
1.94926e-36
5.88848e-36
2.75121e-35
1.25644e-34
8.17761e-34
4.48909e-33
2.77763e-32
1.34456e-31
1.12596e-30
6.84682e-31
5.76051e-32
1.54254e-33
3.13672e-35
5.67971e-37
9.95088e-39
1.65511e-40
2.53711e-42
3.5155e-44
4.30551e-46
4.32995e-48
2.79783e-50
8.76098e-35
1.2176e-34
2.28323e-34
6.21937e-34
2.53784e-33
9.94181e-33
5.44253e-32
2.47246e-31
1.23798e-30
4.85299e-30
3.09046e-29
1.50836e-29
9.85506e-31
2.35433e-32
4.16485e-34
7.1172e-36
1.2364e-37
2.11025e-39
3.429e-41
5.21203e-43
7.29258e-45
8.87925e-47
7.8396e-49
9.3903e-33
1.25064e-32
2.1708e-32
5.33172e-32
1.89942e-31
6.40901e-31
2.96466e-30
1.12062e-29
4.56422e-29
1.46505e-28
7.24488e-28
2.86568e-28
1.39043e-29
2.92099e-31
4.58937e-33
7.49316e-35
1.30395e-36
2.29835e-38
3.97091e-40
6.64303e-42
1.06672e-43
1.59095e-45
1.97358e-47
1.00001
1.00001
1.00001
1.00001
1.00001
1.00001
1
1
1
1
1
1
1
1
1
1
1
1
1
1.00001
1.00001
1.00001
1.00001
1.00001
1.00001
1.00001
1.00001
1
1
1
1
1
1
1
1
1
1
1
1.00001
1.00001
1.00001
1.00001
1.00001
1
1
1
1
1
1
1
1
1
1
1
1
1
1
1.00001
1.00001
1.00001
1.00001
1.00001
1.00001
1.00001
1.00001
1.00001
1
1
1
1
1
1
1
1
1
1.00001
1
1
1
1
1
1
1
1
1
1
1
1
1
1
1
1
1
1
0.999999
1
0.999974
0.999852
0.999951
1.00001
1.00001
1.00001
1
1
1
1
1
1
1
1
1
1
1
1.00001
0.999781
0.996922
0.998146
0.999954
1
1.00001
1.00001
1
1
1
1
1
1
1
1
1
1
1
1
0.940415
0.970203
0.998764
0.999999
1
1
1
1
1
1
1
1
1
1
1
1
1
1
1
8.35854e-31
1.06472e-30
1.7107e-30
3.7868e-30
1.17696e-29
3.43593e-29
1.35039e-28
4.27079e-28
1.42203e-27
3.78e-27
1.47313e-26
4.7688e-27
1.56454e-28
2.44093e-30
3.08306e-32
4.58631e-34
7.78797e-36
1.39771e-37
2.56313e-39
4.78151e-41
9.17895e-43
1.89055e-44
5.02406e-46
1.21975e-28
1.48239e-28
2.2057e-28
4.388e-28
1.18389e-27
3.01121e-27
1.01695e-26
2.71215e-26
7.45341e-26
1.65811e-25
5.21065e-25
1.38195e-25
2.83252e-27
2.41623e-29
2.14025e-31
2.88769e-33
4.84925e-35
9.22841e-37
1.97399e-36
1.43277e-34
3.2732e-34
2.71858e-31
2.94939e-30
1.45667e-26
1.68264e-26
2.321e-26
4.14605e-26
9.66586e-26
2.15376e-25
6.36866e-25
1.43744e-24
3.33379e-24
6.26483e-24
1.61967e-23
3.4875e-24
4.55882e-26
9.26292e-29
7.66359e-31
1.1862e-29
2.94516e-28
1.17033e-26
7.39715e-27
4.00267e-25
5.23608e-25
2.28202e-24
2.91192e-23
1.46614e-24
1.60566e-24
2.06192e-24
3.29989e-24
6.68451e-24
1.33002e-23
3.42126e-23
6.69925e-23
1.30773e-22
2.15365e-22
4.62162e-22
8.54185e-23
1.62623e-24
1.64767e-26
1.63392e-25
4.06508e-26
2.52303e-25
6.27584e-24
2.78967e-24
1.03671e-22
1.08711e-22
2.41351e-22
2.06726e-21
1.30011e-22
1.34563e-22
1.66241e-22
2.32341e-22
3.79517e-22
7.42716e-22
1.50774e-21
2.8249e-21
4.23807e-21
6.58222e-21
1.16036e-20
2.03434e-21
6.6344e-23
1.53317e-24
2.62261e-23
7.37867e-24
3.67454e-23
9.20781e-22
3.51758e-22
9.97314e-21
8.57341e-21
1.15674e-20
6.75598e-20
8.15192e-21
7.89973e-21
9.1902e-21
1.13587e-20
1.73944e-20
3.03185e-20
5.85218e-20
9.59293e-20
1.24299e-19
1.74397e-19
2.78884e-19
4.49279e-20
1.67988e-21
5.50806e-23
2.39272e-21
7.11121e-22
2.83717e-21
7.48228e-20
2.54571e-20
5.70478e-19
4.16261e-19
3.84182e-19
1.55532e-18
3.83201e-19
3.44177e-19
3.8024e-19
4.268e-19
6.11556e-19
9.84048e-19
1.80681e-18
2.71643e-18
3.12358e-18
4.06026e-18
6.10254e-18
9.20831e-19
3.84582e-20
1.70014e-21
1.50821e-19
4.6037e-20
1.44768e-19
4.06636e-18
1.25235e-18
2.26917e-17
1.45163e-17
1.03043e-17
2.86315e-17
1.39681e-17
1.14695e-17
1.21043e-17
1.24404e-17
1.68579e-17
2.54571e-17
4.51582e-17
6.39134e-17
6.62695e-17
8.04352e-17
1.16383e-16
1.65816e-17
7.55608e-19
4.64825e-20
6.9842e-18
2.19114e-18
5.37017e-18
1.61005e-16
4.54386e-17
6.76424e-16
3.91314e-16
2.41511e-16
4.38507e-16
3.99846e-16
2.95032e-16
2.98698e-16
2.81704e-16
3.64434e-16
5.2228e-16
9.03901e-16
1.23002e-15
1.16453e-15
1.30943e-15
1.87066e-15
2.52448e-16
1.24995e-17
1.16781e-18
2.40165e-16
7.9696e-17
1.52329e-16
4.85174e-15
1.27322e-15
1.57104e-14
8.4997e-15
5.19874e-15
5.68155e-15
8.95862e-15
5.8194e-15
5.66693e-15
4.90282e-15
6.10082e-15
8.36357e-15
1.41141e-14
1.88137e-14
1.6506e-14
1.68055e-14
2.44547e-14
3.13188e-15
1.71236e-16
2.69784e-17
6.04826e-15
2.2506e-15
3.41968e-15
1.13664e-13
2.83955e-14
2.89738e-13
1.53061e-13
1.05064e-13
6.37188e-14
1.53691e-13
8.59124e-14
8.05945e-14
6.38939e-14
7.69241e-14
1.0145e-13
1.63903e-13
2.17678e-13
1.81583e-13
1.60838e-13
2.49125e-13
3.0375e-14
1.92579e-15
5.44411e-16
1.07625e-13
4.93999e-14
6.31801e-14
2.08469e-12
5.18061e-13
4.27454e-12
2.35256e-12
1.96099e-12
6.39964e-13
1.91835e-12
9.02869e-13
8.16633e-13
5.92857e-13
6.93817e-13
8.83715e-13
1.30175e-12
1.74384e-12
1.45946e-12
1.0529e-12
1.85934e-12
2.16696e-13
1.76706e-14
8.79134e-15
1.26284e-12
8.30457e-13
1.03284e-12
2.98381e-11
8.04863e-12
5.07087e-11
3.21995e-11
3.19038e-11
6.06116e-12
1.5044e-11
6.09918e-12
5.32162e-12
3.54312e-12
4.04605e-12
4.98765e-12
6.02891e-12
8.1046e-12
7.68153e-12
3.98362e-12
9.11163e-12
1.0193e-12
1.27377e-13
1.08828e-13
8.4392e-12
1.0252e-11
1.69033e-11
3.30596e-10
1.14103e-10
4.95763e-10
4.12463e-10
4.13738e-10
5.66276e-11
6.58041e-11
2.04313e-11
1.71982e-11
1.05741e-11
1.18058e-11
1.40611e-11
3.67793e-11
4.06533e-11
2.0324e-11
3.68113e-11
2.23807e-11
2.63061e-12
5.64887e-13
1.42671e-12
2.45872e-10
8.37949e-11
3.04474e-10
2.85602e-09
1.61292e-09
4.80785e-09
5.28376e-09
3.74078e-09
5.33222e-10
3.81007e-10
1.45396e-10
1.2606e-10
1.59486e-10
1.83736e-10
1.96037e-10
1.75474e-10
1.81038e-10
1.22019e-10
1.38626e-09
2.56892e-10
5.77699e-09
6.06047e-10
1.35232e-08
4.7122e-09
3.36765e-10
5.73268e-09
2.14701e-08
2.37239e-08
3.76545e-08
4.34484e-08
1.86175e-08
5.71494e-09
5.61024e-08
5.72772e-08
6.01208e-08
6.46533e-08
7.12975e-08
8.03072e-08
9.28316e-08
1.09815e-07
1.37034e-07
1.68188e-07
2.30243e-07
4.46697e-06
5.17004e-06
5.04504e-06
8.86016e-08
7.42138e-08
1.00546e-07
1.98583e-07
3.47847e-07
6.62131e-07
1.25442e-06
2.75111e-06
2.30073e-05
0.000100946
0.000104183
0.000110466
0.000120385
0.000134566
0.00015396
0.000179833
0.000213951
0.000258392
0.000315304
0.000387652
0.000489707
0.00160282
0.000102788
0.000129021
0.00018187
0.000262909
0.00038718
0.000581062
0.000859704
0.00126914
0.00204146
0.00653064
0.0275275
0.0279612
0.0287815
0.030027
0.0317187
0.0338861
0.0365596
0.039781
0.0435888
0.0479642
0.0528608
0.0588341
0.0252362
0.0274461
0.031255
0.0369686
0.0442077
0.0533548
0.0647846
0.0776922
0.0924598
0.114966
0.173271
0.505033
0.507164
0.511127
0.516967
0.524602
0.533904
0.544717
0.556865
0.570099
0.58405
0.598551
0.61257
0.494665
0.506721
0.526134
0.550554
0.576857
0.604517
0.63236
0.660288
0.684926
0.706138
0.752926
0.999994
0.999994
0.999994
0.999994
0.999994
0.999994
0.999994
0.999994
0.999994
0.999994
0.999994
0.999992
0.999996
0.999995
0.999996
0.999995
0.999995
0.999995
0.999996
0.999996
0.999996
0.99999
0.99997
1
1
1
1
1
1
1
1
1
1
1
1
1
1
1
1
1
1
1
1
0.999999
0.999999
0.999997
1
1
1
1
1
1
1
1
1
1
1
1
1
1
1
1
1
1
1
1
0.999999
0.999999
0.999998
1
1
1
1
1
1
1
1
1
1
1
1
1
1
1
1
1
1
1
1
0.999999
0.999999
0.999998
1
1
1
1
1
1
1
1
1
1
1
1
1
1
1
1
1
1
1
1
0.999999
0.999999
0.999998
1
1
1
1
1
1
1
1
1
1
1
1
1
1
1
1
1
1
1
1
1
0.999999
0.999999
1
1
1
1
1
1
1
1
1
1
1
1
1
1
1
1
1
1
1
1
1
1
0.999999
1
1
1
1
1
1
1
1
1
1
1
1
1
1
1
1
1
1
1
1
1
0.999999
0.999999
1
1
1
1
1
1
1
1
1
1
1
1
1
1
1
1
1
1
1
1
1
1
0.999999
1
1
1
1
1
1
1
1
1
1
1
1
1
1
1
1
1
1
1
1
1
1
0.999999
1
1
1
1
1
1
1
1
1
1
1
1
1
1
1
1
1
1
1
1
1
1
0.999999
1
1
1
1
1
1
1
1
1
1
1
1
1
1
1
1
1
1
1
1
1
1
0.999999
1
1
1
1
1
1
1
1
1
1
1
1
1
1
1
1
1
1
1
1
1
1
0.999999
1
1
1
1
1
1
1
1
1
1
1
1
1
1
1
1
1
1
1
1
1
1
1
1
1
1
1
1
1
1
1
1
1
1
1
1
1
1
1
1
1
1
1
1
1
1
1
1
1
1
1
1
1
1
1
1
1
1
1
1
1
1
1
1
1
1
1
1
1
1
1
1
1
1
1
1
1
1
1
1
1
1
1
1
1
1
1
1
1
1
1
1
1
1
1
1
1
1
1
1
1
1
1
1
1
1
1
1
1
1
1
1
1
1
1
1
1
1
1
1
1
1
1
1
1
1
1
1
1
1
1
1
1
1
1
1
1
1
1
1
1
1
1
1
1
1
1
1
1
1
1
1
1
1
1
1
1
1
1
1
1
1
1
1
1
1
1
1
1
1
1
1
1
1
1
1
1
1
1
1
1
1
1
1
1
1
1
1
1
1
1
1
1
1
1
1
1
1
1
1
1
1
1
1
1
1
1
1
1
1
1
1
1
1
1
1
1
1
1
1
1
1
1
1
1
1
1
1
1
1
4.10648e-12
2.09972e-10
7.01997e-08
0.000400511
1.62101e-10
2.03374e-09
4.15316e-06
0.00770052
1.46473e-08
7.56493e-07
0.00307647
0.300201
3.66588e-07
0.00021287
0.166231
0.811771
9.34437e-06
0.02395
0.586739
0.975596
0.000218684
0.157193
0.83259
0.996496
0.0037433
0.361818
0.93369
0.99937
0.0241656
0.563779
0.974567
0.999881
0.0706123
0.7022
0.989091
0.999972
0.142081
0.80153
0.995337
0.999994
0.234126
0.874087
0.998233
0.999999
0.338524
0.920625
0.999356
1
0.448792
0.953303
0.999814
1
0.559171
0.97595
0.999967
1
0.67114
0.991602
0.999998
1
0.795696
0.999616
0.999998
1
0.929656
0.999997
1
1
0.994882
1
1
1
0.999879
1
1
1
0.999965
1
1
1
0.999996
1
1
1
1
1
1
1
0.999998
0.999999
1
0.999999
0.999999
1
0.999999
0.999999
0.999998
0.999998
0.999999
0.999999
0.999999
1
0.999999
0.999999
0.999998
0.999998
0.999999
0.999999
0.999999
1
0.999999
0.999999
0.999999
0.999999
0.999999
0.999999
0.999999
1
0.999999
0.999999
0.999999
0.999999
0.999999
0.999999
0.999999
1
0.999999
0.999999
0.999999
0.999999
0.999999
0.999999
0.999999
1
0.999999
0.999999
0.999999
0.999999
1
0.999999
1
1
1
0.999999
1
1
1
1
1
1
1
1
1
1
1
1
1
1
1
1
1
1
1
1
1
1
1
1
0.437063
0.947795
0.999642
1
1
1
1
1
1
1
1
1
1
1
1
1
1
1
1
0.597814
0.982563
0.99996
1
1
1
1
1
1
1
1
1
1
1
1
1
1
1
1
0.920817
0.999536
0.999999
0.999999
0.999999
0.999999
1
1
1
1
1
1
1
1
1
1
1
1
1
0.99229
0.99999
0.999999
0.999999
0.999999
0.999999
0.999999
1
1
1
1
1
1
1
1
1
1
1
1
0.999486
0.999999
0.999999
0.999999
0.999999
0.999999
0.999999
1
1
1
1
1
1
1
1
1
1
1
1
0.999943
0.999999
0.999999
0.999999
0.999999
0.999999
1
1
1
1
1
1
1
1
1
1
1
1
1
0.99999
1
0.999999
0.999999
0.999999
0.999999
1
1
1
1
1
1
1
1
1
1
1
1
1
0.999998
1
1
0.999999
0.999999
1
1
1
1
1
1
1
1
1
1
1
1
1
1
1
1
1
1
1
1
1
1
1
1
1
1
1
1
1
1
1
1
1
1
1
1
1
1
1
1
1
1
1
1
1
1
1
1
1
1
1
1
1
1
1
1
1
1
1
1
1
1
1
1
1
1
1
1
1
1
1
1
1
1
1
1
1
1
1
1
1
1
1
1
1
1
1
1
1
1
1
1
1
1
1
1
1
1
1
0.999999
1
1
1
1
1
1
1
1
1
1
1
1
1
1
1
1
0.999999
0.999999
0.999999
0.999999
0.999999
1
1
1
1
1
1
1
1
1
1
1
1
0.999999
0.999999
0.999999
0.999998
0.999998
0.999998
0.999999
0.999999
0.999999
0.999999
0.999999
1
0.999999
1
1
1
1
1
1
1
0.999999
0.999999
0.999999
0.999998
0.999999
0.999999
0.999999
0.999999
0.999999
0.999999
0.999999
1
0.999999
1
1
1
1
1
1
1
1
0.999999
0.999999
0.999999
1
1
1
1
1
1
0.999998
1
1
1
1
1
1
1
1
1
1
0.999999
1
1
1
1
1
1
0.999999
1
0.999999
1
1
1
1
1
1
1
1
1
1
1
1
1
1
1
1
1
0.999999
1
1
1
1
1
1
1
1
1
1
1
1
1
1
1
1
1
1
1
1
1
1
1
1
1
1
1
1
1
1
1
1
1
1
1
1
1
0.999999
1
1
1
1
1
1
1
1
1
1
1
1
1
1
1
1
1
1
1
1
0.999999
0.999999
0.999999
0.999999
0.999999
0.999999
0.999999
0.999999
1
1
1
1
1
1
1
1
1
0.999999
1
0.999999
0.999999
0.999999
0.999999
0.999999
0.999999
0.999999
0.999999
0.999999
1
1
1
1
1
1
1
1
1
1
0.999999
0.999999
0.999998
0.999998
0.999999
0.999999
0.999999
0.999999
0.999999
1
1
1
1
1
1
1
1
1
1
0.999999
0.999999
0.999998
0.999998
0.999998
0.999999
0.999999
0.999999
0.999999
1
1
1
1
1
1
1
1
1
1
0.999999
0.999998
0.999998
0.999998
0.999998
0.999998
0.999999
0.999999
0.999999
1
1
1
1
1
1
1
1
1
1
0.999999
0.999998
0.999998
0.999998
0.999998
0.999998
0.999999
0.999999
0.999999
1
1
1
1
1
1
1
1
1
1
0.999999
0.999999
0.999998
0.999998
0.999998
0.999998
0.999999
0.999999
0.999999
1
1
1
1
1
1
1
1
1
1
0.999999
0.999999
0.999998
0.999998
0.999998
0.999998
0.999999
0.999999
1
1
1
1
1
1
1
1
1
1
1
0.999999
0.999999
0.999998
0.999998
0.999998
0.999999
0.999999
0.999999
1
1
1
1
1
1
1
1
1
1
1
0.999999
0.999999
0.999999
0.999998
0.999999
0.999999
0.999999
0.999999
1
1
1
1
1
1
1
1
1
1
1
0.999999
0.999999
0.999999
0.999999
0.999999
0.999999
0.999999
1
1
1
1
1
1
1
1
1
1
1
1
0.999999
0.999999
0.999999
0.999999
0.999999
0.999999
1
1
1
1
1
1
1
1
1
1
1
1
1
0.999999
0.999999
0.999999
0.999999
0.999999
1
1
1
1
1
1
1
1
1
1
1
1
1
1
1
0.999999
0.999999
0.999999
1
1
1
1
1
1
1
1
1
1
1
1
1
1
1
1
1
0.999999
1
1
1
1
1
1
1
1
1
1
1
1
1
1
1
1
1
1
1
1
1
1
1
1
1
1
1
1
1
1
1
1
1
1
1
1
1
1
1
1
1
1
1
1
1
1
1
1
1
1
1
1
1
1
1
1
1
1
1
1
1
1
1
1
1
1
1
1
1
1
1
1
1
1
1
1
1
1
1
1
1
1
1
1
1
1
1
1
1
1
1
1
1
1
1
1
1
1
1
1
1
1
1
1
1
1
1
1
1
1
1
)
;

boundaryField
{
    leftWall
    {
        type            alphaContactAngle;
        thetaProperties 6 ( ( water mercury ) 90 0 0 0 ( water air ) 90 0 0 0 ( water oil ) 90 0 0 0 ( mercury air ) 90 0 0 0 ( oil mercury ) 90 0 0 0 ( oil air ) 90 0 0 0 );
        value           nonuniform List<scalar> 
50
(
1.0981e-49
1.16013e-46
5.76321e-44
1.79857e-41
3.97409e-39
6.64246e-37
8.76098e-35
9.3903e-33
8.35854e-31
1.21975e-28
1.45667e-26
1.46614e-24
1.30011e-22
8.15192e-21
3.83201e-19
1.39681e-17
3.99846e-16
8.95862e-15
1.53691e-13
1.91835e-12
1.5044e-11
6.58041e-11
3.81007e-10
5.61024e-08
0.000100946
0.0275275
0.505033
0.999994
1
1
1
1
1
1
1
1
1
1
1
1
1
1
1
1
1
1
1
1
1
1
)
;
    }
    rightWall
    {
        type            alphaContactAngle;
        thetaProperties 6 ( ( water mercury ) 90 0 0 0 ( water air ) 90 0 0 0 ( water oil ) 90 0 0 0 ( mercury air ) 90 0 0 0 ( oil mercury ) 90 0 0 0 ( oil air ) 90 0 0 0 );
        value           nonuniform List<scalar> 
50
(
1
1
1
1.00001
0.999999
1.00001
1
1
1
1
1
1
1
1
1
1
1
1
1
1
1
1
1
0.999999
1
0.999999
1
1
1
1
1
1
1
1
1
1
1
1
1
1
1
1
1
1
1
1
1
1
1
1
)
;
    }
    lowerWall
    {
        type            alphaContactAngle;
        thetaProperties 6 ( ( water mercury ) 90 0 0 0 ( water air ) 90 0 0 0 ( water oil ) 90 0 0 0 ( mercury air ) 90 0 0 0 ( oil mercury ) 90 0 0 0 ( oil air ) 90 0 0 0 );
        value           nonuniform List<scalar> 
62
(
1.0981e-49
1.94011e-49
5.80408e-49
2.95645e-48
2.69208e-47
2.79991e-46
4.5143e-45
6.84635e-44
1.30914e-42
2.13197e-41
9.61539e-40
2.64925e-39
3.36346e-40
2.37479e-41
8.32334e-43
2.51946e-44
5.47733e-46
8.59253e-48
1.04577e-49
1.01035e-51
7.5069e-54
3.85633e-56
1.0171e-58
1.0171e-58
1.21541e-56
6.96156e-55
2.80345e-53
9.42938e-52
2.79783e-50
7.8396e-49
1.97358e-47
4.10648e-12
2.09972e-10
7.01997e-08
0.000400511
1.00001
1.00001
1.00001
1.00001
1
1
0.999781
0.940415
1.00001
1.00001
1.00001
1.00001
1.00001
1.00001
1
1
1
1
1
1
1
1
1
1
1
1
1
)
;
    }
    atmosphere
    {
        type            inletOutlet;
        inletValue      uniform 1;
        value           uniform 1;
    }
    defaultFaces
    {
        type            empty;
    }
}


// ************************************************************************* //
