/*--------------------------------*- C++ -*----------------------------------*\
| =========                 |                                                 |
| \\      /  F ield         | OpenFOAM: The Open Source CFD Toolbox           |
|  \\    /   O peration     | Version:  2.4.0                                 |
|   \\  /    A nd           | Web:      www.OpenFOAM.org                      |
|    \\/     M anipulation  |                                                 |
\*---------------------------------------------------------------------------*/
FoamFile
{
    version     2.0;
    format      ascii;
    class       volScalarField;
    location    "0.05";
    object      alpha.oil;
}
// * * * * * * * * * * * * * * * * * * * * * * * * * * * * * * * * * * * * * //

dimensions      [0 0 0 0 0 0 0];

internalField   nonuniform List<scalar> 
2268
(
5.94242e-111
1.59328e-106
3.82507e-102
1.18622e-95
2.51031e-88
2.80898e-81
2.72959e-74
1.63987e-67
9.96537e-61
2.866e-26
2.15815e-20
1.18165e-14
0.0277126
0.26664
0.753691
0.981999
0.99986
1
1
0.999999
0.999999
0.999999
1
3.20446e-107
7.66359e-103
1.37986e-98
1.44879e-92
2.73476e-85
2.52873e-78
1.95e-71
9.134e-65
4.20702e-58
5.08178e-24
1.15071e-18
2.48865e-13
0.0714907
0.504946
0.92457
0.998215
0.999995
0.999999
0.999999
0.999999
0.999998
0.999998
0.999998
8.05368e-104
1.7211e-99
2.543e-95
8.45232e-90
1.40642e-82
1.07529e-75
6.593e-69
2.41549e-62
8.4679e-56
4.06636e-22
2.89071e-17
2.65841e-12
0.147513
0.662051
0.971541
0.999773
1
1
1
1
0.999999
0.999999
0.999999
1.26366e-100
2.41688e-96
3.03277e-92
3.24335e-87
4.56313e-80
2.88747e-73
1.41158e-66
4.0639e-60
1.09048e-53
1.98234e-20
4.58632e-16
1.96043e-11
0.225841
0.770953
0.988887
0.999956
0.999999
0.999999
0.999999
0.999999
0.999999
0.999999
0.999998
1.39872e-97
2.39758e-93
2.58732e-89
9.86163e-85
1.05288e-77
5.52165e-71
2.15998e-64
4.9147e-58
1.01632e-51
6.65571e-19
5.31338e-15
9.68375e-11
0.299529
0.846547
0.995639
0.999991
1
1
1
1
1
0.999999
1
1.17003e-94
1.79971e-90
1.67857e-86
2.80894e-82
1.8461e-75
8.03795e-69
2.52682e-62
4.57346e-56
7.34527e-50
1.64152e-17
4.7326e-14
3.56286e-10
0.368917
0.898792
0.998329
0.999998
1
1
0.999999
0.999999
1
1
1
7.73656e-92
1.06917e-87
8.64148e-84
8.28578e-80
2.56647e-73
9.29617e-67
2.35978e-60
3.42093e-54
4.30242e-48
3.06988e-16
2.87374e-13
1.52545e-09
0.434477
0.934906
0.999379
0.999999
0.999999
0.999999
0.999999
0.999999
0.999999
0.999999
0.999999
4.17595e-89
5.1912e-85
3.64305e-81
2.46667e-77
2.91544e-71
8.80045e-65
1.81324e-58
2.12026e-52
2.10628e-46
4.33009e-15
6.08671e-13
1.31306e-08
0.499263
0.960033
0.999779
1
1
1
0.999999
0.999999
1
1
0.999999
3.43143e-13
4.51948e-12
6.08185e-13
1.73562e-14
2.79038e-16
3.33603e-18
3.6526e-20
3.66446e-22
3.26029e-24
2.51019e-26
1.64094e-28
8.9518e-31
4.00216e-33
1.43548e-35
4.01736e-38
8.42988e-41
1.24509e-43
1.15225e-46
5.01614e-50
3.38655e-11
4.76347e-10
1.09024e-10
3.9792e-12
7.2002e-14
9.35973e-16
1.11461e-17
1.20602e-19
1.15045e-21
9.44259e-24
6.55139e-26
3.78378e-28
1.78918e-30
6.78717e-33
2.01008e-35
4.46763e-38
6.99684e-41
6.87321e-44
3.17744e-47
1.52935e-09
1.93763e-08
8.48588e-09
4.50639e-10
9.16942e-12
1.27687e-13
1.62576e-15
1.85646e-17
1.85479e-19
1.58785e-21
1.14555e-23
6.8611e-26
3.35762e-28
1.31685e-30
4.03233e-33
9.2756e-36
1.50585e-38
1.53627e-41
7.39065e-45
4.34592e-08
3.98722e-07
3.36654e-07
3.4395e-08
7.92643e-10
1.21707e-11
1.67099e-13
1.99929e-15
2.06416e-17
1.82229e-19
1.35813e-21
8.40884e-24
4.24841e-26
1.71635e-28
5.40378e-31
1.27729e-33
2.13254e-36
2.24201e-39
1.11457e-42
8.53888e-07
4.73647e-06
5.52576e-06
1.97276e-06
5.10928e-08
9.16095e-10
1.40655e-11
1.79013e-13
1.88974e-15
1.67621e-17
1.25678e-19
7.90472e-22
4.09029e-24
1.69688e-26
5.47686e-29
1.32316e-31
2.25359e-34
2.41758e-37
1.2294e-40
1.02779e-05
3.47653e-05
0.000156918
5.80354e-05
1.90982e-06
4.85719e-08
9.38656e-10
1.38328e-11
1.57603e-13
1.42055e-15
1.04292e-17
6.38861e-20
3.27677e-22
1.37588e-24
4.54459e-27
1.12392e-29
1.94916e-32
2.11713e-35
1.08704e-38
0.00022602
0.0030834
0.00186125
5.37148e-05
2.91433e-06
1.27788e-07
4.25176e-09
1.05623e-10
1.96785e-12
2.77975e-14
3.00676e-16
2.50353e-18
1.60243e-20
7.812e-23
2.84681e-25
7.50984e-28
1.35683e-30
1.50772e-33
7.81059e-37
0.059589
0.0297991
0.00123889
4.34545e-06
6.83222e-07
5.81219e-08
2.93392e-09
9.91986e-11
2.42376e-12
4.47805e-14
6.4056e-16
7.14342e-18
6.17587e-20
4.07757e-22
2.00725e-24
7.10378e-27
1.70322e-29
2.47342e-32
1.64065e-35
1.88598e-86
2.11125e-82
1.2886e-78
6.87572e-75
2.7713e-69
6.97093e-63
1.17223e-56
1.1137e-50
8.81596e-45
4.29994e-14
9.20999e-11
1.2567e-05
0.609248
0.983022
0.999955
1
1
1
1
1
1
1
0.999999
1.41866e-83
1.43222e-79
7.61643e-76
3.35121e-72
4.37274e-67
9.1312e-61
1.26713e-54
9.88008e-49
6.32704e-43
4.62651e-13
9.48858e-08
0.00155468
0.774237
0.996965
0.999998
1
1
1
1
1
1
1
1
8.86746e-81
8.08384e-77
3.75332e-73
1.38883e-69
5.82519e-65
9.87211e-59
1.15077e-52
7.40215e-47
3.94771e-41
1.75609e-11
6.02421e-06
0.0187273
0.918095
0.99983
1
1
1
1
1
1
1
1
1
4.76455e-78
3.94036e-74
1.6069e-70
5.03548e-67
7.14847e-63
9.35282e-57
9.08369e-51
4.94546e-45
2.20702e-39
2.15858e-10
3.75308e-05
0.0418022
0.889434
0.999268
1
1
1
1
1
1
1
1
1
2.31394e-75
1.74638e-71
6.478e-68
1.6881e-64
8.53131e-61
8.17434e-55
5.98872e-49
3.04128e-43
1.0422e-37
2.40528e-32
1.01824e-08
0.000554664
0.758835
0.995021
0.999995
1
1
1
1
1
1
1
1
8.19646e-73
5.65693e-69
1.86858e-65
4.13657e-62
1.0818e-58
1.94803e-52
3.79659e-47
1.54642e-41
4.63525e-36
9.19262e-31
6.92939e-10
0.000403471
0.740638
0.993518
0.999992
1
1
1
1
1
1
1
1
2.26906e-70
1.43789e-66
4.27373e-63
8.32651e-60
2.02028e-53
3.86673e-49
4.57143e-45
6.85316e-40
1.83134e-34
3.24819e-29
4.77697e-09
0.000340573
0.737313
0.993205
0.999991
1
1
1
1
1
1
1
1
5.14257e-68
3.00247e-64
8.09082e-61
2.43775e-54
5.40314e-50
4.55279e-46
2.04678e-42
3.05142e-38
6.39407e-33
1.04249e-27
1.11394e-09
0.000307827
0.748203
0.994023
0.999993
1
1
1
1
1
1
1
1
9.83362e-66
5.3046e-62
2.27799e-55
6.32567e-51
6.3314e-47
3.17942e-43
9.32824e-40
2.58056e-36
1.97668e-31
2.99807e-26
2.71496e-09
0.000315535
0.763492
0.99509
0.999995
1
1
1
1
1
1
1
1
1.62156e-63
1.42609e-56
5.68459e-52
7.24487e-48
4.38539e-44
1.50437e-40
3.26552e-37
5.08717e-34
5.72411e-30
7.64045e-25
1.56944e-09
0.000257998
0.786727
0.99642
0.999997
1
1
1
1
1
1
1
1
4.12498e-58
3.40883e-53
6.31489e-49
4.93208e-45
2.06392e-41
5.30716e-38
9.18507e-35
1.1343e-31
2.1954e-28
1.73618e-23
1.77514e-09
0.000223024
0.811049
0.997523
0.999999
1
1
1
1
1
1
1
1
9.47198e-55
3.66793e-50
4.20299e-46
2.29324e-42
7.2651e-39
1.50279e-35
2.16592e-32
2.21979e-29
1.83482e-26
3.47911e-22
5.82032e-10
0.000260533
0.835819
0.998395
0.999999
1
1
1
1
1
1
1
1
9.86464e-52
2.38339e-47
1.92376e-43
8.01583e-40
2.05994e-36
3.57389e-33
4.31951e-30
3.62437e-27
2.11928e-24
6.51769e-21
1.00192e-09
0.000197879
0.861628
0.999043
1
1
1
1
1
1
1
1
1
6.24583e-49
1.07162e-44
6.65751e-41
2.2676e-37
4.92285e-34
7.20532e-31
7.16804e-28
4.80697e-25
2.15766e-22
1.44434e-19
2.42377e-10
0.000187135
0.887488
0.999488
1
1
1
1
1
1
1
1
1
2.75423e-46
3.66486e-42
1.87472e-38
5.43113e-35
1.00072e-31
1.21184e-28
9.67724e-26
5.07988e-23
1.74595e-20
4.83236e-18
4.86764e-10
0.000171085
0.914077
0.999772
1
1
1
1
1
1
1
1
1
9.29929e-44
1.02599e-39
4.49076e-36
1.11072e-32
1.70239e-29
1.66263e-26
1.04347e-23
4.2165e-21
1.09439e-18
1.8939e-16
1.96633e-10
0.000155991
0.942914
0.999917
1
1
1
1
1
0.999999
0.999999
0.999997
0.999977
2.58303e-41
2.45635e-37
9.23152e-34
1.90895e-30
2.37043e-27
1.82681e-24
8.85713e-22
2.71146e-19
5.21811e-17
6.28099e-15
9.42003e-11
0.000128918
0.97022
0.999885
0.999871
0.999818
0.999737
0.999613
0.999419
0.999141
0.998731
0.997959
0.993469
6.16549e-39
5.06871e-35
1.60114e-31
2.69543e-28
2.65295e-25
1.58608e-22
5.84761e-20
1.33083e-17
1.85092e-15
1.54715e-13
8.05896e-11
0.000520654
0.971136
0.972553
0.968746
0.963032
0.955793
0.946646
0.935216
0.922309
0.907541
0.885034
0.826729
1.27643e-36
8.87607e-33
2.29409e-29
3.07469e-26
2.35687e-23
1.07509e-20
2.95513e-18
4.87104e-16
4.74352e-14
2.72758e-12
3.23725e-09
0.000539493
0.504661
0.493282
0.473869
0.449448
0.423146
0.395486
0.367642
0.339715
0.315076
0.293862
0.247074
2.24821e-34
1.28501e-30
2.65795e-27
2.78681e-24
1.63634e-21
5.58402e-19
1.11475e-16
1.28894e-14
8.64578e-13
3.62435e-11
4.56815e-08
1.95961e-06
2.06145e-08
5.6119e-12
4.32367e-14
9.81788e-13
2.16919e-11
4.79446e-10
8.35511e-09
1.00191e-07
8.24814e-07
9.22797e-06
3.00002e-05
3.96989e-46
8.41846e-43
9.21504e-40
6.15112e-37
2.71965e-34
8.33343e-32
1.81482e-29
2.84528e-27
3.22307e-25
2.62337e-23
1.51259e-21
6.27211e-20
1.95792e-18
5.75052e-17
1.40426e-15
2.67919e-14
3.92837e-13
4.37985e-12
5.22829e-11
5.81868e-10
4.68536e-09
2.53433e-07
1.79968e-06
4.34364e-48
1.04981e-44
1.18012e-41
8.07458e-39
3.73678e-36
1.23345e-33
2.99315e-31
5.43682e-29
7.47086e-27
7.80919e-25
6.22861e-23
3.79338e-21
1.77422e-19
6.56941e-18
1.87578e-16
3.9315e-15
5.61356e-14
4.84117e-13
1.95586e-12
2.66723e-11
1.19133e-09
3.42892e-08
1.49937e-07
1.26829e-50
3.00884e-47
3.29605e-44
2.19136e-41
9.83869e-39
3.14973e-36
7.42016e-34
1.31229e-31
1.76593e-29
1.82674e-27
1.46643e-25
9.24111e-24
4.65448e-22
1.92018e-20
6.451e-19
1.73721e-17
3.64206e-16
5.67998e-15
6.17543e-14
4.31114e-13
2.02407e-12
3.6867e-10
1.42427e-08
2.08102e-53
5.41013e-50
6.51935e-47
4.82339e-44
2.44604e-41
9.00645e-39
2.4923e-36
5.30168e-34
8.81049e-32
1.15862e-29
1.21966e-27
1.04017e-25
7.28541e-24
4.24256e-22
2.05931e-20
8.31135e-19
2.76732e-17
7.4521e-16
1.54727e-14
2.23806e-13
1.87096e-12
5.90948e-11
5.28255e-10
1.63414e-56
4.5286e-53
5.82496e-50
4.61468e-47
2.51844e-44
1.00437e-41
3.03381e-39
7.109e-37
1.31491e-34
1.94641e-32
2.33356e-30
2.29164e-28
1.86306e-26
1.26413e-24
7.18668e-23
3.4257e-21
1.36733e-19
4.55846e-18
1.26514e-16
2.90767e-15
5.47486e-14
8.26349e-13
9.76761e-12
8.01133e-60
2.39758e-56
3.33586e-53
2.86693e-50
1.70452e-47
7.44529e-45
2.47901e-42
6.45071e-40
1.33587e-37
2.23325e-35
3.0502e-33
3.43947e-31
3.23104e-29
2.54619e-27
1.69077e-25
9.48312e-24
4.49674e-22
1.80302e-20
6.11293e-19
1.75269e-17
4.25107e-16
8.71861e-15
1.50657e-13
2.56403e-63
8.3864e-60
1.27733e-56
1.20484e-53
7.8898e-51
3.81274e-48
1.412e-45
4.11134e-43
9.59004e-41
1.81832e-38
2.83604e-36
3.67551e-34
3.9915e-32
3.65658e-30
2.83991e-28
1.8766e-26
1.05777e-24
5.09642e-23
2.1032e-21
7.45181e-20
2.27351e-18
5.99335e-17
1.36873e-15
5.50851e-67
1.99124e-63
3.35663e-60
3.51193e-57
2.55862e-54
1.3808e-51
5.73597e-49
1.88281e-46
4.97792e-44
1.07588e-41
1.92377e-39
2.87425e-37
3.61802e-35
3.86318e-33
3.51834e-31
2.74528e-29
1.84215e-27
1.0667e-25
5.3486e-24
2.33097e-22
8.8664e-21
2.95655e-19
8.67581e-18
8.07337e-71
3.25993e-67
6.14579e-64
7.20493e-61
5.89665e-58
3.5861e-55
1.68503e-52
6.28257e-50
1.89534e-47
4.69672e-45
9.67618e-43
1.67398e-40
2.45222e-38
3.0633e-36
3.28273e-34
3.0334e-32
2.42819e-30
1.69118e-28
1.02933e-26
5.50011e-25
2.59259e-23
1.08326e-21
4.02908e-20
8.1313e-75
3.7063e-71
7.89532e-68
1.04754e-64
9.72372e-62
6.72509e-59
3.60495e-56
1.53882e-53
5.3356e-51
1.52588e-48
3.64357e-46
7.33832e-44
1.25729e-41
1.84596e-39
2.33734e-37
2.56685e-35
2.45772e-33
2.06202e-31
1.52353e-29
9.96363e-28
5.79761e-26
3.01663e-24
1.40984e-22
5.62472e-79
2.92516e-75
7.11536e-72
1.07942e-68
1.1477e-65
9.11291e-63
5.62315e-60
2.77145e-57
1.11323e-54
3.70132e-52
1.03142e-49
2.4339e-47
4.9063e-45
8.51297e-43
1.27996e-40
1.6778e-38
1.9283e-36
1.95375e-34
1.75452e-32
1.40407e-30
1.0067e-28
6.49997e-27
3.79692e-25
2.64914e-83
1.58968e-79
4.46467e-76
7.82862e-73
9.6356e-70
8.87337e-67
6.36471e-64
3.65593e-61
1.71637e-58
6.69063e-56
2.19316e-53
6.10926e-51
1.45919e-48
3.01186e-46
5.40989e-44
8.51029e-42
1.1795e-39
1.4486e-37
1.5854e-35
1.55489e-33
1.37408e-31
1.09981e-29
8.01099e-28
8.34109e-88
5.84689e-84
1.91912e-80
3.93613e-77
5.67378e-74
6.12891e-71
5.16659e-68
3.49551e-65
1.93767e-62
8.94249e-60
3.4805e-57
1.15473e-54
3.29572e-52
8.15711e-50
1.76346e-47
3.35202e-45
5.63708e-43
8.43705e-41
1.13041e-38
1.36354e-36
1.48898e-34
1.47965e-32
1.34462e-30
1.70235e-92
1.4135e-88
5.49728e-85
1.33683e-81
2.28703e-78
2.93591e-75
2.94589e-72
2.37674e-69
1.57441e-66
8.70287e-64
4.0672e-61
1.62459e-58
5.5984e-56
1.67808e-53
4.4075e-51
1.02129e-48
2.1011e-46
3.86129e-44
6.37636e-42
9.51647e-40
1.29082e-37
1.59959e-35
1.82e-33
2.14455e-97
2.14409e-93
1.0042e-89
2.94223e-86
6.06919e-83
9.40397e-80
1.14041e-76
1.1137e-73
8.94546e-71
6.00746e-68
3.4181e-65
1.66603e-62
7.02269e-60
2.58149e-57
8.33773e-55
2.38253e-52
6.06267e-50
1.38234e-47
2.84114e-45
5.29461e-43
8.99653e-41
1.40116e-38
2.01042e-36
1.54438e-102
1.8969e-98
1.09147e-94
3.92986e-91
9.96715e-88
1.90035e-84
2.83862e-81
3.41879e-78
3.39143e-75
2.81733e-72
1.98635e-69
1.20198e-66
6.30285e-64
2.88837e-61
1.16563e-58
4.17172e-56
1.33283e-53
3.82537e-51
9.92305e-49
2.34014e-46
5.04564e-44
9.99882e-42
1.83064e-39
5.62131e-108
8.70438e-104
6.31332e-100
2.86552e-96
9.16458e-93
2.20455e-89
4.15777e-86
6.32845e-83
7.94251e-80
8.35808e-77
7.47518e-74
5.74669e-71
3.8346e-68
2.24003e-65
1.15446e-62
5.28679e-60
2.16568e-57
7.98644e-55
2.66766e-52
8.119e-50
2.26428e-47
5.81721e-45
1.38408e-42
8.40949e-114
1.70029e-109
1.61008e-105
9.53932e-102
3.98263e-98
1.25094e-94
3.08204e-91
6.13215e-88
1.00682e-84
1.38734e-81
1.62643e-78
1.64086e-75
1.43868e-72
1.10581e-69
7.50975e-67
4.53874e-64
2.45782e-61
1.20025e-58
5.31852e-56
2.15134e-53
7.98914e-51
2.73831e-48
8.70959e-46
3.53774e-120
9.8625e-116
1.28448e-111
1.04594e-107
6.00005e-104
2.58947e-100
8.76751e-97
2.39808e-93
5.41536e-90
1.02694e-86
1.65806e-83
2.30567e-80
2.78905e-77
2.96066e-74
2.77997e-71
2.32589e-68
1.74589e-65
1.18349e-62
7.29042e-60
4.10589e-57
2.12628e-54
1.01794e-51
4.5298e-49
1.90765e-127
7.98822e-123
1.56028e-118
1.90353e-114
1.635e-110
1.0562e-106
5.35215e-103
2.19102e-99
7.40649e-96
2.10307e-92
5.08621e-89
1.05996e-85
1.92266e-82
3.06255e-79
4.31845e-76
5.4307e-73
6.13329e-70
6.26214e-67
5.81713e-64
4.94654e-61
3.87267e-58
2.80654e-55
1.89307e-52
1.01406e-136
7.86717e-132
2.83271e-127
6.35673e-123
1.00332e-118
1.19029e-114
1.10721e-110
8.31698e-107
5.15671e-103
2.68451e-99
1.18973e-95
4.54092e-92
1.50754e-88
4.39165e-85
1.13149e-81
2.59712e-78
5.34679e-75
9.93684e-72
1.67732e-68
2.58656e-65
3.66361e-62
4.78963e-59
5.80847e-56
1.1017e-149
2.20653e-144
1.93364e-139
1.04533e-134
3.96351e-130
1.12944e-125
2.52784e-121
4.58407e-117
6.8957e-113
8.76705e-109
9.56786e-105
9.08328e-101
7.59005e-97
5.6421e-93
3.7679e-89
2.28155e-85
1.26375e-81
6.45774e-78
3.0692e-74
1.36725e-70
5.74886e-67
2.29462e-63
8.72264e-60
0.999999
0.999999
0.999996
0.999593
1
0.999998
0.999989
0.992291
0.999999
0.999995
0.996912
0.699795
0.999999
0.99978
0.833761
0.188238
0.999989
0.976043
0.413261
0.0244125
0.999779
0.842802
0.167413
0.00350789
0.996255
0.63818
0.066314
0.000631915
0.975833
0.436221
0.0254358
0.000121157
0.929386
0.2978
0.0109126
2.96843e-05
0.857918
0.198472
0.00466488
7.58396e-06
0.765873
0.125915
0.00176974
2.24533e-06
0.661476
0.0793761
0.000646005
1.44188e-06
0.551208
0.046699
0.00018745
1.22822e-06
0.440829
0.0240496
3.38898e-05
6.04745e-07
0.32886
0.00839868
1.89463e-06
1.39361e-07
0.204303
0.000383282
4.47584e-07
2.70135e-08
0.070341
2.08166e-06
1.23129e-07
5.01351e-09
0.00512396
5.83925e-07
2.59792e-08
7.68507e-10
0.000123577
6.42328e-07
4.43961e-09
9.76281e-11
3.72881e-05
9.18309e-07
5.60374e-10
9.58989e-12
3.45483e-06
1.18007e-06
3.5337e-09
6.11504e-13
3.99443e-07
6.15562e-07
1.36285e-09
2.63572e-14
5.26292e-08
6.80152e-08
2.412e-10
7.44192e-16
3.22621e-09
4.35573e-09
2.09083e-11
1.45149e-17
9.20631e-11
1.43149e-10
9.73952e-13
2.03554e-19
1.62643e-12
3.03985e-12
2.7282e-14
2.1155e-21
1.90203e-14
4.32323e-14
5.00073e-16
1.68153e-23
1.56245e-16
4.3387e-16
6.3567e-18
1.04959e-25
9.37685e-19
3.19379e-18
5.849e-20
5.26524e-28
4.23276e-21
1.77624e-20
4.02593e-22
2.16673e-30
1.47077e-23
7.64396e-23
2.12839e-24
7.44726e-33
4.01069e-26
2.59717e-25
8.83512e-27
2.17128e-35
8.72915e-29
7.0911e-28
2.93531e-29
5.44019e-38
1.53969e-31
1.58097e-30
7.93964e-32
1.18402e-40
2.23222e-34
2.92182e-33
1.77617e-34
2.25867e-43
2.69556e-37
4.54131e-36
3.33533e-37
3.80638e-46
2.74501e-40
6.02114e-39
5.33271e-40
5.70906e-49
2.38378e-43
6.9073e-42
7.36107e-43
7.67854e-52
1.78136e-46
6.95494e-45
8.89345e-46
9.33508e-55
1.15134e-49
6.23687e-48
9.53373e-49
1.0347e-57
6.41385e-53
5.05609e-51
9.19319e-52
1.05536e-60
3.00943e-56
3.76447e-54
8.08589e-55
1.00049e-63
0.562937
0.0522047
0.000357492
9.51661e-07
1.60614e-07
1.2738e-08
6.79729e-10
2.71635e-11
8.27271e-13
1.92865e-14
3.46393e-16
4.81594e-18
5.17995e-20
4.27336e-22
2.65245e-24
1.19664e-26
3.69483e-29
6.96218e-32
6.01484e-35
0.402189
0.0174378
3.97694e-05
2.16023e-07
4.55326e-08
4.56586e-09
2.73464e-10
1.14671e-11
3.43213e-13
7.67447e-15
1.3121e-16
1.73068e-18
1.75864e-20
1.36194e-22
7.87143e-25
3.27869e-27
9.27636e-30
1.59249e-32
1.24896e-35
0.0791934
0.000466224
6.70706e-07
9.76419e-08
1.29299e-08
1.14269e-09
6.53168e-11
2.55755e-12
7.22304e-14
1.53311e-15
2.4971e-17
3.14887e-19
3.07367e-21
2.30248e-23
1.2995e-25
5.34929e-28
1.51685e-30
2.65105e-33
2.15251e-36
0.00771657
1.06903e-05
2.30299e-07
3.22304e-08
3.78907e-09
2.8461e-10
4.76414e-12
3.17862e-13
1.15527e-14
2.71575e-16
4.56442e-18
5.79558e-20
5.67826e-22
4.28397e-24
2.44427e-26
1.01952e-28
2.93096e-31
5.18764e-34
4.25483e-37
0.000515707
6.93657e-07
9.22989e-08
1.30651e-08
1.23482e-09
8.16895e-11
8.75837e-13
6.29973e-14
2.37787e-15
5.64653e-17
9.42008e-19
1.17248e-20
1.11526e-22
8.10315e-25
4.42015e-27
1.75086e-29
4.75155e-32
7.89889e-35
6.05992e-38
5.76637e-05
2.16963e-07
3.79078e-08
4.96527e-09
4.072e-10
2.36956e-11
5.57816e-13
2.64577e-14
7.07045e-16
1.36907e-17
2.03113e-19
2.32982e-21
2.06183e-23
1.39325e-25
7.0482e-28
2.58199e-30
6.46636e-33
9.9043e-36
6.99297e-39
1.01253e-05
1.32642e-07
1.78646e-08
2.01172e-09
1.47023e-10
1.57634e-12
1.1845e-13
5.01768e-15
1.39093e-16
2.71709e-18
3.88701e-20
4.17137e-22
3.39591e-24
2.09408e-26
9.63934e-29
3.21217e-31
7.32477e-34
1.02318e-36
6.60137e-40
2.16705e-06
1.07174e-07
1.10407e-08
8.94594e-10
5.29322e-11
6.97286e-13
4.72415e-14
1.67273e-15
3.83102e-17
6.29085e-19
7.78136e-21
7.39868e-23
5.42827e-25
3.05097e-27
1.29041e-29
3.97679e-32
8.43447e-35
1.10143e-37
6.67245e-41
8.54915e-07
8.75466e-08
6.1571e-09
3.9534e-10
1.84408e-11
6.72727e-13
2.01236e-14
4.63548e-16
8.16968e-18
1.11546e-19
1.19121e-21
9.97583e-24
6.52677e-26
3.3012e-28
1.26607e-30
3.56192e-33
6.93805e-36
8.36455e-39
4.69795e-42
5.16546e-07
4.44241e-08
2.9871e-09
1.47556e-10
6.22144e-12
1.98556e-13
4.90305e-15
9.43445e-17
1.42573e-18
1.70347e-20
1.61434e-22
1.21212e-24
7.16773e-27
3.29756e-29
1.15576e-31
2.98097e-34
5.33243e-37
5.9068e-40
3.04639e-43
2.61881e-07
2.2021e-08
1.28211e-09
5.35447e-11
1.73373e-12
4.40788e-14
8.89391e-16
1.43405e-17
1.85652e-19
1.9343e-21
1.62099e-23
1.08808e-25
5.79997e-28
2.41992e-30
7.7244e-33
1.81937e-35
2.97674e-38
3.01825e-41
1.42478e-44
1.52027e-07
9.63354e-09
4.2411e-10
1.38465e-11
3.52955e-13
7.20791e-15
1.19459e-16
1.61649e-18
1.78955e-20
1.61928e-22
1.19309e-24
7.10868e-27
3.38818e-29
1.27108e-31
3.66379e-34
7.81899e-37
1.16236e-39
1.07338e-42
4.6223e-46
7.96207e-08
3.24565e-09
9.91128e-11
2.41561e-12
4.83152e-14
8.02041e-16
1.10876e-17
1.27642e-19
1.22075e-21
9.65708e-24
6.27852e-26
3.32509e-28
1.41693e-30
4.77537e-33
1.24162e-35
2.39878e-38
3.23875e-41
2.72472e-44
1.0713e-47
2.16023e-08
6.0097e-10
1.3515e-11
2.57555e-13
4.20288e-15
5.85903e-17
6.93338e-19
6.93161e-21
5.81931e-23
4.07417e-25
2.35918e-27
1.11866e-29
4.2873e-32
1.30461e-34
3.07349e-37
5.39777e-40
6.64535e-43
5.11305e-46
1.84218e-49
3.77247e-09
7.92264e-11
1.35508e-12
2.00957e-14
2.61539e-16
2.96845e-18
2.99151e-20
2.64871e-22
1.98282e-24
1.24412e-26
6.48155e-29
2.77564e-31
9.64043e-34
2.66687e-36
5.72834e-39
9.19789e-42
1.03803e-44
7.34109e-48
2.43464e-51
5.51231e-10
8.97946e-12
1.17912e-13
1.37899e-15
1.4488e-17
1.35661e-19
1.15275e-21
8.58647e-24
5.46441e-26
2.94291e-28
1.34225e-30
5.23569e-33
1.66075e-35
4.20542e-38
8.28792e-41
1.22374e-43
1.27252e-46
8.31135e-50
2.5437e-53
7.24673e-11
8.88584e-13
8.978e-15
8.32954e-17
7.12325e-19
5.56689e-21
3.99776e-23
2.52255e-25
1.37331e-27
6.38422e-30
2.55399e-32
8.74301e-35
2.4533e-37
5.53801e-40
9.80295e-43
1.30988e-45
1.25549e-48
7.60834e-52
2.15223e-55
8.54397e-12
7.65532e-14
5.94929e-16
4.40039e-18
3.08802e-20
2.03271e-22
1.2375e-24
6.66359e-27
3.125e-29
1.26239e-31
4.45491e-34
1.34544e-36
3.35513e-39
6.77889e-42
1.0815e-44
1.31248e-47
1.15205e-50
6.41965e-54
1.6743e-57
8.60869e-13
5.60705e-15
3.37693e-17
2.00853e-19
1.16872e-21
6.53273e-24
3.39272e-26
1.57205e-28
6.39974e-31
2.26339e-33
7.08268e-36
1.89784e-38
4.22663e-41
7.67605e-44
1.10773e-46
1.22613e-49
9.87356e-53
5.06809e-56
1.22008e-59
6.86682e-14
3.37477e-16
1.60462e-18
7.80058e-21
3.8168e-23
1.82835e-25
8.17595e-28
3.29092e-30
1.1729e-32
3.66214e-35
1.02194e-37
2.44405e-40
4.8864e-43
8.01228e-46
1.04984e-48
1.0641e-51
7.86895e-55
3.72661e-58
8.29389e-62
3.96927e-15
1.59758e-17
6.22821e-20
2.53707e-22
1.06299e-24
4.41525e-27
1.72015e-29
6.07862e-32
1.91433e-34
5.32469e-37
1.3329e-39
2.86291e-42
5.16621e-45
7.68349e-48
9.17739e-51
8.54656e-54
5.81496e-57
2.54516e-60
5.24285e-64
1.61508e-16
5.74954e-19
1.93339e-21
6.81711e-24
2.49931e-26
9.133e-29
3.14206e-31
9.86065e-34
2.77122e-36
6.93186e-39
1.56619e-41
3.0406e-44
4.97968e-47
6.74897e-50
7.37869e-53
6.33208e-56
3.97349e-59
1.61024e-62
3.07281e-66
4.71341e-18
1.5716e-20
4.76698e-23
1.50213e-25
4.92802e-28
1.61028e-30
4.96284e-33
1.39992e-35
3.54705e-38
8.05514e-41
1.65344e-43
2.9203e-46
4.36479e-49
5.41612e-52
5.4432e-55
4.31627e-58
2.50409e-61
9.41151e-65
1.66543e-68
9.90852e-20
3.275e-22
9.33635e-25
2.7091e-27
8.12537e-30
2.4142e-32
6.76252e-35
1.73552e-37
4.00569e-40
8.33556e-43
1.56507e-45
2.53118e-48
3.47185e-51
3.9628e-54
3.67673e-57
2.70098e-60
1.45214e-63
5.07026e-67
8.32834e-71
1.53578e-21
5.2624e-24
1.4597e-26
4.0066e-29
1.12062e-31
3.07725e-34
7.94444e-37
1.87701e-39
3.98657e-42
7.66927e-45
1.32642e-47
1.977e-50
2.5022e-53
2.63921e-56
2.27027e-59
1.54882e-62
7.73459e-66
2.51289e-69
3.83513e-73
1.79499e-23
6.611e-26
1.83666e-28
4.88168e-31
1.29628e-33
3.34044e-36
8.05282e-39
1.77136e-41
3.49581e-44
6.26929e-47
1.00582e-49
1.39024e-52
1.63224e-55
1.59804e-58
1.27973e-61
8.12737e-65
3.77841e-68
1.14403e-71
1.62375e-75
1.61847e-25
6.58945e-28
1.87807e-30
4.93163e-33
1.26332e-35
3.09784e-38
7.05755e-41
1.46045e-43
2.70284e-46
4.55381e-49
6.82351e-52
8.79861e-55
9.63172e-58
8.79091e-61
6.57898e-64
3.89893e-67
1.6911e-70
4.77907e-74
6.31369e-78
1.14959e-27
5.28853e-30
1.57719e-32
4.16206e-35
1.04324e-37
2.46475e-40
5.36427e-43
1.05425e-45
1.84526e-48
2.94172e-51
4.1436e-54
5.01267e-57
5.14106e-60
4.39234e-63
3.08282e-66
1.70901e-69
6.92998e-73
1.83054e-76
2.25292e-80
6.5535e-30
3.46629e-32
1.09954e-34
2.95845e-37
7.34716e-40
1.691e-42
3.54976e-45
6.68249e-48
1.11484e-50
1.69266e-53
2.25479e-56
2.57256e-59
2.48319e-62
1.99371e-65
1.31653e-68
6.84352e-72
2.59948e-75
6.42691e-79
7.37477e-83
3.04887e-32
1.88034e-34
6.43134e-37
1.78621e-39
4.44373e-42
1.00605e-44
2.05436e-47
3.73263e-50
5.97735e-53
8.69389e-56
1.1013e-58
1.19079e-61
1.08634e-64
8.22663e-68
5.12575e-71
2.5042e-74
8.92679e-78
2.06842e-81
2.2146e-85
1.17516e-34
8.54896e-37
3.18892e-39
9.23902e-42
2.32492e-44
5.22185e-47
1.04499e-49
1.84479e-52
2.85366e-55
3.99666e-58
4.83845e-61
4.97994e-64
4.31029e-67
3.08929e-70
1.82087e-73
8.3794e-77
2.80801e-80
6.10499e-84
6.10322e-88
3.80514e-37
3.29654e-39
1.35393e-41
4.12905e-44
1.05999e-46
2.37962e-49
4.69729e-52
8.10415e-55
1.21775e-57
1.64967e-60
1.91712e-63
1.8857e-66
1.55388e-69
1.05741e-72
5.90949e-76
2.56677e-79
8.09857e-83
1.65388e-86
1.54478e-90
1.0485e-39
1.0904e-41
4.97037e-44
1.60796e-46
4.24285e-49
9.58304e-52
1.87653e-54
3.18002e-57
4.66462e-60
6.13592e-63
6.8718e-66
6.48217e-69
5.10117e-72
3.3055e-75
1.7551e-78
7.20834e-82
2.14435e-85
4.1173e-89
3.59497e-93
2.48877e-42
3.1276e-44
1.59276e-46
5.50216e-49
1.50211e-51
3.43323e-54
6.70215e-57
1.12045e-59
1.6113e-62
2.06485e-65
2.23608e-68
2.02905e-71
1.52906e-74
9.45947e-78
4.78012e-81
1.85936e-84
5.22138e-88
9.43338e-92
7.70274e-96
5.14807e-45
7.86107e-47
4.49691e-49
1.66805e-51
4.73873e-54
1.10163e-56
2.15319e-59
3.56442e-62
5.04388e-65
6.31434e-68
6.63111e-71
5.80341e-74
4.19764e-77
2.48498e-80
1.1968e-83
4.41498e-87
1.1715e-90
1.99275e-94
1.52206e-98
9.38368e-48
1.74912e-49
1.12889e-51
4.51709e-54
1.34201e-56
3.18758e-59
6.26153e-62
1.02968e-64
1.43821e-67
1.76293e-70
1.79971e-73
1.52245e-76
1.05901e-79
6.01088e-83
2.76219e-86
9.6742e-90
2.42743e-93
3.8892e-97
2.77881e-101
1.5234e-50
3.47969e-52
2.54262e-54
1.10155e-56
3.43709e-59
8.37419e-62
1.65871e-64
2.71706e-67
3.75561e-70
4.51612e-73
4.49054e-76
3.67837e-79
2.46449e-82
1.34328e-85
5.89471e-89
1.96168e-92
4.65685e-96
7.02862e-100
4.69684e-104
2.22566e-53
6.24985e-55
5.1842e-57
2.4387e-59
8.01975e-62
2.01119e-64
4.02849e-67
6.58848e-70
9.03112e-73
1.067e-75
1.03499e-78
8.2207e-82
5.31142e-85
2.78328e-88
1.16701e-91
3.69197e-95
8.29356e-99
1.17904e-102
7.36547e-107
2.95582e-56
1.02317e-57
9.65376e-60
4.94087e-62
1.71731e-64
4.44578e-67
9.02778e-70
1.47704e-72
2.01117e-75
2.33737e-78
2.21436e-81
1.70713e-84
1.06452e-87
5.36698e-91
2.15071e-94
6.46938e-98
1.37503e-101
1.84044e-105
1.074e-109
3.60365e-59
1.54114e-60
1.65629e-62
9.23452e-65
3.3995e-67
9.10686e-70
1.87871e-72
3.07996e-75
4.17119e-78
4.77289e-81
4.41967e-84
3.30922e-87
1.99249e-90
9.66804e-94
3.70267e-97
1.05881e-100
2.12837e-104
2.68012e-108
1.45944e-112
4.07245e-62
2.1555e-63
2.64101e-65
1.60488e-67
6.26617e-70
1.74028e-72
3.65352e-75
6.0095e-78
8.10239e-81
9.13333e-84
8.27009e-87
6.01553e-90
3.49754e-93
1.63317e-96
5.97566e-100
1.62365e-103
3.08435e-107
3.65009e-111
1.85222e-115
4.30719e-65
2.82492e-66
3.94766e-68
2.61416e-70
1.08326e-72
3.12299e-75
6.68071e-78
1.10358e-80
1.48216e-83
1.64634e-86
1.45782e-89
1.03003e-92
5.78141e-96
2.59663e-99
9.07098e-103
2.33987e-106
4.19588e-110
4.66009e-114
2.19998e-118
)
;

boundaryField
{
    leftWall
    {
        type            zeroGradient;
    }
    rightWall
    {
        type            zeroGradient;
    }
    lowerWall
    {
        type            zeroGradient;
    }
    atmosphere
    {
        type            inletOutlet;
        inletValue      uniform 0;
        value           nonuniform List<scalar> 
46
(
0
0
0
0
0
0
0
0
0
0
0
0
0
0
0
0
0
0
0
0
0
0
8.72264e-60
3.00943e-56
3.76447e-54
8.08589e-55
1.00049e-63
4.30719e-65
2.82492e-66
3.94766e-68
2.61416e-70
1.08326e-72
3.12299e-75
6.68071e-78
1.10358e-80
1.48216e-83
1.64634e-86
1.45782e-89
1.03003e-92
5.78141e-96
2.59663e-99
9.07098e-103
2.33987e-106
4.19588e-110
4.66009e-114
2.19998e-118
)
;
    }
    defaultFaces
    {
        type            empty;
    }
}


// ************************************************************************* //
