/*--------------------------------*- C++ -*----------------------------------*\
| =========                 |                                                 |
| \\      /  F ield         | OpenFOAM: The Open Source CFD Toolbox           |
|  \\    /   O peration     | Version:  2.4.0                                 |
|   \\  /    A nd           | Web:      www.OpenFOAM.org                      |
|    \\/     M anipulation  |                                                 |
\*---------------------------------------------------------------------------*/
FoamFile
{
    version     2.0;
    format      ascii;
    class       volScalarField;
    location    "0.05";
    object      p;
}
// * * * * * * * * * * * * * * * * * * * * * * * * * * * * * * * * * * * * * //

dimensions      [1 -1 -2 0 0 0 0];

internalField   nonuniform List<scalar> 
2268
(
12562.7
12517.3
12424.5
12279.9
12076.5
11803.7
11446.9
10980.8
10389.6
9589.68
8568.59
7182.46
5186.92
2458.36
1364.94
1235.79
1194.15
1136.21
1092.41
1059.86
1036.43
1021.59
1014.43
11774.5
11729.5
11637.3
11493.6
11291.5
11020.5
10666.1
10202.9
9614.6
8817.59
7795.97
6400.64
4360.56
1727.86
1207.71
1186.62
1153.46
1101.53
1059.73
1027.46
1003.8
988.452
980.768
10994.5
10950
10859.1
10717.3
10517.9
10250.5
9900.7
9443.63
8861.83
8071.33
7065.51
5637.22
3419.81
1426.64
1159.8
1147.73
1109.12
1063.59
1024.19
992.294
968.029
951.52
942.467
10222.4
10178.9
10089.8
9950.91
9755.48
9493.42
9150.62
8703.04
8131.97
7353.91
6369
4957.63
2544.15
1221.45
1105.03
1101.1
1064.3
1024.11
986.623
954.708
929.256
910.6
899.011
9458.37
9416.02
9329.35
9194.22
9004.04
8749.08
8415.6
7980.94
7425.23
6667.73
5716.78
4354.52
1909.53
1091.29
1057.07
1051.75
1020.7
983.728
947.458
915.075
887.659
865.39
848.197
8702.09
8661.22
8577.54
8447.05
8263.34
8017.12
7695.2
7276.73
6741.14
6014.04
5109.06
3829.5
1510.74
1001.9
1014.3
1003.93
977.449
943.021
907.443
873.834
843.322
815.694
789.199
7953.46
7914.33
7834.22
7709.22
7533.11
7297.17
6988.93
6589.62
6078.7
5391.48
4544.1
3355.95
1270.74
939.745
971.197
959.137
934.471
902.331
867.295
831.758
796.334
760.604
716.31
7212.15
7175.03
7099.02
6980.31
6812.93
6588.8
6296.25
5918.86
5437.23
4797.02
4015.17
2913.28
1112.48
896.487
927.239
916.366
892.779
862.232
827.277
789.53
747.256
701.861
625.203
7.45031
7.65255
7.74415
7.79339
7.79461
7.76449
7.71882
7.66753
7.61596
7.56672
7.52158
7.48122
7.44597
7.41591
7.39103
7.37127
7.35654
7.34677
7.34191
7.37608
7.58964
7.69112
7.74219
7.74115
7.70849
7.66107
7.60871
7.55653
7.50703
7.46175
7.42133
7.38607
7.35602
7.33116
7.31141
7.29669
7.28694
7.28209
7.28177
7.52573
7.64558
7.69939
7.69317
7.65507
7.60429
7.54985
7.49651
7.44645
7.4009
7.36038
7.32509
7.29506
7.27023
7.25052
7.23584
7.22611
7.22127
7.16734
7.45964
7.61069
7.66644
7.65069
7.60413
7.54812
7.49072
7.43576
7.38491
7.33899
7.29833
7.26302
7.23302
7.20825
7.1886
7.17398
7.16428
7.15946
7.00104
7.39524
7.59173
7.64505
7.61339
7.5552
7.49212
7.43104
7.37414
7.32233
7.27597
7.23516
7.19984
7.1699
7.14522
7.12565
7.1111
7.10145
7.09666
6.75935
7.32166
7.59621
7.63453
7.57941
7.50659
7.43563
7.37044
7.31143
7.25859
7.21179
7.17084
7.13554
7.1057
7.08113
7.06167
7.04721
7.03763
7.03287
6.50579
7.23527
7.65348
7.63044
7.54372
7.45663
7.37785
7.30852
7.24742
7.19359
7.14639
7.10535
7.07011
7.0404
7.01598
6.99667
6.98232
6.97282
6.9681
6.00259
7.40931
7.74256
7.63073
7.50422
7.40388
7.31795
7.24484
7.18186
7.12719
7.07969
7.03864
7.00354
6.97401
6.94978
6.93064
6.91644
6.90704
6.90236
6061.87
6028.29
5959.55
5851.96
5701.84
5498.74
5233.44
4893.83
4464.06
3904.7
3229.71
2231.13
922.938
843.021
859.952
851.995
830.168
800.931
765.127
723.502
670.401
600.554
424.164
4529.85
4504.02
4449.93
4363.29
4238.89
4066.99
3840.74
3552.87
3193.94
2749.89
2218.84
1316.28
747.688
784.727
779.853
771.811
751.824
722.27
684.666
638.947
581.873
503.279
412.899
3124.17
3096.24
3037.72
2937.76
2788.64
2622.04
2417.16
2165.09
1886.84
1553.88
1194.3
783.029
673.739
729.598
711.969
701.047
680.004
649.452
610.43
563.095
504.028
429.357
340.106
1216.89
1209.65
1195.39
1193.53
1207.19
1141.07
1126.06
1039.38
983.784
875.89
788.458
694.47
662.56
676.782
660.955
640.618
614.759
582.357
542.304
494.162
434.645
361.31
274.295
1117.54
1110.07
1094.35
1068.66
1031.27
994.945
946.123
901.018
844.55
791.067
730.915
674.124
628.938
626.877
604.999
580.992
553.463
520.177
479.814
431.624
372.62
299.857
211.211
1010.35
1004
991.274
972.519
950.453
918.302
881.287
836.457
787.024
733.432
678.423
626.193
577.504
572.087
548.901
523.97
495.928
462.615
422.782
375.571
318.532
249.42
171.144
911.843
906.219
894.998
878.354
856.813
829.056
795.844
757.422
714.558
668.366
620.993
575.259
525.116
518.72
495.24
470.09
442.192
409.555
371.023
325.779
271.74
207.22
134.722
817.955
812.967
803.037
788.296
768.891
744.491
715.46
681.985
644.827
604.883
563.126
522.503
472.004
466.259
443.644
419.085
392.028
360.725
324.194
281.743
231.659
172.889
106.309
728.209
723.816
715.067
702.035
684.787
663.354
637.921
608.817
576.526
541.758
504.918
468.546
420.101
415.326
394.095
370.801
345.172
315.757
281.791
242.792
197.574
146.457
90.9582
642.415
638.57
630.911
619.494
604.391
585.697
563.588
538.334
510.298
479.957
447.444
415.017
369.743
366.178
346.571
325.036
301.299
274.195
243.168
207.934
167.804
123.901
78.752
560.099
556.768
550.132
540.242
527.17
511.02
491.946
470.161
445.926
419.556
391.068
362.452
321.248
318.795
301.037
281.59
260.077
235.573
207.672
176.171
140.546
102.125
61.6315
480.87
478.018
472.341
463.888
452.724
438.942
422.67
404.07
383.326
360.64
335.986
310.979
274.658
273.081
257.378
240.243
221.186
199.485
174.817
146.958
115.315
80.7544
39.4189
404.344
401.931
397.14
390.031
380.659
369.094
355.435
339.806
322.333
303.148
282.216
261.067
229.592
228.947
215.431
200.761
184.328
165.59
144.278
120.133
92.5106
61.7652
20.774
329.986
328.022
324.104
318.279
310.605
301.134
289.933
277.109
262.752
246.926
229.589
212.012
186.289
186.275
175.031
162.901
149.208
133.565
115.766
95.5649
72.4039
46.5643
10.7606
257.44
255.917
252.875
248.332
242.317
234.845
225.973
215.846
204.522
191.989
178.157
163.734
144.668
144.927
136.022
126.47
115.592
103.145
88.9964
72.9755
54.712
34.5384
6.31419
187.242
186.133
183.934
180.581
176.059
170.433
163.707
156.06
147.651
138.388
128.195
117.224
104.345
104.764
98.3447
91.3462
83.2761
74.011
63.4966
51.6605
38.482
24.1102
4.37083
116.129
115.317
113.662
111.194
107.992
104.099
99.5707
94.1217
88.0766
81.7677
75.363
68.7497
63.7836
64.0216
60.0627
55.3248
49.8388
43.5699
36.5705
29.0054
21.1408
12.9627
3.79019
28.2253
27.8765
27.129
26.0224
24.6501
23.0678
21.3382
19.5272
17.6443
15.8238
14.4584
13.4579
16.6401
16.0885
14.3375
12.3741
10.6397
8.9782
7.44767
6.36593
5.10551
4.22944
3.45716
3.37979
3.37393
3.31972
3.23418
3.12131
2.98427
2.82619
2.65109
2.46137
2.27419
2.15274
2.09675
2.57586
2.48237
2.16186
2.02223
2.07411
2.12645
2.16754
2.18095
2.0968
1.79178
2.27958
1.7239
1.72662
1.73159
1.73983
1.75122
1.76604
1.78468
1.80753
1.83476
1.8657
1.89683
1.92314
1.9622
2.02471
2.09911
2.15906
2.20935
2.2589
2.30792
2.35264
2.37651
2.35664
2.32399
1.90258
1.90365
1.90456
1.90578
1.90758
1.91031
1.91445
1.92062
1.92974
1.94338
1.96365
1.9944
2.04083
2.07224
2.09757
2.12214
2.15422
2.1959
2.24398
2.29031
2.32961
2.40988
2.557
1.7333
1.73505
1.73838
1.74347
1.75046
1.75953
1.77094
1.78497
1.80195
1.82222
1.84611
1.87453
1.90908
1.94782
1.9888
2.03098
2.07486
2.12225
2.17437
2.22853
2.28303
2.35035
2.44209
1.68053
1.68206
1.6851
1.68974
1.69614
1.70452
1.71518
1.72843
1.74466
1.76432
1.78792
1.81584
1.84785
1.88197
1.91856
1.95799
2.00125
2.04868
2.10048
2.15633
2.21999
2.29583
2.37777
1.60787
1.60948
1.61271
1.61765
1.62444
1.63324
1.6443
1.65787
1.67426
1.69379
1.71675
1.74332
1.77324
1.80587
1.84123
1.87968
1.92168
1.96739
2.01689
2.07035
2.12861
2.19279
2.26274
1.53385
1.53551
1.53887
1.54399
1.551
1.56003
1.57126
1.58492
1.60121
1.62035
1.64253
1.66779
1.69601
1.72704
1.76091
1.79779
1.83791
1.88143
1.92847
1.97924
2.03404
2.09305
2.15359
1.45764
1.45933
1.46274
1.46793
1.475
1.48407
1.49526
1.50875
1.52469
1.54323
1.56448
1.58848
1.61521
1.64463
1.67677
1.71172
1.74957
1.7904
1.83422
1.88102
1.93068
1.98281
2.03633
1.37961
1.38129
1.38469
1.38986
1.39686
1.4058
1.41677
1.4299
1.4453
1.46308
1.48331
1.50602
1.53124
1.55896
1.58919
1.62198
1.65734
1.69526
1.7357
1.77851
1.82345
1.87003
1.91735
1.29973
1.30138
1.30471
1.30976
1.31659
1.32527
1.33588
1.3485
1.36322
1.38012
1.39925
1.42064
1.44431
1.47025
1.49847
1.52897
1.56172
1.59666
1.63367
1.67257
1.71305
1.75467
1.79675
1.21805
1.21964
1.22286
1.22773
1.2343
1.24262
1.25276
1.26476
1.27871
1.29464
1.3126
1.33261
1.35468
1.3788
1.40495
1.43312
1.46323
1.49519
1.52887
1.56404
1.60042
1.63761
1.67509
1.13462
1.13615
1.13922
1.14386
1.1501
1.15799
1.16757
1.17888
1.19197
1.20687
1.22361
1.24219
1.26263
1.2849
1.30897
1.33479
1.36229
1.39136
1.42183
1.4535
1.48611
1.51931
1.55268
1.04954
1.05098
1.05388
1.05825
1.06412
1.07152
1.08048
1.09103
1.10321
1.11703
1.1325
1.14964
1.16842
1.18883
1.21083
1.23434
1.25929
1.28556
1.31299
1.34138
1.3705
1.40007
1.42974
0.962909
0.964252
0.966951
0.971022
0.976481
0.983349
0.991649
1.0014
1.01262
1.02532
1.03951
1.05518
1.07231
1.09087
1.11081
1.13206
1.15454
1.17812
1.20267
1.22799
1.25389
1.28012
1.30641
0.874832
0.87607
0.878557
0.882305
0.887324
0.893629
0.901234
0.910151
0.92039
0.931954
0.94484
0.959035
0.974515
0.991243
1.00917
1.02822
1.04831
1.06932
1.09113
1.11357
1.13647
1.15961
1.18279
0.785431
0.786559
0.788822
0.792229
0.796787
0.802505
0.809391
0.817452
0.82669
0.837102
0.848679
0.861404
0.875248
0.890173
0.906125
0.923036
0.940822
0.959381
0.978589
0.998309
1.01839
1.03865
1.05892
0.694832
0.695844
0.697874
0.700928
0.70501
0.710125
0.716276
0.723465
0.73169
0.740943
0.751211
0.762474
0.774702
0.787854
0.801879
0.816713
0.832276
0.848476
0.865206
0.882346
0.899763
0.917319
0.934864
0.603162
0.604055
0.605846
0.608537
0.612133
0.616633
0.622038
0.628346
0.635551
0.643644
0.652608
0.662422
0.673054
0.684465
0.696608
0.709421
0.722834
0.736765
0.751121
0.7658
0.780691
0.795679
0.810643
0.510553
0.511325
0.512871
0.515194
0.518295
0.522172
0.526824
0.532246
0.53843
0.545363
0.55303
0.561407
0.570465
0.580167
0.590468
0.601313
0.612641
0.62438
0.636451
0.648769
0.661242
0.673778
0.686279
0.417138
0.417786
0.419084
0.421034
0.423635
0.426885
0.430779
0.435311
0.440473
0.446251
0.452629
0.459583
0.467088
0.475107
0.483602
0.492525
0.501823
0.511434
0.521294
0.531333
0.541477
0.551652
0.561784
0.323058
0.323578
0.324625
0.326197
0.328294
0.330912
0.334045
0.337687
0.341828
0.346454
0.35155
0.357094
0.363062
0.369423
0.376143
0.383182
0.390493
0.39803
0.405737
0.41356
0.421443
0.429329
0.437164
0.228424
0.228815
0.229609
0.230803
0.232395
0.234379
0.236751
0.239502
0.242623
0.246102
0.249924
0.254069
0.258516
0.263239
0.268208
0.273392
0.278754
0.284255
0.289854
0.295511
0.301183
0.306833
0.312422
0.133405
0.13367
0.134209
0.135022
0.136105
0.137453
0.13906
0.140919
0.14302
0.145352
0.147902
0.150652
0.153586
0.156681
0.159916
0.163264
0.166698
0.170191
0.173713
0.177235
0.180732
0.184182
0.187569
0.0381413
0.0382582
0.0385402
0.0389714
0.0395451
0.0402557
0.0410971
0.0420618
0.0431414
0.0443256
0.045603
0.0469603
0.048383
0.0498551
0.0513596
0.0528788
0.0543943
0.0558882
0.0573431
0.0587431
0.0600751
0.0613308
0.0625118
112.536
54.1228
58.6061
53.4824
297.472
210.833
137.947
56.1723
242.294
173.644
105.596
22.9225
202.931
159.719
22.5017
8.96593
125.323
36.6537
8.89962
6.81418
105.904
15.9735
6.87514
6.4974
60.3762
9.78535
6.19502
6.19338
24.5042
7.02013
5.91452
5.97384
15.1733
6.24567
5.705
5.75176
11.5435
5.79263
5.46051
5.49542
8.97131
5.3062
5.19761
5.22039
7.10057
4.93789
4.93937
4.948
5.71937
4.57104
4.66451
4.65733
4.79949
4.22582
4.38171
4.34847
4.18276
3.93858
4.07235
4.08188
3.66319
3.70947
3.7743
3.8221
3.28497
3.45935
3.50786
3.56896
3.02914
3.20344
3.25511
3.32747
2.70199
2.87377
3.00074
3.0974
2.56476
2.71438
2.83814
2.92746
2.63156
2.6833
2.74391
2.79966
2.52438
2.57819
2.62941
2.67506
2.43488
2.47153
2.50876
2.54561
2.31606
2.34984
2.38266
2.41438
2.19783
2.22627
2.25445
2.28215
2.07572
2.10077
2.1255
2.14987
1.9521
1.97425
1.99615
2.01775
1.82759
1.84725
1.86671
1.88593
1.70252
1.72001
1.73734
1.75446
1.57709
1.59266
1.60809
1.62334
1.45144
1.46527
1.47898
1.49255
1.32563
1.33788
1.35003
1.36205
1.19971
1.21051
1.22121
1.2318
1.07372
1.08316
1.09252
1.10178
0.947667
0.955831
0.963925
0.971939
0.821557
0.828514
0.835411
0.842239
0.695389
0.701195
0.706949
0.712645
0.569159
0.573857
0.578513
0.583119
0.442858
0.446483
0.450072
0.453623
0.316473
0.319048
0.321597
0.324116
0.189987
0.191527
0.19305
0.194554
0.0633507
0.0638738
0.0643855
0.0648875
5.50964
7.83913
7.85265
7.61292
7.44158
7.31638
7.22002
7.14194
7.07664
7.02102
6.97331
6.93241
6.89763
6.86849
6.84464
6.82584
6.81189
6.80267
6.79809
6.18874
7.86073
7.72567
7.46535
7.29091
7.1656
7.06823
6.98955
6.92423
6.86908
6.82212
6.78213
6.74827
6.72
6.69692
6.67875
6.66529
6.65639
6.65198
6.70332
7.30304
7.32539
7.20683
7.08783
6.98457
6.89732
6.82396
6.76198
6.70927
6.66432
6.62604
6.59367
6.56666
6.54463
6.5273
6.51446
6.50599
6.50178
6.85578
7.02387
7.02175
6.95183
6.86777
6.78589
6.71186
6.6469
6.59057
6.54195
6.50012
6.46434
6.434
6.40866
6.38797
6.37169
6.35963
6.35166
6.34771
6.74509
6.76915
6.74643
6.70147
6.64059
6.57693
6.5162
6.46077
6.41135
6.36789
6.33006
6.29742
6.26961
6.24629
6.22721
6.21217
6.20102
6.19365
6.18999
6.52722
6.50755
6.48882
6.45589
6.41111
6.36232
6.31375
6.26785
6.22583
6.18815
6.15486
6.12585
6.10094
6.07995
6.0627
6.04907
6.03895
6.03225
6.02892
6.25997
6.24809
6.23722
6.21354
6.18127
6.1447
6.10692
6.07008
6.03547
6.00378
5.97534
5.95025
5.92851
5.91006
5.89483
5.88274
5.87374
5.86777
5.8648
6.00192
5.99636
5.98956
5.97398
5.95184
5.92559
5.89739
5.86897
5.84152
5.81582
5.79233
5.77131
5.7529
5.73713
5.72402
5.71357
5.70575
5.70056
5.69798
5.75437
5.74864
5.74507
5.73651
5.72308
5.70588
5.68632
5.6657
5.64506
5.62519
5.60662
5.5897
5.57466
5.56164
5.55073
5.54197
5.53538
5.531
5.52881
5.49718
5.49881
5.50127
5.50015
5.49498
5.48614
5.47454
5.46119
5.447
5.43273
5.41895
5.40607
5.39439
5.38412
5.37541
5.36835
5.36302
5.35945
5.35766
5.23006
5.24525
5.25688
5.26445
5.26768
5.26686
5.26275
5.25623
5.24813
5.23919
5.22999
5.22102
5.21262
5.20505
5.19852
5.19315
5.18905
5.18629
5.18491
4.96284
4.99036
5.01273
5.0298
5.0416
5.04861
5.05162
5.05152
5.04913
5.04521
5.04038
5.03513
5.02987
5.02491
5.02048
5.01676
5.01387
5.0119
5.01091
4.69297
4.73582
4.77003
4.79705
4.81745
4.83204
4.8418
4.84771
4.85066
4.85143
4.85067
4.84892
4.84664
4.84415
4.84173
4.83958
4.83784
4.83663
4.83602
4.42821
4.48404
4.53028
4.56732
4.59612
4.61792
4.63395
4.64543
4.6533
4.65838
4.66137
4.66287
4.66336
4.66318
4.66264
4.66197
4.66132
4.66083
4.66057
4.16269
4.23591
4.29503
4.34184
4.37855
4.40708
4.42873
4.44526
4.45759
4.46659
4.47295
4.47741
4.48043
4.48238
4.48358
4.48427
4.48463
4.48481
4.48487
3.90628
3.99576
4.06648
4.12204
4.16573
4.20005
4.22686
4.24779
4.26403
4.27656
4.28577
4.29292
4.29822
4.30208
4.30485
4.30678
4.30807
4.30885
4.30923
3.66297
3.76628
3.8465
3.90919
3.95859
3.99772
4.02878
4.05343
4.07297
4.08838
4.10039
4.10979
4.11705
4.1226
4.12676
4.1298
4.13189
4.13322
4.13389
3.43439
3.54931
3.63652
3.7043
3.75786
3.80062
3.83494
3.86256
3.88479
3.90263
3.91688
3.92822
3.93718
3.94418
3.94954
3.95353
3.95634
3.95814
3.95899
3.22353
3.3473
3.43761
3.50806
3.564
3.60907
3.64565
3.67544
3.69972
3.71947
3.7355
3.74844
3.75881
3.76701
3.77339
3.77819
3.78162
3.78381
3.78484
3.04372
3.16229
3.25055
3.3207
3.37713
3.42319
3.46103
3.4922
3.5179
3.53906
3.55643
3.57061
3.58209
3.59127
3.59847
3.60395
3.60788
3.61043
3.61168
2.88691
2.99166
3.07428
3.1417
3.19702
3.24287
3.28104
3.31286
3.33939
3.36146
3.37976
3.39484
3.40715
3.41708
3.42493
3.43093
3.43527
3.4381
3.43951
2.74575
2.83298
2.90728
2.97014
3.0231
3.06778
3.10549
3.13732
3.16414
3.18667
3.20552
3.22118
3.23406
3.24453
3.25284
3.25923
3.26388
3.26691
3.2684
2.60523
2.68057
2.74701
2.80479
2.85463
2.89744
2.9341
2.9654
2.99205
3.01464
3.0337
3.04964
3.06286
3.07365
3.08227
3.08893
3.09378
3.09695
3.09851
2.46588
2.5319
2.59147
2.64435
2.6908
2.73133
2.76649
2.79685
2.82295
2.84527
2.86423
2.88021
2.89353
2.90447
2.91324
2.92005
2.92502
2.92827
2.92988
2.32737
2.38594
2.43954
2.48783
2.53087
2.56891
2.60229
2.6314
2.65666
2.67842
2.69704
2.71283
2.72606
2.73698
2.74577
2.75261
2.75763
2.76091
2.76254
2.18982
2.24213
2.29047
2.33452
2.37422
2.40968
2.44111
2.46877
2.49294
2.51393
2.532
2.54741
2.56039
2.57114
2.57983
2.58661
2.5916
2.59487
2.59649
2.05325
2.10011
2.14375
2.18387
2.22035
2.25323
2.28261
2.30866
2.3316
2.35163
2.36898
2.38386
2.39644
2.4069
2.41539
2.42203
2.42692
2.43014
2.43173
1.91758
1.95961
1.999
2.03546
2.06886
2.09918
2.12647
2.15083
2.1724
2.19136
2.20786
2.22206
2.23413
2.2442
2.2524
2.25883
2.26357
2.26669
2.26824
1.7827
1.8204
1.8559
1.88895
1.91941
1.94722
1.97241
1.99502
2.01515
2.03293
2.04848
2.06192
2.07337
2.08297
2.09079
2.09695
2.10149
2.10449
2.10598
1.64853
1.68228
1.7142
1.74405
1.7717
1.79708
1.82017
1.84101
1.85965
1.87618
1.8907
1.90329
1.91406
1.9231
1.9305
1.93632
1.94064
1.94348
1.94489
1.51496
1.5451
1.57369
1.60054
1.6255
1.64852
1.66955
1.6886
1.70572
1.72095
1.73438
1.74606
1.75608
1.76452
1.77143
1.77689
1.78093
1.7836
1.78493
1.38192
1.40871
1.4342
1.4582
1.4806
1.50132
1.52032
1.5376
1.55318
1.56709
1.57938
1.59011
1.59934
1.60712
1.61351
1.61856
1.62231
1.62479
1.62602
1.24933
1.273
1.29556
1.31686
1.3368
1.3553
1.37232
1.38784
1.40187
1.41443
1.42557
1.43531
1.44371
1.45081
1.45664
1.46126
1.4647
1.46697
1.46809
1.11711
1.13785
1.15764
1.17638
1.19395
1.21029
1.22537
1.23915
1.25164
1.26285
1.27281
1.28155
1.28909
1.29547
1.30073
1.3049
1.308
1.31005
1.31107
0.985204
1.00316
1.02033
1.0366
1.0519
1.06615
1.07932
1.09139
1.10235
1.11221
1.12099
1.12869
1.13536
1.14101
1.14568
1.14938
1.15213
1.15395
1.15486
0.853544
0.868857
0.883513
0.897422
0.910511
0.922728
0.934039
0.944421
0.953868
0.962379
0.969965
0.97664
0.982422
0.987329
0.991382
0.994599
0.996995
0.998583
0.999372
0.722076
0.734855
0.747093
0.758718
0.769669
0.779904
0.789393
0.798114
0.806061
0.813231
0.819631
0.825268
0.830157
0.834311
0.837745
0.840473
0.842505
0.843853
0.844523
0.590745
0.601079
0.610979
0.620388
0.629259
0.637558
0.645259
0.652345
0.658809
0.664648
0.669865
0.674465
0.678459
0.681855
0.684664
0.686897
0.688562
0.689666
0.690216
0.459498
0.467459
0.475085
0.482335
0.489174
0.495576
0.501521
0.506996
0.511994
0.516513
0.520553
0.52412
0.527218
0.529855
0.532037
0.533773
0.535067
0.535926
0.536353
0.328282
0.333924
0.339328
0.344465
0.349312
0.353851
0.358067
0.361953
0.365503
0.368714
0.371587
0.374125
0.37633
0.378209
0.379764
0.381002
0.381925
0.382537
0.382842
0.197041
0.200406
0.203626
0.206686
0.209574
0.212278
0.214791
0.217107
0.219224
0.22114
0.222855
0.22437
0.225688
0.226811
0.227741
0.228481
0.229033
0.2294
0.229582
0.0657141
0.0668284
0.0678931
0.0689041
0.0698574
0.0707499
0.0715792
0.0723436
0.0730423
0.0736747
0.074241
0.0747415
0.0751769
0.075548
0.0758555
0.0761002
0.0762829
0.0764042
0.0764645
)
;

boundaryField
{
    leftWall
    {
        type            fixedFluxPressure;
        gradient        uniform 0;
        value           nonuniform List<scalar> 
50
(
12562.7
11774.5
10994.5
10222.4
9458.37
8702.09
7953.46
7212.15
6061.87
4529.85
3124.17
1216.89
1117.54
1010.35
911.843
817.955
728.209
642.415
560.099
480.87
404.344
329.986
257.44
187.242
116.129
28.2253
3.37979
1.7239
1.90258
1.7333
1.68053
1.60787
1.53385
1.45764
1.37961
1.29973
1.21805
1.13462
1.04954
0.962909
0.874832
0.785431
0.694832
0.603162
0.510553
0.417138
0.323058
0.228424
0.133405
0.0381413
)
;
    }
    rightWall
    {
        type            fixedFluxPressure;
        gradient        uniform 0;
        value           nonuniform List<scalar> 
50
(
7.34191
7.28209
7.22127
7.15946
7.09666
7.03287
6.9681
6.90236
6.79809
6.65198
6.50178
6.34771
6.18999
6.02892
5.8648
5.69798
5.52881
5.35766
5.18491
5.01091
4.83602
4.66057
4.48487
4.30923
4.13389
3.95899
3.78484
3.61168
3.43951
3.2684
3.09851
2.92988
2.76254
2.59649
2.43173
2.26824
2.10598
1.94489
1.78493
1.62602
1.46809
1.31107
1.15486
0.999372
0.844523
0.690216
0.536353
0.382842
0.229582
0.0764645
)
;
    }
    lowerWall
    {
        type            fixedFluxPressure;
        gradient        nonuniform List<scalar> 
62
(
132719
132719
132719
132719
132719
132719
132719
132719
132719
132719
132719
132719
111153
33794.6
7076.74
5011.57
4905.61
4905
4905
4905
4905
4905
4905
0
0
0
0
0
0
0
0
4905
4905
4905
4891.55
0
0
0
0
0
0
0
0
9.81
9.81
9.81
9.81
9.81
9.81
9.81
9.81
9.81
9.81
9.81
9.81
9.81
9.81
9.81
9.81
9.81
9.81
9.81
)
;
        value           nonuniform List<scalar> 
62
(
12960.8
12915.5
12822.7
12678.1
12474.6
12201.8
11845.1
11379
10787.8
9987.83
8966.74
7580.61
5520.37
2559.74
1386.17
1250.82
1208.87
1150.93
1107.13
1074.57
1051.15
1036.3
1029.15
1014.43
980.768
942.467
899.011
848.197
789.199
716.31
625.203
143.834
85.4214
89.9048
84.6952
7.45031
7.37608
7.28177
7.16734
7.00104
6.75935
6.50579
6.00259
7.47974
7.68198
7.77358
7.82282
7.82404
7.79392
7.74825
7.69695
7.64538
7.59615
7.55101
7.51065
7.4754
7.44534
7.42046
7.4007
7.38597
7.3762
7.37134
)
;
    }
    atmosphere
    {
        type            totalPressure;
        U               U.air;
        phi             phi.air;
        rho             rho;
        psi             none;
        gamma           1;
        p0              uniform 0;
        value           nonuniform List<scalar> 
46
(
-0.00964792
-0.00964972
-0.00948523
-0.00923928
-0.00891558
-0.00851866
-0.00805414
-0.00752882
-0.0069508
-0.0063294
-0.00567524
-0.00500009
-0.00431682
-0.00363911
-0.00298125
-0.00235774
-0.00178291
-0.00127043
-0.000832801
-0.000480858
-0.000223285
-6.63225e-05
0
0
0
0
0
0
0
0
0
0
0
0
0
0
0
0
0
0
0
0
0
0
0
0
)
;
    }
    defaultFaces
    {
        type            empty;
    }
}


// ************************************************************************* //
