/*--------------------------------*- C++ -*----------------------------------*\
| =========                 |                                                 |
| \\      /  F ield         | OpenFOAM: The Open Source CFD Toolbox           |
|  \\    /   O peration     | Version:  2.4.0                                 |
|   \\  /    A nd           | Web:      www.OpenFOAM.org                      |
|    \\/     M anipulation  |                                                 |
\*---------------------------------------------------------------------------*/
FoamFile
{
    version     2.0;
    format      ascii;
    class       surfaceScalarField;
    location    "0.05";
    object      phi;
}
// * * * * * * * * * * * * * * * * * * * * * * * * * * * * * * * * * * * * * //

dimensions      [0 3 -1 0 0 0 0];

internalField   nonuniform List<scalar> 
4432
(
1.60818e-06
-1.60819e-06
3.27928e-06
-1.67109e-06
5.07961e-06
-1.80033e-06
7.08305e-06
-2.00345e-06
9.37627e-06
-2.29321e-06
1.20669e-05
-2.69068e-06
1.52941e-05
-3.22716e-06
1.92555e-05
-3.96142e-06
2.42049e-05
-4.9494e-06
3.04982e-05
-6.29323e-06
3.96122e-05
-9.11402e-06
5.37654e-05
-1.41532e-05
6.41856e-05
-1.04202e-05
7.36132e-05
-9.42754e-06
6.9669e-05
3.94422e-06
5.42967e-05
1.53723e-05
4.21161e-05
1.21805e-05
3.50933e-05
7.02289e-06
2.98766e-05
5.21665e-06
2.45913e-05
5.28536e-06
1.81558e-05
6.43548e-06
9.9319e-06
8.22394e-06
9.93191e-06
1.59438e-06
-3.20256e-06
3.2509e-06
-3.32762e-06
5.03499e-06
-3.58442e-06
7.01933e-06
-3.98779e-06
9.2888e-06
-4.56268e-06
1.19484e-05
-5.35027e-06
1.51328e-05
-6.41159e-06
1.90379e-05
-7.86654e-06
2.39049e-05
-9.81633e-06
3.01661e-05
-1.25545e-05
3.86446e-05
-1.75925e-05
5.07879e-05
-2.62965e-05
6.33794e-05
-2.30118e-05
7.1295e-05
-1.73429e-05
5.96638e-05
1.55753e-05
4.80059e-05
2.70301e-05
4.02146e-05
1.99719e-05
3.46654e-05
1.25721e-05
2.99236e-05
9.95847e-06
2.48904e-05
1.03186e-05
1.8587e-05
1.27389e-05
1.03028e-05
1.65081e-05
2.02348e-05
1.5664e-06
-4.76897e-06
3.19339e-06
-4.95461e-06
4.94463e-06
-5.33566e-06
6.8905e-06
-5.93366e-06
9.11233e-06
-6.78451e-06
1.17097e-05
-7.94768e-06
1.48097e-05
-9.51159e-06
1.85912e-05
-1.1648e-05
2.3275e-05
-1.45001e-05
2.92083e-05
-1.84877e-05
3.71782e-05
-2.55624e-05
4.71996e-05
-3.63178e-05
5.97605e-05
-3.55727e-05
6.09638e-05
-1.85462e-05
5.07027e-05
2.58363e-05
4.3042e-05
3.46908e-05
3.81074e-05
2.49065e-05
3.39906e-05
1.66889e-05
2.99776e-05
1.39714e-05
2.54342e-05
1.48621e-05
1.9429e-05
1.87441e-05
1.10766e-05
2.48606e-05
3.13114e-05
1.52488e-06
-6.29385e-06
3.10807e-06
-6.5378e-06
4.81072e-06
-7.03832e-06
6.69989e-06
-7.82283e-06
8.8518e-06
-8.93641e-06
1.13584e-05
-1.04543e-05
1.43354e-05
-1.24886e-05
1.7936e-05
-1.52486e-05
2.23532e-05
-1.89173e-05
2.7846e-05
-2.39805e-05
3.4978e-05
-3.26944e-05
4.33251e-05
-4.46649e-05
5.41081e-05
-4.63556e-05
5.04889e-05
-1.49269e-05
4.26492e-05
3.36759e-05
3.88844e-05
3.84557e-05
3.61895e-05
2.76015e-05
3.33428e-05
1.95357e-05
3.01587e-05
1.71556e-05
2.63099e-05
1.87109e-05
2.07944e-05
2.42596e-05
1.23522e-05
3.33029e-05
4.36636e-05
1.47032e-06
-7.76417e-06
2.99601e-06
-8.06349e-06
4.63508e-06
-8.67739e-06
6.45049e-06
-9.63824e-06
8.51191e-06
-1.09978e-05
1.09019e-05
-1.28443e-05
1.3722e-05
-1.53087e-05
1.70967e-05
-1.86233e-05
2.11846e-05
-2.30052e-05
2.61782e-05
-2.89742e-05
3.23362e-05
-3.88524e-05
3.92455e-05
-5.15742e-05
4.73183e-05
-5.44283e-05
4.1386e-05
-8.99466e-06
3.62269e-05
3.88349e-05
3.53493e-05
3.93332e-05
3.43953e-05
2.85555e-05
3.27555e-05
2.11755e-05
3.0511e-05
1.94001e-05
2.75626e-05
2.16592e-05
2.28364e-05
2.89858e-05
1.45393e-05
4.16e-05
5.82029e-05
1.40339e-06
-9.16756e-06
2.8586e-06
-9.5187e-06
4.42004e-06
-1.02388e-05
6.14611e-06
-1.13643e-05
8.09864e-06
-1.29504e-05
1.03496e-05
-1.50953e-05
1.29842e-05
-1.79434e-05
1.61008e-05
-2.17398e-05
1.98241e-05
-2.67285e-05
2.43001e-05
-3.34503e-05
2.94473e-05
-4.39995e-05
3.5099e-05
-5.72259e-05
4.03216e-05
-5.96509e-05
3.37412e-05
-2.41427e-06
3.15968e-05
4.09792e-05
3.24123e-05
3.85178e-05
3.27712e-05
2.81966e-05
3.21916e-05
2.17552e-05
3.10342e-05
2.05575e-05
2.92707e-05
2.34228e-05
2.56557e-05
3.26008e-05
1.75702e-05
4.96855e-05
7.57731e-05
1.32483e-06
-1.04924e-05
2.69734e-06
-1.08912e-05
4.16805e-06
-1.17095e-05
5.79098e-06
-1.29872e-05
7.61865e-06
-1.4778e-05
9.71158e-06
-1.71882e-05
1.21375e-05
-2.03692e-05
1.49726e-05
-2.45749e-05
1.83069e-05
-3.00628e-05
2.22671e-05
-3.74105e-05
2.64957e-05
-4.82282e-05
3.11534e-05
-6.18835e-05
3.38609e-05
-6.23583e-05
2.74281e-05
4.01849e-06
2.78679e-05
4.05395e-05
2.99946e-05
3.63911e-05
3.13883e-05
2.68029e-05
3.187e-05
2.12736e-05
3.18219e-05
2.06056e-05
3.13096e-05
2.39351e-05
2.91333e-05
3.47771e-05
2.26224e-05
5.61964e-05
9.83955e-05
1.23469e-06
-1.17271e-05
2.51204e-06
-1.21686e-05
3.87832e-06
-1.30758e-05
5.38433e-06
-1.44932e-05
7.07338e-06
-1.64671e-05
8.99267e-06
-1.91075e-05
1.11896e-05
-2.25662e-05
1.37207e-05
-2.7106e-05
1.66463e-05
-3.29884e-05
2.00348e-05
-4.0799e-05
2.3671e-05
-5.18644e-05
2.74599e-05
-6.56724e-05
2.80107e-05
-6.2909e-05
2.25678e-05
9.46142e-06
2.47412e-05
3.83661e-05
2.79557e-05
3.31767e-05
3.01933e-05
2.45652e-05
3.16133e-05
1.98535e-05
3.27259e-05
1.9493e-05
3.36495e-05
2.30115e-05
3.35368e-05
3.48897e-05
3.00889e-05
5.96443e-05
0.000128484
-1.53057e-07
1.5288e-07
6.62992e-06
-6.78321e-06
1.32373e-05
-6.60763e-06
1.76863e-05
-4.44919e-06
1.97701e-05
-2.08396e-06
2.01431e-05
-3.73175e-07
1.94978e-05
6.45208e-07
1.82087e-05
1.28898e-06
1.6618e-05
1.59058e-06
1.4898e-05
1.71995e-06
1.31354e-05
1.7625e-06
1.13789e-05
1.7565e-06
9.65199e-06
1.72684e-06
7.96384e-06
1.68809e-06
6.31512e-06
1.64866e-06
4.70162e-06
1.61345e-06
3.11632e-06
1.58524e-06
1.55101e-06
1.56526e-06
1.55097e-06
-6.77431e-07
8.30008e-07
6.7972e-06
-1.42582e-05
1.3947e-05
-1.37578e-05
1.85365e-05
-9.03897e-06
2.05629e-05
-4.11065e-06
2.08121e-05
-6.22655e-07
2.00215e-05
1.43565e-06
1.86595e-05
2.65081e-06
1.70101e-05
3.2399e-06
1.52347e-05
3.49519e-06
1.34239e-05
3.57325e-06
1.1624e-05
3.55631e-06
9.85719e-06
3.49355e-06
8.13165e-06
3.41355e-06
6.44739e-06
3.33285e-06
4.79969e-06
3.26108e-06
3.18107e-06
3.20379e-06
1.58214e-06
3.16413e-06
3.13305e-06
-2.15135e-06
2.98113e-06
6.54179e-06
-2.29515e-05
1.46867e-05
-2.19029e-05
1.93985e-05
-1.3751e-05
2.12021e-05
-5.91436e-06
2.12132e-05
-6.33956e-07
2.02335e-05
2.41521e-06
1.87716e-05
4.11267e-06
1.70634e-05
4.94799e-06
1.52548e-05
5.30382e-06
1.34259e-05
5.40206e-06
1.16169e-05
5.36522e-06
9.84628e-06
5.26415e-06
8.11993e-06
5.13984e-06
6.43665e-06
5.01608e-06
4.79097e-06
4.90671e-06
3.17496e-06
4.81975e-06
1.57916e-06
4.75989e-06
4.71218e-06
-5.13573e-06
8.11645e-06
5.95498e-06
-3.40427e-05
1.59311e-05
-3.18795e-05
2.07731e-05
-1.85934e-05
2.21538e-05
-7.29546e-06
2.17757e-05
-2.56131e-07
2.05443e-05
3.64644e-06
1.89249e-05
5.73189e-06
1.71291e-05
6.74359e-06
1.52732e-05
7.15961e-06
1.34197e-05
7.25555e-06
1.15989e-05
7.18588e-06
9.82398e-06
7.03902e-06
8.09767e-06
6.86607e-06
6.41695e-06
6.69672e-06
4.7753e-06
6.5483e-06
3.16415e-06
6.43082e-06
1.57375e-06
6.35023e-06
6.28587e-06
-9.26193e-06
1.73783e-05
5.43989e-06
-4.87447e-05
1.81688e-05
-4.46085e-05
2.28126e-05
-2.32373e-05
2.3431e-05
-7.91396e-06
2.24976e-05
6.77111e-07
2.09268e-05
5.2172e-06
1.91105e-05
7.54817e-06
1.72058e-05
8.64829e-06
1.52913e-05
9.07403e-06
1.34074e-05
9.1394e-06
1.15725e-05
9.02073e-06
9.79278e-06
8.81875e-06
8.06707e-06
8.59174e-06
6.39011e-06
8.37365e-06
4.75405e-06
8.18433e-06
3.14954e-06
8.0353e-06
1.56638e-06
7.93336e-06
7.85224e-06
-1.2384e-05
2.9762e-05
7.30543e-06
-6.84345e-05
2.29502e-05
-6.02537e-05
2.59874e-05
-2.62748e-05
2.50615e-05
-6.98838e-06
2.33378e-05
2.40056e-06
2.13557e-05
7.19915e-06
1.93129e-05
9.59085e-06
1.72846e-05
1.06765e-05
1.53041e-05
1.10544e-05
1.33865e-05
1.10569e-05
1.15363e-05
1.08708e-05
9.75188e-06
1.06031e-05
8.02773e-06
1.03158e-05
6.35593e-06
1.00454e-05
4.72713e-06
9.81307e-06
3.13109e-06
9.63128e-06
1.55705e-06
9.50733e-06
9.40922e-06
-7.71389e-07
3.05328e-05
1.71517e-05
-8.63579e-05
3.01068e-05
-7.32091e-05
2.95663e-05
-2.57346e-05
2.68367e-05
-4.25899e-06
2.42301e-05
5.0069e-06
2.17979e-05
9.63121e-06
1.95137e-05
1.1875e-05
1.73552e-05
1.28348e-05
1.53057e-05
1.31038e-05
1.33535e-05
1.30091e-05
1.14882e-05
1.2736e-05
9.70011e-06
1.23911e-05
7.97891e-06
1.20369e-05
6.31397e-06
1.17103e-05
4.69428e-06
1.14327e-05
3.10864e-06
1.12168e-05
1.5457e-06
1.10702e-05
1.09549e-05
4.48344e-05
-1.43016e-05
5.25532e-05
-9.40769e-05
3.9865e-05
-6.05208e-05
3.29046e-05
-1.87745e-05
2.84967e-05
1.48839e-07
2.5089e-05
8.41448e-06
2.22141e-05
1.25061e-05
1.96925e-05
1.43965e-05
1.74065e-05
1.51207e-05
1.52901e-05
1.52201e-05
1.33049e-05
1.49943e-05
1.14264e-05
1.46145e-05
9.6364e-06
1.4181e-05
7.92006e-06
1.37532e-05
6.26392e-06
1.33664e-05
4.65535e-06
1.30412e-05
3.08214e-06
1.279e-05
1.53235e-06
1.262e-05
1.24872e-05
2.27046e-06
-1.39975e-05
4.60882e-06
-1.45069e-05
7.09502e-06
-1.5562e-05
9.85643e-06
-1.72546e-05
1.30207e-05
-1.96313e-05
1.6552e-05
-2.26388e-05
2.04355e-05
-2.64497e-05
2.48115e-05
-3.1482e-05
2.96134e-05
-3.77903e-05
3.51135e-05
-4.62991e-05
4.04375e-05
-5.71885e-05
4.68734e-05
-7.21083e-05
4.13274e-05
-5.73629e-05
3.5082e-05
1.57068e-05
4.41372e-05
2.93109e-05
5.38358e-05
2.34781e-05
6.08753e-05
1.75258e-05
6.64877e-05
1.42411e-05
7.22545e-05
1.37262e-05
7.94885e-05
1.57776e-05
9.13398e-05
2.30384e-05
0.000122356
2.86285e-05
5.6895e-05
0.000193945
1.77505e-06
-1.57726e-05
3.59901e-06
-1.63309e-05
5.52054e-06
-1.74835e-05
7.60967e-06
-1.93438e-05
1.00166e-05
-2.20383e-05
1.27141e-05
-2.53363e-05
1.53877e-05
-2.91234e-05
1.84846e-05
-3.45788e-05
2.11871e-05
-4.04928e-05
2.4211e-05
-4.9323e-05
2.66738e-05
-5.96512e-05
3.175e-05
-7.71846e-05
2.10109e-05
-4.66238e-05
2.23195e-05
1.43982e-05
3.64074e-05
1.5223e-05
4.84406e-05
1.14449e-05
5.76952e-05
8.27111e-06
6.59791e-05
5.95722e-06
7.48284e-05
4.8769e-06
8.57594e-05
4.84656e-06
0.000101888
6.90966e-06
0.000124934
5.58267e-06
1.52703e-05
0.000166559
1.41852e-06
-1.71911e-05
2.81349e-06
-1.77258e-05
4.20776e-06
-1.88778e-05
5.71041e-06
-2.08464e-05
7.19061e-06
-2.35185e-05
8.45696e-06
-2.66026e-05
1.0208e-05
-3.08744e-05
1.14469e-05
-3.58178e-05
1.29224e-05
-4.19683e-05
1.29207e-05
-4.93213e-05
1.23716e-05
-5.91021e-05
9.30801e-06
-7.41211e-05
4.28636e-06
-4.16021e-05
1.81878e-05
4.96776e-07
3.33042e-05
1.06578e-07
4.53377e-05
-5.88634e-07
5.54504e-05
-1.84157e-06
6.49334e-05
-3.52583e-06
7.51028e-05
-5.29252e-06
8.71152e-05
-7.16579e-06
0.000102522
-8.49751e-06
0.00012196
-1.38555e-05
-1.90263e-05
0.000156257
6.28671e-07
-1.78198e-05
1.1703e-06
-1.82675e-05
1.08668e-06
-1.87942e-05
1.39071e-06
-2.11505e-05
3.6318e-06
-2.57596e-05
3.46692e-06
-2.64378e-05
6.59478e-06
-3.40022e-05
6.6788e-06
-3.59018e-05
1.06958e-05
-4.59852e-05
1.16598e-05
-5.02853e-05
1.3543e-05
-6.09853e-05
8.26721e-06
-6.88452e-05
5.43234e-06
-3.87672e-05
2.2168e-05
-1.62389e-05
3.44295e-05
-1.21549e-05
4.44564e-05
-1.06156e-05
5.38441e-05
-1.12292e-05
6.32638e-05
-1.29455e-05
7.3411e-05
-1.54397e-05
8.50041e-05
-1.87589e-05
9.89455e-05
-2.24389e-05
0.000116388
-3.12985e-05
-4.06402e-05
0.000138002
5.111e-06
-2.29308e-05
1.03248e-05
-2.34813e-05
1.62208e-05
-2.46901e-05
2.22938e-05
-2.72235e-05
2.51425e-05
-2.86082e-05
3.11406e-05
-3.24359e-05
3.20779e-05
-3.49395e-05
3.65645e-05
-4.03884e-05
3.63682e-05
-4.57889e-05
3.8143e-05
-5.20602e-05
3.46745e-05
-5.75168e-05
2.7591e-05
-6.17617e-05
2.48532e-05
-3.60294e-05
2.9661e-05
-2.10467e-05
3.64103e-05
-1.89043e-05
4.41244e-05
-1.83297e-05
5.22628e-05
-1.93677e-05
6.087e-05
-2.15527e-05
7.02069e-05
-2.47766e-05
8.06091e-05
-2.91611e-05
9.25558e-05
-3.43856e-05
0.000106296
-4.5039e-05
-5.4868e-05
0.000120524
4.56477e-06
-2.74956e-05
9.12766e-06
-2.80442e-05
1.36061e-05
-2.91686e-05
1.73914e-05
-3.10088e-05
2.17874e-05
-3.30042e-05
2.52044e-05
-3.58529e-05
2.91656e-05
-3.89007e-05
3.17167e-05
-4.29395e-05
3.31118e-05
-4.7184e-05
3.28421e-05
-5.17905e-05
3.09247e-05
-5.55994e-05
2.77711e-05
-5.86081e-05
2.78415e-05
-3.60998e-05
3.15513e-05
-2.47564e-05
3.66918e-05
-2.40448e-05
4.30665e-05
-2.47044e-05
5.00984e-05
-2.63996e-05
5.76885e-05
-2.91427e-05
6.58846e-05
-3.29728e-05
7.47684e-05
-3.80449e-05
8.45256e-05
-4.41428e-05
9.45795e-05
-5.5093e-05
-6.34304e-05
0.000103142
3.97317e-06
-3.14687e-05
7.91504e-06
-3.1986e-05
1.1758e-05
-3.30115e-05
1.53005e-05
-3.45513e-05
1.87711e-05
-3.64748e-05
2.18432e-05
-3.8925e-05
2.46627e-05
-4.17203e-05
2.67663e-05
-4.50431e-05
2.81427e-05
-4.85603e-05
2.8499e-05
-5.21469e-05
2.8184e-05
-5.52843e-05
2.74421e-05
-5.78662e-05
2.85992e-05
-3.72569e-05
3.18404e-05
-2.79976e-05
3.60612e-05
-2.82656e-05
4.13585e-05
-3.00017e-05
4.73472e-05
-3.23883e-05
5.3864e-05
-3.56595e-05
6.08348e-05
-3.99436e-05
6.81828e-05
-4.53929e-05
7.59176e-05
-5.18776e-05
8.33225e-05
-6.24978e-05
-6.96918e-05
8.95838e-05
3.47268e-06
-3.49414e-05
6.89922e-06
-3.54126e-05
1.02155e-05
-3.63278e-05
1.33467e-05
-3.76825e-05
1.63109e-05
-3.9439e-05
1.89826e-05
-4.15967e-05
2.13674e-05
-4.41051e-05
2.32496e-05
-4.69253e-05
2.46097e-05
-4.99204e-05
2.53807e-05
-5.29179e-05
2.57711e-05
-5.56747e-05
2.60898e-05
-5.81849e-05
2.76413e-05
-3.88084e-05
3.06586e-05
-3.10149e-05
3.44072e-05
-3.20142e-05
3.89458e-05
-3.45403e-05
4.40441e-05
-3.74866e-05
4.95596e-05
-4.1175e-05
5.53722e-05
-4.57562e-05
6.13318e-05
-5.13525e-05
6.73388e-05
-5.78846e-05
7.26335e-05
-6.77926e-05
-7.37516e-05
7.66934e-05
3.00851e-06
-3.79499e-05
5.97293e-06
-3.8377e-05
8.84365e-06
-3.91986e-05
1.15736e-05
-4.04124e-05
1.413e-05
-4.19954e-05
1.64569e-05
-4.39236e-05
1.85074e-05
-4.61555e-05
2.02151e-05
-4.8633e-05
2.15567e-05
-5.1262e-05
2.25628e-05
-5.3924e-05
2.33811e-05
-5.6493e-05
2.42634e-05
-5.90672e-05
2.57583e-05
-4.03032e-05
2.86281e-05
-3.38848e-05
3.2047e-05
-3.54331e-05
3.59819e-05
-3.84752e-05
4.03175e-05
-4.18222e-05
4.4945e-05
-4.58025e-05
4.97385e-05
-5.05497e-05
5.45309e-05
-5.61449e-05
5.91664e-05
-6.25201e-05
6.2884e-05
-7.15101e-05
-7.61744e-05
6.53068e-05
2.59118e-06
-4.05411e-05
5.14386e-06
-4.09297e-05
7.61764e-06
-4.16723e-05
9.97506e-06
-4.27698e-05
1.21819e-05
-4.42022e-05
1.42011e-05
-4.59428e-05
1.59996e-05
-4.79541e-05
1.75511e-05
-5.01844e-05
1.88564e-05
-5.25673e-05
1.99579e-05
-5.50256e-05
2.0961e-05
-5.74961e-05
2.19842e-05
-6.00904e-05
2.34508e-05
-4.17698e-05
2.61126e-05
-3.65466e-05
2.9205e-05
-3.85254e-05
3.26199e-05
-4.18902e-05
3.62968e-05
-4.5499e-05
4.0157e-05
-4.96627e-05
4.40924e-05
-5.44851e-05
4.79588e-05
-6.00113e-05
5.16188e-05
-6.61801e-05
5.44429e-05
-7.43343e-05
-7.83657e-05
5.66343e-05
2.21307e-06
-4.27541e-05
4.39364e-06
-4.31102e-05
6.50871e-06
-4.37874e-05
8.52783e-06
-4.4789e-05
1.04228e-05
-4.60972e-05
1.21679e-05
-4.76879e-05
1.37428e-05
-4.95289e-05
1.51386e-05
-5.15802e-05
1.63662e-05
-5.37948e-05
1.74633e-05
-5.61227e-05
1.84951e-05
-5.8528e-05
1.94805e-05
-6.10758e-05
2.08783e-05
-4.31676e-05
2.33018e-05
-3.89702e-05
2.60545e-05
-4.1278e-05
2.89946e-05
-4.48303e-05
3.20918e-05
-4.85962e-05
3.52903e-05
-5.28612e-05
3.85089e-05
-5.77037e-05
4.16487e-05
-6.31511e-05
4.46406e-05
-6.91719e-05
4.70572e-05
-7.67509e-05
-8.12108e-05
4.99022e-05
1.86855e-06
-4.46227e-05
3.70968e-06
-4.49514e-05
5.49675e-06
-4.55745e-05
7.20573e-06
-4.64979e-05
8.81499e-06
-4.77065e-05
1.03063e-05
-4.91791e-05
1.16677e-05
-5.08903e-05
1.28978e-05
-5.28103e-05
1.40102e-05
-5.49072e-05
1.50378e-05
-5.71503e-05
1.60363e-05
-5.95264e-05
1.70813e-05
-6.21208e-05
1.81516e-05
-4.42378e-05
2.0305e-05
-4.11236e-05
2.2711e-05
-4.3684e-05
2.5208e-05
-4.73273e-05
2.77846e-05
-5.11729e-05
3.04016e-05
-5.54782e-05
3.30028e-05
-6.03049e-05
3.55293e-05
-6.56776e-05
3.79605e-05
-7.16031e-05
4.00437e-05
-7.88341e-05
-8.43062e-05
4.31391e-05
1.55299e-06
-4.61757e-05
3.08183e-06
-4.64802e-05
4.56451e-06
-4.70571e-05
5.98438e-06
-4.79178e-05
7.32624e-06
-4.90483e-05
8.57603e-06
-5.04289e-05
9.72581e-06
-5.20401e-05
1.07769e-05
-5.38614e-05
1.17414e-05
-5.58716e-05
1.26426e-05
-5.80515e-05
1.35138e-05
-6.03977e-05
1.43445e-05
-6.29515e-05
1.53079e-05
-4.52012e-05
1.71896e-05
-4.30052e-05
1.92561e-05
-4.57506e-05
2.13369e-05
-4.9408e-05
2.34363e-05
-5.32723e-05
2.55274e-05
-5.75693e-05
2.75721e-05
-6.23497e-05
2.95336e-05
-6.76391e-05
3.14044e-05
-7.34739e-05
3.296e-05
-8.03897e-05
-8.67993e-05
3.54531e-05
1.25277e-06
-4.74284e-05
2.49148e-06
-4.77189e-05
3.69131e-06
-4.8257e-05
4.84075e-06
-4.90672e-05
5.93028e-06
-5.01379e-05
6.94701e-06
-5.14457e-05
7.88414e-06
-5.29772e-05
8.74414e-06
-5.47214e-05
9.53667e-06
-5.66642e-05
1.0279e-05
-5.87938e-05
1.09952e-05
-6.11139e-05
1.16751e-05
-6.36314e-05
1.24214e-05
-4.59476e-05
1.4025e-05
-4.46087e-05
1.57577e-05
-4.74833e-05
1.74423e-05
-5.10926e-05
1.90955e-05
-5.49255e-05
2.06982e-05
-5.9172e-05
2.22232e-05
-6.38747e-05
2.36454e-05
-6.90613e-05
2.49692e-05
-7.47977e-05
2.59066e-05
-8.13271e-05
-8.83928e-05
2.75002e-05
9.39068e-07
-4.83675e-05
1.88149e-06
-4.86613e-05
2.82849e-06
-4.9204e-05
3.74589e-06
-4.99846e-05
4.6025e-06
-5.09945e-05
5.39355e-06
-5.22367e-05
6.11708e-06
-5.37007e-05
6.77768e-06
-5.5382e-05
7.38083e-06
-5.72673e-05
7.93793e-06
-5.93509e-05
8.47584e-06
-6.16518e-05
8.99746e-06
-6.4153e-05
9.52687e-06
-4.6477e-05
1.0855e-05
-4.59369e-05
1.22665e-05
-4.88947e-05
1.35732e-05
-5.23993e-05
1.48036e-05
-5.6156e-05
1.59467e-05
-6.03151e-05
1.69769e-05
-6.49049e-05
1.78695e-05
-6.99539e-05
1.86478e-05
-7.55761e-05
1.90691e-05
-8.17483e-05
-8.93912e-05
2.00675e-05
7.0336e-07
-4.90708e-05
1.38117e-06
-4.93391e-05
2.03195e-06
-4.98547e-05
2.65827e-06
-5.06109e-05
3.25925e-06
-5.15954e-05
3.83107e-06
-5.28085e-05
4.37208e-06
-5.42417e-05
4.86134e-06
-5.58713e-05
5.27219e-06
-5.76782e-05
5.61212e-06
-5.96908e-05
5.91337e-06
-6.1953e-05
6.20107e-06
-6.44407e-05
6.62361e-06
-4.68995e-05
7.72603e-06
-4.70393e-05
8.83883e-06
-5.00075e-05
9.77935e-06
-5.33398e-05
1.06035e-05
-5.69801e-05
1.13157e-05
-6.10273e-05
1.18913e-05
-6.54805e-05
1.22054e-05
-7.02679e-05
1.23851e-05
-7.57558e-05
1.23634e-05
-8.17266e-05
-8.98759e-05
1.2848e-05
4.8255e-07
-4.95534e-05
9.62119e-07
-4.98187e-05
1.41721e-06
-5.03098e-05
1.84282e-06
-5.10365e-05
2.23441e-06
-5.1987e-05
2.57999e-06
-5.31541e-05
2.86096e-06
-5.45227e-05
3.06239e-06
-5.60727e-05
3.21522e-06
-5.7831e-05
3.29204e-06
-5.97677e-05
3.22079e-06
-6.18818e-05
2.94794e-06
-6.41678e-05
3.59338e-06
-4.75449e-05
4.72674e-06
-4.81727e-05
5.54212e-06
-5.08229e-05
6.08235e-06
-5.38801e-05
6.46881e-06
-5.73665e-05
6.72829e-06
-6.12868e-05
6.88139e-06
-6.56336e-05
6.56305e-06
-6.99496e-05
5.93954e-06
-7.51323e-05
5.40088e-06
-8.1188e-05
-8.88988e-05
4.42378e-06
1.73426e-07
-4.97268e-05
3.46633e-07
-4.99919e-05
5.0958e-07
-5.04728e-05
6.55395e-07
-5.11823e-05
7.8026e-07
-5.21119e-05
8.81311e-07
-5.32551e-05
9.57144e-07
-5.45985e-05
1.00223e-06
-5.61178e-05
9.90594e-07
-5.78193e-05
8.58547e-07
-5.96356e-05
4.10289e-07
-6.14335e-05
-5.00822e-07
-6.32567e-05
7.20202e-07
-4.87659e-05
1.8042e-06
-4.92566e-05
2.0777e-06
-5.10964e-05
2.07796e-06
-5.38803e-05
1.93734e-06
-5.72259e-05
1.70495e-06
-6.10544e-05
1.39802e-06
-6.53267e-05
1.25647e-06
-6.9808e-05
2.97597e-07
-7.41734e-05
-2.65009e-08
-8.08639e-05
-8.72939e-05
-1.63137e-06
1.30785e-08
-4.97406e-05
7.70301e-08
-5.00565e-05
1.27205e-07
-5.05236e-05
1.7432e-07
-5.12302e-05
2.21642e-07
-5.21599e-05
2.69375e-07
-5.33036e-05
3.15702e-07
-5.46456e-05
3.60708e-07
-5.61635e-05
3.60999e-07
-5.78203e-05
1.62152e-07
-5.94375e-05
-1.60672e-07
-6.11114e-05
-6.94649e-07
-6.27234e-05
2.65272e-08
-4.94876e-05
7.16813e-07
-4.99474e-05
2.82739e-07
-5.06628e-05
-5.52375e-07
-5.30457e-05
-9.54839e-07
-5.68239e-05
-1.38874e-06
-6.06209e-05
-2.20917e-06
-6.45067e-05
-2.08629e-06
-6.99313e-05
-2.52186e-06
-7.37381e-05
-1.50984e-05
-6.82873e-05
-2.15987e-05
-8.07936e-05
-1.2723e-06
-4.84675e-05
-2.85444e-06
-4.84736e-05
-4.4727e-06
-4.89046e-05
-6.23189e-06
-4.94702e-05
-8.20562e-06
-5.01854e-05
-1.04622e-05
-5.10462e-05
-1.30637e-05
-5.20433e-05
-1.60501e-05
-5.31763e-05
-1.94065e-05
-5.44631e-05
-2.29494e-05
-5.58938e-05
-2.75997e-05
-5.64603e-05
-3.54339e-05
-5.48884e-05
-4.03849e-05
-4.45361e-05
-4.30855e-05
-4.72463e-05
-4.47489e-05
-4.89989e-05
-4.77249e-05
-5.00693e-05
-5.22189e-05
-5.23294e-05
-5.84664e-05
-5.43731e-05
-6.67424e-05
-5.62303e-05
-7.8495e-05
-5.81783e-05
-9.32985e-05
-5.89344e-05
-0.000122491
-3.90947e-05
9.90577e-06
-0.000153996
-1.31195e-06
-4.71556e-05
-2.34433e-06
-4.74412e-05
-3.55412e-06
-4.76948e-05
-4.95318e-06
-4.80711e-05
-6.58194e-06
-4.85566e-05
-8.503e-06
-4.91252e-05
-1.0806e-05
-4.97404e-05
-1.36293e-05
-5.03529e-05
-1.72117e-05
-5.08808e-05
-2.19364e-05
-5.11691e-05
-2.73838e-05
-5.1013e-05
-3.24107e-05
-4.98615e-05
-3.01475e-05
-4.67993e-05
-3.15622e-05
-4.58316e-05
-3.5122e-05
-4.54391e-05
-3.97563e-05
-4.54351e-05
-4.66051e-05
-4.54806e-05
-5.60695e-05
-4.49087e-05
-6.91513e-05
-4.31485e-05
-8.63242e-05
-4.10055e-05
-0.000105569
-3.96898e-05
-0.000118198
-2.64659e-05
3.4614e-08
-0.000108326
-1.47677e-06
-4.56788e-05
-2.96256e-06
-4.59555e-05
-4.53501e-06
-4.61224e-05
-6.2351e-06
-4.63711e-05
-8.11134e-06
-4.66804e-05
-1.02123e-05
-4.70242e-05
-1.25887e-05
-4.73639e-05
-1.52926e-05
-4.7649e-05
-1.83727e-05
-4.78007e-05
-2.18371e-05
-4.77047e-05
-2.56624e-05
-4.71877e-05
-2.95249e-05
-4.5999e-05
-3.2197e-05
-4.41272e-05
-3.49225e-05
-4.31062e-05
-3.81459e-05
-4.22157e-05
-4.22037e-05
-4.13773e-05
-4.73481e-05
-4.03362e-05
-5.34662e-05
-3.87907e-05
-6.02046e-05
-3.64101e-05
-6.81027e-05
-3.31075e-05
-8.06063e-05
-2.71862e-05
-9.49799e-05
-1.20923e-05
6.47622e-06
-0.000101421
-1.51332e-06
-4.41655e-05
-3.04497e-06
-4.44238e-05
-4.6545e-06
-4.45129e-05
-6.38206e-06
-4.46435e-05
-8.27007e-06
-4.47924e-05
-1.03592e-05
-4.49351e-05
-1.26863e-05
-4.50369e-05
-1.52853e-05
-4.50501e-05
-1.81767e-05
-4.49094e-05
-2.13443e-05
-4.45371e-05
-2.46936e-05
-4.38384e-05
-2.79454e-05
-4.27472e-05
-3.06889e-05
-4.13838e-05
-3.36764e-05
-4.01187e-05
-3.70679e-05
-3.88242e-05
-4.10801e-05
-3.73652e-05
-4.58729e-05
-3.55435e-05
-5.15628e-05
-3.31008e-05
-5.82483e-05
-2.97246e-05
-6.62266e-05
-2.51292e-05
-7.47565e-05
-1.86563e-05
-7.75795e-05
-9.26936e-06
3.41239e-06
-7.45156e-05
-1.55761e-06
-4.26079e-05
-3.14929e-06
-4.28322e-05
-4.80267e-06
-4.28595e-05
-6.55423e-06
-4.2892e-05
-8.43471e-06
-4.2912e-05
-1.04738e-05
-4.28961e-05
-1.26976e-05
-4.28131e-05
-1.51243e-05
-4.26234e-05
-1.77553e-05
-4.22784e-05
-2.05682e-05
-4.17242e-05
-2.34957e-05
-4.09109e-05
-2.64186e-05
-3.98244e-05
-2.92725e-05
-3.85299e-05
-3.22823e-05
-3.71089e-05
-3.55769e-05
-3.55296e-05
-3.92464e-05
-3.36958e-05
-4.33293e-05
-3.14605e-05
-4.7793e-05
-2.86373e-05
-5.25122e-05
-2.50054e-05
-5.73741e-05
-2.02672e-05
-6.1959e-05
-1.40714e-05
-6.53136e-05
-5.91483e-06
3.43621e-06
-6.53374e-05
-1.57103e-06
-4.10369e-05
-3.17501e-06
-4.12282e-05
-4.83201e-06
-4.12025e-05
-6.56994e-06
-4.11541e-05
-8.41386e-06
-4.10681e-05
-1.0386e-05
-4.09239e-05
-1.25038e-05
-4.06953e-05
-1.47766e-05
-4.03506e-05
-1.72013e-05
-3.98538e-05
-1.97574e-05
-3.91681e-05
-2.24039e-05
-3.82644e-05
-2.50937e-05
-3.71346e-05
-2.78277e-05
-3.57959e-05
-3.0679e-05
-3.42576e-05
-3.37163e-05
-3.24924e-05
-3.69838e-05
-3.04284e-05
-4.04862e-05
-2.79581e-05
-4.41765e-05
-2.4947e-05
-4.79407e-05
-2.12412e-05
-5.15345e-05
-1.66735e-05
-5.45026e-05
-1.11033e-05
-5.58864e-05
-4.53104e-06
2.78545e-06
-5.52356e-05
-1.55983e-06
-3.94771e-05
-3.14936e-06
-3.96387e-05
-4.78317e-06
-3.95687e-05
-6.48274e-06
-3.94545e-05
-8.26791e-06
-3.92829e-05
-1.01551e-05
-3.90367e-05
-1.2156e-05
-3.86944e-05
-1.42756e-05
-3.8231e-05
-1.65102e-05
-3.76192e-05
-1.88456e-05
-3.68327e-05
-2.12595e-05
-3.58504e-05
-2.37333e-05
-3.46609e-05
-2.62697e-05
-3.32595e-05
-2.88925e-05
-3.16349e-05
-3.16277e-05
-2.97572e-05
-3.44838e-05
-2.75723e-05
-3.74371e-05
-2.50048e-05
-4.0419e-05
-2.19652e-05
-4.33002e-05
-1.83599e-05
-4.58671e-05
-1.41067e-05
-4.78016e-05
-9.16878e-06
-4.87083e-05
-3.62438e-06
2.28164e-06
-4.82044e-05
-1.52669e-06
-3.79504e-05
-3.07908e-06
-3.80863e-05
-4.66759e-06
-3.79802e-05
-6.30924e-06
-3.78129e-05
-8.0191e-06
-3.7573e-05
-9.80934e-06
-3.72465e-05
-1.1688e-05
-3.68158e-05
-1.3658e-05
-3.6261e-05
-1.57161e-05
-3.55612e-05
-1.78529e-05
-3.46959e-05
-2.00557e-05
-3.36477e-05
-2.23139e-05
-3.24026e-05
-2.46252e-05
-3.09482e-05
-2.69931e-05
-2.9267e-05
-2.94186e-05
-2.73317e-05
-3.1889e-05
-2.51019e-05
-3.43668e-05
-2.2527e-05
-3.67803e-05
-1.95517e-05
-3.90148e-05
-1.61254e-05
-4.09039e-05
-1.22176e-05
-4.22324e-05
-7.84028e-06
-4.27736e-05
-3.08315e-06
1.87301e-06
-4.2365e-05
-1.47519e-06
-3.64752e-05
-2.97231e-06
-3.65892e-05
-4.49844e-06
-3.64541e-05
-6.06688e-06
-3.62444e-05
-7.68915e-06
-3.59508e-05
-9.37421e-06
-3.55614e-05
-1.11277e-05
-3.50623e-05
-1.29511e-05
-3.44375e-05
-1.48419e-05
-3.36704e-05
-1.67934e-05
-3.27445e-05
-1.87966e-05
-3.16445e-05
-2.08429e-05
-3.03564e-05
-2.29252e-05
-2.88659e-05
-2.50367e-05
-2.71556e-05
-2.71653e-05
-2.5203e-05
-2.92877e-05
-2.29796e-05
-3.13617e-05
-2.0453e-05
-3.33214e-05
-1.7592e-05
-3.50725e-05
-1.43743e-05
-3.64931e-05
-1.0797e-05
-3.74421e-05
-6.89123e-06
-3.77877e-05
-2.73762e-06
1.53085e-06
-3.74455e-05
-1.40884e-06
-3.50664e-05
-2.83623e-06
-3.51618e-05
-4.28656e-06
-3.50038e-05
-5.77017e-06
-3.47608e-05
-7.29577e-06
-3.44252e-05
-8.86992e-06
-3.39873e-05
-1.04964e-05
-3.34358e-05
-1.21761e-05
-3.27579e-05
-1.39063e-05
-3.19401e-05
-1.56817e-05
-3.09691e-05
-1.74946e-05
-2.98316e-05
-1.93362e-05
-2.85148e-05
-2.11967e-05
-2.70054e-05
-2.30635e-05
-2.52888e-05
-2.49189e-05
-2.33477e-05
-2.67354e-05
-2.11631e-05
-2.84723e-05
-1.87161e-05
-3.00727e-05
-1.59916e-05
-3.14628e-05
-1.29842e-05
-3.25544e-05
-9.70533e-06
-3.32548e-05
-6.19085e-06
-3.34841e-05
-2.50834e-06
1.24367e-06
-3.31969e-05
-1.33066e-06
-3.37357e-05
-2.67693e-06
-3.38155e-05
-4.04108e-06
-3.36396e-05
-5.43105e-06
-3.33708e-05
-6.85335e-06
-3.30029e-05
-8.31268e-06
-3.2528e-05
-9.81152e-06
-3.19369e-05
-1.13499e-05
-3.12195e-05
-1.29251e-05
-3.03649e-05
-1.45322e-05
-2.9362e-05
-1.61639e-05
-2.81999e-05
-1.78109e-05
-2.68677e-05
-1.9462e-05
-2.53544e-05
-2.11022e-05
-2.36485e-05
-2.27118e-05
-2.17381e-05
-2.42635e-05
-1.96114e-05
-2.57206e-05
-1.7259e-05
-2.7036e-05
-1.46762e-05
-2.81529e-05
-1.18673e-05
-2.90083e-05
-8.84998e-06
-2.95398e-05
-5.65933e-06
-2.96974e-05
-2.35067e-06
1.00172e-06
-2.94555e-05
-1.24322e-06
-3.24925e-05
-2.49951e-06
-3.25592e-05
-3.76953e-06
-3.23696e-05
-5.05927e-06
-3.20811e-05
-6.37351e-06
-3.16887e-05
-7.7155e-06
-3.1186e-05
-9.08665e-06
-3.05658e-05
-1.04864e-05
-2.98198e-05
-1.19118e-05
-2.89394e-05
-1.3358e-05
-2.79158e-05
-1.48178e-05
-2.67401e-05
-1.62819e-05
-2.54036e-05
-1.77383e-05
-2.38979e-05
-1.9172e-05
-2.22148e-05
-2.05633e-05
-2.03467e-05
-2.18871e-05
-1.82876e-05
-2.31118e-05
-1.60343e-05
-2.41993e-05
-1.35886e-05
-2.51064e-05
-1.09602e-05
-2.57875e-05
-8.16883e-06
-2.62003e-05
-5.24652e-06
-2.63124e-05
-2.23859e-06
7.97829e-07
-2.61085e-05
-1.14864e-06
-3.13439e-05
-2.30817e-06
-3.13997e-05
-3.47806e-06
-3.11997e-05
-4.66275e-06
-3.08964e-05
-5.86563e-06
-3.04858e-05
-7.08883e-06
-2.99628e-05
-8.33295e-06
-2.93217e-05
-9.59684e-06
-2.85559e-05
-1.08775e-05
-2.76588e-05
-1.217e-05
-2.66233e-05
-1.34674e-05
-2.54427e-05
-1.47605e-05
-2.41105e-05
-1.60378e-05
-2.26207e-05
-1.72847e-05
-2.09679e-05
-1.84831e-05
-1.91483e-05
-1.96108e-05
-1.71599e-05
-2.06414e-05
-1.50036e-05
-2.15446e-05
-1.26855e-05
-2.22874e-05
-1.02174e-05
-2.28368e-05
-7.61939e-06
-2.31634e-05
-4.91991e-06
-2.32456e-05
-2.15636e-06
6.26344e-07
-2.30741e-05
-1.04865e-06
-3.02952e-05
-2.10632e-06
-3.0342e-05
-3.17164e-06
-3.01344e-05
-4.24783e-06
-2.98202e-05
-5.33721e-06
-2.93964e-05
-6.44104e-06
-2.8859e-05
-7.55926e-06
-2.82034e-05
-8.69038e-06
-2.74248e-05
-9.83129e-06
-2.65179e-05
-1.09772e-05
-2.54774e-05
-1.21213e-05
-2.42985e-05
-1.32552e-05
-2.29766e-05
-1.4368e-05
-2.15079e-05
-1.54463e-05
-1.98896e-05
-1.64741e-05
-1.81205e-05
-1.74325e-05
-1.62015e-05
-1.82997e-05
-1.41365e-05
-1.90516e-05
-1.19335e-05
-1.96633e-05
-9.60572e-06
-2.01106e-05
-7.1721e-06
-2.03726e-05
-4.65785e-06
-2.04348e-05
-2.09419e-06
4.82783e-07
-2.02912e-05
-9.44629e-07
-2.93506e-05
-1.89668e-06
-2.939e-05
-2.85425e-06
-2.91768e-05
-3.81959e-06
-2.88549e-05
-4.79421e-06
-2.84218e-05
-5.77869e-06
-2.78745e-05
-6.77254e-06
-2.72096e-05
-7.77403e-06
-2.64233e-05
-8.78005e-06
-2.55118e-05
-9.78601e-06
-2.44715e-05
-1.07857e-05
-2.32988e-05
-1.17713e-05
-2.19911e-05
-1.27329e-05
-2.05463e-05
-1.36588e-05
-1.89637e-05
-1.45353e-05
-1.72441e-05
-1.53463e-05
-1.53904e-05
-1.60742e-05
-1.34085e-05
-1.67001e-05
-1.13076e-05
-1.7205e-05
-9.10081e-06
-1.75711e-05
-6.80605e-06
-1.77833e-05
-4.44558e-06
-1.78316e-05
-2.04587e-06
3.63446e-07
-1.77123e-05
-8.37684e-07
-2.85129e-05
-1.68141e-06
-2.85463e-05
-2.529e-06
-2.83292e-05
-3.38198e-06
-2.80019e-05
-4.24123e-06
-2.75625e-05
-5.10686e-06
-2.70089e-05
-5.9781e-06
-2.63384e-05
-6.8531e-06
-2.55483e-05
-7.72888e-06
-2.46361e-05
-8.60118e-06
-2.35992e-05
-9.4644e-06
-2.24356e-05
-1.03115e-05
-2.1144e-05
-1.11339e-05
-1.97239e-05
-1.19214e-05
-1.81761e-05
-1.26625e-05
-1.6503e-05
-1.3344e-05
-1.4709e-05
-1.39516e-05
-1.28009e-05
-1.44708e-05
-1.07884e-05
-1.48868e-05
-8.68472e-06
-1.51866e-05
-6.50625e-06
-1.53593e-05
-4.27286e-06
-1.53978e-05
-2.00737e-06
2.65343e-07
-1.52997e-05
-7.28673e-07
-2.77842e-05
-1.46217e-06
-2.78128e-05
-2.19831e-06
-2.75931e-05
-2.93804e-06
-2.72622e-05
-3.6818e-06
-2.68188e-05
-4.42938e-06
-2.62613e-05
-5.17984e-06
-2.55879e-05
-5.93138e-06
-2.47968e-05
-6.68121e-06
-2.38862e-05
-7.42552e-06
-2.28549e-05
-8.15937e-06
-2.17018e-05
-8.87664e-06
-2.04267e-05
-9.57002e-06
-1.90305e-05
-1.0231e-05
-1.75152e-05
-1.08499e-05
-1.58841e-05
-1.14161e-05
-1.41427e-05
-1.19185e-05
-1.22985e-05
-1.23454e-05
-1.03614e-05
-1.2686e-05
-8.34411e-06
-1.29304e-05
-6.26184e-06
-1.30708e-05
-4.13249e-06
-1.3102e-05
-1.97611e-06
1.86011e-07
-1.30227e-05
-6.18232e-07
-2.7166e-05
-1.24023e-06
-2.71908e-05
-1.86398e-06
-2.69693e-05
-2.49003e-06
-2.66361e-05
-3.11849e-06
-2.61903e-05
-3.74898e-06
-2.56308e-05
-4.3805e-06
-2.49564e-05
-5.01137e-06
-2.41659e-05
-5.63912e-06
-2.32585e-05
-6.26043e-06
-2.22336e-05