/*--------------------------------*- C++ -*----------------------------------*\
| =========                 |                                                 |
| \\      /  F ield         | OpenFOAM: The Open Source CFD Toolbox           |
|  \\    /   O peration     | Version:  2.4.0                                 |
|   \\  /    A nd           | Web:      www.OpenFOAM.org                      |
|    \\/     M anipulation  |                                                 |
\*---------------------------------------------------------------------------*/
FoamFile
{
    version     2.0;
    format      ascii;
    class       surfaceScalarField;
    location    "0.05";
    object      phi.air;
}
// * * * * * * * * * * * * * * * * * * * * * * * * * * * * * * * * * * * * * //

dimensions      [0 3 -1 0 0 0 0];

internalField   nonuniform List<scalar> 
4432
(
1.60819e-06
-1.60831e-06
3.27924e-06
-1.67123e-06
5.07948e-06
-1.80044e-06
7.08277e-06
-2.00354e-06
9.37577e-06
-2.29328e-06
1.20662e-05
-2.69077e-06
1.52931e-05
-3.22723e-06
1.92543e-05
-3.96151e-06
2.42038e-05
-4.94947e-06
3.04971e-05
-6.29316e-06
3.96111e-05
-9.1135e-06
5.37733e-05
-1.41545e-05
6.262e-05
-1.08019e-05
6.64894e-05
-1.81298e-05
6.83292e-05
-2.98032e-05
5.93659e-05
-1.62584e-05
4.20501e-05
1.03566e-05
3.50855e-05
7.0188e-06
2.98703e-05
5.21187e-06
2.45863e-05
5.28106e-06
1.81522e-05
6.43104e-06
9.92982e-06
8.2193e-06
9.92771e-06
1.59438e-06
-3.20285e-06
3.25087e-06
-3.32789e-06
5.03486e-06
-3.58466e-06
7.01906e-06
-3.98799e-06
9.2883e-06
-4.56286e-06
1.19476e-05
-5.35044e-06
1.51318e-05
-6.41174e-06
1.90367e-05
-7.86665e-06
2.39037e-05
-9.81634e-06
3.01652e-05
-1.25542e-05
3.86436e-05
-1.75917e-05
5.07728e-05
-2.6298e-05
5.8785e-05
-2.45571e-05
6.27935e-05
-3.02876e-05
5.77256e-05
-2.2381e-05
4.7079e-05
1.59134e-05
4.0205e-05
1.99525e-05
3.46582e-05
1.25601e-05
2.99174e-05
9.94781e-06
2.48854e-05
1.03087e-05
1.85833e-05
1.27288e-05
1.03009e-05
1.64973e-05
2.02231e-05
1.56641e-06
-4.76943e-06
3.19336e-06
-4.95505e-06
4.94451e-06
-5.33607e-06
6.89023e-06
-5.93402e-06
9.11183e-06
-6.78486e-06
1.1709e-05
-7.94802e-06
1.48087e-05
-9.5119e-06
1.85901e-05
-1.16483e-05
2.32739e-05
-1.45002e-05
2.92074e-05
-1.84874e-05
3.71773e-05
-2.55616e-05
4.70727e-05
-3.63194e-05
5.24748e-05
-3.88218e-05
5.32536e-05
-3.78308e-05
4.67806e-05
-1.23811e-05
4.24727e-05
3.15547e-05
3.81005e-05
2.48915e-05
3.39842e-05
1.6674e-05
2.99717e-05
1.39581e-05
2.54291e-05
1.48492e-05
1.94252e-05
1.87308e-05
1.10744e-05
2.48462e-05
3.12968e-05
1.52489e-06
-6.29442e-06
3.10805e-06
-6.53836e-06
4.81061e-06
-7.03883e-06
6.69962e-06
-7.82332e-06
8.85131e-06
-8.93687e-06
1.13577e-05
-1.04547e-05
1.43344e-05
-1.2489e-05
1.79348e-05
-1.52488e-05
2.23521e-05
-1.89172e-05
2.78451e-05
-2.398e-05
3.49774e-05
-3.26934e-05
4.29309e-05
-4.46647e-05
4.60693e-05
-5.04835e-05
4.47916e-05
-4.1605e-05
3.92406e-05
2.92281e-06
3.87624e-05
3.79037e-05
3.61832e-05
2.75807e-05
3.33367e-05
1.95159e-05
3.01529e-05
1.71379e-05
2.63047e-05
1.86939e-05
2.07903e-05
2.4242e-05
1.23499e-05
3.32841e-05
4.36423e-05
1.47034e-06
-7.76502e-06
2.996e-06
-8.06431e-06
4.63498e-06
-8.67818e-06
6.45023e-06
-9.639e-06
8.51142e-06
-1.09986e-05
1.09012e-05
-1.2845e-05
1.37211e-05
-1.53093e-05
1.70956e-05
-1.86237e-05
2.11836e-05
-2.30052e-05
2.61775e-05
-2.89737e-05
3.23355e-05
-3.88519e-05
3.84574e-05
-5.15739e-05
3.97849e-05
-5.85549e-05
3.71939e-05
-4.20598e-05
3.34358e-05
1.63815e-05
3.53355e-05
3.92699e-05
3.43903e-05
2.8534e-05
3.27499e-05
2.11553e-05
3.05053e-05
1.93817e-05
2.75573e-05
2.16412e-05
2.28321e-05
2.89672e-05
1.45365e-05
4.15794e-05
5.81809e-05
1.40341e-06
-9.16877e-06
2.8586e-06
-9.51989e-06
4.41994e-06
-1.024e-05
6.14585e-06
-1.13655e-05
8.09816e-06
-1.29516e-05
1.03489e-05
-1.50964e-05
1.29833e-05
-1.79444e-05
1.60998e-05
-2.17405e-05
1.98232e-05
-2.67287e-05
2.42995e-05
-3.34501e-05
2.94466e-05
-4.39993e-05
3.38822e-05
-5.7226e-05
3.39738e-05
-6.34988e-05
3.07091e-05
-3.94434e-05
2.94758e-05
2.6981e-05
3.24086e-05
3.84934e-05
3.27672e-05
2.81738e-05
3.21864e-05
2.17341e-05
3.10284e-05
2.05378e-05
2.92649e-05
2.34034e-05
2.56508e-05
3.25811e-05
1.75671e-05
4.96638e-05
7.57476e-05
1.32486e-06
-1.0494e-05
2.69733e-06
-1.08929e-05
4.16796e-06
-1.17113e-05
5.79072e-06
-1.2989e-05
7.61819e-06
-1.47798e-05
9.71092e-06
-1.71899e-05
1.21366e-05
-2.03708e-05
1.49717e-05
-2.4576e-05
1.83061e-05
-3.00634e-05
2.22665e-05
-3.74106e-05
2.64953e-05
-4.82285e-05
2.94798e-05
-6.18839e-05
2.8663e-05
-6.62743e-05
2.52266e-05
-3.43024e-05
2.68421e-05
3.31544e-05
2.99927e-05
3.6368e-05
3.1385e-05
2.67793e-05
3.1865e-05
2.12518e-05
3.18159e-05
2.05849e-05
3.13034e-05
2.39148e-05
2.9128e-05
3.47561e-05
2.26185e-05
5.61735e-05
9.83674e-05
1.23471e-06
-1.17292e-05
2.51202e-06
-1.21707e-05
3.87821e-06
-1.3078e-05
5.38406e-06
-1.44955e-05
7.07293e-06
-1.64694e-05
8.99204e-06
-1.91097e-05
1.11888e-05
-2.25681e-05
1.37199e-05
-2.71074e-05
1.66456e-05
-3.29893e-05
2.00342e-05
-4.07995e-05
2.36704e-05
-5.1865e-05
2.53474e-05
-6.56735e-05
2.37458e-05
-6.77826e-05
2.06031e-05
-2.80382e-05
2.43257e-05
3.48065e-05
2.79546e-05
3.31545e-05
3.01903e-05
2.45428e-05
3.16086e-05
1.98326e-05
3.272e-05
1.9473e-05
3.3643e-05
2.29916e-05
3.35304e-05
3.48697e-05
3.00825e-05
5.9623e-05
0.00012845
-1.53056e-07
1.52879e-07
6.62988e-06
-6.78316e-06
1.32372e-05
-6.60758e-06
1.76862e-05
-4.44916e-06
1.977e-05
-2.08394e-06
2.0143e-05
-3.73173e-07
1.94977e-05
6.45205e-07
1.82086e-05
1.28897e-06
1.6618e-05
1.59057e-06
1.4898e-05
1.71994e-06
1.31354e-05
1.76249e-06
1.13789e-05
1.75649e-06
9.65196e-06
1.72683e-06
7.96382e-06
1.68808e-06
6.31511e-06
1.64865e-06
4.70161e-06
1.61344e-06
3.11631e-06
1.58524e-06
1.55101e-06
1.56525e-06
1.55097e-06
-6.77425e-07
8.30002e-07
6.79713e-06
-1.42581e-05
1.39469e-05
-1.37577e-05
1.85363e-05
-9.0389e-06
2.05627e-05
-4.11062e-06
2.0812e-05
-6.22651e-07
2.00214e-05
1.43564e-06
1.86594e-05
2.6508e-06
1.701e-05
3.23989e-06
1.52347e-05
3.49518e-06
1.34238e-05
3.57324e-06
1.16239e-05
3.5563e-06
9.85715e-06
3.49354e-06
8.13162e-06
3.41354e-06
6.44736e-06
3.33284e-06
4.79967e-06
3.26107e-06
3.18106e-06
3.20378e-06
1.58213e-06
3.16412e-06
3.13304e-06
-2.15133e-06
2.98111e-06
6.54174e-06
-2.29513e-05
1.46866e-05
-2.19027e-05
1.93984e-05
-1.37509e-05
2.12019e-05
-5.91431e-06
2.12131e-05
-6.33952e-07
2.02335e-05
2.4152e-06
1.87715e-05
4.11266e-06
1.70634e-05
4.94797e-06
1.52547e-05
5.3038e-06
1.34259e-05
5.40205e-06
1.16169e-05
5.36521e-06
9.84626e-06
5.26413e-06
8.11992e-06
5.13983e-06
6.43664e-06
5.01607e-06
4.79096e-06
4.9067e-06
3.17496e-06
4.81974e-06
1.57916e-06
4.75988e-06
4.71217e-06
-5.13568e-06
8.11639e-06
5.95491e-06
-3.40424e-05
1.5931e-05
-3.18792e-05
2.07729e-05
-1.85932e-05
2.21536e-05
-7.29541e-06
2.17756e-05
-2.56129e-07
2.05441e-05
3.64642e-06
1.89248e-05
5.73187e-06
1.71291e-05
6.74357e-06
1.52732e-05
7.15959e-06
1.34196e-05
7.25553e-06
1.15989e-05
7.18585e-06
9.82393e-06
7.039e-06
8.09763e-06
6.86605e-06
6.41692e-06
6.6967e-06
4.77527e-06
6.54828e-06
3.16414e-06
6.43081e-06
1.57374e-06
6.35021e-06
6.28585e-06
-9.26194e-06
1.73783e-05
5.43956e-06
-4.87443e-05
1.81684e-05
-4.46051e-05
2.28125e-05
-2.32354e-05
2.34309e-05
-7.91389e-06
2.24976e-05
6.77108e-07
2.09268e-05
5.21718e-06
1.91105e-05
7.54814e-06
1.72057e-05
8.64827e-06
1.52913e-05
9.074e-06
1.34074e-05
9.13938e-06
1.15725e-05
9.02071e-06
9.79276e-06
8.81873e-06
8.06706e-06
8.59171e-06
6.39011e-06
8.37363e-06
4.75404e-06
8.18431e-06
3.14954e-06
8.03528e-06
1.56638e-06
7.93334e-06
7.85222e-06
-1.23855e-05
2.97683e-05
7.2913e-06
-6.84586e-05
2.29306e-05
-6.02131e-05
2.5984e-05
-2.62696e-05
2.50613e-05
-6.98823e-06
2.33377e-05
2.40054e-06
2.13556e-05
7.19911e-06
1.93128e-05
9.59081e-06
1.72845e-05
1.06764e-05
1.53041e-05
1.10544e-05
1.33864e-05
1.10569e-05
1.15363e-05
1.08708e-05
9.75185e-06
1.06031e-05
8.02769e-06
1.03158e-05
6.3559e-06
1.00453e-05
4.72711e-06
9.81303e-06
3.13107e-06
9.63124e-06
1.55705e-06
9.50729e-06
9.40919e-06
-9.43555e-07
3.2389e-05
1.6807e-05
-8.68569e-05
2.99693e-05
-7.31622e-05
2.95633e-05
-2.5733e-05
2.68365e-05
-4.25893e-06
2.423e-05
5.00688e-06
2.17978e-05
9.63117e-06
1.95136e-05
1.18749e-05
1.73551e-05
1.28348e-05
1.53057e-05
1.31037e-05
1.33534e-05
1.30091e-05
1.14882e-05
1.2736e-05
9.70007e-06
1.23911e-05
7.97888e-06
1.20369e-05
6.31394e-06
1.17102e-05
4.69426e-06
1.14327e-05
3.10863e-06
1.12168e-05
1.5457e-06
1.10702e-05
1.09549e-05
4.19675e-05
-1.10803e-05
5.12633e-05
-9.49713e-05
3.98254e-05
-6.0498e-05
3.29045e-05
-1.87743e-05
2.84966e-05
1.4884e-07
2.5089e-05
8.41446e-06
2.2214e-05
1.2506e-05
1.96924e-05
1.43965e-05
1.74065e-05
1.51207e-05
1.52901e-05
1.52201e-05
1.33049e-05
1.49942e-05
1.14263e-05
1.46145e-05
9.63637e-06
1.4181e-05
7.92004e-06
1.37532e-05
6.26391e-06
1.33663e-05
4.65534e-06
1.30412e-05
3.08214e-06
1.279e-05
1.53235e-06
1.26199e-05
1.24872e-05
2.27046e-06
-1.40002e-05
4.60873e-06
-1.45097e-05
7.09474e-06
-1.55648e-05
9.85586e-06
-1.72574e-05
1.30198e-05
-1.96341e-05
1.65509e-05
-2.26414e-05
2.04342e-05
-2.6452e-05
2.48102e-05
-3.14838e-05
2.96123e-05
-3.77913e-05
3.51122e-05
-4.6297e-05
4.04359e-05
-5.7169e-05
4.11899e-05
-7.20237e-05
3.49057e-05
-6.80919e-05
3.12455e-05
-1.35176e-05
4.39822e-05
2.89601e-05
5.38346e-05
2.346e-05
6.08696e-05
1.75074e-05
6.64788e-05
1.42232e-05
7.22432e-05
1.37087e-05
7.94754e-05
1.57607e-05
9.13249e-05
2.30217e-05
0.000122335
2.86149e-05
5.68819e-05
0.000193909
1.77502e-06
-1.57213e-05
3.59889e-06
-1.62747e-05
5.52026e-06
-1.74194e-05
7.60919e-06
-1.9265e-05
1.00159e-05
-2.19318e-05
1.27132e-05
-2.51971e-05
1.53868e-05
-2.89281e-05
1.84838e-05
-3.43356e-05
2.11871e-05
-4.01891e-05
2.42171e-05
-4.89788e-05
2.67308e-05
-5.93257e-05
2.57921e-05
-7.71787e-05
1.71348e-05
-6.59978e-05
2.05289e-05
1.58532e-06
3.64096e-05
1.52105e-05
4.84391e-05
1.14312e-05
5.769e-05
8.25666e-06
6.59707e-05
5.94276e-06
7.48178e-05
4.86271e-06
8.57467e-05
4.83307e-06
0.000101875
6.89731e-06
0.00012492
5.57136e-06
1.52738e-05
0.000166538
1.42058e-06
-1.70888e-05
2.81796e-06
-1.76597e-05
4.2158e-06
-1.89056e-05
5.72506e-06
-2.10073e-05
7.21088e-06
-2.39228e-05
8.48724e-06
-2.72569e-05
1.02519e-05
-3.19864e-05
1.14975e-05
-3.73486e-05
1.29704e-05
-4.42309e-05
1.29169e-05
-5.22953e-05
1.20765e-05
-6.27406e-05
7.1641e-06
-7.77072e-05
3.56573e-06
-6.02755e-05
1.79006e-05
-3.60974e-07
3.33055e-05
9.79168e-08
4.53355e-05
-5.98954e-07
5.5445e-05
-1.85264e-06
6.49254e-05
-3.53709e-06
7.50928e-05
-5.30334e-06
8.71043e-05
-7.17552e-06
0.00010251
-8.50623e-06
0.000121946
-1.38597e-05
-1.9027e-05
0.000156267
5.94566e-07
-1.83519e-05
1.09366e-06
-1.87699e-05
9.95223e-07
-1.9292e-05
1.24186e-06
-2.4806e-05
3.14907e-06
-3.58697e-05
2.97386e-06
-3.41465e-05
5.48378e-06
-4.70707e-05
5.37318e-06
-4.5576e-05
8.18223e-06
-5.87264e-05
8.57751e-06
-5.82474e-05
9.10031e-06
-6.89673e-05
6.03038e-06
-7.16762e-05
5.44625e-06
-4.36857e-05
2.20997e-05
-1.70371e-05
3.44289e-05
-1.21618e-05
4.44534e-05
-1.06235e-05
5.38385e-05
-1.12377e-05
6.32563e-05
-1.29539e-05
7.34022e-05
-1.54476e-05
8.49949e-05
-1.87657e-05
9.89368e-05
-2.24441e-05
0.00011638
-3.13006e-05
-4.06351e-05
0.000138064
5.11035e-06
-2.29334e-05
1.03236e-05
-2.34837e-05
1.62187e-05
-2.46924e-05
2.2251e-05
-2.7225e-05
2.5093e-05
-2.8581e-05
3.09718e-05
-3.24203e-05
3.18712e-05
-3.48625e-05
3.62238e-05
-4.03196e-05
3.60102e-05
-4.56305e-05
3.78511e-05
-5.19439e-05
3.44547e-05
-5.73569e-05
2.75725e-05
-6.16891e-05
2.48737e-05
-3.98171e-05
2.92512e-05
-2.21947e-05
3.64087e-05
-1.89098e-05
4.41208e-05
-1.83358e-05
5.22573e-05
-1.93741e-05
6.08629e-05
-2.15588e-05
7.01992e-05
-2.4782e-05
8.06011e-05
-2.91653e-05
9.25476e-05
-3.4388e-05
0.000106291
-4.50403e-05
-5.48665e-05
0.000121492
4.56416e-06
-2.74973e-05
9.12649e-06
-2.80459e-05
1.36045e-05
-2.91701e-05
1.73895e-05
-3.10102e-05
2.17853e-05
-3.30054e-05
2.52025e-05
-3.58538e-05
2.9164e-05
-3.89014e-05
3.17156e-05
-4.29399e-05
3.31113e-05
-4.71843e-05
3.28421e-05
-5.17909e-05
3.09235e-05
-5.56e-05
2.77678e-05
-5.86075e-05
2.75123e-05
-3.95168e-05
3.10487e-05
-2.58899e-05
3.66896e-05
-2.40492e-05
4.30627e-05
-2.47093e-05
5.00931e-05
-2.64044e-05
5.76822e-05
-2.91472e-05
6.58781e-05
-3.29764e-05
7.47617e-05
-3.80472e-05
8.4519e-05
-4.41433e-05
9.45728e-05
-5.50932e-05
-6.34327e-05
0.000113596
3.97265e-06
-3.14699e-05
7.91402e-06
-3.19872e-05
1.17566e-05
-3.30125e-05
1.52988e-05
-3.45521e-05
1.87693e-05
-3.64754e-05
2.18415e-05
-3.89254e-05
2.46614e-05
-4.17205e-05
2.67654e-05
-4.50432e-05
2.81422e-05
-4.85605e-05
2.84988e-05
-5.21471e-05
2.81829e-05
-5.52849e-05
2.74385e-05
-5.78662e-05
2.81579e-05
-4.0532e-05
3.13288e-05
-2.90148e-05
3.60587e-05
-2.82691e-05
4.13546e-05
-3.00056e-05
4.73423e-05
-3.23921e-05
5.38586e-05
-3.56628e-05
6.08295e-05
-3.99461e-05
6.81778e-05
-4.53945e-05
7.59133e-05
-5.18782e-05
8.33189e-05
-6.2498e-05
-6.96935e-05
0.000137925
3.47223e-06
-3.49423e-05
6.89837e-06
-3.54134e-05
1.02143e-05
-3.63285e-05
1.33453e-05
-3.7683e-05
1.63093e-05
-3.94393e-05
1.89811e-05
-4.15969e-05
2.13661e-05
-4.41051e-05
2.32486e-05
-4.69253e-05
2.4609e-05
-4.99205e-05
2.53802e-05
-5.29181e-05
2.57699e-05
-5.56753e-05
2.60892e-05
-5.81848e-05
2.72056e-05
-4.20197e-05
3.02215e-05
-3.18698e-05
3.44045e-05
-3.20172e-05
3.89421e-05
-3.45435e-05
4.40397e-05
-3.74897e-05
4.9555e-05
-4.11776e-05
5.53678e-05
-4.57581e-05
6.13276e-05
-5.13538e-05
6.7335e-05
-5.78857e-05
7.26312e-05
-6.77935e-05
-7.37586e-05
0.000142333
3.00812e-06
-3.79507e-05
5.97219e-06
-3.83777e-05
8.84259e-06
-3.91992e-05
1.15723e-05
-4.04129e-05
1.41286e-05
-4.19958e-05
1.64556e-05
-4.39238e-05
1.85062e-05
-4.61557e-05
2.02141e-05
-4.86331e-05
2.15558e-05
-5.12622e-05
2.2562e-05
-5.39244e-05
2.33795e-05
-5.64937e-05
2.4267e-05
-5.90674e-05
2.53282e-05
-4.34626e-05
2.82769e-05
-3.45567e-05
3.20442e-05
-3.54358e-05
3.59784e-05
-3.8478e-05
4.03135e-05
-4.18248e-05
4.4941e-05
-4.58047e-05
4.97348e-05
-5.05514e-05
5.4527e-05
-5.61461e-05
5.91623e-05
-6.25213e-05
6.28802e-05
-7.15112e-05
-7.61889e-05
0.000138734
2.59087e-06
-4.05419e-05
5.14321e-06
-4.09304e-05
7.61671e-06
-4.16731e-05
9.9739e-06
-4.27705e-05
1.21806e-05
-4.42027e-05
1.41998e-05
-4.59432e-05
1.59984e-05
-4.79545e-05
1.755e-05
-5.01848e-05
1.88554e-05
-5.25678e-05
1.99569e-05
-5.50262e-05
2.09596e-05
-5.74969e-05
2.1984e-05
-6.00911e-05
2.30541e-05
-4.48934e-05
2.58658e-05
-3.70393e-05
2.92022e-05
-3.85279e-05
3.26166e-05
-4.18927e-05
3.62932e-05
-4.55013e-05
4.01535e-05
-4.96646e-05
4.40891e-05
-5.44866e-05
4.79555e-05
-6.00125e-05
5.16149e-05
-6.61812e-05
5.44384e-05
-7.4335e-05
-7.83901e-05
0.00013432
2.21279e-06
-4.27552e-05
4.39306e-06
-4.31112e-05
6.50786e-06
-4.37884e-05
8.52677e-06
-4.47899e-05
1.04217e-05
-4.6098e-05
1.21667e-05
-4.76886e-05
1.37416e-05
-4.95296e-05
1.51375e-05
-5.15809e-05
1.6365e-05
-5.37955e-05
1.74621e-05
-5.61234e-05
1.84937e-05
-5.85289e-05
1.94761e-05
-6.10765e-05
2.05222e-05
-4.62299e-05
2.31434e-05
-3.93015e-05
2.60518e-05
-4.12804e-05
2.89915e-05
-4.48326e-05
3.20886e-05
-4.85983e-05
3.52872e-05
-5.2863e-05
3.85059e-05
-5.77051e-05
4.16456e-05
-6.31523e-05
4.46371e-05
-6.9173e-05
4.70533e-05
-7.67516e-05
-8.12511e-05
0.000126005
1.86827e-06
-4.46242e-05
3.70914e-06
-4.49528e-05
5.49597e-06
-4.55759e-05
7.20476e-06
-4.64993e-05
8.81389e-06
-4.77077e-05
1.03051e-05
-4.91803e-05
1.16665e-05
-5.08914e-05
1.28966e-05
-5.28114e-05
1.4009e-05
-5.49083e-05
1.50366e-05
-5.71514e-05
1.60347e-05
-5.95276e-05
1.70863e-05
-6.21217e-05
1.78206e-05
-4.72266e-05
2.0214e-05
-4.13085e-05
2.27085e-05
-4.36864e-05
2.52052e-05
-4.73296e-05
2.77818e-05
-5.1175e-05
3.03988e-05
-5.54799e-05
3.30001e-05
-6.03065e-05
3.55264e-05
-6.56788e-05
3.79572e-05
-7.16042e-05
4.00384e-05
-7.88347e-05
-8.43657e-05
0.000106786
1.55277e-06
-4.61777e-05
3.08134e-06
-4.64823e-05
4.56379e-06
-4.70592e-05
5.98349e-06
-4.79198e-05
7.32523e-06
-4.90503e-05
8.57494e-06
-5.04307e-05
9.72465e-06
-5.20418e-05
1.07758e-05
-5.38631e-05
1.17401e-05
-5.58733e-05
1.26413e-05
-5.80531e-05
1.35123e-05
-6.03992e-05
1.43424e-05
-6.29529e-05
1.4966e-05
-4.8068e-05
1.71444e-05
-4.30814e-05
1.92538e-05
-4.57533e-05
2.13343e-05
-4.94106e-05
2.34337e-05
-5.32746e-05
2.55249e-05
-5.75708e-05
2.75697e-05
-6.23513e-05
2.95311e-05
-6.764e-05
3.14016e-05
-7.34745e-05
3.29484e-05
-8.039e-05
-8.68746e-05
7.94941e-05
1.25254e-06
-4.74315e-05
2.49104e-06
-4.77219e-05
3.69069e-06
-4.82599e-05
4.83998e-06
-4.90701e-05
5.92939e-06
-5.01406e-05
6.94601e-06
-5.14482e-05
7.88303e-06
-5.29796e-05
8.74297e-06
-5.47238e-05
9.53545e-06
-5.66665e-05
1.02777e-05
-5.87959e-05
1.09938e-05
-6.1116e-05
1.1673e-05
-6.36325e-05
1.20907e-05
-4.86441e-05
1.40082e-05
-4.46279e-05
1.57555e-05
-4.74854e-05
1.74399e-05
-5.10956e-05
1.90934e-05
-5.49271e-05
2.06964e-05
-5.91704e-05
2.22217e-05
-6.38732e-05
2.36444e-05
-6.90578e-05
2.4968e-05
-7.47944e-05
2.58837e-05
-8.13264e-05
-8.84764e-05
5.46912e-05
9.3899e-07
-4.83641e-05
1.88125e-06
-4.86578e-05
2.82808e-06
-4.92003e-05
3.74531e-06
-4.99805e-05
4.60178e-06
-5.09898e-05
5.39269e-06
-5.22313e-05
6.11607e-06
-5.36944e-05
6.77661e-06
-5.53747e-05
7.37978e-06
-5.72584e-05
7.93683e-06
-5.93403e-05
8.47493e-06
-6.1638e-05
8.9966e-06
-6.38725e-05
9.2321e-06
-4.80861e-05
1.08504e-05
-4.52284e-05
1.22647e-05
-4.88862e-05
1.35714e-05
-5.23941e-05
1.48035e-05
-5.61485e-05
1.59484e-05
-6.02997e-05
1.69805e-05
-6.48823e-05
1.78758e-05
-6.99191e-05
1.86529e-05
-7.55265e-05
1.90236e-05
-8.16667e-05
-8.93799e-05
3.55948e-05
7.03501e-07
-4.47195e-05
1.38142e-06
-4.48772e-05
2.03229e-06
-4.51794e-05
2.65872e-06
-4.56111e-05
3.25984e-06
-4.61584e-05
3.83191e-06
-4.68073e-05
4.37322e-06
-4.75432e-05
4.8629e-06
-4.8276e-05
5.27434e-06
-4.89908e-05
5.61534e-06
-4.97798e-05
5.96035e-06
-5.07434e-05
6.30791e-06
-5.16709e-05
6.44702e-06
-1.39502e-05
7.81119e-06
-4.19335e-05
8.84013e-06
-4.42096e-05
9.78083e-06
-4.58807e-05
1.06073e-05
-4.73153e-05
1.13243e-05
-4.85687e-05
1.19086e-05
-4.96976e-05
1.22409e-05
-5.11217e-05
1.24718e-05
-5.71338e-05
1.30708e-05
-6.61162e-05
-8.61493e-05
2.0295e-05
5.44741e-07
-6.02147e-06
1.0955e-06
-6.3569e-06
1.63093e-06
-6.99496e-06
2.14869e-06
-7.9289e-06
2.6545e-06
-9.18393e-06
3.14444e-06
-1.07694e-05
3.6618e-06
-1.26911e-05
4.12784e-06
-1.50429e-05
4.5645e-06
-1.77826e-05
4.97057e-06
-2.08635e-05
5.37899e-06
-2.45467e-05
6.67251e-06
-2.87998e-05
3.37982e-06
-8.75441e-07
5.39554e-06
-1.96268e-06
6.61013e-06
-5.51523e-06
7.83383e-06
-9.53432e-06
9.36042e-06
-1.44998e-05
1.14931e-05
-2.03588e-05
1.45166e-05
-2.75671e-05
1.69852e-05
-3.67739e-05
1.82044e-05
-4.76847e-05
2.24312e-05
-6.31243e-05
-8.57366e-05
5.69258e-06
3.48645e-07
-1.29609e-05
7.24747e-07
-1.35065e-05
1.07419e-06
-1.44991e-05
1.36413e-06
-1.59443e-05
1.60931e-06
-1.78198e-05
1.80364e-06
-2.01163e-05
1.94428e-06
-2.28006e-05
2.05585e-06
-2.5807e-05
2.04049e-06
-2.91814e-05
1.67161e-06
-3.27601e-05
1.00922e-06
-3.62792e-05
-2.71055e-06
-3.99969e-05
1.24903e-06
-1.13842e-05
3.54421e-06
-1.15547e-05
4.08719e-06
-1.4398e-05
3.92225e-06
-1.96231e-05
3.80874e-06
-2.61069e-05
3.57579e-06
-3.36811e-05
2.85114e-06
-4.21247e-05
3.17073e-06
-5.00661e-05
1.76206e-06
-5.86932e-05
1.59331e-06
-7.32734e-05
-8.72893e-05
-2.70858e-06
1.7441e-08
-4.27525e-05
1.33487e-07
-4.30239e-05
2.18233e-07
-4.37035e-05
2.96476e-07
-4.47255e-05
3.72638e-07
-4.60701e-05
4.46768e-07
-4.77257e-05
5.15784e-07
-4.9674e-05
5.81369e-07
-5.18931e-05
5.75664e-07
-5.43485e-05
2.52084e-07
-5.68231e-05
-2.68982e-07
-5.91766e-05
-1.28021e-06
-6.09981e-05
-8.14126e-08
-4.38756e-05
1.17643e-06
-4.5848e-05
3.60082e-07
-4.91372e-05
-1.0706e-06
-5.35709e-05
-1.63295e-06
-5.84937e-05
-2.19449e-06
-6.2989e-05
-3.05285e-06
-6.74072e-05
-2.54031e-06
-7.32477e-05
-2.94986e-06
-7.69661e-05
-1.97771e-05
-6.89263e-05
-1.61203e-05
-8.72609e-05
-1.27231e-06
-4.84677e-05
-2.85446e-06
-4.84738e-05
-4.47273e-06
-4.89048e-05
-6.23193e-06
-4.94703e-05
-8.20567e-06
-5.01856e-05
-1.04623e-05
-5.10464e-05
-1.30637e-05
-5.20435e-05
-1.60502e-05
-5.31765e-05
-1.94066e-05
-5.44633e-05
-2.29495e-05
-5.5894e-05
-2.75999e-05
-5.64605e-05
-3.54341e-05
-5.48886e-05
-4.03851e-05
-4.45362e-05
-4.30857e-05
-4.72464e-05
-4.47491e-05
-4.8999e-05
-4.77251e-05
-5.00694e-05
-5.22191e-05
-5.23295e-05
-5.84666e-05
-5.43732e-05
-6.67427e-05
-5.62304e-05
-7.84953e-05
-5.81785e-05
-9.32989e-05
-5.89345e-05
-0.000122492
-3.90948e-05
9.90615e-06
-0.000153998
-1.31195e-06
-4.71556e-05
-2.34433e-06
-4.74412e-05
-3.55412e-06
-4.76948e-05
-4.95318e-06
-4.80711e-05
-6.58194e-06
-4.85567e-05
-8.503e-06
-4.91252e-05
-1.0806e-05
-4.97404e-05
-1.36293e-05
-5.03529e-05
-1.72117e-05
-5.08808e-05
-2.19364e-05
-5.11691e-05
-2.73838e-05
-5.1013e-05
-3.24107e-05
-4.98615e-05
-3.01475e-05
-4.67993e-05
-3.15622e-05
-4.58316e-05
-3.5122e-05
-4.54391e-05
-3.97563e-05
-4.54351e-05
-4.66051e-05
-4.54806e-05
-5.60695e-05
-4.49087e-05
-6.91513e-05
-4.31485e-05
-8.63242e-05
-4.10055e-05
-0.000105569
-3.96898e-05
-0.000118198
-2.64659e-05
3.46192e-08
-0.000108326
-1.47677e-06
-4.56788e-05
-2.96256e-06
-4.59555e-05
-4.53501e-06
-4.61224e-05
-6.2351e-06
-4.63711e-05
-8.11134e-06
-4.66804e-05
-1.02123e-05
-4.70243e-05
-1.25887e-05
-4.73639e-05
-1.52926e-05
-4.7649e-05
-1.83727e-05
-4.78007e-05
-2.18371e-05
-4.77047e-05
-2.56624e-05
-4.71877e-05
-2.95249e-05
-4.5999e-05
-3.2197e-05
-4.41272e-05
-3.49225e-05
-4.31062e-05
-3.81459e-05
-4.22157e-05
-4.22037e-05
-4.13773e-05
-4.73481e-05
-4.03362e-05
-5.34662e-05
-3.87907e-05
-6.02046e-05
-3.64101e-05
-6.81027e-05
-3.31075e-05
-8.06064e-05
-2.71862e-05
-9.498e-05
-1.20924e-05
6.47624e-06
-0.000101421
-1.51332e-06
-4.41655e-05
-3.04497e-06
-4.44238e-05
-4.6545e-06
-4.45129e-05
-6.38206e-06
-4.46435e-05
-8.27007e-06
-4.47925e-05
-1.03592e-05
-4.49351e-05
-1.26863e-05
-4.50369e-05
-1.52853e-05
-4.50501e-05
-1.81767e-05
-4.49094e-05
-2.13443e-05
-4.45371e-05
-2.46936e-05
-4.38384e-05
-2.79454e-05
-4.27472e-05
-3.06889e-05
-4.13838e-05
-3.36764e-05
-4.01187e-05
-3.70679e-05
-3.88242e-05
-4.10801e-05
-3.73652e-05
-4.58729e-05
-3.55434e-05
-5.15628e-05
-3.31008e-05
-5.82483e-05
-2.97246e-05
-6.62267e-05
-2.51292e-05
-7.47566e-05
-1.86563e-05
-7.75796e-05
-9.26937e-06
3.4124e-06
-7.45158e-05
-1.55761e-06
-4.26079e-05
-3.14929e-06
-4.28322e-05
-4.80267e-06
-4.28595e-05
-6.55423e-06
-4.2892e-05
-8.43471e-06
-4.2912e-05
-1.04738e-05
-4.28961e-05
-1.26976e-05
-4.28131e-05
-1.51243e-05
-4.26234e-05
-1.77553e-05
-4.22784e-05
-2.05682e-05
-4.17242e-05
-2.34957e-05
-4.09109e-05
-2.64186e-05
-3.98244e-05
-2.92725e-05
-3.85299e-05
-3.22823e-05
-3.71089e-05
-3.55769e-05
-3.55296e-05
-3.92463e-05
-3.36958e-05
-4.33293e-05
-3.14605e-05
-4.7793e-05
-2.86373e-05
-5.25122e-05
-2.50054e-05
-5.73742e-05
-2.02672e-05
-6.19591e-05
-1.40714e-05
-6.53137e-05
-5.91483e-06
3.43622e-06
-6.53374e-05
-1.57103e-06
-4.10369e-05
-3.17501e-06
-4.12282e-05
-4.83201e-06
-4.12025e-05
-6.56994e-06
-4.11541e-05
-8.41386e-06
-4.10681e-05
-1.0386e-05
-4.09239e-05
-1.25038e-05
-4.06953e-05
-1.47766e-05
-4.03506e-05
-1.72013e-05
-3.98538e-05
-1.97574e-05
-3.91681e-05
-2.24039e-05
-3.82644e-05
-2.50937e-05
-3.71346e-05
-2.78277e-05
-3.57959e-05
-3.0679e-05
-3.42576e-05
-3.37163e-05
-3.24924e-05
-3.69838e-05
-3.04284e-05
-4.04862e-05
-2.79581e-05
-4.41765e-05
-2.4947e-05
-4.79407e-05
-2.12412e-05
-5.15345e-05
-1.66735e-05
-5.45026e-05
-1.11033e-05
-5.58864e-05
-4.53105e-06
2.78545e-06
-5.52357e-05
-1.55983e-06
-3.94771e-05
-3.14936e-06
-3.96387e-05
-4.78317e-06
-3.95687e-05
-6.48274e-06
-3.94545e-05
-8.26792e-06
-3.92829e-05
-1.01551e-05
-3.90367e-05
-1.2156e-05
-3.86944e-05
-1.42756e-05
-3.8231e-05
-1.65102e-05
-3.76192e-05
-1.88456e-05
-3.68327e-05
-2.12595e-05
-3.58504e-05
-2.37333e-05
-3.46609e-05
-2.62697e-05
-3.32595e-05
-2.88925e-05
-3.16349e-05
-3.16277e-05
-2.97572e-05
-3.44838e-05
-2.75723e-05
-3.74371e-05
-2.50048e-05
-4.0419e-05
-2.19652e-05
-4.33002e-05
-1.83599e-05
-4.58671e-05
-1.41067e-05
-4.78016e-05
-9.16879e-06
-4.87083e-05
-3.62439e-06
2.28164e-06
-4.82045e-05
-1.52669e-06
-3.79504e-05
-3.07908e-06
-3.80863e-05
-4.66759e-06
-3.79802e-05
-6.30924e-06
-3.78129e-05
-8.0191e-06
-3.75731e-05
-9.80934e-06
-3.72465e-05
-1.1688e-05
-3.68158e-05
-1.3658e-05
-3.6261e-05
-1.57161e-05
-3.55612e-05
-1.78529e-05
-3.46959e-05
-2.00557e-05
-3.36477e-05
-2.23139e-05
-3.24026e-05
-2.46252e-05
-3.09482e-05
-2.69931e-05
-2.9267e-05
-2.94186e-05
-2.73317e-05
-3.1889e-05
-2.51019e-05
-3.43668e-05
-2.2527e-05
-3.67803e-05
-1.95517e-05
-3.90148e-05
-1.61254e-05
-4.09039e-05
-1.22176e-05
-4.22324e-05
-7.84028e-06
-4.27736e-05
-3.08315e-06
1.87301e-06
-4.2365e-05
-1.47519e-06
-3.64752e-05
-2.97231e-06
-3.65892e-05
-4.49844e-06
-3.64541e-05
-6.06688e-06
-3.62444e-05
-7.68915e-06
-3.59508e-05
-9.37421e-06
-3.55614e-05
-1.11277e-05
-3.50623e-05
-1.29511e-05
-3.44375e-05
-1.48419e-05
-3.36704e-05
-1.67934e-05
-3.27445e-05
-1.87966e-05
-3.16445e-05
-2.08429e-05
-3.03564e-05
-2.29252e-05
-2.88659e-05
-2.50367e-05
-2.71556e-05
-2.71653e-05
-2.5203e-05
-2.92877e-05
-2.29796e-05
-3.13617e-05
-2.0453e-05
-3.33214e-05
-1.7592e-05
-3.50725e-05
-1.43743e-05
-3.64931e-05
-1.0797e-05
-3.74421e-05
-6.89123e-06
-3.77877e-05
-2.73762e-06
1.53085e-06
-3.74455e-05
-1.40884e-06
-3.50664e-05
-2.83623e-06
-3.51618e-05
-4.28656e-06
-3.50038e-05
-5.77017e-06
-3.47608e-05
-7.29577e-06
-3.44252e-05
-8.86992e-06
-3.39873e-05
-1.04964e-05
-3.34358e-05
-1.21761e-05
-3.27579e-05
-1.39063e-05
-3.19401e-05
-1.56817e-05
-3.09691e-05
-1.74946e-05
-2.98316e-05
-1.93362e-05
-2.85148e-05
-2.11967e-05
-2.70054e-05
-2.30635e-05
-2.52888e-05
-2.49189e-05
-2.33477e-05
-2.67354e-05
-2.11631e-05
-2.84723e-05
-1.87161e-05
-3.00727e-05
-1.59916e-05
-3.14628e-05
-1.29842e-05
-3.25544e-05
-9.70533e-06
-3.32548e-05
-6.19085e-06
-3.34841e-05
-2.50834e-06
1.24367e-06
-3.31969e-05
-1.33066e-06
-3.37357e-05
-2.67693e-06
-3.38155e-05
-4.04108e-06
-3.36396e-05
-5.43105e-06
-3.33709e-05
-6.85335e-06
-3.30029e-05
-8.31268e-06
-3.2528e-05
-9.81152e-06
-3.19369e-05
-1.13499e-05
-3.12195e-05
-1.29251e-05
-3.03649e-05
-1.45322e-05
-2.9362e-05
-1.61639e-05
-2.81999e-05
-1.78109e-05
-2.68677e-05
-1.9462e-05
-2.53544e-05
-2.11022e-05
-2.36485e-05
-2.27118e-05
-2.17381e-05
-2.42635e-05
-1.96114e-05
-2.57206e-05
-1.7259e-05
-2.7036e-05
-1.46762e-05
-2.81529e-05
-1.18673e-05
-2.90083e-05
-8.84998e-06
-2.95398e-05
-5.65933e-06
-2.96975e-05
-2.35067e-06
1.00172e-06
-2.94555e-05
-1.24322e-06
-3.24925e-05
-2.49951e-06
-3.25592e-05
-3.76953e-06
-3.23696e-05
-5.05927e-06
-3.20811e-05
-6.37351e-06
-3.16887e-05
-7.7155e-06
-3.1186e-05
-9.08666e-06
-3.05658e-05
-1.04864e-05
-2.98198e-05
-1.19118e-05
-2.89394e-05
-1.3358e-05
-2.79158e-05
-1.48178e-05
-2.67401e-05
-1.62819e-05
-2.54036e-05
-1.77383e-05
-2.38979e-05
-1.9172e-05
-2.22148e-05
-2.05633e-05
-2.03467e-05
-2.18871e-05
-1.82876e-05
-2.31118e-05
-1.60343e-05
-2.41994e-05
-1.35886e-05
-2.51064e-05
-1.09602e-05
-2.57875e-05
-8.16883e-06
-2.62003e-05
-5.24652e-06
-2.63124e-05
-2.23859e-06
7.97829e-07
-2.61085e-05
-1.14864e-06
-3.13439e-05
-2.30817e-06
-3.13997e-05
-3.47806e-06
-3.11997e-05
-4.66275e-06
-3.08964e-05
-5.86563e-06
-3.04858e-05
-7.08883e-06
-2.99628e-05
-8.33295e-06
-2.93217e-05
-9.59684e-06
-2.85559e-05
-1.08775e-05
-2.76588e-05
-1.217e-05
-2.66233e-05
-1.34674e-05
-2.54427e-05
-1.47605e-05
-2.41105e-05
-1.60378e-05
-2.26207e-05
-1.72847e-05
-2.09679e-05
-1.84831e-05
-1.91483e-05
-1.96108e-05
-1.71599e-05
-2.06414e-05
-1.50036e-05
-2.15446e-05
-1.26855e-05
-2.22874e-05
-1.02174e-05
-2.28368e-05
-7.61939e-06
-2.31634e-05
-4.91991e-06
-2.32456e-05
-2.15636e-06
6.26344e-07
-2.30741e-05
-1.04865e-06
-3.02952e-05
-2.10632e-06
-3.0342e-05
-3.17164e-06
-3.01344e-05
-4.24783e-06
-2.98202e-05
-5.33721e-06
-2.93964e-05
-6.44104e-06
-2.8859e-05
-7.55926e-06
-2.82034e-05
-8.69038e-06
-2.74248e-05
-9.83129e-06
-2.65179e-05
-1.09772e-05
-2.54774e-05
-1.21213e-05
-2.42985e-05
-1.32552e-05
-2.29766e-05
-1.4368e-05
-2.15079e-05
-1.54463e-05
-1.98896e-05
-1.64741e-05
-1.81205e-05
-1.74325e-05
-1.62015e-05
-1.82997e-05
-1.41365e-05
-1.90516e-05
-1.19335e-05
-1.96633e-05
-9.60572e-06
-2.01106e-05
-7.1721e-06
-2.03726e-05
-4.65785e-06
-2.04348e-05
-2.09419e-06
4.82783e-07
-2.02912e-05
-9.44629e-07
-2.93506e-05
-1.89668e-06
-2.939e-05
-2.85425e-06
-2.91768e-05
-3.81959e-06
-2.88549e-05
-4.79421e-06
-2.84218e-05
-5.77869e-06
-2.78745e-05
-6.77254e-06
-2.72096e-05
-7.77403e-06
-2.64233e-05
-8.78005e-06
-2.55118e-05
-9.78601e-06
-2.44715e-05
-1.07857e-05
-2.32988e-05
-1.17713e-05
-2.19911e-05
-1.27329e-05
-2.05463e-05
-1.36588e-05
-1.89637e-05
-1.45353e-05
-1.72441e-05
-1.53463e-05
-1.53904e-05
-1.60742e-05
-1.34085e-05
-1.67001e-05
-1.13076e-05
-1.7205e-05
-9.10081e-06
-1.75711e-05
-6.80605e-06
-1.77833e-05
-4.44558e-06
-1.78316e-05
-2.04587e-06
3.63446e-07
-1.77123e-05
-8.37684e-07
-2.85129e-05
-1.68141e-06
-2.85463e-05
-2.529e-06
-2.83292e-05
-3.38198e-06
-2.80019e-05
-4.24123e-06
-2.75625e-05
-5.10686e-06
-2.70089e-05
-5.9781e-06
-2.63384e-05
-6.8531e-06
-2.55483e-05
-7.72888e-06
-2.46361e-05
-8.60118e-06
-2.35992e-05
-9.4644e-06
-2.24356e-05
-1.03115e-05
-2.1144e-05
-1.11339e-05
-1.97239e-05
-1.19214e-05
-1.81761e-05
-1.26625e-05
-1.6503e-05
-1.3344e-05
-1.4709e-05
-1.39516e-05
-1.28009e-05
-1.44708e-05
-1.07884e-05
-1.48868e-05
-8.68472e-06
-1.51866e-05
-6.50625e-06
-1.53593e-05
-4.27286e-06
-1.53978e-05
-2.00737e-06
2.65343e-07
-1.52997e-05
-7.28673e-07
-2.77842e-05
-1.46217e-06
-2.78128e-05
-2.19831e-06
-2.75931e-05
-2.93804e-06
-2.72622e-05
-3.6818e-06
-2.68188e-05
-4.42938e-06
-2.62613e-05
-5.17984e-06
-2.55879e-05
-5.93138e-06
-2.47968e-05
-6.68121e-06
-2.38862e-05
-7.42552e-06
-2.28549e-05
-8.15937e-06
-2.17018e-05
-8.87664e-06
-2.04267e-05
-9.57002e-06
-1.90305e-05
-1.0231e-05
-1.75152e-05
-1.08499e-05
-1.58841e-05
-1.14161e-05
-1.41427e-05
-1.19185e-05
-1.22985e-05
-1.23454e-05
-1.03614e-05
-1.2686e-05
-8.34411e-06
-1.29304e-05
-6.26184e-06
-1.30708e-05
-4.1325e-06
-1.3102e-05
-1.97611e-06
1.86012e-07
-1.30227e-05
-6.18232e-07
-2.7166e-05
-1.24023e-06
-2.71908e-05
-1.86398e-06
-2.69693e-05
-2.49003e-06
-2.66361e-05
-3.11849e-06
-2.61903e-05
-3.74898e-06
-2.56308e-05
-4.3805e-06
-2.49564e-05
-5.01137e-06
-2.41659e-05
-5.63912e-06
-2.32585e-05
-6.26043e-06
-2.22336e-05