/*--------------------------------*- C++ -*----------------------------------*\
| =========                 |                                                 |
| \\      /  F ield         | OpenFOAM: The Open Source CFD Toolbox           |
|  \\    /   O peration     | Version:  2.4.0                                 |
|   \\  /    A nd           | Web:      www.OpenFOAM.org                      |
|    \\/     M anipulation  |                                                 |
\*---------------------------------------------------------------------------*/
FoamFile
{
    version     2.0;
    format      ascii;
    class       surfaceScalarField;
    location    "0.05";
    object      phi.mercury;
}
// * * * * * * * * * * * * * * * * * * * * * * * * * * * * * * * * * * * * * //

dimensions      [0 3 -1 0 0 0 0];

internalField   nonuniform List<scalar> 
4432
(
1.60818e-06
-1.60819e-06
3.27928e-06
-1.6711e-06
5.07961e-06
-1.80033e-06
7.08305e-06
-2.00345e-06
9.37627e-06
-2.29321e-06
1.20669e-05
-2.69068e-06
1.52941e-05
-3.22716e-06
1.92555e-05
-3.96142e-06
2.42049e-05
-4.9494e-06
3.04982e-05
-6.29323e-06
3.96122e-05
-9.11402e-06
5.3714e-05
-1.41532e-05
6.09505e-05
-1.16087e-05
6.26394e-05
-2.27474e-05
6.74366e-05
-4.99442e-05
6.84898e-05
-7.73192e-05
4.01156e-05
-5.26349e-05
3.56705e-05
5.20299e-06
2.99092e-05
5.15042e-06
2.45906e-05
5.27529e-06
1.81526e-05
6.43061e-06
9.92984e-06
8.21928e-06
9.9277e-06
1.59438e-06
-3.20256e-06
3.2509e-06
-3.32762e-06
5.03499e-06
-3.58442e-06
7.01934e-06
-3.98779e-06
9.2888e-06
-4.56268e-06
1.19484e-05
-5.35027e-06
1.51328e-05
-6.41159e-06
1.90379e-05
-7.86654e-06
2.39049e-05
-9.81633e-06
3.01661e-05
-1.25545e-05
3.86446e-05
-1.75925e-05
5.06313e-05
-2.62965e-05
5.55553e-05
-2.61436e-05
5.81729e-05
-3.62435e-05
5.59427e-05
-5.67542e-05
4.09661e-05
-6.61849e-05
3.9781e-05
4.57297e-07
3.47392e-05
1.23146e-05
2.99294e-05
9.92836e-06
2.48867e-05
1.03069e-05
1.85834e-05
1.27287e-05
1.03009e-05
1.64973e-05
2.02231e-05
1.5664e-06
-4.76897e-06
3.19339e-06
-4.95461e-06
4.94463e-06
-5.33566e-06
6.8905e-06
-5.93366e-06
9.11233e-06
-6.78451e-06
1.17097e-05
-7.94769e-06
1.48097e-05
-9.51159e-06
1.85912e-05
-1.1648e-05
2.3275e-05
-1.45001e-05
2.92083e-05
-1.84877e-05
3.71782e-05
-2.55624e-05
4.67072e-05
-3.63178e-05
4.80734e-05
-4.12115e-05
4.86089e-05
-4.70193e-05
4.13008e-05
-6.78428e-05
2.62588e-05
-5.36486e-05
3.77791e-05
2.19165e-05
3.40292e-05
1.64981e-05
2.99836e-05
1.39326e-05
2.54309e-05
1.48466e-05
1.94254e-05
1.87306e-05
1.10744e-05
2.48462e-05
3.12968e-05
1.52488e-06
-6.29385e-06
3.10807e-06
-6.5378e-06
4.81072e-06
-7.03832e-06
6.69989e-06
-7.82283e-06
8.8518e-06
-8.93642e-06
1.13584e-05
-1.04543e-05
1.43354e-05
-1.24886e-05
1.7936e-05
-1.52486e-05
2.23532e-05
-1.89173e-05
2.7846e-05
-2.39805e-05
3.4978e-05
-3.26944e-05
4.21379e-05
-4.46649e-05
4.13234e-05
-5.30947e-05
4.09706e-05
-5.56846e-05
3.18282e-05
-7.0232e-05
2.32412e-05
-2.59323e-05
3.59793e-05
2.66271e-05
3.33567e-05
1.94534e-05
3.01569e-05
1.71269e-05
2.63053e-05
1.86928e-05
2.07904e-05
2.42419e-05
1.23499e-05
3.32841e-05
4.36423e-05
1.47032e-06
-7.76417e-06
2.99601e-06
-8.06349e-06
4.63508e-06
-8.67739e-06
6.45049e-06
-9.63824e-06
8.51191e-06
-1.09978e-05
1.09019e-05
-1.28443e-05
1.3722e-05
-1.53087e-05
1.70967e-05
-1.86233e-05
2.11846e-05
-2.30052e-05
2.61782e-05
-2.89742e-05
3.23362e-05
-3.88524e-05
3.71215e-05
-5.15742e-05
3.52093e-05
-6.09708e-05
3.39552e-05
-6.23772e-05
2.32514e-05
-7.29569e-05
2.6581e-05
2.52943e-06
3.40013e-05
2.77633e-05
3.2744e-05
2.10813e-05
3.0509e-05
1.93698e-05
2.7558e-05
2.16399e-05
2.28322e-05
2.89671e-05
1.45365e-05
4.15793e-05
5.81809e-05
1.40339e-06
-9.16756e-06
2.8586e-06
-9.51871e-06
4.42004e-06
-1.02388e-05
6.14611e-06
-1.13643e-05
8.09864e-06
-1.29504e-05
1.03496e-05
-1.50953e-05
1.29842e-05
-1.79434e-05
1.61008e-05
-2.17398e-05
1.98241e-05
-2.67285e-05
2.43001e-05
-3.34503e-05
2.94473e-05
-4.39995e-05
3.20005e-05
-5.72259e-05
2.99256e-05
-6.56311e-05
2.80116e-05
-6.68488e-05
1.5288e-05
-7.13091e-05
2.87846e-05
2.26959e-05
3.26918e-05
2.7951e-05
3.21874e-05
2.17205e-05
3.10293e-05
2.05354e-05
2.92651e-05
2.34031e-05
2.56508e-05
3.25811e-05
1.75671e-05
4.96638e-05
7.57476e-05
1.32483e-06
-1.04924e-05
2.69734e-06
-1.08912e-05
4.16805e-06
-1.17095e-05
5.79099e-06
-1.29872e-05
7.61865e-06
-1.4778e-05
9.71159e-06
-1.71882e-05
1.21375e-05
-2.03692e-05
1.49726e-05
-2.45749e-05
1.83069e-05
-3.00628e-05
2.22671e-05
-3.74105e-05
2.64957e-05
-4.82282e-05
2.71142e-05
-6.18835e-05
2.52232e-05
-6.8338e-05
2.29647e-05
-6.95209e-05
1.32349e-05
-6.42819e-05
2.89429e-05
3.1178e-05
3.13639e-05
2.67448e-05
3.18658e-05
2.12494e-05
3.18161e-05
2.05846e-05
3.13035e-05
2.39148e-05
2.9128e-05
3.47561e-05
2.26185e-05
5.61735e-05
9.83674e-05
1.23469e-06
-1.17271e-05
2.51205e-06
-1.21686e-05
3.87832e-06
-1.30758e-05
5.38433e-06
-1.44932e-05
7.07338e-06
-1.64671e-05
8.99267e-06
-1.91075e-05
1.11896e-05
-2.25662e-05
1.37207e-05
-2.7106e-05
1.66463e-05
-3.29884e-05
2.00348e-05
-4.0799e-05
2.3671e-05
-5.18644e-05
2.25326e-05
-6.56724e-05
2.08176e-05
-7.02719e-05
1.81743e-05
-7.17706e-05
1.19783e-05
-5.31273e-05
2.77849e-05
3.18496e-05
3.0185e-05
2.45407e-05
3.16085e-05
1.98317e-05
3.272e-05
1.94729e-05
3.3643e-05
2.29916e-05
3.35304e-05
3.48697e-05
3.00825e-05
5.9623e-05
0.00012845
-1.54164e-07
1.49994e-07
6.63101e-06
-6.79106e-06
1.32393e-05
-6.6151e-06
1.76883e-05
-4.45596e-06
1.97717e-05
-2.08823e-06
2.01436e-05
-3.7549e-07
1.94969e-05
6.43903e-07
1.82067e-05
1.28797e-06
1.66154e-05
1.58963e-06
1.4895e-05
1.71893e-06
1.31324e-05
1.76147e-06
1.13759e-05
1.75539e-06
9.6493e-06
1.72575e-06
7.96146e-06
1.68699e-06
6.31316e-06
1.6476e-06
4.70007e-06
1.61239e-06
3.11525e-06
1.58422e-06
1.55042e-06
1.56424e-06
1.54998e-06
-6.79205e-07
8.08271e-07
6.79843e-06
-1.42787e-05
1.39492e-05
-1.37821e-05
1.85389e-05
-9.05714e-06
2.05649e-05
-4.12062e-06
2.08129e-05
-6.28008e-07
2.00207e-05
1.43226e-06
1.86575e-05
2.64803e-06
1.70073e-05
3.23728e-06
1.52316e-05
3.49259e-06
1.34208e-05
3.57068e-06
1.1621e-05
3.55377e-06
9.85446e-06
3.49109e-06
8.12925e-06
3.41117e-06
6.4454e-06
3.33057e-06
4.79813e-06
3.25888e-06
3.17999e-06
3.20168e-06
1.58155e-06
3.16207e-06
3.13101e-06
-2.15275e-06
2.96424e-06
6.54256e-06
-2.29762e-05
1.469e-05
-2.19321e-05
1.94025e-05
-1.37729e-05
2.1205e-05
-5.92607e-06
2.12144e-05
-6.40007e-07
2.0233e-05
2.41132e-06
1.87697e-05
4.10938e-06
1.70607e-05
4.94479e-06
1.52517e-05
5.30048e-06
1.34228e-05
5.39867e-06
1.1614e-05
5.36177e-06
9.84359e-06
5.26075e-06
8.11757e-06
5.13648e-06
6.43469e-06
5.01283e-06
4.78943e-06
4.90354e-06
3.1739e-06
4.81667e-06
1.57858e-06
4.75687e-06
4.70922e-06
-5.13772e-06
8.09453e-06
5.95594e-06
-3.40753e-05
1.59365e-05
-3.19468e-05
2.07787e-05
-1.86267e-05
2.21577e-05
-7.30892e-06
2.17773e-05
-2.63606e-07
2.05437e-05
3.64076e-06
1.89229e-05
5.72673e-06
1.71264e-05
6.73852e-06
1.52701e-05
7.15452e-06
1.34165e-05
7.25051e-06
1.15959e-05
7.18091e-06
9.82127e-06
7.0342e-06
8.09531e-06
6.86141e-06
6.41499e-06
6.69226e-06
4.77376e-06
6.544e-06
3.16309e-06
6.42668e-06
1.57317e-06
6.34619e-06
6.28188e-06
-9.24931e-06
1.73253e-05
5.60058e-06
-4.87757e-05
1.83504e-05
-4.72328e-05
2.28328e-05
-2.49412e-05
2.34358e-05
-7.93329e-06
2.24996e-05
6.71252e-07
2.09265e-05
5.21246e-06
1.91086e-05
7.54338e-06
1.7203e-05
8.64319e-06
1.52883e-05
9.06867e-06
1.34043e-05
9.13388e-06
1.15696e-05
9.01517e-06
9.79013e-06
8.81323e-06
8.06477e-06
8.58633e-06
6.3882e-06
8.36839e-06
4.75256e-06
8.17921e-06
3.14851e-06
8.03032e-06
1.56582e-06
7.92849e-06
7.84748e-06
-1.14336e-05
2.69439e-05
1.77875e-05
-6.3423e-05
3.73684e-05
-7.14481e-05
2.9077e-05
-3.04478e-05
2.50776e-05
-7.03302e-06
2.33397e-05
2.39546e-06
2.13553e-05
7.19417e-06
1.93109e-05
9.58509e-06
1.72818e-05
1.06701e-05
1.5301e-05
1.10476e-05
1.33834e-05
1.105e-05
1.15334e-05
1.08639e-05
9.74923e-06
1.05963e-05
8.02543e-06
1.03092e-05
6.35403e-06
1.0039e-05
4.72565e-06
9.80687e-06
3.13007e-06
9.62527e-06
1.5565e-06
9.50148e-06
9.4034e-06
3.16072e-05
-1.08791e-05
6.92089e-05
-6.73944e-05
7.08732e-05
-8.30663e-05
3.21488e-05
-2.70595e-05
2.6857e-05
-4.26875e-06
2.42321e-05
5.00463e-06
2.17973e-05
9.62668e-06
1.95116e-05
1.18687e-05
1.73523e-05
1.28274e-05
1.53026e-05
1.30957e-05
1.33503e-05
1.30009e-05
1.14853e-05
1.27278e-05
9.69749e-06
1.23831e-05
7.97665e-06
1.20292e-05
6.3121e-06
1.17028e-05
4.69284e-06
1.14254e-05
3.10765e-06
1.12098e-05
1.54516e-06
1.10633e-05
1.09482e-05
9.10811e-05
-2.4372e-05
0.00010465
-7.67e-05
5.37304e-05
-6.66615e-05
3.29303e-05
-1.87943e-05
2.85031e-05
1.54675e-07
2.50909e-05
8.4157e-06
2.22132e-05
1.2503e-05
1.96902e-05
1.43905e-05
1.74035e-05
1.51129e-05
1.52869e-05
1.52114e-05
1.33018e-05
1.49852e-05
1.14235e-05
1.46054e-05
9.63382e-06
1.41721e-05
7.91785e-06
1.37446e-05
6.26211e-06
1.3358e-05
4.65395e-06
1.30331e-05
3.08118e-06
1.27822e-05
1.53184e-06
1.26124e-05
1.24796e-05
2.27046e-06
-1.39975e-05
4.60882e-06
-1.45069e-05
7.09502e-06
-1.5562e-05
9.85643e-06
-1.72546e-05
1.30207e-05
-1.96313e-05
1.6552e-05
-2.26388e-05
2.04355e-05
-2.64497e-05
2.48115e-05
-3.14821e-05
2.96134e-05
-3.77909e-05
3.51135e-05
-4.6302e-05
4.04375e-05
-5.7202e-05
3.38441e-05
-7.21798e-05
3.02525e-05
-7.37339e-05
2.43102e-05
-7.62254e-05
2.15551e-05
-1.7964e-05
5.38186e-05
2.32159e-05
6.08668e-05
1.74875e-05
6.64785e-05
1.42214e-05
7.22431e-05
1.37086e-05
7.94754e-05
1.57606e-05
9.13249e-05
2.30217e-05
0.000122335
2.86149e-05
5.68819e-05
0.000193909
1.77505e-06
-1.57981e-05
3.59901e-06
-1.6359e-05
5.52054e-06
-1.7517e-05
7.60968e-06
-1.93874e-05
1.00166e-05
-2.21042e-05
1.27141e-05
-2.54319e-05
1.53877e-05
-2.9287e-05
1.84844e-05
-3.48212e-05
2.11863e-05
-4.09004e-05
2.42059e-05
-4.99509e-05
2.66277e-05
-6.05947e-05
1.70113e-05
-7.88251e-05
1.39878e-05
-7.91696e-05
1.15284e-05
-6.79486e-05
2.83024e-05
7.45992e-06
4.82853e-05
1.14343e-05
5.76701e-05
8.25546e-06
6.59689e-05
5.94218e-06
7.48177e-05
4.8626e-06
8.57467e-05
4.83305e-06
0.000101875
6.89731e-06
0.00012492
5.57136e-06
1.52738e-05
0.000166538
1.41752e-06
-2.09618e-05
2.81116e-06
-2.15633e-05
4.20312e-06
-2.28081e-05
5.70048e-06
-2.49109e-05
7.17371e-06
-2.80251e-05
8.42331e-06
-3.15277e-05
1.01387e-05
-3.66795e-05
1.13164e-05
-4.23124e-05
1.26438e-05
-4.99313e-05
1.2376e-05
-5.83457e-05
1.10089e-05
-6.89008e-05
4.63057e-06
-8.26278e-05
2.78463e-06
-8.35453e-05
3.2675e-06
-3.82577e-05
3.30766e-05
1.50884e-07
4.52927e-05
-5.7872e-07
5.54376e-05
-1.85012e-06
6.49243e-05
-3.53676e-06
7.50927e-05
-5.30329e-06
8.71043e-05
-7.17551e-06
0.00010251
-8.50623e-06
0.000121946
-1.38597e-05
-1.9027e-05
0.000156253
5.37108e-07
-1.86e-05
9.68802e-07
-1.90056e-05
8.54897e-07
-1.95285e-05
1.03082e-06
-2.65921e-05
2.51297e-06
-4.1031e-05
2.37603e-06
-3.8182e-05
4.23065e-06
-5.52096e-05
3.97578e-06
-5.14381e-05
5.60205e-06
-6.80628e-05
5.44855e-06
-6.4022e-05
4.47585e-06
-7.56934e-05
2.15254e-06
-7.44943e-05
3.57909e-06
-5.55376e-05
9.08041e-06
-1.78772e-05
3.44112e-05
-1.21558e-05
4.44501e-05
-1.06224e-05
5.3838e-05
-1.12375e-05
6.32562e-05
-1.29539e-05
7.34022e-05
-1.54476e-05
8.49949e-05
-1.87657e-05
9.89368e-05
-2.24441e-05
0.00011638
-3.13006e-05
-4.06351e-05
0.000137995
6.38132e-06
-2.3067e-05
9.49511e-06
-2.37026e-05
1.15231e-05
-2.48782e-05
1.18668e-05
-1.96793e-05
1.64226e-05
-2.09261e-05
1.61287e-05
-2.15825e-05
1.73933e-05
-2.69084e-05
1.67764e-05
-2.76541e-05
1.61477e-05
-3.39368e-05
1.6807e-05
-3.36427e-05
1.53125e-05
-3.8847e-05
1.80709e-05
-3.86097e-05
1.53554e-05
-2.77103e-05
2.82802e-05
-2.17652e-05
3.64082e-05
-1.891e-05
4.41208e-05
-1.83358e-05
5.22573e-05
-1.93741e-05
6.08629e-05
-2.15588e-05
7.01992e-05
-2.4782e-05
8.06011e-05
-2.91653e-05
9.25476e-05
-3.4388e-05
0.000106291
-4.50403e-05
-5.48666e-05
0.000120526
4.56416e-06
-2.74973e-05
9.12649e-06
-2.80459e-05
1.36045e-05
-2.91701e-05
1.73898e-05
-3.10102e-05
2.17845e-05
-3.30044e-05
2.52032e-05
-3.58531e-05
2.91604e-05
-3.88973e-05
3.17136e-05
-4.29364e-05
3.30995e-05
-4.7154e-05
3.2827e-05
-5.17761e-05
3.09167e-05
-5.55562e-05
2.77851e-05
-5.85917e-05
2.75542e-05
-3.93349e-05
3.1215e-05
-2.56056e-05
3.66896e-05
-2.40492e-05
4.30627e-05
-2.47093e-05
5.00931e-05
-2.64044e-05
5.76822e-05
-2.91472e-05
6.58781e-05
-3.29764e-05
7.47617e-05
-3.80472e-05
8.4519e-05
-4.41433e-05
9.45727e-05
-5.50932e-05
-6.34329e-05
0.00010314
3.97265e-06
-3.14699e-05
7.91402e-06
-3.19872e-05
1.17566e-05
-3.30125e-05
1.52988e-05
-3.45521e-05
1.87693e-05
-3.64754e-05
2.18415e-05
-3.89254e-05
2.46614e-05
-4.17205e-05
2.67654e-05
-4.50432e-05
2.81422e-05
-4.85605e-05
2.84988e-05
-5.21471e-05
2.81837e-05
-5.52849e-05
2.74439e-05
-5.78669e-05
2.81964e-05
-4.04629e-05
3.1493e-05
-2.87611e-05
3.60587e-05
-2.82691e-05
4.13546e-05
-3.00056e-05
4.73423e-05
-3.23921e-05
5.38586e-05
-3.56628e-05
6.08295e-05
-3.99461e-05
6.81778e-05
-4.53945e-05
7.59133e-05
-5.18782e-05
8.33184e-05
-6.2498e-05
-6.96925e-05
8.94644e-05
3.47223e-06
-3.49423e-05
6.89837e-06
-3.54134e-05
1.02143e-05
-3.63285e-05
1.33453e-05
-3.7683e-05
1.63093e-05
-3.94393e-05
1.89811e-05
-4.15969e-05
2.13661e-05
-4.41051e-05
2.32486e-05
-4.69253e-05
2.4609e-05
-4.99205e-05
2.53802e-05
-5.29181e-05
2.57705e-05
-5.56753e-05
2.6089e-05
-5.81856e-05
2.72462e-05
-4.19402e-05
3.03656e-05
-3.16421e-05
3.44045e-05
-3.20172e-05
3.89421e-05
-3.45435e-05
4.40397e-05
-3.74897e-05
4.9555e-05
-4.11776e-05
5.53678e-05
-4.57581e-05
6.13276e-05
-5.13538e-05
6.7335e-05
-5.78857e-05
7.26301e-05
-6.77935e-05
-7.37532e-05
7.56699e-05
3.00812e-06
-3.79507e-05
5.97219e-06
-3.83777e-05
8.84259e-06
-3.91992e-05
1.15723e-05
-4.04129e-05
1.41286e-05
-4.19958e-05
1.64556e-05
-4.39238e-05
1.85062e-05
-4.61557e-05
2.02141e-05
-4.86331e-05
2.15558e-05
-5.12622e-05
2.2562e-05
-5.39244e-05
2.33801e-05
-5.64937e-05
2.42588e-05
-5.9068e-05
2.53715e-05
-4.33669e-05
2.83966e-05
-3.43622e-05
3.20442e-05
-3.54358e-05
3.59784e-05
-3.8478e-05
4.03135e-05
-4.18248e-05
4.4941e-05
-4.58047e-05
4.97348e-05
-5.05514e-05
5.4527e-05
-5.61461e-05
5.91623e-05
-6.25213e-05
6.28797e-05
-7.15112e-05
-7.61758e-05
6.18338e-05
2.59087e-06
-4.05419e-05
5.14321e-06
-4.09304e-05
7.61671e-06
-4.16731e-05
9.9739e-06
-4.27705e-05
1.21806e-05
-4.42027e-05
1.41998e-05
-4.59432e-05
1.59984e-05
-4.79545e-05
1.755e-05
-5.01848e-05
1.88554e-05
-5.25678e-05
1.99569e-05
-5.50262e-05
2.09599e-05
-5.74969e-05
2.19818e-05
-6.00914e-05
2.30986e-05
-4.47764e-05
2.59536e-05
-3.68826e-05
2.92022e-05
-3.85279e-05
3.26166e-05
-4.18927e-05
3.62932e-05
-4.55013e-05
4.01535e-05
-4.96646e-05
4.40891e-05
-5.44866e-05
4.79555e-05
-6.00125e-05
5.16149e-05
-6.61812e-05
5.44384e-05
-7.4335e-05
-7.83662e-05
4.88282e-05
2.21279e-06
-4.27552e-05
4.39306e-06
-4.31112e-05
6.50786e-06
-4.37884e-05
8.52677e-06
-4.47899e-05
1.04217e-05
-4.6098e-05
1.21667e-05
-4.76886e-05
1.37416e-05
-4.95296e-05
1.51375e-05
-5.15809e-05
1.6365e-05
-5.37955e-05
1.74621e-05
-5.61234e-05
1.84938e-05
-5.85289e-05
1.94825e-05
-6.10768e-05
2.05669e-05
-4.60903e-05
2.32021e-05
-3.91846e-05
2.60518e-05
-4.12804e-05
2.89915e-05
-4.48326e-05
3.20886e-05
-4.85983e-05
3.52872e-05
-5.2863e-05
3.85059e-05
-5.77051e-05
4.16456e-05
-6.31523e-05
4.46371e-05
-6.9173e-05
4.70535e-05
-7.67516e-05
-8.12112e-05
3.63595e-05
1.86827e-06
-4.46242e-05
3.70914e-06
-4.49528e-05
5.49597e-06
-4.55759e-05
7.20476e-06
-4.64993e-05
8.81389e-06
-4.77077e-05
1.03051e-05
-4.91803e-05
1.16665e-05
-5.08914e-05
1.28966e-05
-5.28114e-05
1.4009e-05
-5.49083e-05
1.50366e-05
-5.71514e-05
1.60349e-05
-5.95276e-05
1.70687e-05
-6.2122e-05
1.78683e-05
-4.70621e-05
2.02492e-05
-4.12367e-05
2.27085e-05
-4.36864e-05
2.52052e-05
-4.73296e-05
2.77817e-05
-5.1175e-05
3.03988e-05
-5.548e-05
3.30001e-05
-6.03065e-05
3.55264e-05
-6.56789e-05
3.79572e-05
-7.16042e-05
4.00402e-05
-7.88347e-05
-8.43065e-05
2.52522e-05
1.55277e-06
-4.61777e-05
3.08134e-06
-4.64823e-05
4.56379e-06
-4.70592e-05
5.98349e-06
-4.79198e-05
7.32523e-06
-4.90503e-05
8.57494e-06
-5.04307e-05
9.72465e-06
-5.20418e-05
1.07757e-05
-5.38631e-05
1.17401e-05
-5.58733e-05
1.26413e-05
-5.80531e-05
1.35124e-05
-6.03992e-05
1.43436e-05
-6.2953e-05
1.50229e-05
-4.78773e-05
1.71621e-05
-4.30514e-05
1.92538e-05
-4.57533e-05
2.13343e-05
-4.94106e-05
2.34337e-05
-5.32747e-05
2.55249e-05
-5.75714e-05
2.75696e-05
-6.23515e-05
2.9531e-05
-6.76407e-05
3.14015e-05
-7.34752e-05
3.29569e-05
-8.03904e-05
-8.67996e-05
1.72836e-05
1.25254e-06
-4.74316e-05
2.49104e-06
-4.77219e-05
3.69069e-06
-4.82599e-05
4.83998e-06
-4.90701e-05
5.92939e-06
-5.01406e-05
6.94601e-06
-5.14483e-05
7.88303e-06
-5.29797e-05
8.74297e-06
-5.47239e-05
9.53545e-06
-5.66665e-05
1.02777e-05
-5.87961e-05
1.09938e-05
-6.11161e-05
1.16756e-05
-6.36334e-05
1.21497e-05
-4.8411e-05
1.40142e-05
-4.46238e-05
1.57555e-05
-4.74865e-05
1.74399e-05
-5.10957e-05
1.90931e-05
-5.49283e-05
2.0696e-05
-5.91745e-05
2.2221e-05
-6.38769e-05
2.36431e-05
-6.90631e-05
2.49667e-05
-7.47991e-05
2.59042e-05
-8.13279e-05
-8.83933e-05
1.18607e-05
9.38988e-07
-4.83718e-05
1.88124e-06
-4.86656e-05
2.82807e-06
-4.92082e-05
3.7453e-06
-4.99888e-05
4.60177e-06
-5.09985e-05
5.39268e-06
-5.22406e-05
6.11606e-06
-5.37044e-05
6.7766e-06
-5.53857e-05
7.37972e-06
-5.72708e-05
7.93677e-06
-5.93542e-05
8.47473e-06
-6.16548e-05
8.99241e-06
-6.41558e-05
9.28612e-06
-4.86108e-05
1.0851e-05
-4.59424e-05
1.22644e-05
-4.88989e-05
1.35711e-05
-5.2403e-05
1.48016e-05
-5.61593e-05
1.59448e-05
-6.0318e-05
1.69751e-05
-6.49073e-05
1.78676e-05
-6.99559e-05
1.8646e-05
-7.55776e-05
1.90672e-05
-8.17492e-05
-8.93916e-05
7.89689e-06
7.03325e-07
-4.9077e-05
1.38105e-06
-4.93452e-05
2.03169e-06
-4.98608e-05
2.65786e-06
-5.0617e-05
3.25871e-06
-5.16014e-05
3.83043e-06
-5.28144e-05
4.37135e-06
-5.42475e-05
4.86054e-06
-5.58771e-05
5.27133e-06
-5.7684e-05
5.61128e-06
-5.96967e-05
5.91256e-06
-6.19591e-05
6.19305e-06
-6.44474e-05
6.44596e-06
-4.85459e-05
7.72427e-06
-4.70446e-05
8.83728e-06
-5.0013e-05
9.77769e-06
-5.3345e-05
1.06019e-05
-5.69851e-05
1.13142e-05
-6.10327e-05
1.18898e-05
-6.54875e-05
1.2204e-05
-7.0278e-05
1.23838e-05
-7.57688e-05
1.23622e-05
-8.17429e-05
-8.98879e-05
4.72803e-06
4.82515e-07
-5.0152e-05
9.62e-07
-5.04258e-05
1.41699e-06
-5.09329e-05
1.84249e-06
-5.16837e-05
2.23398e-06
-5.26662e-05
2.57947e-06
-5.38731e-05
2.86035e-06
-5.52892e-05
3.06164e-06
-5.6892e-05
3.21433e-06
-5.8709e-05
3.29102e-06
-6.07086e-05
3.21957e-06
-6.288e-05
2.94457e-06
-6.52242e-05
3.51747e-06
-4.90886e-05
4.72586e-06
-4.87882e-05
5.54096e-06
-5.15109e-05
6.08101e-06
-5.46786e-05
6.46697e-06
-5.82937e-05
6.72518e-06
-6.23621e-05
6.87517e-06
-6.68584e-05
6.55168e-06
-7.12434e-05
5.91957e-06
-7.64224e-05
5.33011e-06
-8.22636e-05
-8.9199e-05
2.46766e-06
1.68557e-07
-6.26735e-05
3.35842e-07
-6.2924e-05
4.92857e-07
-6.33796e-05
6.33327e-07
-6.40538e-05
7.52783e-07
-6.49339e-05
8.48402e-07
-6.60029e-05
9.18855e-07
-6.72403e-05
9.57421e-07
-6.86227e-05
9.41361e-07
-7.01215e-05
8.16367e-07
-7.16854e-05
3.75758e-07
-7.32242e-05
-4.29573e-07
-7.46611e-05
6.98668e-07
-6.13076e-05
1.75419e-06
-6.22222e-05
2.01034e-06
-6.44799e-05
2.00387e-06
-6.73314e-05
1.84612e-06
-7.04538e-05
1.59322e-06
-7.37149e-05
1.29168e-06
-7.70404e-05
1.08652e-06
-8.06968e-05
1.35472e-07
-8.34645e-05
-2.88508e-07
-8.58476e-05
-8.72955e-05
7.8457e-07
8.85741e-09
-6.98133e-05
2.0646e-08
-7.03683e-05
3.44822e-08
-7.04252e-05
4.65073e-08
-7.0503e-05
5.82465e-08
-7.05701e-05
6.9577e-08
-7.05892e-05
7.97883e-08
-7.0509e-05
8.69405e-08
-7.0252e-05
7.95975e-08
-6.97064e-05
3.68213e-08
-6.87526e-05
-2.35092e-09
-6.83049e-05
-1.43915e-08
-6.94153e-05
1.25825e-07
-6.44499e-05
2.58483e-07
-6.12696e-05
1.99005e-07
-5.5092e-05
6.774e-08
-5.1426e-05
-5.22298e-08
-5.12856e-05
-1.88706e-07
-5.21305e-05
-7.98573e-07
-5.3222e-05
-1.23917e-06
-5.5875e-05
-1.63907e-06
-5.89554e-05
-3.75189e-06
-6.51537e-05
-5.42317e-05
-2.43336e-05
-1.27413e-06
-4.84785e-05
-2.85579e-06
-4.84838e-05
-4.47468e-06
-4.89146e-05
-6.23455e-06
-4.94798e-05
-8.20894e-06
-5.01944e-05
-1.04659e-05
-5.10543e-05
-1.30674e-05
-5.20502e-05
-1.60537e-05
-5.31819e-05
-1.94097e-05
-5.44675e-05
-2.29525e-05
-5.58972e-05
-2.76008e-05
-5.64629e-05
-3.54276e-05
-5.489e-05
-4.0389e-05
-4.45432e-05
-4.30908e-05
-4.72515e-05
-4.47543e-05
-4.90034e-05
-4.77295e-05
-5.00739e-05
-5.22224e-05
-5.23325e-05
-5.84686e-05
-5.43748e-05
-6.67434e-05
-5.623e-05
-7.84825e-05
-5.8175e-05
-9.32183e-05
-5.89355e-05
-0.000122067
-3.90951e-05
9.74674e-06
-0.000152775
-1.31289e-06
-4.71636e-05
-2.3456e-06
-4.74488e-05
-3.55582e-06
-4.77021e-05
-4.95535e-06
-4.80779e-05
-6.58452e-06
-4.85628e-05
-8.50581e-06
-4.91305e-05
-1.08088e-05
-4.97448e-05
-1.3632e-05
-5.03564e-05
-1.72142e-05
-5.08834e-05
-2.19386e-05
-5.1171e-05
-2.73852e-05
-5.10145e-05
-3.24114e-05
-4.98632e-05
-3.01506e-05
-4.68019e-05
-3.15657e-05
-4.58341e-05
-3.51257e-05
-4.54414e-05
-3.976e-05
-4.5437e-05
-4.66078e-05
-4.54817e-05
-5.60702e-05
-4.49091e-05
-6.91496e-05
-4.31476e-05
-8.63184e-05
-4.10033e-05
-0.000105562
-3.96893e-05
-0.000118195
-2.64683e-05
3.38661e-08
-0.000108324
-1.47733e-06
-4.56833e-05
-2.96348e-06
-4.59598e-05
-4.53625e-06
-4.61264e-05
-6.23663e-06
-4.63747e-05
-8.11311e-06
-4.66837e-05
-1.02142e-05
-4.70269e-05
-1.25906e-05
-4.73661e-05
-1.52945e-05
-4.76506e-05
-1.83746e-05
-4.78018e-05
-2.1839e-05
-4.77054e-05
-2.56643e-05
-4.71881e-05
-2.95268e-05
-4.59993e-05
-3.21997e-05
-4.41278e-05
-3.49258e-05
-4.31066e-05
-3.81493e-05
-4.22158e-05
-4.22065e-05
-4.13768e-05
-4.73497e-05
-4.0335e-05
-5.34665e-05
-3.8789e-05
-6.02033e-05
-3.64076e-05
-6.80996e-05
-3.31045e-05
-8.06038e-05
-2.71836e-05
-9.49797e-05
-1.20898e-05
6.47915e-06
-0.000101424
-1.51373e-06
-4.41673e-05
-3.04569e-06
-4.44255e-05
-4.65548e-06
-4.45143e-05
-6.38327e-06
-4.46447e-05
-8.27145e-06
-4.47934e-05
-1.03607e-05
-4.49358e-05
-1.26878e-05
-4.50373e-05
-1.52868e-05
-4.50502e-05
-1.81784e-05
-4.49092e-05
-2.13461e-05
-4.45368e-05
-2.46956e-05
-4.38378e-05
-2.79476e-05
-4.27466e-05
-3.06916e-05
-4.13831e-05
-3.36795e-05
-4.01176e-05
-3.70708e-05
-3.88225e-05
-4.10823e-05
-3.73631e-05
-4.58738e-05
-3.55407e-05
-5.15623e-05
-3.30975e-05
-5.82465e-05
-2.97208e-05
-6.62241e-05
-2.51251e-05
-7.4754e-05
-1.86523e-05
-7.75788e-05
-9.26564e-06
3.41736e-06
-7.45151e-05
-1.55791e-06
-4.26079e-05
-3.14987e-06
-4.2832e-05
-4.80348e-06
-4.28593e-05
-6.55525e-06
-4.28916e-05
-8.43589e-06
-4.29115e-05
-1.04751e-05
-4.28954e-05
-1.2699e-05
-4.28123e-05
-1.51257e-05
-4.26224e-05
-1.77568e-05
-4.22774e-05
-2.057e-05
-4.1723e-05
-2.34977e-05
-4.09095e-05
-2.64208e-05
-3.98229e-05
-2.9275e-05
-3.85282e-05
-3.22849e-05
-3.71068e-05
-3.55793e-05
-3.55271e-05
-3.92478e-05
-3.36925e-05
-4.33296e-05
-3.14567e-05
-4.77919e-05
-2.8633e-05
-5.25102e-05
-2.50008e-05
-5.73716e-05
-2.02626e-05
-6.19569e-05
-1.40669e-05
-6.53117e-05
-5.90996e-06
3.44122e-06
-6.53363e-05
-1.57128e-06
-4.10358e-05
-3.17548e-06
-4.1227e-05
-4.83268e-06
-4.12013e-05
-6.57079e-06
-4.11528e-05
-8.41486e-06
-4.10667e-05
-1.03871e-05
-4.09225e-05
-1.2505e-05
-4.06937e-05
-1.47779e-05
-4.03489e-05
-1.72027e-05
-3.98521e-05
-1.9759e-05
-3.91662e-05
-2.24057e-05
-3.82624e-05
-2.50956e-05
-3.71325e-05
-2.78297e-05
-3.57935e-05
-3.0681e-05
-3.42549e-05
-3.37179e-05
-3.2489e-05
-3.69847e-05
-3.04246e-05
-4.0486e-05
-2.79538e-05
-4.41752e-05
-2.49423e-05
-4.79386e-05
-2.12363e-05
-5.1532e-05
-1.66687e-05
-5.45001e-05
-1.10984e-05
-5.58843e-05
-4.52638e-06
2.79063e-06
-5.52332e-05
-1.56003e-06
-3.94754e-05
-3.14976e-06
-3.9637e-05
-4.78375e-06
-3.9567e-05
-6.48349e-06
-3.94527e-05
-8.26881e-06
-3.9281e-05
-1.01562e-05
-3.90348e-05
-1.21571e-05
-3.86924e-05
-1.42768e-05
-3.82289e-05
-1.65115e-05
-3.76171e-05
-1.8847e-05
-3.68305e-05
-2.12611e-05
-3.5848e-05
-2.37349e-05
-3.46583e-05
-2.62714e-05
-3.32566e-05
-2.8894e-05
-3.16316e-05
-3.16288e-05
-2.97536e-05
-3.44842e-05
-2.75682e-05
-3.74366e-05
-2.50003e-05
-4.04175e-05
-2.19604e-05
-4.32981e-05
-1.83551e-05
-4.58647e-05
-1.41019e-05
-4.77992e-05
-9.16408e-06
-4.87058e-05
-3.61957e-06
2.28636e-06
-4.82022e-05
-1.52687e-06
-3.79484e-05
-3.07944e-06
-3.80843e-05
-4.66812e-06
-3.79781e-05
-6.30992e-06
-3.78108e-05
-8.01993e-06
-3.75709e-05
-9.81028e-06
-3.72443e-05
-1.16891e-05
-3.68135e-05
-1.36592e-05
-3.62586e-05
-1.57173e-05
-3.55587e-05
-1.78542e-05
-3.46934e-05
-2.0057e-05
-3.3645e-05
-2.23153e-05
-3.23997e-05
-2.46265e-05
-3.0945e-05
-2.69941e-05
-2.92636e-05
-2.94192e-05
-2.73278e-05
-3.1889e-05
-2.50977e-05
-3.4366e-05
-2.25225e-05
-3.67788e-05
-1.9547e-05
-3.90128e-05
-1.61207e-05
-4.09016e-05
-1.22129e-05
-4.22299e-05
-7.83575e-06
-4.27712e-05
-3.07884e-06
1.87745e-06
-4.23622e-05
-1.47536e-06
-3.6473e-05
-2.97264e-06
-3.65869e-05
-4.49892e-06
-3.64518e-05
-6.06751e-06
-3.62421e-05
-7.68991e-06
-3.59484e-05
-9.37508e-06
-3.5559e-05
-1.11286e-05
-3.50598e-05
-1.29522e-05
-3.44349e-05
-1.4843e-05
-3.36677e-05
-1.67946e-05
-3.27417e-05
-1.87978e-05
-3.16415e-05
-2.0844e-05
-3.03533e-05
-2.29262e-05
-2.88625e-05
-2.50373e-05
-2.7152e-05
-2.71656e-05
-2.51992e-05
-2.92873e-05
-2.29754e-05
-3.13607e-05
-2.04486e-05
-3.33198e-05
-1.75875e-05
-3.50706e-05
-1.43698e-05
-3.64909e-05
-1.07927e-05
-3.74399e-05
-6.88701e-06
-3.77851e-05
-2.73343e-06
1.53482e-06
-3.7443e-05
-1.40899e-06
-3.5064e-05
-2.83653e-06
-3.51594e-05
-4.287e-06
-3.50014e-05
-5.77075e-06
-3.47584e-05
-7.29647e-06
-3.44227e-05
-8.87072e-06
-3.39848e-05
-1.04973e-05
-3.34331e-05
-1.2177e-05
-3.27552e-05
-1.39073e-05
-3.19373e-05
-1.56827e-05
-3.09662e-05
-1.74956e-05
-2.98285e-05
-1.93371e-05
-2.85115e-05
-2.11973e-05
-2.7002e-05
-2.30639e-05
-2.52851e-05
-2.49188e-05
-2.33438e-05
-2.67348e-05
-2.1159e-05
-2.84712e-05
-1.87119e-05
-3.00712e-05
-1.59873e-05
-3.14609e-05
-1.298e-05
-3.25524e-05
-9.70121e-06
-3.32526e-05
-6.18687e-06
-3.34818e-05
-2.50456e-06
1.24742e-06
-3.31943e-05
-1.3308e-06
-3.37333e-05
-2.6772e-06
-3.3813e-05
-4.04149e-06
-3.36371e-05
-5.43158e-06
-3.33683e-05
-6.85398e-06
-3.30003e-05
-8.3134e-06
-3.25253e-05
-9.81232e-06
-3.19342e-05
-1.13507e-05
-3.12167e-05
-1.2926e-05
-3.0362e-05
-1.45331e-05
-2.9359e-05
-1.61647e-05
-2.81967e-05
-1.78116e-05
-2.68644e-05
-1.94625e-05
-2.53509e-05
-2.11024e-05
-2.36449e-05
-2.27116e-05
-2.17343e-05
-2.42628e-05
-1.96075e-05
-2.57194e-05
-1.72549e-05
-2.70345e-05
-1.46721e-05
-2.81512e-05
-1.18633e-05
-2.90064e-05
-8.84613e-06
-2.95378e-05
-5.65561e-06
-2.96952e-05
-2.34704e-06
1.00512e-06
-2.94532e-05
-1.24334e-06
-3.249e-05
-2.49976e-06
-3.25567e-05
-3.7699e-06
-3.2367e-05
-5.05975e-06
-3.20785e-05
-6.37408e-06
-3.1686e-05
-7.71614e-06
-3.11833e-05
-9.08736e-06
-3.0563e-05
-1.04871e-05
-2.98169e-05
-1.19125e-05
-2.89365e-05
-1.33587e-05
-2.79127e-05
-1.48184e-05
-2.67369e-05
-1.62824e-05
-2.54003e-05
-1.77386e-05
-2.38945e-05
-1.9172e-05
-2.22112e-05
-2.05629e-05
-2.0343e-05
-2.18864e-05
-1.82838e-05
-2.31107e-05
-1.60304e-05
-2.41979e-05
-1.35848e-05
-2.51048e-05
-1.09565e-05
-2.57857e-05
-8.16519e-06
-2.61984e-05
-5.24302e-06
-2.63104e-05
-2.2353e-06
8.01032e-07
-2.61062e-05
-1.14876e-06
-3.13413e-05
-2.3084e-06
-3.13971e-05
-3.47839e-06
-3.1197e-05
-4.66317e-06
-3.08937e-05
-5.86614e-06
-3.04831e-05
-7.08941e-06
-2.996e-05
-8.33357e-06
-2.93188e-05
-9.59749e-06
-2.8553e-05
-1.08782e-05
-2.76558e-05
-1.21706e-05
-2.66202e-05
-1.34679e-05
-2.54395e-05
-1.47609e-05
-2.41072e-05
-1.60379e-05
-2.26172e-05
-1.72845e-05
-2.09644e-05
-1.84826e-05
-1.91447e-05
-1.961e-05
-1.71561e-05
-2.06403e-05
-1.49999e-05
-2.15432e-05
-1.26818e-05
-2.22859e-05
-1.02139e-05
-2.28352e-05
-7.61595e-06
-2.31617e-05
-4.91663e-06
-2.32437e-05
-2.15318e-06
6.29283e-07
-2.30722e-05
-1.04875e-06
-3.02926e-05
-2.10652e-06
-3.03394e-05
-3.17194e-06
-3.01317e-05
-4.24821e-06
-2.98175e-05
-5.33766e-06
-2.93936e-05
-6.44154e-06
-2.88562e-05
-7.5598e-06
-2.82005e-05
-8.69094e-06
-2.74218e-05
-9.83183e-06
-2.65148e-05
-1.09777e-05
-2.54743e-05
-1.21218e-05
-2.42953e-05
-1.32555e-05
-2.29733e-05
-1.4368e-05
-2.15045e-05
-1.54461e-05
-1.98861e-05
-1.64735e-05
-1.81169e-05
-1.74317e-05
-1.61979e-05
-1.82986e-05
-1.41329e-05
-1.90503e-05
-1.193e-05
-1.96619e-05
-9.60232e-06
-2.01091e-05
-7.16881e-06
-2.0371e-05
-4.65472e-06
-2.04331e-05
-2.09125e-06
4.85621e-07
-2.02893e-05
-9.44722e-07
-2.93479e-05
-1.89686e-06
-2.93873e-05
-2.85451e-06
-2.91741e-05
-3.81993e-06
-2.88521e-05
-4.7946e-06
-2.8419e-05
-5.77913e-06
-2.78716e-05
-6.77301e-06
-2.72067e-05
-7.77451e-06
-2.64203e-05
-8.78051e-06
-2.55088e-05
-9.78642e-06
-2.44683e-05
-1.0786e-05
-2.32956e-05
-1.17714e-05
-2.19878e-05
-1.27329e-05
-2.05429e-05
-1.36585e-05
-1.89602e-05
-1.45347e-05
-1.72406e-05
-1.53455e-05
-1.53869e-05
-1.60731e-05
-1.34051e-05
-1.66989e-05
-1.13042e-05
-1.72037e-05
-9.09753e-06
-1.75697e-05
-6.80291e-06
-1.77819e-05
-4.44258e-06
-1.78301e-05
-2.043e-06
3.66092e-07
-1.77107e-05
-8.37761e-07
-2.85102e-05
-1.68156e-06
-2.85435e-05
-2.52923e-06
-2.83265e-05
-3.38227e-06
-2.79991e-05
-4.24157e-06
-2.75597e-05
-5.10724e-06
-2.7006e-05
-5.9785e-06
-2.63354e-05
-6.8535e-06
-2.55453e-05
-7.72926e-06
-2.4633e-05
-8.60151e-06
-2.35961e-05
-9.46463e-06
-2.24324e-05
-1.03116e-05
-2.11407e-05
-1.11338e-05
-1.97206e-05
-1.19211e-05
-1.81728e-05
-1.26619e-05
-1.64996e-05
-1.33432e-05
-1.47056e-05
-1.39507e-05
-1.27975e-05
-1.44697e-05
-1.07851e-05
-1.48857e-05
-8.68156e-06
-1.51854e-05
-6.50322e-06
-1.53581e-05
-4.26999e-06
-1.53965e-05
-2.00472e-06
2.67878e-07
-1.52981e-05
-7.28743e-07
-2.77815e-05
-1.46231e-06
-2.781e-05
-2.1985e-06
-2.75903e-05
-2.93829e-06
-2.72594e-05
-3.68209e-06
-2.6816e-05
-4.4297e-06
-2.62584e-05
-5.18018e-06
-2.5585e-05
-5.93171e-06
-2.47938e-05
-6.68152e-06
-2.38832e-05
-7.42577e-06
-2.28518e-05
-8.15953e-06
-2.16986e-05
-8.87669e-06
-2.04235e-05
-9.56988e-06
-1.90273e-05
-1.02306e-05
-1.75119e-05
-1.08494e-05
-1.58808e-05
-1.14154e-05
-1.41394e-05
-1.19176e-05
-1.22953e-05
-1.23445e-05
-1.03583e-05
-1.2685e-05
-8.34106e-06
-1.29294e-05
-6.25895e-06
-1.30697e-05
-4.12978e-06
-1.31008e-05
-1.97353e-06
1.88342e-07
-1.30214e-05
-6.18287e-07
-2.71633e-05
-1.24034e-06
-2.7188e-05
-1.86414e-06
-2.69666e-05
-2.49024e-06
-2.66334e-05
-3.11873e-06
-2.61875e-05
-3.74924e-06
-2.56279e-05
-4.38077e-06
-2.49535e-05
-5.01164e-06
-2.41629e-05
-5.63936e-06
-2.32555e-05
-6.26062e-06
-2.22305e-05
-6.87119e-06
-2.1088e-05
-7.46592e-06