/*--------------------------------*- C++ -*----------------------------------*\
| =========                 |                                                 |
| \\      /  F ield         | OpenFOAM: The Open Source CFD Toolbox           |
|  \\    /   O peration     | Version:  2.4.0                                 |
|   \\  /    A nd           | Web:      www.OpenFOAM.org                      |
|    \\/     M anipulation  |                                                 |
\*---------------------------------------------------------------------------*/
FoamFile
{
    version     2.0;
    format      ascii;
    class       volVectorField;
    location    "0.05";
    object      U;
}
// * * * * * * * * * * * * * * * * * * * * * * * * * * * * * * * * * * * * * //

dimensions      [0 1 -1 0 0 0 0];

internalField   nonuniform List<vector> 
2268
(
(0.00917719 -0.00433916 0)
(0.0278919 -0.00450861 0)
(0.0477062 -0.00485725 0)
(0.0694234 -0.00540519 0)
(0.0939687 -0.00618692 0)
(0.122434 -0.00725919 0)
(0.156454 -0.00870655 0)
(0.196725 -0.0106868 0)
(0.251327 -0.0133613 0)
(0.303541 -0.0167891 0)
(0.416213 -0.0258972 0)
(0.50763 -0.0302992 0)
(0.688587 -0.0431809 0)
(0.81786 -0.121915 0)
(0.977612 -0.119399 0)
(0.733388 0.0162241 0)
(0.519694 0.0344072 0)
(0.435658 0.0204779 0)
(0.36926 0.0144558 0)
(0.310872 0.0142763 0)
(0.245895 0.0173718 0)
(0.163909 0.0222487 0)
(0.0588095 0.0269212 0)
(0.00909843 -0.0129811 0)
(0.0276518 -0.0134883 0)
(0.0472906 -0.0145299 0)
(0.0688067 -0.0161662 0)
(0.0931082 -0.0184991 0)
(0.121263 -0.0216966 0)
(0.154858 -0.0260073 0)
(0.194566 -0.0319135 0)
(0.248349 -0.039831 0)
(0.298501 -0.0508857 0)
(0.413224 -0.0709897 0)
(0.486449 -0.117791 0)
(0.655939 -0.0882358 0)
(0.838696 -0.0387747 0)
(0.898146 0.128278 0)
(0.584341 0.129551 0)
(0.486082 0.0879781 0)
(0.425352 0.0527932 0)
(0.367484 0.0408814 0)
(0.31299 0.0421225 0)
(0.250191 0.0518055 0)
(0.168873 0.0669798 0)
(0.0611658 0.0819806 0)
(0.00893913 -0.0215097 0)
(0.027165 -0.022348 0)
(0.0464486 -0.0240689 0)
(0.067559 -0.0267706 0)
(0.0913703 -0.0306173 0)
(0.118904 -0.0358807 0)
(0.151645 -0.0429628 0)
(0.190264 -0.0526532 0)
(0.242097 -0.0655897 0)
(0.289317 -0.0838067 0)
(0.401276 -0.116943 0)
(0.457657 -0.16926 0)
(0.612232 -0.160073 0)
(0.807523 -0.116039 0)
(0.739067 0.10338 0)
(0.499655 0.164955 0)
(0.455459 0.121642 0)
(0.410793 0.0796127 0)
(0.364415 0.0647645 0)
(0.316609 0.0679804 0)
(0.258308 0.0850591 0)
(0.178973 0.112108 0)
(0.0661679 0.139648 0)
(0.00870265 -0.0298507 0)
(0.0264426 -0.0310097 0)
(0.0452001 -0.0333882 0)
(0.0657113 -0.0371181 0)
(0.0888017 -0.0424181 0)
(0.115426 -0.0496516 0)
(0.14692 -0.0593588 0)
(0.183965 -0.0725689 0)
(0.232883 -0.0901548 0)
(0.276925 -0.114571 0)
(0.381953 -0.157589 0)
(0.419989 -0.219053 0)
(0.565344 -0.221906 0)
(0.75135 -0.0888283 0)
(0.562195 0.163885 0)
(0.439768 0.198607 0)
(0.425919 0.142937 0)
(0.396276 0.0979673 0)
(0.362042 0.0839759 0)
(0.322802 0.090694 0)
(0.271418 0.116199 0)
(0.195682 0.157515 0)
(0.0743738 0.20601 0)
(0.00839192 -0.0379319 0)
(0.0254936 -0.0393975 0)
(0.0435616 -0.0424041 0)
(0.0632909 -0.0471127 0)
(0.085446 -0.0537848 0)
(0.110896 -0.0628609 0)
(0.140802 -0.0749971 0)
(0.17584 -0.0913838 0)
(0.221099 -0.113102 0)
(0.26193 -0.142759 0)
(0.357533 -0.193545 0)
(0.377232 -0.259726 0)
(0.522443 -0.270239 0)
(0.671476 -0.0634733 0)
(0.424827 0.200482 0)
(0.395121 0.211681 0)
(0.397172 0.152759 0)
(0.383075 0.110003 0)
(0.36124 0.0980421 0)
(0.332294 0.108837 0)
(0.29015 0.144208 0)
(0.223063 0.203065 0)
(0.0890925 0.272105 0)
(0.00801069 -0.0456895 0)
(0.0243296 -0.0474448 0)
(0.0415537 -0.0510446 0)
(0.0603322 -0.0566746 0)
(0.0813583 -0.0646221 0)
(0.1054 -0.0753915 0)
(0.13343 -0.0897302 0)
(0.166092 -0.108925 0)
(0.207226 -0.134233 0)
(0.244942 -0.168403 0)
(0.329753 -0.224201 0)
(0.332815 -0.293808 0)
(0.483326 -0.306409 0)
(0.564065 -0.0265789 0)
(0.34104 0.218005 0)
(0.356632 0.211632 0)
(0.372071 0.153034 0)
(0.37124 0.11612 0)
(0.361092 0.108385 0)
(0.346043 0.121825 0)
(0.316576 0.16658 0)
(0.262037 0.247347 0)
(0.107965 0.376598 0)
(0.00756319 -0.053063 0)
(0.0229633 -0.055088 0)
(0.039199 -0.059242 0)
(0.056873 -0.0657311 0)
(0.0766 -0.0748605 0)
(0.0990319 -0.0871782 0)
(0.124952 -0.10348 0)
(0.154925 -0.12512 0)
(0.191726 -0.153467 0)
(0.226086 -0.191561 0)
(0.300251 -0.249624 0)
(0.289475 -0.322054 0)
(0.446229 -0.329635 0)
(0.453749 0.00865183 0)
(0.286092 0.220726 0)
(0.324186 0.202481 0)
(0.350724 0.148178 0)
(0.36182 0.116566 0)
(0.364884 0.112553 0)
(0.3617 0.128046 0)
(0.34953 0.181011 0)
(0.319308 0.280705 0)
(0.148613 0.443364 0)
(0.00705232 -0.0597455 0)
(0.0214024 -0.062009 0)
(0.0365078 -0.0666558 0)
(0.052923 -0.0739087 0)
(0.071204 -0.0841514 0)
(0.0918866 -0.0978372 0)
(0.11552 -0.11571 0)
(0.142569 -0.139237 0)
(0.174937 -0.169762 0)
(0.20544 -0.210444 0)
(0.26976 -0.269315 0)
(0.248423 -0.34316 0)
(0.411012 -0.33761 0)
(0.351375 0.0415971 0)
(0.247857 0.214564 0)
(0.297155 0.188905 0)
(0.333496 0.139291 0)
(0.352742 0.111348 0)
(0.368503 0.108671 0)
(0.381718 0.128305 0)
(0.384168 0.187988 0)
(0.408167 0.333935 0)
(0.212008 0.655662 0)
(-0.0136768 0.000459728 0)
(0.0245753 -0.0160863 0)
(0.114579 -0.0157733 0)
(0.177621 -0.0106681 0)
(0.215143 -0.00492939 0)
(0.228728 -0.000933881 0)
(0.22737 0.00142602 0)
(0.215183 0.00306027 0)
(0.198831 0.00380579 0)
(0.179953 0.00411623 0)
(0.160032 0.00421868 0)
(0.139926 0.00420475 0)
(0.120034 0.004134 0)
(0.100538 0.00404138 0)
(0.0814912 0.00394708 0)
(0.0628723 0.00386285 0)
(0.0446163 0.00379537 0)
(0.0266391 0.00374738 0)
(0.00884025 0.00374045 0)
(-0.0199791 0.00209166 0)
(0.0194994 -0.0506321 0)
(0.120179 -0.049233 0)
(0.186944 -0.0327006 0)
(0.224402 -0.0151365 0)
(0.23687 -0.00256197 0)
(0.233849 0.00499304 0)
(0.220919 0.0095696 0)
(0.203707 0.0117425 0)
(0.184108 0.0126792 0)
(0.163598 0.0129733 0)
(0.142969 0.012918 0)
(0.122602 0.0126935 0)
(0.102665 0.0124049 0)
(0.0832023 0.0121128 0)
(0.0641857 0.0118527 0)
(0.0455446 0.0116448 0)
(0.0271896 0.0114998 0)
(0.00900565 0.0113805 0)
(-0.0344149 0.00775212 0)
(0.00387996 -0.0892902 0)
(0.124568 -0.0860177 0)
(0.196591 -0.0552033 0)
(0.232986 -0.0244539 0)
(0.242873 -0.00333872 0)
(0.237016 0.00935055 0)
(0.222861 0.0164099 0)
(0.204653 0.0198728 0)
(0.184517 0.0213602 0)
(0.16372 0.0217899 0)
(0.142938 0.02166 0)
(0.122498 0.0212626 0)
(0.102535 0.0207666 0)
(0.0830736 0.0202703 0)
(0.0640743 0.0198305 0)
(0.0454598 0.0194803 0)
(0.0271377 0.0192386 0)
(0.00898842 0.0190471 0)
(-0.0575058 0.0246138 0)
(-0.022246 -0.136598 0)
(0.131816 -0.129321 0)
(0.212516 -0.0783072 0)
(0.246329 -0.0323105 0)
(0.251459 -0.00243173 0)
(0.241937 0.0146678 0)
(0.225475 0.0238807 0)
(0.205882 0.0283766 0)
(0.184986 0.0302559 0)
(0.163784 0.0307296 0)
(0.142796 0.030472 0)
(0.122266 0.0298704 0)
(0.10228 0.0291489 0)
(0.0828335 0.0284373 0)
(0.0638721 0.0278114 0)
(0.0453084 0.0273151 0)
(0.027045 0.026974 0)
(0.00895762 0.026702 0)
(-0.0922794 0.062858 0)
(-0.0567311 -0.19688 0)
(0.148958 -0.183417 0)
(0.23831 -0.101053 0)
(0.264997 -0.0373591 0)
(0.262757 0.000721497 0)
(0.248156 0.0214555 0)
(0.228667 0.0322167 0)
(0.20735 0.0373583 0)
(0.185511 0.0394082 0)
(0.163808 0.0398026 0)
(0.142571 0.0393465 0)
(0.121935 0.0385001 0)
(0.101925 0.0375293 0)
(0.0825048 0.0365887 0)
(0.0635971 0.0357688 0)
(0.0451035 0.0351218 0)
(0.0269194 0.0346786 0)
(0.00891559 0.0343253 0)
(-0.124164 0.0834286 0)
(-0.0703242 -0.288483 0)
(0.195473 -0.259104 0)
(0.287801 -0.121101 0)
(0.290803 -0.0372304 0)
(0.276388 0.00716585 0)
(0.255271 0.030065 0)
(0.232204 0.0415823 0)
(0.208921 0.0469071 0)
(0.186015 0.0488659 0)
(0.163752 0.0490339 0)
(0.142239 0.0482952 0)
(0.121491 0.0471552 0)
(0.101466 0.0459067 0)
(0.0820841 0.0447206 0)
(0.0632478 0.0436968 0)
(0.0448442 0.0428936 0)
(0.0267606 0.0423451 0)
(0.0088625 0.04191 0)
(-0.0295572 0.269024 0)
(0.0611118 -0.470352 0)
(0.285075 -0.338848 0)
(0.347871 -0.129927 0)
(0.320005 -0.028467 0)
(0.291126 0.017771 0)
(0.262714 0.0407842 0)
(0.23579 0.0520677 0)
(0.210427 0.0570435 0)
(0.186405 0.0586184 0)
(0.16356 0.0583976 0)
(0.141769 0.0572849 0)
(0.120918 0.0557996 0)
(0.100889 0.054244 0)
(0.0815648 0.0527958 0)
(0.0628201 0.0515591 0)
(0.0445282 0.0505946 0)
(0.0265676 0.0499383 0)
(0.00879773 0.0494205 0)
(0.655149 -0.0742185 0)
(0.652657 -0.48598 0)
(0.442832 -0.334563 0)
(0.401671 -0.113686 0)
(0.348932 -0.0128939 0)
(0.305272 0.032034 0)
(0.269765 0.0535917 0)
(0.23908 0.0637539 0)
(0.211683 0.0678896 0)
(0.186574 0.0688025 0)
(0.163172 0.0680316 0)
(0.141125 0.0664482 0)
(0.120191 0.0645579 0)
(0.100182 0.0626579 0)
(0.0809379 0.0609238 0)
(0.0623084 0.0594589 0)
(0.0441521 0.0583238 0)
(0.0263384 0.057554 0)
(0.0087212 0.0569512 0)
(0.00609763 -0.0706564 0)
(0.0184771 -0.0732811 0)
(0.0314388 -0.0786529 0)
(0.0454044 -0.0870705 0)
(0.0614368 -0.0981464 0)
(0.0795876 -0.112974 0)
(0.0995277 -0.132473 0)
(0.121769 -0.158073 0)
(0.147249 -0.190741 0)
(0.170868 -0.234437 0)
(0.22142 -0.293636 0)
(0.185947 -0.371926 0)
(0.360049 -0.33432 0)
(0.189655 0.0791308 0)
(0.201441 0.186107 0)
(0.263899 0.153336 0)
(0.308983 0.114652 0)
(0.342673 0.0935063 0)
(0.373044 0.0908168 0)
(0.413767 0.104939 0)
(0.454041 0.164516 0)
(0.600742 0.228583 0)
(0.805062 0.562212 0)
(0.00476705 -0.0848927 0)
(0.0144342 -0.0871689 0)
(0.0244906 -0.0919622 0)
(0.0353601 -0.0997344 0)
(0.0472574 -0.111665 0)
(0.0611087 -0.126835 0)
(0.0757231 -0.147526 0)
(0.0910953 -0.174222 0)
(0.107413 -0.209745 0)
(0.12065 -0.255973 0)
(0.151901 -0.314719 0)
(0.106088 -0.408395 0)
(0.264179 -0.284312 0)
(0.0358425 0.0942355 0)
(0.166411 0.122926 0)
(0.232238 0.0946905 0)
(0.285183 0.0707528 0)
(0.332908 0.0561806 0)
(0.378553 0.0521188 0)
(0.435953 0.0584095 0)
(0.502208 0.08105 0)
(0.606795 0.0929047 0)
(0.801962 0.172074 0)
(0.00381375 -0.0657319 0)
(0.0114107 -0.0696856 0)
(0.0189617 -0.0778551 0)
(0.026556 -0.0919336 0)
(0.035146 -0.112754 0)
(0.0412443 -0.135681 0)
(0.0510867 -0.162215 0)
(0.0571319 -0.201398 0)
(0.0671632 -0.238386 0)
(0.0691994 -0.293805 0)
(0.0732071 -0.35064 0)
(0.0450074 -0.434839 0)
(0.0707533 -0.195001 0)
(0.0052146 0.052781 0)
(0.148878 0.0410997 0)
(0.214349 0.0285818 0)
(0.270865 0.0175251 0)
(0.324081 0.00711684 0)
(0.375748 -0.000341435 0)
(0.440655 -0.00547573 0)
(0.501875 -0.00426756 0)
(0.620129 -0.0246757 0)
(0.733615 -0.0373936 0)
(0.00166182 -0.175627 0)
(0.00496568 -0.177572 0)
(0.00636179 -0.181727 0)
(0.00488104 -0.186591 0)
(0.0135983 -0.191259 0)
(0.0189039 -0.203195 0)
(0.0250602 -0.219317 0)
(0.0375168 -0.235311 0)
(0.0427603 -0.266689 0)
(0.0627107 -0.295839 0)
(0.0692756 -0.34768 0)
(0.0646675 -0.427525 0)
(0.0108697 -0.207822 0)
(0.0687503 -0.0495111 0)
(0.152267 -0.0377331 0)
(0.211954 -0.0324171 0)
(0.264153 -0.0359279 0)
(0.315117 -0.0446541 0)
(0.366559 -0.055908 0)
(0.4299 -0.0698527 0)
(0.485968 -0.0838408 0)
(0.593831 -0.123694 0)
(0.677618 -0.167862 0)
(0.0138057 -0.118547 0)
(0.0415897 -0.12185 0)
(0.071311 -0.127699 0)
(0.103589 -0.12049 0)
(0.127856 -0.0912901 0)
(0.150891 -0.121098 0)
(0.171067 -0.110823 0)
(0.184088 -0.159121 0)
(0.196624 -0.185838 0)
(0.201277 -0.253827 0)
(0.196162 -0.311899 0)
(0.169784 -0.371269 0)
(0.170713 -0.21364 0)
(0.131269 -0.110637 0)
(0.173669 -0.0885135 0)
(0.216975 -0.0795048 0)
(0.258857 -0.0832028 0)
(0.304109 -0.0934324 0)
(0.351554 -0.108704 0)
(0.408399 -0.12949 0)
(0.457674 -0.153366 0)
(0.548434 -0.207837 0)
(0.611551 -0.261342 0)
(0.0122578 -0.141477 0)
(0.0367904 -0.144001 0)
(0.0610891 -0.149452 0)
(0.0829293 -0.160964 0)
(0.1054 -0.17872 0)
(0.125804 -0.19445 0)
(0.146277 -0.218696 0)
(0.163154 -0.237494 0)
(0.175148 -0.263595 0)
(0.177056 -0.285896 0)
(0.169238 -0.305488 0)
(0.164236 -0.321417 0)
(0.190879 -0.191863 0)
(0.144072 -0.122884 0)
(0.179687 -0.115832 0)
(0.214925 -0.116435 0)
(0.250185 -0.123825 0)
(0.289575 -0.137056 0)
(0.331473 -0.156031 0)
(0.380076 -0.181514 0)
(0.421661 -0.212207 0)
(0.49491 -0.271148 0)
(0.536032 -0.320912 0)
(0.0106645 -0.158181 0)
(0.0319112 -0.161179 0)
(0.0527869 -0.167193 0)
(0.0726281 -0.176301 0)
(0.0914288 -0.186657 0)
(0.10904 -0.200978 0)
(0.124777 -0.216094 0)
(0.137982 -0.236164 0)
(0.147141 -0.256828 0)
(0.152067 -0.278846 0)
(0.150776 -0.299147 0)
(0.159164 -0.314004 0)
(0.19537 -0.198334 0)
(0.147938 -0.142796 0)
(0.178598 -0.141284 0)
(0.208578 -0.147742 0)
(0.238224 -0.15879 0)
(0.271824 -0.175013 0)
(0.307675 -0.196891 0)
(0.348216 -0.225269 0)
(0.381658 -0.259301 0)
(0.442073 -0.31789 0)
(0.467882 -0.359901 0)
(0.00931913 -0.179507 0)
(0.0278389 -0.18215 0)
(0.0459299 -0.187339 0)
(0.0632311 -0.195111 0)
(0.0795897 -0.205101 0)
(0.0947081 -0.217509 0)
(0.108263 -0.232049 0)
(0.119675 -0.248533 0)
(0.128336 -0.266231 0)
(0.134242 -0.283907 0)
(0.136087 -0.299643 0)
(0.149852 -0.312766 0)
(0.189102 -0.204736 0)
(0.142549 -0.159291 0)
(0.171247 -0.162562 0)
(0.197618 -0.174124 0)
(0.222887 -0.188578 0)
(0.251352 -0.207381 0)
(0.281489 -0.231309 0)
(0.314716 -0.261108 0)
(0.340867 -0.296296 0)
(0.390754 -0.351952 0)
(0.399413 -0.387021 0)
(0.00807275 -0.196627 0)
(0.0241045 -0.199052 0)
(0.0397616 -0.203741 0)
(0.0547905 -0.210675 0)
(0.0689742 -0.219678 0)
(0.0820748 -0.230701 0)
(0.0938075 -0.243464 0)
(0.103874 -0.257778 0)
(0.112029 -0.272957 0)
(0.118509 -0.288259 0)
(0.122206 -0.302689 0)
(0.13829 -0.316491 0)
(0.177755 -0.213591 0)
(0.132116 -0.175184 0)
(0.160017 -0.181936 0)
(0.183252 -0.196958 0)
(0.204918 -0.213975 0)
(0.228931 -0.234688 0)
(0.254017 -0.259869 0)
(0.281004 -0.290069 0)
(0.301291 -0.324952 0)
(0.342762 -0.376189 0)
(0.333726 -0.404367 0)
(0.00695259 -0.211771 0)
(0.0207587 -0.21397 0)
(0.0342464 -0.218187 0)
(0.0472099 -0.224421 0)
(0.0594557 -0.232553 0)
(0.0707914 -0.24245 0)
(0.0810278 -0.253902 0)
(0.0900085 -0.266613 0)
(0.0976588 -0.280154 0)
(0.104293 -0.293985 0)
(0.108763 -0.307579 0)
(0.125397 -0.321482 0)
(0.164017 -0.221271 0)
(0.119211 -0.190014 0)
(0.146248 -0.199517 0)
(0.166524 -0.216784 0)
(0.185081 -0.235569 0)
(0.205266 -0.257556 0)
(0.226047 -0.283385 0)
(0.247957 -0.313399 0)
(0.263996 -0.347297 0)
(0.299929 -0.393809 0)
(0.274515 -0.416829 0)
(0.00593793 -0.224712 0)
(0.0177303 -0.22672 0)
(0.029257 -0.230549 0)
(0.0403501 -0.236211 0)
(0.0508517 -0.243604 0)
(0.0606164 -0.252592 0)
(0.0695205 -0.262986 0)
(0.0774886 -0.274544 0)
(0.0845204 -0.286956 0)
(0.0909019 -0.299876 0)
(0.0955419 -0.313029 0)
(0.111529 -0.326873 0)
(0.148107 -0.229024 0)
(0.105157 -0.203775 0)
(0.130855 -0.215301 0)
(0.148251 -0.233934 0)
(0.164042 -0.253837 0)
(0.180903 -0.276584 0)
(0.198031 -0.302667 0)
(0.215831 -0.332281 0)
(0.228876 -0.36521 0)
(0.261628 -0.407704 0)
(0.220682 -0.430542 0)
(0.00501363 -0.235726 0)
(0.0149704 -0.23757 0)
(0.0247061 -0.241073 0)
(0.0340869 -0.246263 0)
(0.04299 -0.253053 0)
(0.0513083 -0.261318 0)
(0.0589609 -0.270903 0)
(0.0659141 -0.281621 0)
(0.0721967 -0.293257 0)
(0.0780492 -0.305592 0)
(0.0825653 -0.318489 0)
(0.0970197 -0.332353 0)
(0.130543 -0.235712 0)
(0.0906618 -0.216119 0)
(0.114396 -0.22922 0)
(0.129022 -0.248604 0)
(0.142299 -0.26914 0)
(0.156212 -0.292264 0)
(0.170158 -0.318356 0)
(0.184454 -0.347553 0)
(0.195065 -0.379808 0)
(0.224556 -0.419829 0)
(0.173082 -0.446603 0)
(0.00416687 -0.24488 0)
(0.0124387 -0.246614 0)
(0.02052 -0.249875 0)
(0.0283082 -0.254698 0)
(0.0357186 -0.26101 0)
(0.0426725 -0.268709 0)
(0.0491109 -0.277673 0)
(0.0550174 -0.287769 0)
(0.0604251 -0.298852 0)
(0.0655123 -0.310786 0)
(0.0694688 -0.323523 0)
(0.0823043 -0.337403 0)
(0.112317 -0.241175 0)
(0.0756971 -0.226998 0)
(0.0972543 -0.241286 0)
(0.109271 -0.260954 0)
(0.120224 -0.281754 0)
(0.131453 -0.304964 0)
(0.14252 -0.330887 0)
(0.153637 -0.35966 0)
(0.161873 -0.391397 0)
(0.186862 -0.429715 0)
(0.132395 -0.461699 0)
(0.00335737 -0.252146 0)
(0.0100432 -0.25379 0)
(0.0165917 -0.256993 0)
(0.0228986 -0.261639 0)
(0.0289058 -0.267602 0)
(0.0345574 -0.27486 0)
(0.0398007 -0.283344 0)
(0.0446245 -0.292971 0)
(0.04906 -0.303642 0)
(0.0532304 -0.315274 0)
(0.0565082 -0.327865 0)
(0.0672563 -0.341543 0)
(0.0929976 -0.245866 0)
(0.060808 -0.236427 0)
(0.0797657 -0.251571 0)
(0.089347 -0.271165 0)
(0.0981118 -0.291935 0)
(0.10684 -0.314988 0)
(0.115219 -0.340574 0)
(0.123361 -0.368837 0)
(0.129133 -0.400063 0)
(0.149087 -0.436328 0)
(0.0979444 -0.472614 0)
(0.00251985 -0.259137 0)
(0.00753415 -0.260607 0)
(0.0126169 -0.263189 0)
(0.0176639 -0.267232 0)
(0.022415 -0.27281 0)
(0.0268256 -0.279704 0)
(0.0308914 -0.287815 0)
(0.0346107 -0.297102 0)
(0.0380053 -0.30744 0)
(0.0411468 -0.318797 0)
(0.0436337 -0.331258 0)
(0.0518543 -0.34481 0)
(0.0726814 -0.249456 0)
(0.0462049 -0.244416 0)
(0.0621699 -0.260138 0)
(0.0695228 -0.279304 0)
(0.0762031 -0.299754 0)
(0.0825673 -0.322394 0)
(0.0884068 -0.347413 0)
(0.0936933 -0.374936 0)
(0.0970303 -0.405577 0)
(0.111426 -0.439744 0)
(0.0684463 -0.479679 0)
(0.00189714 -0.261673 0)
(0.00565109 -0.263166 0)
(0.00919344 -0.265939 0)
(0.012559 -0.270023 0)
(0.0158648 -0.275331 0)
(0.0190114 -0.281868 0)
(0.0219719 -0.289559 0)
(0.0248189 -0.298311 0)
(0.0272449 -0.308169 0)
(0.0292398 -0.319188 0)
(0.030765 -0.331505 0)
(0.0358031 -0.34507 0)
(0.0511363 -0.250418 0)
(0.0321886 -0.24923 0)
(0.0447143 -0.265081 0)
(0.0500878 -0.283364 0)
(0.0547472 -0.303201 0)
(0.0588634 -0.325277 0)
(0.0623443 -0.349706 0)
(0.0648164 -0.376676 0)
(0.0655514 -0.40696 0)
(0.0732437 -0.439932 0)
(0.042253 -0.484411 0)
(0.00129444 -0.259575 0)
(0.003888 -0.261092 0)
(0.00639189 -0.263923 0)
(0.00876236 -0.268084 0)
(0.0109612 -0.273501 0)
(0.0129595 -0.280176 0)
(0.0146704 -0.288044 0)
(0.0158629 -0.297009 0)
(0.0168203 -0.307125 0)
(0.0174894 -0.318372 0)
(0.0177418 -0.330862 0)
(0.0175369 -0.344607 0)
(0.025594 -0.247429 0)
(0.0193832 -0.249946 0)
(0.0277976 -0.265692 0)
(0.0312711 -0.283642 0)
(0.0337293 -0.303845 0)
(0.0354657 -0.32664 0)
(0.0364688 -0.351955 0)
(0.0362998 -0.380037 0)
(0.0339566 -0.409967 0)
(0.0321535 -0.442782 0)
(0.0182178 -0.484464 0)
(0.000472308 -0.30786 0)
(0.00139022 -0.309251 0)
(0.00229927 -0.311842 0)
(0.00312651 -0.315645 0)
(0.00385261 -0.320603 0)
(0.00445727 -0.326633 0)
(0.0049315 -0.33366 0)
(0.00525971 -0.341609 0)
(0.00536192 -0.350211 0)
(0.00497951 -0.359251 0)
(0.00410988 -0.368437 0)
(-0.00123034 -0.377319 0)
(-0.00151584 -0.298762 0)
(0.00767087 -0.304694 0)
(0.0104901 -0.318187 0)
(0.0111742 -0.333806 0)
(0.0108039 -0.351059 0)
(0.00980688 -0.369484 0)
(0.00790022 -0.388778 0)
(0.00774009 -0.403564 0)
(0.00444098 -0.424011 0)
(-0.00043073 -0.44265 0)
(0.00399336 -0.467793 0)
(6.96541e-05 -0.292164 0)
(0.000215969 -0.293129 0)
(0.000552922 -0.295263 0)
(0.00081099 -0.298551 0)
(0.00106519 -0.302876 0)
(0.00132152 -0.308252 0)
(0.0015761 -0.314665 0)
(0.00182442 -0.322067 0)
(0.00196727 -0.330601 0)
(0.00146759 -0.339867 0)
(0.000317977 -0.347471 0)
(-0.00484038 -0.353203 0)
(-0.00333121 -0.287861 0)
(0.00227348 -0.292776 0)
(0.00290499 -0.306352 0)
(-0.0005432 -0.321375 0)
(-0.00384354 -0.336244 0)
(-0.0060606 -0.352822 0)
(-0.00842424 -0.371513 0)
(-0.0130823 -0.400558 0)
(-0.00497333 -0.419702 0)
(-0.0423405 -0.429014 0)
(-0.0876199 -0.378475 0)
(-0.00132641 0.0547391 0)
(-0.01178 0.0556927 0)
(-0.0195517 0.0501018 0)
(-0.0286252 0.0418103 0)
(-0.0386091 0.0306866 0)
(-0.04992 0.0165823 0)
(-0.062904 -0.000666674 0)
(-0.0778296 -0.0213749 0)
(-0.0947079 -0.0459073 0)
(-0.112749 -0.0732906 0)
(-0.133423 -0.0896832 0)
(-0.173563 -0.0820972 0)
(-0.204 0.021098 0)
(-0.222821 -0.0356272 0)
(-0.234658 -0.104497 0)
(-0.247322 -0.164687 0)
(-0.267146 -0.225607 0)
(-0.295467 -0.278056 0)
(-0.329731 -0.32813 0)
(-0.374201 -0.384325 0)
(-0.441206 -0.39132 0)
(-0.591641 -0.162809 0)
(-0.857614 0.268561 0)
(-0.00374182 -0.414866 0)
(-0.00976002 -0.416146 0)
(-0.0157547 -0.416173 0)
(-0.0227359 -0.415907 0)
(-0.0308333 -0.415356 0)
(-0.0403276 -0.414447 0)
(-0.0516172 -0.41308 0)
(-0.0652953 -0.411106 0)
(-0.0823784 -0.408444 0)
(-0.104564 -0.405285 0)
(-0.13326 -0.402536 0)
(-0.16252 -0.398443 0)
(-0.168573 -0.381759 0)
(-0.164164 -0.361591 0)
(-0.178707 -0.33959 0)
(-0.200147 -0.321907 0)
(-0.230437 -0.307373 0)
(-0.273079 -0.29458 0)
(-0.3281 -0.280701 0)
(-0.415398 -0.27186 0)
(-0.539793 -0.305187 0)
(-0.599183 -0.304588 0)
(-0.608094 -0.109429 0)
(-0.00386256 -0.197181 0)
(-0.0119198 -0.19892 0)
(-0.020075 -0.200864 0)
(-0.0288295 -0.203861 0)
(-0.0384078 -0.207773 0)
(-0.0490664 -0.212378 0)
(-0.061056 -0.217371 0)
(-0.0746606 -0.222386 0)
(-0.0902018 -0.22678 0)
(-0.107805 -0.22924 0)
(-0.127513 -0.227585 0)
(-0.148384 -0.219589 0)
(-0.165616 -0.205343 0)
(-0.179844 -0.207324 0)
(-0.195761 -0.212044 0)
(-0.215292 -0.216263 0)
(-0.240188 -0.218736 0)
(-0.270656 -0.215878 0)
(-0.304094 -0.205304 0)
(-0.340631 -0.186198 0)
(-0.397143 -0.138762 0)
(-0.48218 -0.0214431 0)
(-0.546235 0.090198 0)
(-0.00406225 -0.248609 0)
(-0.0122143 -0.250007 0)
(-0.0206345 -0.250515 0)
(-0.0295769 -0.251245 0)
(-0.0392689 -0.252122 0)
(-0.0499343 -0.253028 0)
(-0.0617789 -0.253782 0)
(-0.0749922 -0.254151 0)
(-0.0897571 -0.253801 0)
(-0.106051 -0.252275 0)
(-0.123529 -0.249045 0)
(-0.141226 -0.243359 0)
(-0.157351 -0.235058 0)
(-0.172618 -0.227332 0)
(-0.189759 -0.220311 0)
(-0.209462 -0.213323 0)
(-0.233184 -0.205337 0)
(-0.26109 -0.194725 0)
(-0.294164 -0.179702 0)
(-0.335422 -0.160229 0)
(-0.38107 -0.136302 0)
(-0.408867 -0.0895856 0)
(-0.408994 -0.00158863 0)
(-0.00416025 -0.233231 0)
(-0.0126308 -0.234522 0)
(-0.021332 -0.234823 0)
(-0.0304672 -0.235269 0)
(-0.0402125 -0.235698 0)
(-0.05073 -0.236006 0)
(-0.0621712 -0.236041 0)
(-0.0746573 -0.235544 0)
(-0.0882359 -0.234195 0)
(-0.102849 -0.231697 0)
(-0.118237 -0.227634 0)
(-0.133877 -0.221779 0)
(-0.149363 -0.214658 0)
(-0.165142 -0.207511 0)
(-0.18206 -0.199838 0)
(-0.200755 -0.191089 0)
(-0.221576 -0.180217 0)
(-0.244557 -0.165953 0)
(-0.269313 -0.146623 0)
(-0.294952 -0.119805 0)
(-0.320303 -0.080362 0)
(-0.342298 -0.0263263 0)
(-0.352403 0.0283016 0)
(-0.00420071 -0.225751 0)
(-0.0127367 -0.226871 0)
(-0.021482 -0.226875 0)
(-0.0305911 -0.226826 0)
(-0.040202 -0.226646 0)
(-0.0504425 -0.226213 0)
(-0.0614192 -0.225369 0)
(-0.0732036 -0.223926 0)
(-0.0858116 -0.221659 0)
(-0.099176 -0.21832 0)
(-0.113126 -0.213698 0)
(-0.127428 -0.207719 0)
(-0.14198 -0.200562 0)
(-0.156975 -0.192527 0)
(-0.172784 -0.183478 0)
(-0.189711 -0.172949 0)
(-0.207891 -0.16025 0)
(-0.227214 -0.144527 0)
(-0.247266 -0.124811 0)
(-0.267131 -0.100057 0)
(-0.28482 -0.0691447 0)
(-0.296131 -0.0311164 0)
(-0.298761 0.0139247 0)
(-0.00417096 -0.217158 0)
(-0.0126393 -0.218109 0)
(-0.0212837 -0.217851 0)
(-0.0302281 -0.217414 0)
(-0.0395789 -0.216719 0)
(-0.0494339 -0.215667 0)
(-0.0598681 -0.214129 0)
(-0.0709261 -0.211953 0)
(-0.0826106 -0.208966 0)
(-0.0948718 -0.205 0)
(-0.107611 -0.199916 0)
(-0.120722 -0.193654 0)
(-0.134166 -0.186248 0)
(-0.148014 -0.177711 0)
(-0.162397 -0.16788 0)
(-0.17741 -0.156416 0)
(-0.19301 -0.142823 0)
(-0.208953 -0.126493 0)
(-0.224713 -0.106751 0)
(-0.239381 -0.0829118 0)
(-0.251489 -0.0544671 0)
(-0.258887 -0.0216125 0)
(-0.26035 0.0133806 0)
(-0.00408278 -0.208857 0)
(-0.0123624 -0.20966 0)
(-0.0207861 -0.209185 0)
(-0.0294537 -0.208426 0)
(-0.0384472 -0.207317 0)
(-0.0478396 -0.205773 0)
(-0.0576852 -0.203689 0)
(-0.0680132 -0.200945 0)
(-0.078822 -0.197409 0)
(-0.0900774 -0.192955 0)
(-0.10172 -0.187478 0)
(-0.113689 -0.180907 0)
(-0.125952 -0.173197 0)
(-0.138511 -0.164274 0)
(-0.151378 -0.153985 0)
(-0.164521 -0.142075 0)
(-0.177807 -0.128204 0)
(-0.190943 -0.111983 0)
(-0.203432 -0.0930278 0)
(-0.214527 -0.071044 0)
(-0.223173 -0.0459754 0)
(-0.228002 -0.0182528 0)
(-0.228609 0.0109268 0)
(-0.00394529 -0.200759 0)
(-0.011938 -0.201433 0)
(-0.0200463 -0.200783 0)
(-0.0283503 -0.199766 0)
(-0.0369123 -0.198328 0)
(-0.0457873 -0.196397 0)
(-0.0550144 -0.19389 0)
(-0.0646129 -0.19071 0)
(-0.0745796 -0.186754 0)
(-0.0848894 -0.181923 0)
(-0.0955008 -0.176128 0)
(-0.106367 -0.169293 0)
(-0.117446 -0.161347 0)
(-0.128702 -0.152197 0)
(-0.140083 -0.141708 0)
(-0.151493 -0.129696 0)
(-0.162759 -0.115937 0)
(-0.173591 -0.100199 0)
(-0.183559 -0.0822875 0)
(-0.192089 -0.0621151 0)
(-0.198453 -0.0398014 0)
(-0.201777 -0.015802 0)
(-0.201954 0.00900185 0)
(-0.00376798 -0.192981 0)
(-0.0113949 -0.193546 0)
(-0.019113 -0.192755 0)
(-0.026986 -0.191535 0)
(-0.0350609 -0.189838 0)
(-0.0433789 -0.187607 0)
(-0.0519677 -0.184773 0)
(-0.0608395 -0.18126 0)
(-0.0699895 -0.176986 0)
(-0.0793963 -0.171869 0)
(-0.0890249 -0.165833 0)
(-0.0988316 -0.158806 0)
(-0.108766 -0.150713 0)
(-0.118769 -0.141469 0)
(-0.128759 -0.130966 0)
(-0.138615 -0.119077 0)
(-0.148154 -0.105664 0)
(-0.157115 -0.0906027 0)
(-0.165147 -0.0738197 0)
(-0.171819 -0.0553399 0)
(-0.176631 -0.0353441 0)
(-0.179007 -0.0142293 0)
(-0.178964 0.00736829 0)
(-0.00355899 -0.185592 0)
(-0.0107576 -0.186065 0)
(-0.018027 -0.185164 0)
(-0.0254175 -0.183784 0)
(-0.0329639 -0.181886 0)
(-0.0406965 -0.179425 0)
(-0.0486345 -0.176343 0)
(-0.0567846 -0.17258 0)
(-0.0651396 -0.168069 0)
(-0.073679 -0.162745 0)
(-0.0823699 -0.156541 0)
(-0.0911682 -0.149396 0)
(-0.100019 -0.141242 0)
(-0.108851 -0.13201 0)
(-0.117573 -0.121622 0)
(-0.126058 -0.109994 0)
(-0.134135 -0.0970508 0)
(-0.141579 -0.0827393 0)
(-0.148111 -0.0670572 0)
(-0.153412 -0.0500836 0)
(-0.157136 -0.0320099 0)
(-0.158892 -0.0131658 0)
(-0.158741 0.0059786 0)
(-0.0033252 -0.17865 0)
(-0.0100467 -0.179045 0)
(-0.0168223 -0.178059 0)
(-0.0236912 -0.176556 0)
(-0.0306788 -0.174505 0)
(-0.0378065 -0.171868 0)
(-0.0450869 -0.168601 0)
(-0.0525222 -0.164654 0)
(-0.0601032 -0.159974 0)
(-0.0678088 -0.154508 0)
(-0.0756067 -0.148202 0)
(-0.0834527 -0.141004 0)
(-0.0912901 -0.13286 0)
(-0.0990462 -0.123719 0)
(-0.106628 -0.113528 0)
(-0.113915 -0.102239 0)
(-0.120756 -0.0898173 0)
(-0.126964 -0.076257 0)
(-0.13232 -0.0615954 0)
(-0.136588 -0.0459338 0)
(-0.139525 -0.0294528 0)
(-0.140861 -0.0124232 0)
(-0.140663 0.00479941 0)
(-0.00307228 -0.172198 0)
(-0.00927923 -0.172528 0)
(-0.0155268 -0.171477 0)
(-0.021845 -0.169881 0)
(-0.0282518 -0.167715 0)
(-0.034762 -0.164949 0)
(-0.0413827 -0.161546 0)
(-0.0481126 -0.157469 0)
(-0.0549406 -0.152674 0)
(-0.0618454 -0.14712 0)
(-0.068795 -0.140764 0)
(-0.0757464 -0.133566 0)
(-0.082644 -0.125486 0)
(-0.0894178 -0.116489 0)
(-0.0959804 -0.106542 0)
(-0.102224 -0.0956255 0)
(-0.108017 -0.083733 0)
(-0.113209 -0.0708858 0)
(-0.117629 -0.0571422 0)
(-0.121101 -0.0426094 0)
(-0.123453 -0.0274505 0)
(-0.124493 -0.011888 0)
(-0.124284 0.00380198 0)
(-0.00280487 -0.166271 0)
(-0.00846895 -0.166548 0)
(-0.0141628 -0.165448 0)
(-0.0199093 -0.163783 0)
(-0.0257204 -0.161532 0)
(-0.0316055 -0.158672 0)
(-0.0375681 -0.155174 0)
(-0.0436039 -0.151008 0)
(-0.0497005 -0.146142 0)
(-0.0558367 -0.140543 0)
(-0.0619817 -0.134178 0)
(-0.0680947 -0.127019 0)
(-0.0741234 -0.119039 0)
(-0.0800033 -0.110216 0)
(-0.0856557 -0.100537 0)
(-0.0909867 -0.0899975 0)
(-0.0958869 -0.0786127 0)
(-0.100234 -0.0664194 0)
(-0.103895 -0.0534857 0)
(-0.10674 -0.0399164 0)
(-0.108645 -0.0258565 0)
(-0.109472 -0.0114903 0)
(-0.109271 0.00296229 0)
(-0.00252667 -0.160894 0)
(-0.00762694 -0.161126 0)
(-0.0127485 -0.159991 0)
(-0.0179084 -0.158276 0)
(-0.023114 -0.155964 0)
(-0.0283709 -0.153038 0)
(-0.0336794 -0.149476 0)
(-0.0390335 -0.145255 0)
(-0.0444203 -0.14035 0)
(-0.0498191 -0.134738 0)
(-0.055201 -0.128395 0)
(-0.0605282 -0.121302 0)
(-0.0657534 -0.113443 0)
(-0.0708189 -0.104809 0)
(-0.075656 -0.0953993 0)
(-0.080185 -0.0852237 0)
(-0.0843158 -0.0743087 0)
(-0.0879504 -0.0627008 0)
(-0.0909869 -0.0504711 0)
(-0.0933266 -0.037719 0)
(-0.09488 -0.0245722 0)
(-0.0955463 -0.0111863 0)
(-0.0953639 0.00226009 0)
(-0.00224064 -0.156086 0)
(-0.00676195 -0.156282 0)
(-0.011298 -0.155122 0)
(-0.0158612 -0.15337 0)
(-0.0204556 -0.151017 0)
(-0.025084 -0.148047 0)
(-0.0297445 -0.144445 0)
(-0.0344302 -0.140193 0)
(-0.039128 -0.135274 0)
(-0.0438186 -0.129671 0)
(-0.0484756 -0.123369 0)
(-0.0530649 -0.116358 0)
(-0.0575449 -0.10863 0)
(-0.0618653 -0.100186 0)
(-0.0659677 -0.0910354 0)
(-0.0697858 -0.0811968 0)
(-0.0732462 -0.0707047 0)
(-0.0762713 -0.0596103 0)
(-0.0787825 -0.0479846 0)
(-0.0807056 -0.03592 0)
(-0.0819751 -0.0235301 0)
(-0.0825174 -0.0109476 0)
(-0.0823592 0.00167844 0)
(-0.00194908 -0.151861 0)
(-0.00588076 -0.152027 0)
(-0.00982217 -0.150849 0)
(-0.0137824 -0.149074 0)
(-0.017763 -0.146693 0)
(-0.0217646 -0.143695 0)
(-0.0257842 -0.14007 0)
(-0.0298144 -0.135805 0)
(-0.033843 -0.130888 0)
(-0.0378521 -0.125309 0)
(-0.0418185 -0.11906 0)
(-0.0457123 -0.112137 0)
(-0.0494977 -0.104541 0)
(-0.0531322 -0.0962785 0)
(-0.056567 -0.0873661 0)
(-0.059748 -0.0778301 0)
(-0.0626164 -0.0677092 0)
(-0.0651113 -0.0570566 0)
(-0.0671724 -0.0459415 0)
(-0.068744 -0.0344496 0)
(-0.0697779 -0.0226827 0)
(-0.070221 -0.0107561 0)
(-0.0700898 0.00120329 0)
(-0.00165369 -0.148227 0)
(-0.00498846 -0.148371 0)
(-0.00832936 -0.147181 0)
(-0.0116829 -0.14539 0)
(-0.015049 -0.142991 0)
(-0.018427 -0.139978 0)
(-0.0218132 -0.136342 0)
(-0.0252004 -0.132076 0)
(-0.0285775 -0.127172 0)
(-0.031929 -0.121625 0)
(-0.0352347 -0.115433 0)
(-0.0384695 -0.108597 0)
(-0.0416032 -0.101124 0)
(-0.0446009 -0.0930272 0)
(-0.047423 -0.084327 0)
(-0.0500261 -0.0750545 0)
(-0.052364 -0.065251 0)
(-0.0543896 -0.0549704 0)
(-0.0560571 -0.0442792 0)
(-0.057325 -0.0332573 0)
(-0.0581581 -0.0219968 0)
(-0.0585188 -0.0105997 0)
(-0.0584154 0.000823102 0)
(-0.0013558 -0.145187 0)
(-0.00408884 -0.145321 0)
(-0.00682537 -0.144122 0)
(-0.00957054 -0.142321 0)
(-0.0123229 -0.139912 0)
(-0.015081 -0.136891 0)
(-0.017841 -0.133253 0)
(-0.0205965 -0.128992 0)
(-0.0233379 -0.124107 0)
(-0.0260521 -0.118595 0)
(-0.0287226 -0.112458 0)
(-0.0313287 -0.105702 0)
(-0.0338462 -0.0983392 0)
(-0.0362472 -0.0903858 0)
(-0.0385005 -0.0818668 0)
(-0.0405722 -0.0728156 0)
(-0.0424272 -0.0632753 0)
(-0.0440297 -0.0532991 0)
(-0.0453457 -0.0429512 0)
(-0.0463449 -0.0323063 0)
(-0.0470021 -0.0214488 0)
(-0.0472916 -0.0104709 0)
(-0.0472164 0.000528657 0)
(-0.00105177 -0.142749 0)
(-0.00318121 -0.142859 0)
(-0.00531352 -0.141656 0)
(-0.00745026 -0.13985 0)
(-0.00959027 -0.137437 0)
(-0.011732 -0.134414 0)