/*--------------------------------*- C++ -*----------------------------------*\
| =========                 |                                                 |
| \\      /  F ield         | OpenFOAM: The Open Source CFD Toolbox           |
|  \\    /   O peration     | Version:  2.4.0                                 |
|   \\  /    A nd           | Web:      www.OpenFOAM.org                      |
|    \\/     M anipulation  |                                                 |
\*---------------------------------------------------------------------------*/
FoamFile
{
    version     2.0;
    format      ascii;
    class       volVectorField;
    location    "0.05";
    object      U.air;
}
// * * * * * * * * * * * * * * * * * * * * * * * * * * * * * * * * * * * * * //

dimensions      [0 1 -1 0 0 0 0];

internalField   nonuniform List<vector> 
2268
(
(0.00917721 -0.00433951 0)
(0.0278917 -0.00450896 0)
(0.0477052 -0.00485754 0)
(0.069421 -0.00540546 0)
(0.0939642 -0.00618711 0)
(0.122427 -0.00725941 0)
(0.156443 -0.00870676 0)
(0.196712 -0.010687 0)
(0.251314 -0.0133614 0)
(0.303529 -0.0167889 0)
(0.416203 -0.0258975 0)
(0.50762 -0.030306 0)
(0.687469 -0.0438149 0)
(0.776511 -0.141402 0)
(0.845923 -0.219056 0)
(0.814508 -0.150806 0)
(0.538777 0.0171699 0)
(0.435559 0.02047 0)
(0.369183 0.0144423 0)
(0.310808 0.0142645 0)
(0.245846 0.0173598 0)
(0.163876 0.0222361 0)
(0.0587976 0.0269098 0)
(0.00909845 -0.0129822 0)
(0.0276516 -0.0134894 0)
(0.0472897 -0.0145308 0)
(0.0688044 -0.016167 0)
(0.0931038 -0.0184998 0)
(0.121256 -0.0216973 0)
(0.154848 -0.0260079 0)
(0.194553 -0.0319141 0)
(0.248336 -0.0398312 0)
(0.29849 -0.0508845 0)
(0.413217 -0.0709849 0)
(0.48644 -0.1178 0)
(0.648985 -0.0924931 0)
(0.737579 -0.103451 0)
(0.768696 -0.0683514 0)
(0.61151 0.0650686 0)
(0.486051 0.0877972 0)
(0.425271 0.0527481 0)
(0.367408 0.0408393 0)
(0.312927 0.0420842 0)
(0.250143 0.0517663 0)
(0.168841 0.0669382 0)
(0.0611546 0.0819376 0)
(0.00893916 -0.0215117 0)
(0.0271648 -0.0223499 0)
(0.0464478 -0.0240707 0)
(0.0675567 -0.0267721 0)
(0.0913659 -0.0306188 0)
(0.118897 -0.035882 0)
(0.151635 -0.042964 0)
(0.190251 -0.0526542 0)
(0.242084 -0.0655899 0)
(0.289307 -0.083805 0)
(0.401266 -0.116939 0)
(0.457651 -0.169269 0)
(0.593251 -0.172951 0)
(0.657876 -0.199827 0)
(0.657091 -0.0952953 0)
(0.503259 0.142001 0)
(0.455358 0.121575 0)
(0.410725 0.0795409 0)
(0.364344 0.0646998 0)
(0.316546 0.0679192 0)
(0.258258 0.0849959 0)
(0.178939 0.112039 0)
(0.0661553 0.139577 0)
(0.00870273 -0.0298535 0)
(0.0264425 -0.0310124 0)
(0.0451994 -0.0333906 0)
(0.0657092 -0.0371204 0)
(0.0887974 -0.0424203 0)
(0.115419 -0.0496537 0)
(0.14691 -0.0593606 0)
(0.183953 -0.0725702 0)
(0.232871 -0.0901548 0)
(0.276916 -0.114568 0)
(0.381941 -0.157584 0)
(0.419989 -0.219057 0)
(0.533224 -0.242257 0)
(0.582804 -0.217116 0)
(0.53243 -0.0085182 0)
(0.440337 0.193373 0)
(0.425834 0.142841 0)
(0.396213 0.0978734 0)
(0.361974 0.0838923 0)
(0.322739 0.0906136 0)
(0.271366 0.116116 0)
(0.195646 0.157425 0)
(0.0743613 0.205914 0)
(0.008392 -0.0379357 0)
(0.0254936 -0.0394013 0)
(0.0435609 -0.0424076 0)
(0.0632888 -0.0471161 0)
(0.0854417 -0.0537881 0)
(0.110889 -0.062864 0)
(0.140792 -0.0749997 0)
(0.175828 -0.0913854 0)
(0.221087 -0.113101 0)
(0.261922 -0.142756 0)
(0.357522 -0.193541 0)
(0.377227 -0.259724 0)
(0.477275 -0.293023 0)
(0.510625 -0.228509 0)
(0.418804 0.0649787 0)
(0.395102 0.211057 0)
(0.397117 0.152642 0)
(0.383017 0.109895 0)
(0.361176 0.0979452 0)
(0.332232 0.108744 0)
(0.290095 0.14411 0)
(0.223023 0.202959 0)
(0.0890767 0.271988 0)
(0.00801082 -0.0456951 0)
(0.0243297 -0.0474502 0)
(0.0415531 -0.05105 0)
(0.0603302 -0.0566799 0)
(0.0813541 -0.0646275 0)
(0.105393 -0.0753965 0)
(0.133421 -0.0897345 0)
(0.166081 -0.108928 0)
(0.207216 -0.134234 0)
(0.244935 -0.168401 0)
(0.329743 -0.224199 0)
(0.332808 -0.293806 0)
(0.425422 -0.328542 0)
(0.436878 -0.220064 0)
(0.340275 0.128741 0)
(0.356594 0.211486 0)
(0.372034 0.152914 0)
(0.371189 0.116008 0)
(0.361029 0.108283 0)
(0.345976 0.121724 0)
(0.316517 0.166476 0)
(0.261992 0.247232 0)
(0.10795 0.376468 0)
(0.00756335 -0.0530707 0)
(0.0229634 -0.0550958 0)
(0.0391984 -0.0592499 0)
(0.056871 -0.0657392 0)
(0.0765959 -0.0748687 0)
(0.0990255 -0.0871859 0)
(0.124943 -0.103487 0)
(0.154915 -0.125125 0)
(0.191717 -0.15347 0)
(0.22608 -0.191561 0)
(0.300244 -0.249624 0)
(0.28947 -0.322057 0)
(0.375478 -0.350651 0)
(0.365518 -0.198392 0)
(0.28602 0.17053 0)
(0.324167 0.202358 0)
(0.350698 0.148054 0)
(0.361776 0.116451 0)
(0.364819 0.112443 0)
(0.361628 0.127938 0)
(0.349465 0.180901 0)
(0.319255 0.280585 0)
(0.148595 0.443233 0)
(0.00705239 -0.0597557 0)
(0.0214024 -0.0620194 0)
(0.036507 -0.0666666 0)
(0.0529208 -0.0739197 0)
(0.0711999 -0.0841625 0)
(0.0918804 -0.0978477 0)
(0.115512 -0.115719 0)
(0.14256 -0.139244 0)
(0.174929 -0.169766 0)
(0.205434 -0.210446 0)
(0.269753 -0.269318 0)
(0.248411 -0.343164 0)
(0.327606 -0.360652 0)
(0.297542 -0.164383 0)
(0.24753 0.19103 0)
(0.297151 0.188782 0)
(0.333475 0.139167 0)
(0.352701 0.111232 0)
(0.36844 0.10856 0)
(0.381647 0.128196 0)
(0.384096 0.187877 0)
(0.408095 0.333815 0)
(0.211959 0.655489 0)
(-0.0136768 0.000459725 0)
(0.0245751 -0.0160862 0)
(0.114578 -0.0157732 0)
(0.17762 -0.0106681 0)
(0.215141 -0.00492936 0)
(0.228726 -0.000933875 0)
(0.227369 0.00142601 0)
(0.215183 0.00306026 0)
(0.198831 0.00380578 0)
(0.179952 0.00411622 0)
(0.160031 0.00421867 0)
(0.139926 0.00420474 0)
(0.120034 0.00413399 0)
(0.100538 0.00404137 0)
(0.081491 0.00394707 0)
(0.0628722 0.00386284 0)
(0.0446162 0.00379536 0)
(0.026639 0.00374737 0)
(0.00884024 0.00374044 0)
(-0.019979 0.00209164 0)
(0.0194992 -0.0506316 0)
(0.120178 -0.0492325 0)
(0.186942 -0.0327003 0)
(0.2244 -0.0151364 0)
(0.236868 -0.00256194 0)
(0.233847 0.00499301 0)
(0.220917 0.00956955 0)
(0.203706 0.0117424 0)
(0.184107 0.0126792 0)
(0.163598 0.0129733 0)
(0.142969 0.012918 0)
(0.122602 0.0126935 0)
(0.102665 0.0124048 0)
(0.083202 0.0121128 0)
(0.0641854 0.0118527 0)
(0.0455444 0.0116448 0)
(0.0271895 0.0114998 0)
(0.00900561 0.0113805 0)
(-0.0344147 0.00775208 0)
(0.00387993 -0.0892896 0)
(0.124568 -0.0860171 0)
(0.19659 -0.055203 0)
(0.232985 -0.0244538 0)
(0.242872 -0.0033387 0)
(0.237015 0.00935051 0)
(0.22286 0.0164098 0)
(0.204653 0.0198728 0)
(0.184517 0.0213601 0)
(0.16372 0.0217898 0)
(0.142938 0.02166 0)
(0.122498 0.0212625 0)
(0.102535 0.0207666 0)
(0.0830734 0.0202702 0)
(0.0640742 0.0198305 0)
(0.0454597 0.0194802 0)
(0.0271377 0.0192386 0)
(0.00898842 0.0190471 0)
(-0.0575052 0.0246135 0)
(-0.0222457 -0.136597 0)
(0.131814 -0.12932 0)
(0.212514 -0.0783064 0)
(0.246327 -0.0323102 0)
(0.251457 -0.00243171 0)
(0.241936 0.0146677 0)
(0.225474 0.0238805 0)
(0.205881 0.0283765 0)
(0.184985 0.0302558 0)
(0.163783 0.0307295 0)
(0.142796 0.0304718 0)
(0.122265 0.0298703 0)
(0.102279 0.0291487 0)
(0.0828331 0.0284372 0)
(0.0638718 0.0278113 0)
(0.0453082 0.0273149 0)
(0.0270449 0.0269739 0)
(0.00895758 0.0267019 0)
(-0.092279 0.0628578 0)
(-0.0567327 -0.196878 0)
(0.148952 -0.183415 0)
(0.238307 -0.101052 0)
(0.264996 -0.0373589 0)
(0.262756 0.000721495 0)
(0.248155 0.0214554 0)
(0.228666 0.0322166 0)
(0.20735 0.0373582 0)
(0.185511 0.0394082 0)
(0.163808 0.0398026 0)
(0.142571 0.0393465 0)
(0.121935 0.0385001 0)
(0.101925 0.0375292 0)
(0.0825047 0.0365887 0)
(0.063597 0.0357687 0)
(0.0451034 0.0351217 0)
(0.0269194 0.0346785 0)
(0.0089156 0.0343254 0)
(-0.124167 0.0834295 0)
(-0.070365 -0.28848 0)
(0.195129 -0.259052 0)
(0.287678 -0.121072 0)
(0.290799 -0.0372297 0)
(0.276386 0.00716581 0)
(0.255269 0.0300649 0)
(0.232203 0.0415821 0)
(0.20892 0.046907 0)
(0.186014 0.0488657 0)
(0.163751 0.0490337 0)
(0.142239 0.048295 0)
(0.121491 0.047155 0)
(0.101465 0.0459065 0)
(0.0820838 0.0447204 0)
(0.0632475 0.0436967 0)
(0.044844 0.0428934 0)
(0.0267606 0.0423449 0)
(0.00886246 0.0419098 0)
(-0.0297763 0.26912 0)
(0.0566877 -0.470815 0)
(0.28124 -0.338466 0)
(0.347766 -0.129904 0)
(0.320001 -0.0284662 0)
(0.291124 0.0177709 0)
(0.262713 0.040784 0)
(0.235789 0.0520675 0)
(0.210426 0.0570433 0)
(0.186404 0.0586181 0)
(0.16356 0.0583974 0)
(0.141769 0.0572847 0)
(0.120917 0.0557993 0)
(0.100889 0.0542438 0)
(0.0815645 0.0527956 0)
(0.0628199 0.0515589 0)
(0.044528 0.0505944 0)
(0.0265675 0.0499381 0)
(0.00879771 0.0494204 0)
(0.633021 -0.0698419 0)
(0.62588 -0.491339 0)
(0.440916 -0.334437 0)
(0.401667 -0.113685 0)
(0.348931 -0.0128938 0)
(0.305271 0.0320339 0)
(0.269764 0.0535916 0)
(0.239079 0.0637537 0)
(0.211682 0.0678894 0)
(0.186574 0.0688024 0)
(0.163172 0.0680314 0)
(0.141124 0.066448 0)
(0.12019 0.0645577 0)
(0.100182 0.0626577 0)
(0.0809376 0.0609236 0)
(0.0623083 0.0594588 0)
(0.044152 0.0583236 0)
(0.0263384 0.0575539 0)
(0.00872118 0.056951 0)
(0.00609763 -0.0706695 0)
(0.0184768 -0.0732943 0)
(0.0314378 -0.0786664 0)
(0.0454021 -0.087084 0)
(0.0614329 -0.0981599 0)
(0.0795822 -0.112986 0)
(0.0995211 -0.132485 0)
(0.121762 -0.158082 0)
(0.147242 -0.190747 0)
(0.170862 -0.23444 0)
(0.221413 -0.293638 0)
(0.185935 -0.371929 0)
(0.256665 -0.370188 0)
(0.179119 -0.10295 0)
(0.201234 0.181623 0)
(0.263904 0.153226 0)
(0.308965 0.114542 0)
(0.342633 0.0934015 0)
(0.37299 0.0907169 0)
(0.413702 0.104841 0)
(0.453965 0.164418 0)
(0.600656 0.228494 0)
(0.804935 0.562049 0)
(0.00476697 -0.0849087 0)
(0.0144338 -0.087185 0)
(0.0244895 -0.0919785 0)
(0.035358 -0.0997505 0)
(0.0472543 -0.111681 0)
(0.0611046 -0.12685 0)
(0.0757185 -0.147539 0)
(0.0910909 -0.174232 0)
(0.10741 -0.209749 0)
(0.120656 -0.255952 0)
(0.152 -0.314585 0)
(0.106539 -0.408011 0)
(0.160378 -0.36311 0)
(0.0426293 -0.00101379 0)
(0.166441 0.122835 0)
(0.232241 0.0946056 0)
(0.285165 0.0706644 0)
(0.332871 0.0560935 0)
(0.378502 0.0520336 0)
(0.435892 0.0583277 0)
(0.502137 0.0809703 0)
(0.606717 0.0928306 0)
(0.801929 0.172067 0)
(0.00381901 -0.0649988 0)
(0.0114283 -0.0688997 0)
(0.0189949 -0.0770162 0)
(0.0266124 -0.0909767 0)
(0.0352382 -0.11164 0)
(0.0413761 -0.134418 0)
(0.051282 -0.160809 0)
(0.0573929 -0.199981 0)
(0.0674393 -0.237255 0)
(0.0693846 -0.293268 0)
(0.0728618 -0.351218 0)
(0.042443 -0.437133 0)
(0.0444966 -0.319464 0)
(0.0055636 0.0427977 0)
(0.148894 0.0410446 0)
(0.214346 0.0285171 0)
(0.270844 0.0174564 0)
(0.324045 0.00704755 0)
(0.375699 -0.000408833 0)
(0.4406 -0.00553805 0)
(0.501813 -0.00432369 0)
(0.620067 -0.0247135 0)
(0.733551 -0.0373602 0)
(0.00157873 -0.186712 0)
(0.0046851 -0.189119 0)
(0.0059339 -0.194077 0)
(0.00431636 -0.200626 0)
(0.0119419 -0.20863 0)
(0.0164398 -0.222608 0)
(0.0208303 -0.244539 0)
(0.0314451 -0.26248 0)
(0.0326431 -0.299713 0)
(0.0482355 -0.32831 0)
(0.0486019 -0.377568 0)
(0.0416794 -0.442915 0)
(0.0117743 -0.279936 0)
(0.0690066 -0.0512406 0)
(0.15227 -0.0377752 0)
(0.211945 -0.0324662 0)
(0.264129 -0.0359803 0)
(0.315082 -0.044707 0)
(0.366515 -0.0559585 0)
(0.429851 -0.0698972 0)
(0.485922 -0.083878 0)
(0.593771 -0.12371 0)
(0.677804 -0.167867 0)
(0.0138039 -0.118575 0)
(0.0415848 -0.121878 0)
(0.0713034 -0.127725 0)
(0.103577 -0.120518 0)
(0.127456 -0.0922809 0)
(0.150757 -0.121397 0)
(0.169507 -0.114041 0)
(0.183385 -0.160563 0)
(0.193884 -0.190156 0)
(0.200191 -0.255285 0)
(0.194272 -0.313806 0)
(0.169347 -0.371644 0)
(0.167412 -0.234784 0)
(0.131831 -0.116686 0)
(0.173665 -0.0885465 0)
(0.216961 -0.0795428 0)
(0.258833 -0.0832429 0)
(0.304075 -0.0934716 0)
(0.351515 -0.10874 0)
(0.408357 -0.12952 0)
(0.457635 -0.153388 0)
(0.548386 -0.207848 0)
(0.6141 -0.261324 0)
(0.0122561 -0.141487 0)
(0.0367856 -0.144011 0)
(0.0610818 -0.149461 0)
(0.0829199 -0.160973 0)
(0.105389 -0.178729 0)
(0.125794 -0.194456 0)
(0.146267 -0.218701 0)
(0.163147 -0.237498 0)
(0.175144 -0.263598 0)
(0.177055 -0.285898 0)
(0.169239 -0.305491 0)
(0.164246 -0.321411 0)
(0.184697 -0.210987 0)
(0.144557 -0.129004 0)
(0.17968 -0.115859 0)
(0.214908 -0.116464 0)
(0.25016 -0.123855 0)
(0.289543 -0.137085 0)
(0.331439 -0.156055 0)
(0.38004 -0.181531 0)
(0.421628 -0.212214 0)
(0.494879 -0.271153 0)
(0.562202 -0.320919 0)
(0.0106631 -0.158189 0)
(0.0319071 -0.161186 0)
(0.0527805 -0.1672 0)
(0.0726199 -0.176307 0)
(0.0914195 -0.186662 0)
(0.109031 -0.200982 0)
(0.124769 -0.216097 0)
(0.137976 -0.236165 0)
(0.147138 -0.25683 0)
(0.152066 -0.278848 0)
(0.150775 -0.29915 0)
(0.159168 -0.314004 0)
(0.188342 -0.216177 0)
(0.148386 -0.148657 0)
(0.178589 -0.141305 0)
(0.208561 -0.147766 0)
(0.2382 -0.158814 0)
(0.271796 -0.175034 0)
(0.307646 -0.196908 0)
(0.348189 -0.22528 0)
(0.381631 -0.259303 0)
(0.442055 -0.317892 0)
(0.592575 -0.359907 0)
(0.00931793 -0.179512 0)
(0.0278354 -0.182155 0)
(0.0459243 -0.187344 0)
(0.0632239 -0.195115 0)
(0.0795815 -0.205104 0)
(0.0946998 -0.217511 0)
(0.108255 -0.232049 0)
(0.119669 -0.248534 0)
(0.128332 -0.266232 0)
(0.134239 -0.283909 0)
(0.136084 -0.299646 0)
(0.149852 -0.312767 0)
(0.18185 -0.222118 0)
(0.14296 -0.164359 0)
(0.171236 -0.16258 0)
(0.1976 -0.174143 0)
(0.222866 -0.188596 0)
(0.251328 -0.207397 0)
(0.281465 -0.231321 0)
(0.314694 -0.261116 0)
(0.340846 -0.2963 0)
(0.390731 -0.351955 0)
(0.574244 -0.387043 0)
(0.00807173 -0.196631 0)
(0.0241015 -0.199056 0)
(0.0397567 -0.203744 0)
(0.0547842 -0.210677 0)
(0.0689669 -0.21968 0)
(0.0820674 -0.230702 0)
(0.0938006 -0.243465 0)
(0.103868 -0.257778 0)
(0.112024 -0.272958 0)
(0.118504 -0.288261 0)
(0.122201 -0.302692 0)
(0.138289 -0.31649 0)
(0.170607 -0.230655 0)
(0.132437 -0.17934 0)
(0.160005 -0.181951 0)
(0.183235 -0.196974 0)
(0.204897 -0.21399 0)
(0.22891 -0.234701 0)
(0.253996 -0.259879 0)
(0.280984 -0.290076 0)
(0.301271 -0.324958 0)
(0.342735 -0.376194 0)
(0.53563 -0.404425 0)
(0.00695174 -0.211775 0)
(0.0207561 -0.213974 0)
(0.0342421 -0.218191 0)
(0.0472043 -0.224424 0)
(0.0594491 -0.232556 0)
(0.0707845 -0.242452 0)
(0.0810211 -0.253904 0)
(0.0900024 -0.266615 0)
(0.0976532 -0.280155 0)
(0.104287 -0.293988 0)
(0.108757 -0.307583 0)
(0.125393 -0.321485 0)
(0.157107 -0.238207 0)
(0.119458 -0.193157 0)
(0.146235 -0.199531 0)
(0.166508 -0.216798 0)
(0.185063 -0.235582 0)
(0.205248 -0.257567 0)
(0.226029 -0.283394 0)
(0.247938 -0.313406 0)
(0.263978 -0.347303 0)
(0.299905 -0.393813 0)
(0.498558 -0.416926 0)
(0.00593717 -0.224717 0)
(0.017728 -0.226725 0)
(0.0292532 -0.230554 0)
(0.040345 -0.236215 0)
(0.0508456 -0.243608 0)
(0.0606099 -0.252595 0)
(0.069514 -0.262989 0)
(0.0774823 -0.274547 0)
(0.0845144 -0.286959 0)
(0.0908958 -0.299879 0)
(0.0955352 -0.313034 0)
(0.111523 -0.326878 0)
(0.141657 -0.245678 0)
(0.105329 -0.206025 0)
(0.130842 -0.215314 0)
(0.148236 -0.233947 0)
(0.164026 -0.253848 0)
(0.180886 -0.276594 0)
(0.198015 -0.302674 0)
(0.215815 -0.332287 0)
(0.22886 -0.365216 0)
(0.26161 -0.407709 0)
(0.454453 -0.430703 0)
(0.00501289 -0.235732 0)
(0.0149682 -0.237577 0)
(0.0247026 -0.241079 0)
(0.0340822 -0.246269 0)
(0.0429844 -0.253058 0)
(0.0513022 -0.261323 0)
(0.0589546 -0.270908 0)
(0.0659078 -0.281626 0)
(0.0721903 -0.293262 0)
(0.0780426 -0.305597 0)
(0.0825581 -0.318495 0)
(0.0970137 -0.332357 0)
(0.12474 -0.252019 0)
(0.0907547 -0.217579 0)
(0.114384 -0.229233 0)
(0.129007 -0.248616 0)
(0.142284 -0.269151 0)
(0.156197 -0.292274 0)
(0.170144 -0.318364 0)
(0.184439 -0.34756 0)
(0.195049 -0.379814 0)
(0.22454 -0.419832 0)
(0.383261 -0.44685 0)
(0.00416628 -0.244889 0)
(0.0124368 -0.246624 0)
(0.0205167 -0.249885 0)
(0.0283039 -0.254707 0)
(0.0357135 -0.261019 0)
(0.0426669 -0.268717 0)
(0.0491049 -0.27768 0)
(0.0550111 -0.287776 0)
(0.0604186 -0.298859 0)
(0.0655055 -0.310793 0)
(0.0694613 -0.32353 0)
(0.0822972 -0.33741 0)
(0.107291 -0.256958 0)
(0.0757236 -0.227733 0)
(0.0972426 -0.241299 0)
(0.109257 -0.260967 0)
(0.120211 -0.281766 0)
(0.13144 -0.304973 0)
(0.142507 -0.330895 0)
(0.153624 -0.359666 0)
(0.161858 -0.391402 0)
(0.186847 -0.429717 0)
(0.288451 -0.462024 0)
(0.00335678 -0.25216 0)
(0.0100415 -0.253804 0)
(0.0165889 -0.257007 0)
(0.0228949 -0.261652 0)
(0.0289014 -0.267615 0)
(0.0345524 -0.274872 0)
(0.039795 -0.283356 0)
(0.0446184 -0.292982 0)
(0.0490536 -0.303653 0)
(0.0532238 -0.315283 0)
(0.056501 -0.327875 0)
(0.0672495 -0.34155 0)
(0.088882 -0.260841 0)
(0.0608121 -0.236702 0)
(0.079755 -0.251584 0)
(0.0893349 -0.27118 0)
(0.0980999 -0.291946 0)
(0.106829 -0.314987 0)
(0.11521 -0.340574 0)
(0.123355 -0.36883 0)
(0.129127 -0.400056 0)
(0.149078 -0.436327 0)
(0.19947 -0.472967 0)
(0.00251963 -0.259136 0)
(0.00753329 -0.260605 0)
(0.0126151 -0.263187 0)
(0.0176613 -0.267229 0)
(0.0224115 -0.272805 0)
(0.0268214 -0.279696 0)
(0.0308864 -0.287805 0)
(0.0346051 -0.297089 0)
(0.0379996 -0.307423 0)
(0.0411411 -0.318774 0)
(0.0436284 -0.331228 0)
(0.0518495 -0.344076 0)
(0.0695556 -0.262649 0)
(0.0462026 -0.242598 0)
(0.0621631 -0.260121 0)
(0.0695135 -0.279298 0)
(0.0761981 -0.29974 0)
(0.0825712 -0.32235 0)
(0.0884209 -0.347351 0)
(0.09372 -0.374838 0)
(0.0970608 -0.405446 0)
(0.111438 -0.439553 0)
(0.127731 -0.479805 0)
(0.00189742 -0.250171 0)
(0.00565219 -0.251373 0)
(0.00919508 -0.253585 0)
(0.0125611 -0.256816 0)
(0.0158676 -0.260977 0)
(0.0190152 -0.266037 0)
(0.0219772 -0.271906 0)
(0.0248261 -0.278319 0)
(0.0272549 -0.285332 0)
(0.0292542 -0.293181 0)
(0.0308996 -0.302164 0)
(0.0362344 -0.311039 0)
(0.0500139 -0.172441 0)
(0.0324002 -0.233974 0)
(0.0449495 -0.250022 0)
(0.0500953 -0.264083 0)
(0.0547616 -0.278342 0)
(0.0588969 -0.293436 0)
(0.0624137 -0.309409 0)
(0.064958 -0.328498 0)
(0.065878 -0.361558 0)
(0.075722 -0.404266 0)
(0.0743845 -0.481574 0)
(0.00145826 -0.131305 0)
(0.00441369 -0.132689 0)
(0.00732319 -0.135296 0)
(0.0101565 -0.139072 0)
(0.012909 -0.144036 0)
(0.0156011 -0.150192 0)
(0.0183332 -0.157512 0)
(0.0208703 -0.166159 0)
(0.0232999 -0.175889 0)
(0.0256139 -0.186769 0)
(0.0280469 -0.199785 0)
(0.0331514 -0.214252 0)
(0.034994 -0.0310314 0)
(0.0206755 -0.114436 0)
(0.0324532 -0.13063 0)
(0.0388314 -0.146257 0)
(0.0461747 -0.163957 0)
(0.0559532 -0.184032 0)
(0.0696599 -0.207697 0)
(0.0847485 -0.238995 0)
(0.094902 -0.287095 0)
(0.110615 -0.355206 0)
(0.0951118 -0.478967 0)
(0.000938134 -0.0679562 0)
(0.00287655 -0.070471 0)
(0.00482943 -0.0753378 0)
(0.00654376 -0.0825053 0)
(0.00797959 -0.0918064 0)
(0.00915761 -0.103184 0)
(0.0100561 -0.116537 0)
(0.0107368 -0.132067 0)
(0.0110076 -0.149359 0)
(0.00997924 -0.16774 0)
(0.00794943 -0.186063 0)
(-0.00554723 -0.204303 0)
(-0.00634749 -0.048402 0)
(0.0137955 -0.056433 0)
(0.0205656 -0.0780044 0)
(0.0215159 -0.10615 0)
(0.0207678 -0.139991 0)
(0.0198479 -0.178095 0)
(0.0168351 -0.220083 0)
(0.0167665 -0.258722 0)
(0.0138183 -0.307507 0)
(0.00875278 -0.356956 0)
(0.0291627 -0.442268 0)
(8.4747e-05 -0.208867 0)
(0.000374474 -0.210541 0)
(0.000951584 -0.214371 0)
(0.00138635 -0.220201 0)
(0.00180261 -0.227762 0)
(0.00220833 -0.237011 0)
(0.00259576 -0.247847 0)
(0.00296127 -0.260103 0)
(0.00314382 -0.273952 0)
(0.00231053 -0.288659 0)
(0.000481401 -0.300522 0)
(-0.00784855 -0.309335 0)
(-0.00707458 -0.201503 0)
(0.00348963 -0.210046 0)
(0.0044784 -0.233089 0)
(-0.00166119 -0.257817 0)
(-0.00698169 -0.280972 0)
(-0.009944 -0.306133 0)
(-0.0129098 -0.333531 0)
(-0.0166073 -0.369252 0)
(-0.00449642 -0.397016 0)
(-0.054964 -0.41285 0)
(-0.112286 -0.352117 0)
(-0.00132642 0.0547394 0)
(-0.0117801 0.0556931 0)
(-0.0195519 0.0501021 0)
(-0.0286254 0.0418106 0)
(-0.0386093 0.0306868 0)
(-0.0499203 0.0165824 0)
(-0.0629044 -0.000666678 0)
(-0.0778301 -0.0213751 0)
(-0.0947085 -0.0459076 0)
(-0.11275 -0.073291 0)
(-0.133424 -0.0896837 0)
(-0.173564 -0.0820974 0)
(-0.204001 0.0210981 0)
(-0.222822 -0.0356274 0)
(-0.234659 -0.104497 0)
(-0.247323 -0.164688 0)
(-0.267147 -0.225609 0)
(-0.295469 -0.278057 0)
(-0.329733 -0.328131 0)
(-0.374203 -0.384326 0)
(-0.441208 -0.391321 0)
(-0.591644 -0.162808 0)
(-0.857627 0.268572 0)
(-0.00374182 -0.414866 0)
(-0.00976002 -0.416146 0)
(-0.0157547 -0.416173 0)
(-0.022736 -0.415907 0)
(-0.0308334 -0.415356 0)
(-0.0403276 -0.414447 0)
(-0.0516173 -0.41308 0)
(-0.0652953 -0.411106 0)
(-0.0823784 -0.408445 0)
(-0.104564 -0.405285 0)
(-0.13326 -0.402536 0)
(-0.16252 -0.398443 0)
(-0.168573 -0.381759 0)
(-0.164164 -0.361591 0)
(-0.178708 -0.33959 0)
(-0.200147 -0.321907 0)
(-0.230437 -0.307373 0)
(-0.273079 -0.29458 0)
(-0.3281 -0.280702 0)
(-0.415398 -0.27186 0)
(-0.539794 -0.305187 0)
(-0.599184 -0.304588 0)
(-0.608095 -0.109429 0)
(-0.00386256 -0.197181 0)
(-0.0119198 -0.19892 0)
(-0.020075 -0.200864 0)
(-0.0288295 -0.203861 0)
(-0.0384079 -0.207773 0)
(-0.0490664 -0.212378 0)
(-0.061056 -0.217371 0)
(-0.0746606 -0.222386 0)
(-0.0902018 -0.22678 0)
(-0.107805 -0.22924 0)
(-0.127513 -0.227585 0)
(-0.148384 -0.219589 0)
(-0.165616 -0.205343 0)
(-0.179844 -0.207324 0)
(-0.195761 -0.212044 0)
(-0.215292 -0.216263 0)
(-0.240188 -0.218736 0)
(-0.270656 -0.215878 0)
(-0.304094 -0.205304 0)
(-0.340631 -0.186198 0)
(-0.397143 -0.138762 0)
(-0.482181 -0.0214432 0)
(-0.546236 0.0901981 0)
(-0.00406225 -0.248609 0)
(-0.0122143 -0.250007 0)
(-0.0206345 -0.250515 0)
(-0.0295769 -0.251245 0)
(-0.0392689 -0.252122 0)
(-0.0499343 -0.253028 0)
(-0.0617789 -0.253782 0)
(-0.0749922 -0.254151 0)
(-0.0897571 -0.253801 0)
(-0.106051 -0.252275 0)
(-0.123529 -0.249045 0)
(-0.141226 -0.243359 0)
(-0.157351 -0.235057 0)
(-0.172618 -0.227332 0)
(-0.189759 -0.220311 0)
(-0.209462 -0.213322 0)
(-0.233184 -0.205337 0)
(-0.26109 -0.194725 0)
(-0.294164 -0.179702 0)
(-0.335422 -0.160229 0)
(-0.381071 -0.136302 0)
(-0.408868 -0.0895857 0)
(-0.408995 -0.00158864 0)
(-0.00416025 -0.233231 0)
(-0.0126308 -0.234522 0)
(-0.021332 -0.234823 0)
(-0.0304673 -0.235269 0)
(-0.0402125 -0.235698 0)
(-0.05073 -0.236006 0)
(-0.0621712 -0.236041 0)
(-0.0746573 -0.235544 0)
(-0.0882359 -0.234195 0)
(-0.102849 -0.231697 0)
(-0.118237 -0.227634 0)
(-0.133877 -0.221779 0)
(-0.149363 -0.214658 0)
(-0.165142 -0.207511 0)
(-0.18206 -0.199838 0)
(-0.200755 -0.191089 0)
(-0.221576 -0.180217 0)
(-0.244557 -0.165953 0)
(-0.269313 -0.146623 0)
(-0.294952 -0.119805 0)
(-0.320303 -0.0803621 0)
(-0.342298 -0.0263263 0)
(-0.352403 0.0283017 0)
(-0.00420071 -0.225751 0)
(-0.0127367 -0.226872 0)
(-0.021482 -0.226875 0)
(-0.0305911 -0.226826 0)
(-0.040202 -0.226647 0)
(-0.0504425 -0.226213 0)
(-0.0614192 -0.225369 0)
(-0.0732036 -0.223926 0)
(-0.0858116 -0.221659 0)
(-0.099176 -0.21832 0)
(-0.113126 -0.213698 0)
(-0.127428 -0.207719 0)
(-0.14198 -0.200562 0)
(-0.156975 -0.192527 0)
(-0.172784 -0.183478 0)
(-0.189711 -0.172949 0)
(-0.207891 -0.16025 0)
(-0.227214 -0.144527 0)
(-0.247266 -0.124811 0)
(-0.267131 -0.100057 0)
(-0.28482 -0.0691447 0)
(-0.296131 -0.0311165 0)
(-0.298762 0.0139247 0)
(-0.00417097 -0.217158 0)
(-0.0126393 -0.218109 0)
(-0.0212837 -0.217851 0)
(-0.0302281 -0.217414 0)
(-0.0395789 -0.216719 0)
(-0.0494339 -0.215667 0)
(-0.0598681 -0.214129 0)
(-0.0709261 -0.211953 0)
(-0.0826106 -0.208966 0)
(-0.0948718 -0.205 0)
(-0.107611 -0.199916 0)
(-0.120722 -0.193654 0)
(-0.134166 -0.186248 0)
(-0.148014 -0.177711 0)
(-0.162397 -0.16788 0)
(-0.17741 -0.156416 0)
(-0.19301 -0.142823 0)
(-0.208953 -0.126493 0)
(-0.224713 -0.106751 0)
(-0.239381 -0.0829118 0)
(-0.251489 -0.0544671 0)
(-0.258888 -0.0216125 0)
(-0.26035 0.0133806 0)
(-0.00408278 -0.208857 0)
(-0.0123624 -0.20966 0)
(-0.0207861 -0.209185 0)
(-0.0294537 -0.208426 0)
(-0.0384472 -0.207317 0)
(-0.0478396 -0.205773 0)
(-0.0576853 -0.203689 0)
(-0.0680132 -0.200945 0)
(-0.078822 -0.197409 0)
(-0.0900774 -0.192955 0)
(-0.10172 -0.187478 0)
(-0.113689 -0.180907 0)
(-0.125952 -0.173197 0)
(-0.138511 -0.164274 0)
(-0.151377 -0.153985 0)
(-0.164521 -0.142075 0)
(-0.177807 -0.128204 0)
(-0.190943 -0.111983 0)
(-0.203432 -0.0930278 0)
(-0.214527 -0.071044 0)
(-0.223173 -0.0459754 0)
(-0.228002 -0.0182529 0)
(-0.228609 0.0109268 0)
(-0.00394529 -0.200759 0)
(-0.011938 -0.201433 0)
(-0.0200463 -0.200783 0)
(-0.0283503 -0.199766 0)
(-0.0369123 -0.198328 0)
(-0.0457873 -0.196397 0)
(-0.0550144 -0.19389 0)
(-0.0646129 -0.19071 0)
(-0.0745796 -0.186754 0)
(-0.0848894 -0.181923 0)
(-0.0955008 -0.176128 0)
(-0.106367 -0.169293 0)
(-0.117446 -0.161347 0)
(-0.128702 -0.152197 0)
(-0.140082 -0.141708 0)
(-0.151493 -0.129696 0)
(-0.162759 -0.115937 0)
(-0.173591 -0.100199 0)
(-0.183559 -0.0822875 0)
(-0.192089 -0.0621151 0)
(-0.198453 -0.0398014 0)
(-0.201777 -0.015802 0)
(-0.201954 0.00900186 0)
(-0.00376798 -0.192981 0)
(-0.0113949 -0.193546 0)
(-0.019113 -0.192755 0)
(-0.026986 -0.191535 0)
(-0.0350609 -0.189838 0)
(-0.0433789 -0.187607 0)
(-0.0519677 -0.184773 0)
(-0.0608395 -0.18126 0)
(-0.0699895 -0.176986 0)
(-0.0793963 -0.171869 0)
(-0.0890249 -0.165833 0)
(-0.0988316 -0.158806 0)
(-0.108766 -0.150713 0)
(-0.118769 -0.141469 0)
(-0.128759 -0.130966 0)
(-0.138615 -0.119077 0)
(-0.148154 -0.105664 0)
(-0.157115 -0.0906027 0)
(-0.165147 -0.0738198 0)
(-0.171819 -0.05534 0)
(-0.176631 -0.0353441 0)
(-0.179007 -0.0142293 0)
(-0.178964 0.00736829 0)
(-0.00355899 -0.185592 0)
(-0.0107576 -0.186065 0)
(-0.018027 -0.185164 0)
(-0.0254175 -0.183784 0)
(-0.032964 -0.181886 0)
(-0.0406966 -0.179425 0)
(-0.0486345 -0.176343 0)
(-0.0567846 -0.17258 0)
(-0.0651396 -0.168069 0)
(-0.073679 -0.162745 0)
(-0.0823699 -0.156541 0)
(-0.0911682 -0.149396 0)
(-0.100019 -0.141242 0)
(-0.108851 -0.13201 0)
(-0.117573 -0.121622 0)
(-0.126058 -0.109994 0)
(-0.134135 -0.0970508 0)
(-0.141579 -0.0827393 0)
(-0.148111 -0.0670572 0)
(-0.153412 -0.0500836 0)
(-0.157136 -0.0320099 0)
(-0.158892 -0.0131659 0)
(-0.158741 0.0059786 0)
(-0.0033252 -0.17865 0)
(-0.0100467 -0.179045 0)
(-0.0168223 -0.178059 0)
(-0.0236912 -0.176556 0)
(-0.0306788 -0.174505 0)
(-0.0378065 -0.171868 0)
(-0.0450869 -0.168601 0)
(-0.0525222 -0.164654 0)
(-0.0601032 -0.159974 0)
(-0.0678088 -0.154508 0)
(-0.0756067 -0.148202 0)
(-0.0834527 -0.141004 0)
(-0.0912901 -0.13286 0)
(-0.0990462 -0.123719 0)
(-0.106628 -0.113528 0)
(-0.113915 -0.102239 0)
(-0.120756 -0.0898173 0)
(-0.126964 -0.076257 0)
(-0.13232 -0.0615954 0)
(-0.136588 -0.0459338 0)
(-0.139525 -0.0294529 0)
(-0.140861 -0.0124232 0)
(-0.140663 0.00479941 0)
(-0.00307228 -0.172198 0)
(-0.00927923 -0.172528 0)
(-0.0155268 -0.171477 0)
(-0.021845 -0.169881 0)
(-0.0282518 -0.167715 0)
(-0.034762 -0.164949 0)
(-0.0413827 -0.161546 0)
(-0.0481126 -0.157469 0)
(-0.0549406 -0.152674 0)
(-0.0618454 -0.14712 0)
(-0.068795 -0.140764 0)
(-0.0757464 -0.133566 0)
(-0.082644 -0.125486 0)
(-0.0894178 -0.116489 0)
(-0.0959804 -0.106542 0)
(-0.102224 -0.0956255 0)
(-0.108017 -0.083733 0)
(-0.113209 -0.0708858 0)
(-0.117629 -0.0571422 0)
(-0.121101 -0.0426094 0)
(-0.123453 -0.0274505 0)
(-0.124494 -0.011888 0)
(-0.124284 0.00380199 0)
(-0.00280487 -0.166271 0)
(-0.00846895 -0.166548 0)
(-0.0141628 -0.165448 0)
(-0.0199093 -0.163783 0)
(-0.0257204 -0.161532 0)
(-0.0316055 -0.158672 0)
(-0.0375681 -0.155174 0)
(-0.0436039 -0.151008 0)
(-0.0497005 -0.146142 0)
(-0.0558367 -0.140543 0)
(-0.0619817 -0.134178 0)
(-0.0680947 -0.127019 0)
(-0.0741234 -0.119039 0)
(-0.0800033 -0.110216 0)
(-0.0856557 -0.100537 0)
(-0.0909867 -0.0899975 0)
(-0.0958869 -0.0786127 0)
(-0.100234 -0.0664194 0)
(-0.103895 -0.0534857 0)
(-0.10674 -0.0399165 0)
(-0.108645 -0.0258565 0)
(-0.109472 -0.0114903 0)
(-0.109271 0.00296229 0)
(-0.00252667 -0.160894 0)
(-0.00762694 -0.161126 0)
(-0.0127485 -0.159991 0)
(-0.0179084 -0.158276 0)
(-0.023114 -0.155964 0)
(-0.0283709 -0.153038 0)
(-0.0336794 -0.149476 0)
(-0.0390335 -0.145255 0)
(-0.0444203 -0.14035 0)
(-0.0498191 -0.134738 0)
(-0.055201 -0.128395 0)
(-0.0605282 -0.121302 0)
(-0.0657534 -0.113443 0)
(-0.0708189 -0.104809 0)
(-0.075656 -0.0953993 0)
(-0.080185 -0.0852237 0)
(-0.0843158 -0.0743087 0)
(-0.0879504 -0.0627008 0)
(-0.0909869 -0.0504711 0)
(-0.0933266 -0.037719 0)
(-0.09488 -0.0245722 0)
(-0.0955463 -0.0111863 0)
(-0.0953639 0.00226009 0)
(-0.00224064 -0.156086 0)
(-0.00676195 -0.156282 0)
(-0.011298 -0.155122 0)
(-0.0158612 -0.15337 0)
(-0.0204556 -0.151017 0)
(-0.025084 -0.148047 0)
(-0.0297445 -0.144445 0)
(-0.0344302 -0.140193 0)
(-0.039128 -0.135274 0)
(-0.0438186 -0.129671 0)
(-0.0484756 -0.123369 0)
(-0.0530649 -0.116358 0)
(-0.0575449 -0.10863 0)
(-0.0618653 -0.100186 0)
(-0.0659677 -0.0910354 0)
(-0.0697858 -0.0811968 0)
(-0.0732462 -0.0707047 0)
(-0.0762713 -0.0596103 0)
(-0.0787825 -0.0479846 0)
(-0.0807056 -0.03592 0)
(-0.0819751 -0.0235301 0)
(-0.0825174 -0.0109476 0)
(-0.0823593 0.00167844 0)
(-0.00194908 -0.151861 0)
(-0.00588076 -0.152027 0)
(-0.00982217 -0.150849 0)
(-0.0137824 -0.149074 0)
(-0.017763 -0.146693 0)
(-0.0217646 -0.143695 0)
(-0.0257842 -0.14007 0)
(-0.0298144 -0.135805 0)
(-0.033843 -0.130888 0)
(-0.0378521 -0.125309 0)
(-0.0418185 -0.11906 0)
(-0.0457123 -0.112137 0)
(-0.0494977 -0.104541 0)
(-0.0531322 -0.0962785 0)
(-0.056567 -0.0873661 0)
(-0.059748 -0.0778302 0)
(-0.0626164 -0.0677093 0)
(-0.0651113 -0.0570566 0)
(-0.0671724 -0.0459415 0)
(-0.068744 -0.0344496 0)
(-0.0697779 -0.0226827 0)
(-0.070221 -0.0107561 0)
(-0.0700898 0.00120329 0)
(-0.00165369 -0.148227 0)
(-0.00498846 -0.148371 0)
(-0.00832936 -0.147181 0)
(-0.0116829 -0.14539 0)
(-0.015049 -0.142991 0)
(-0.018427 -0.139978 0)
(-0.0218132 -0.136342 0)
(-0.0252004 -0.132076 0)
(-0.0285775 -0.127172 0)
(-0.031929 -0.121625 0)
(-0.0352347 -0.115433 0)
(-0.0384695 -0.108597 0)
(-0.0416032 -0.101124 0)
(-0.0446009 -0.0930272 0)
(-0.047423 -0.084327 0)
(-0.0500261 -0.0750545 0)
(-0.052364 -0.065251 0)
(-0.0543896 -0.0549704 0)
(-0.0560571 -0.0442792 0)
(-0.057325 -0.0332573 0)
(-0.0581581 -0.0219968 0)
(-0.0585188 -0.0105997 0)
(-0.0584154 0.000823102 0)
(-0.0013558 -0.145187 0)
(-0.00408884 -0.145321 0)
(-0.00682537 -0.144122 0)
(-0.00957054 -0.142321 0)
(-0.0123229 -0.139912 0)
(-0.015081 -0.136891 0)
(-0.017841 -0.133253 0)
(-0.0205965 -0.128992 0)
(-0.0233379 -0.124107 0)
(-0.0260521 -0.118595 0)
(-0.0287226 -0.112458 0)
(-0.0313287 -0.105702 0)
(-0.0338462 -0.0983392 0)
(-0.0362472 -0.0903858 0)
(-0.0385005 -0.0818668 0)
(-0.0405723 -0.0728156 0)
(-0.0424272 -0.0632753 0)
(-0.0440297 -0.0532991 0)
(-0.0453457 -0.0429512 0)
(-0.0463449 -0.0323063 0)
(-0.0470021 -0.0214488 0)
(-0.0472916 -0.0104709 0)
(-0.0472164 0.000528657 0)
(-0.00105177 -0.142749 0)
(-0.00318121 -0.142859 0)
(-0.00531352 -0.141656 0)
(-0.00745026 -0.13985 0)
(-0.00959027 -0.137437 0)
(-0.011732 -0.134414 0)