/*--------------------------------*- C++ -*----------------------------------*\
| =========                 |                                                 |
| \\      /  F ield         | OpenFOAM: The Open Source CFD Toolbox           |
|  \\    /   O peration     | Version:  2.4.0                                 |
|   \\  /    A nd           | Web:      www.OpenFOAM.org                      |
|    \\/     M anipulation  |                                                 |
\*---------------------------------------------------------------------------*/
FoamFile
{
    version     2.0;
    format      ascii;
    class       volVectorField;
    location    "0.05";
    object      U.mercury;
}
// * * * * * * * * * * * * * * * * * * * * * * * * * * * * * * * * * * * * * //

dimensions      [0 1 -1 0 0 0 0];

internalField   nonuniform List<vector> 
2268
(
(0.00917719 -0.00433916 0)
(0.0278919 -0.00450861 0)
(0.0477062 -0.00485725 0)
(0.0694234 -0.0054052 0)
(0.0939687 -0.00618692 0)
(0.122434 -0.00725919 0)
(0.156454 -0.00870656 0)
(0.196725 -0.0106868 0)
(0.251327 -0.0133613 0)
(0.303541 -0.0167891 0)
(0.416213 -0.0258972 0)
(0.507631 -0.0302993 0)
(0.682842 -0.0464635 0)
(0.751559 -0.153106 0)
(0.780997 -0.268283 0)
(0.934901 -0.397575 0)
(1.00589 -0.399921 0)
(0.456895 0.00449057 0)
(0.369522 0.0141343 0)
(0.31084 0.0142386 0)
(0.245849 0.017358 0)
(0.163876 0.0222361 0)
(0.0587976 0.0269098 0)
(0.00909844 -0.0129811 0)
(0.0276518 -0.0134883 0)
(0.0472906 -0.0145299 0)
(0.0688067 -0.0161662 0)
(0.0931082 -0.0184991 0)
(0.121263 -0.0216966 0)
(0.154858 -0.0260073 0)
(0.194566 -0.0319135 0)
(0.248349 -0.039831 0)
(0.298501 -0.0508857 0)
(0.413224 -0.0709897 0)
(0.486449 -0.117791 0)
(0.639571 -0.0982788 0)
(0.691424 -0.133184 0)
(0.672067 -0.215443 0)
(0.764798 -0.294917 0)
(0.651106 -0.0717515 0)
(0.426829 0.05056 0)
(0.367498 0.040675 0)
(0.312939 0.0420681 0)
(0.250143 0.0517652 0)
(0.168841 0.0669381 0)
(0.0611546 0.0819376 0)
(0.00893913 -0.0215097 0)
(0.027165 -0.022348 0)
(0.0464486 -0.0240689 0)
(0.067559 -0.0267706 0)
(0.0913703 -0.0306173 0)
(0.118904 -0.0358807 0)
(0.151645 -0.0429628 0)
(0.190264 -0.0526532 0)
(0.242097 -0.0655897 0)
(0.289317 -0.0838067 0)
(0.401276 -0.116943 0)
(0.457657 -0.16926 0)
(0.577669 -0.183567 0)
(0.589755 -0.238211 0)
(0.559177 -0.332497 0)
(0.579339 -0.323977 0)
(0.46233 0.0973475 0)
(0.411066 0.0786965 0)
(0.364386 0.0645825 0)
(0.316558 0.067907 0)
(0.258259 0.084995 0)
(0.178939 0.112039 0)
(0.0661553 0.139577 0)
(0.00870266 -0.0298507 0)
(0.0264426 -0.0310097 0)
(0.0452002 -0.0333882 0)
(0.0657113 -0.0371181 0)
(0.0888018 -0.0424181 0)
(0.115426 -0.0496516 0)
(0.14692 -0.0593588 0)
(0.183965 -0.0725689 0)
(0.232883 -0.0901548 0)
(0.276925 -0.114571 0)
(0.381953 -0.157589 0)
(0.41999 -0.219053 0)
(0.51195 -0.255895 0)
(0.499717 -0.28066 0)
(0.47436 -0.344973 0)
(0.489848 -0.19334 0)
(0.426083 0.13638 0)
(0.396321 0.0974205 0)
(0.362 0.0838104 0)
(0.322744 0.0906052 0)
(0.271366 0.116115 0)
(0.195646 0.157425 0)
(0.0743613 0.205914 0)
(0.00839192 -0.0379319 0)
(0.0254936 -0.0393975 0)
(0.0435616 -0.0424041 0)
(0.0632909 -0.0471127 0)
(0.085446 -0.0537848 0)
(0.110896 -0.0628609 0)
(0.140802 -0.0749971 0)
(0.17584 -0.0913838 0)
(0.221099 -0.113102 0)
(0.26193 -0.142759 0)
(0.357533 -0.193545 0)
(0.377232 -0.259726 0)
(0.45039 -0.306762 0)
(0.419524 -0.322166 0)
(0.399224 -0.374914 0)
(0.414562 -0.0341244 0)
(0.395901 0.148605 0)
(0.382769 0.109545 0)
(0.361186 0.0978812 0)
(0.332237 0.108737 0)
(0.290095 0.14411 0)
(0.223023 0.202959 0)
(0.0890767 0.271988 0)
(0.00801069 -0.0456896 0)
(0.0243296 -0.0474448 0)
(0.0415537 -0.0510446 0)
(0.0603322 -0.0566746 0)
(0.0813583 -0.0646222 0)
(0.1054 -0.0753915 0)
(0.13343 -0.0897302 0)
(0.166092 -0.108925 0)
(0.207226 -0.134233 0)
(0.244942 -0.168403 0)
(0.329753 -0.224201 0)
(0.332815 -0.293808 0)
(0.392888 -0.34118 0)
(0.351069 -0.35066 0)
(0.335881 -0.378791 0)
(0.36129 0.0972219 0)
(0.371592 0.150989 0)
(0.371174 0.115824 0)
(0.361038 0.108251 0)
(0.345978 0.121721 0)
(0.316517 0.166476 0)
(0.261992 0.247232 0)
(0.10795 0.376468 0)
(0.00756319 -0.0530631 0)
(0.0229633 -0.055088 0)
(0.039199 -0.059242 0)
(0.056873 -0.0657312 0)
(0.0766 -0.0748606 0)
(0.0990319 -0.0871782 0)
(0.124952 -0.10348 0)
(0.154925 -0.12512 0)
(0.191726 -0.153467 0)
(0.226086 -0.191561 0)
(0.300251 -0.249624 0)
(0.289475 -0.322054 0)
(0.338102 -0.361968 0)
(0.292573 -0.369417 0)
(0.285278 -0.359462 0)
(0.324713 0.161937 0)
(0.350466 0.147596 0)
(0.361795 0.116403 0)
(0.364823 0.112436 0)
(0.361628 0.127937 0)
(0.349465 0.180901 0)
(0.319255 0.280585 0)
(0.148595 0.443233 0)
(0.00705232 -0.0597455 0)
(0.0214024 -0.062009 0)
(0.0365078 -0.0666558 0)
(0.052923 -0.0739087 0)
(0.071204 -0.0841515 0)
(0.0918866 -0.0978372 0)
(0.11552 -0.11571 0)
(0.142569 -0.139237 0)
(0.174937 -0.169762 0)
(0.20544 -0.210444 0)
(0.26976 -0.269315 0)
(0.248423 -0.34316 0)
(0.285345 -0.372524 0)
(0.241025 -0.379956 0)
(0.240004 -0.309069 0)
(0.297053 0.17869 0)
(0.333423 0.139058 0)
(0.352703 0.111218 0)
(0.36844 0.108558 0)
(0.381647 0.128196 0)
(0.384096 0.187877 0)
(0.408095 0.333815 0)
(0.211959 0.655489 0)
(-0.0136774 0.000452742 0)
(0.0245807 -0.0161053 0)
(0.114596 -0.0157915 0)
(0.177644 -0.0106847 0)
(0.215164 -0.00493984 0)
(0.22874 -0.000939532 0)
(0.227368 0.00142297 0)
(0.215167 0.00305786 0)
(0.198805 0.00380349 0)
(0.17992 0.00411377 0)
(0.159997 0.00421617 0)
(0.139892 0.00420208 0)
(0.120002 0.00413137 0)
(0.100509 0.00403871 0)
(0.0814664 0.00394451 0)
(0.0628523 0.00386029 0)
(0.0446013 0.00379289 0)
(0.0266296 0.00374492 0)
(0.0088369 0.00373805 0)
(-0.0199847 0.00203215 0)
(0.0195007 -0.0506999 0)
(0.120198 -0.0493096 0)
(0.18697 -0.032761 0)
(0.224427 -0.0151711 0)
(0.236886 -0.00258055 0)
(0.233849 0.00498163 0)
(0.220903 0.00956038 0)
(0.20368 0.0117338 0)
(0.184074 0.0126704 0)
(0.163563 0.0129646 0)
(0.142934 0.0129092 0)
(0.122569 0.0126849 0)
(0.102636 0.0123964 0)
(0.0831773 0.0121047 0)
(0.0641654 0.0118448 0)
(0.0455296 0.0116372 0)
(0.0271801 0.0114923 0)
(0.00900228 0.0113731 0)
(-0.0344187 0.00765976 0)
(0.00388119 -0.0893976 0)
(0.124592 -0.0861469 0)
(0.196634 -0.0553008 0)
(0.233025 -0.0245065 0)
(0.242896 -0.00336637 0)
(0.237019 0.00933292 0)
(0.222847 0.0163952 0)
(0.204627 0.0198587 0)
(0.184484 0.0213458 0)
(0.163685 0.0217754 0)
(0.142904 0.0216455 0)
(0.122466 0.0212483 0)
(0.102506 0.0207527 0)
(0.0830489 0.0202569 0)
(0.0640544 0.0198175 0)
(0.045445 0.0194677 0)
(0.0271283 0.0192263 0)
(0.00898511 0.019035 0)
(-0.0575143 0.0245213 0)
(-0.022254 -0.136732 0)
(0.131864 -0.129489 0)
(0.212572 -0.0784244 0)
(0.246384 -0.032372 0)
(0.25149 -0.00246444 0)
(0.241943 0.0146445 0)
(0.22546 0.0238601 0)
(0.205855 0.0283565 0)
(0.184952 0.0302354 0)
(0.163748 0.0307091 0)
(0.142761 0.0304515 0)
(0.122233 0.0298504 0)
(0.102251 0.0291293 0)
(0.0828087 0.0284185 0)
(0.0638521 0.0277932 0)
(0.0452936 0.0272975 0)
(0.0270357 0.0269569 0)
(0.00895433 0.0266851 0)
(-0.0922896 0.0627952 0)
(-0.0561631 -0.197113 0)
(0.152757 -0.184351 0)
(0.239013 -0.101335 0)
(0.265067 -0.0374207 0)
(0.262797 0.000689024 0)
(0.248165 0.0214303 0)
(0.228654 0.0321926 0)
(0.207324 0.0373337 0)
(0.185478 0.0393829 0)
(0.163773 0.039777 0)
(0.142537 0.039321 0)
(0.121903 0.0384751 0)
(0.101897 0.0375049 0)
(0.0824807 0.0365652 0)
(0.0635777 0.035746 0)
(0.0450891 0.0350997 0)
(0.0269103 0.034657 0)
(0.0089124 0.0343042 0)
(-0.122692 0.0828251 0)
(-0.0450411 -0.288995 0)
(0.417752 -0.292062 0)
(0.389521 -0.144392 0)
(0.291439 -0.0374278 0)
(0.27643 0.00713965 0)
(0.25528 0.0300415 0)
(0.23219 0.0415567 0)
(0.208894 0.0468793 0)
(0.185981 0.0488364 0)
(0.163716 0.0490037 0)
(0.142204 0.0482649 0)
(0.121459 0.0471253 0)
(0.101437 0.0458775 0)
(0.0820601 0.0446922 0)
(0.0632285 0.0436694 0)
(0.0448299 0.0428669 0)
(0.0267517 0.042319 0)
(0.00885936 0.0418842 0)
(0.047957 0.234532 0)
(0.625393 -0.411146 0)
(1.01517 -0.4112 0)
(0.43124 -0.147729 0)
(0.32086 -0.0286808 0)
(0.291172 0.0177536 0)
(0.262723 0.0407611 0)
(0.235775 0.0520384 0)
(0.210399 0.0570099 0)
(0.18637 0.0585824 0)
(0.163524 0.0583608 0)
(0.141735 0.0572482 0)
(0.120886 0.0557636 0)
(0.100862 0.0542091 0)
(0.0815413 0.052762 0)
(0.0628013 0.0515265 0)
(0.0445143 0.050563 0)
(0.0265588 0.0499074 0)
(0.00879464 0.0493902 0)
(0.929085 -0.12869 0)
(1.28914 -0.358756 0)
(0.885091 -0.363583 0)
(0.402659 -0.113893 0)
(0.349043 -0.0128749 0)
(0.305318 0.0320309 0)
(0.26977 0.0535731 0)
(0.239062 0.0637238 0)
(0.211653 0.0678525 0)
(0.186539 0.0687619 0)
(0.163136 0.0679896 0)
(0.141091 0.0664062 0)
(0.12016 0.0645167 0)
(0.100155 0.062618 0)
(0.0809149 0.0608852 0)
(0.0622901 0.0594217 0)
(0.0441386 0.0582877 0)
(0.02633 0.0575189 0)
(0.00871827 0.0569165 0)
(0.00609763 -0.0706564 0)
(0.0184771 -0.0732811 0)
(0.0314388 -0.078653 0)
(0.0454044 -0.0870705 0)
(0.0614368 -0.0981464 0)
(0.0795876 -0.112974 0)
(0.0995277 -0.132473 0)
(0.121769 -0.158073 0)
(0.147249 -0.190741 0)
(0.170868 -0.234437 0)
(0.22142 -0.293636 0)
(0.185946 -0.371926 0)
(0.205289 -0.388201 0)
(0.161798 -0.398992 0)
(0.181773 -0.16828 0)
(0.263928 0.152375 0)
(0.308957 0.11449 0)
(0.342633 0.0933942 0)
(0.37299 0.090716 0)
(0.413702 0.104841 0)
(0.453965 0.164418 0)
(0.600656 0.228494 0)
(0.804935 0.562049 0)
(0.00476705 -0.0848927 0)
(0.0144342 -0.0871689 0)
(0.0244906 -0.0919623 0)
(0.0353601 -0.0997344 0)
(0.0472574 -0.111665 0)
(0.0611087 -0.126835 0)
(0.0757231 -0.147527 0)
(0.0910951 -0.174224 0)
(0.107411 -0.209754 0)
(0.120639 -0.256001 0)
(0.151831 -0.314812 0)
(0.105636 -0.408751 0)
(0.101734 -0.407727 0)
(0.0717713 -0.413105 0)
(0.156478 0.0461613 0)
(0.232005 0.0939762 0)
(0.285106 0.0706059 0)
(0.332866 0.0560875 0)
(0.378502 0.0520329 0)
(0.435892 0.0583276 0)
(0.502137 0.0809703 0)
(0.606717 0.0928306 0)
(0.801929 0.172067 0)
(0.00381122 -0.0660826 0)
(0.011402 -0.0700679 0)
(0.0189436 -0.0783031 0)
(0.0265215 -0.0925063 0)
(0.0350767 -0.113575 0)
(0.0411226 -0.136828 0)
(0.0508272 -0.164057 0)
(0.0566421 -0.20402 0)
(0.0661572 -0.242446 0)
(0.067152 -0.299501 0)
(0.0688766 -0.358164 0)
(0.0366175 -0.442324 0)
(0.0203108 -0.434435 0)
(0.0162606 -0.284826 0)
(0.148651 0.0380274 0)
(0.214272 0.0282693 0)
(0.270826 0.0174174 0)
(0.324042 0.00704277 0)
(0.375699 -0.000409382 0)
(0.440599 -0.00553811 0)
(0.501813 -0.0043237 0)
(0.620067 -0.0247135 0)
(0.733512 -0.0373602 0)
(0.0014371 -0.205736 0)
(0.00421889 -0.208464 0)
(0.00525331 -0.213968 0)
(0.00347607 -0.221789 0)
(0.00969242 -0.232364 0)
(0.0132925 -0.247522 0)
(0.0159409 -0.273804 0)
(0.0247439 -0.292563 0)
(0.0221085 -0.334174 0)
(0.0334585 -0.36152 0)
(0.0274649 -0.408164 0)
(0.0169242 -0.458786 0)
(0.00487671 -0.449333 0)
(0.0553261 -0.164286 0)
(0.152284 -0.0380142 0)
(0.211937 -0.0325207 0)
(0.264128 -0.0359895 0)
(0.315082 -0.0447083 0)
(0.366515 -0.0559586 0)
(0.429851 -0.0698972 0)
(0.485922 -0.083878 0)
(0.593771 -0.12371 0)
(0.677617 -0.167867 0)
(0.030514 -0.130116 0)
(0.0382657 -0.13421 0)
(0.0655869 -0.140008 0)
(0.0911266 -0.153329 0)
(0.0762973 -0.220817 0)
(0.11314 -0.210506 0)
(0.0786454 -0.302297 0)
(0.117455 -0.296938 0)
(0.0717982 -0.382772 0)
(0.109903 -0.376463 0)
(0.0725712 -0.436215 0)
(0.0954153 -0.4332 0)
(0.141697 -0.266038 0)
(0.131303 -0.121778 0)
(0.173673 -0.0885687 0)
(0.216961 -0.0795466 0)
(0.258833 -0.0832434 0)
(0.304075 -0.0934717 0)
(0.351515 -0.10874 0)
(0.408357 -0.12952 0)
(0.457635 -0.153388 0)
(0.548386 -0.207848 0)
(0.611542 -0.261324 0)
(0.0122561 -0.141487 0)
(0.0367856 -0.144011 0)
(0.0610818 -0.14947 0)
(0.0829201 -0.164264 0)
(0.105386 -0.183968 0)
(0.125792 -0.199481 0)
(0.146251 -0.224149 0)
(0.163136 -0.242976 0)
(0.175065 -0.26902 0)
(0.177023 -0.291416 0)
(0.169158 -0.310856 0)
(0.164207 -0.326869 0)
(0.185227 -0.213764 0)
(0.144432 -0.12804 0)
(0.17968 -0.115859 0)
(0.214908 -0.116464 0)
(0.25016 -0.123855 0)
(0.289543 -0.137085 0)
(0.331439 -0.156055 0)
(0.38004 -0.181531 0)
(0.421628 -0.212214 0)
(0.494879 -0.271153 0)
(0.535976 -0.320919 0)
(0.0106631 -0.158189 0)
(0.0319071 -0.161186 0)
(0.0527805 -0.1672 0)
(0.0726199 -0.176307 0)
(0.0914195 -0.186665 0)
(0.109031 -0.200984 0)
(0.124769 -0.216108 0)
(0.137976 -0.236173 0)
(0.147138 -0.256883 0)
(0.152066 -0.278872 0)
(0.150775 -0.299208 0)
(0.159164 -0.314031 0)
(0.18848 -0.215829 0)
(0.148278 -0.147238 0)
(0.178589 -0.141305 0)
(0.208561 -0.147766 0)
(0.2382 -0.158814 0)
(0.271796 -0.175034 0)
(0.307646 -0.196908 0)
(0.348189 -0.22528 0)
(0.381631 -0.259303 0)
(0.442055 -0.317892 0)
(0.467845 -0.359907 0)
(0.00931793 -0.179512 0)
(0.0278354 -0.182155 0)
(0.0459243 -0.187344 0)
(0.0632239 -0.195115 0)
(0.0795815 -0.205104 0)
(0.0946998 -0.217511 0)
(0.108255 -0.232049 0)
(0.119669 -0.248534 0)
(0.128332 -0.266232 0)
(0.134239 -0.283909 0)
(0.136084 -0.299646 0)
(0.149849 -0.31277 0)
(0.182014 -0.221726 0)
(0.142854 -0.163058 0)
(0.171236 -0.16258 0)
(0.1976 -0.174143 0)
(0.222866 -0.188596 0)
(0.251328 -0.207397 0)
(0.281465 -0.231321 0)
(0.314694 -0.261116 0)
(0.340846 -0.2963 0)
(0.390731 -0.351955 0)
(0.399394 -0.38703 0)
(0.00807173 -0.196631 0)
(0.0241015 -0.199056 0)
(0.0397567 -0.203744 0)
(0.0547842 -0.210677 0)
(0.0689669 -0.21968 0)
(0.0820674 -0.230702 0)
(0.0938006 -0.243465 0)
(0.103868 -0.257778 0)
(0.112024 -0.272958 0)
(0.118504 -0.288261 0)
(0.122201 -0.302692 0)
(0.138286 -0.316494 0)
(0.170799 -0.230195 0)
(0.132347 -0.178192 0)
(0.160005 -0.181951 0)
(0.183235 -0.196974 0)
(0.204897 -0.21399 0)
(0.22891 -0.234701 0)
(0.253996 -0.259879 0)
(0.280984 -0.290076 0)
(0.301271 -0.324958 0)
(0.342735 -0.376194 0)
(0.333705 -0.404376 0)
(0.00695174 -0.211775 0)
(0.0207561 -0.213974 0)
(0.0342421 -0.218191 0)
(0.0472043 -0.224424 0)
(0.0594491 -0.232556 0)
(0.0707845 -0.242452 0)
(0.0810211 -0.253904 0)
(0.0900024 -0.266615 0)
(0.0976532 -0.280155 0)
(0.104287 -0.293988 0)
(0.108757 -0.307583 0)
(0.125391 -0.321487 0)
(0.157339 -0.237637 0)
(0.119381 -0.192204 0)
(0.146235 -0.199531 0)
(0.166508 -0.216798 0)
(0.185063 -0.235582 0)
(0.205248 -0.257567 0)
(0.226029 -0.283394 0)
(0.247938 -0.313406 0)
(0.263978 -0.347303 0)
(0.299905 -0.393813 0)
(0.274491 -0.416832 0)
(0.00593717 -0.224717 0)
(0.017728 -0.226725 0)
(0.0292532 -0.230554 0)
(0.040345 -0.236215 0)
(0.0508456 -0.243608 0)
(0.0606099 -0.252595 0)
(0.069514 -0.262989 0)
(0.0774823 -0.274547 0)
(0.0845143 -0.286959 0)
(0.0908958 -0.299879 0)
(0.0955352 -0.313034 0)
(0.111521 -0.326879 0)
(0.141923 -0.24499 0)
(0.105269 -0.205275 0)
(0.130842 -0.215314 0)
(0.148236 -0.233947 0)
(0.164026 -0.253848 0)
(0.180886 -0.276594 0)
(0.198015 -0.302674 0)
(0.215815 -0.332287 0)
(0.22886 -0.365216 0)
(0.26161 -0.407709 0)
(0.220663 -0.430545 0)
(0.00501289 -0.235732 0)
(0.0149682 -0.237577 0)
(0.0247026 -0.241079 0)
(0.0340822 -0.246269 0)
(0.0429844 -0.253058 0)
(0.0513022 -0.261323 0)
(0.0589546 -0.270908 0)
(0.0659078 -0.281626 0)
(0.0721903 -0.293262 0)
(0.0780426 -0.305597 0)
(0.0825581 -0.318495 0)
(0.0970123 -0.332359 0)
(0.125029 -0.251205 0)
(0.0907165 -0.217035 0)
(0.114384 -0.229233 0)
(0.129007 -0.248616 0)
(0.142284 -0.269151 0)
(0.156197 -0.292274 0)
(0.170143 -0.318364 0)
(0.184438 -0.34756 0)
(0.195049 -0.379814 0)
(0.22454 -0.419832 0)
(0.173066 -0.446605 0)
(0.00416628 -0.244889 0)
(0.0124368 -0.246624 0)
(0.0205167 -0.249885 0)
(0.0283039 -0.254707 0)
(0.0357135 -0.261019 0)
(0.0426669 -0.268717 0)
(0.0491049 -0.27768 0)
(0.0550111 -0.287776 0)
(0.0604186 -0.298859 0)
(0.0655055 -0.310793 0)
(0.0694613 -0.32353 0)
(0.0822966 -0.337411 0)
(0.107593 -0.256006 0)
(0.075709 -0.227437 0)
(0.0972425 -0.241299 0)
(0.109257 -0.260967 0)
(0.12021 -0.281766 0)
(0.13144 -0.304974 0)
(0.142506 -0.330896 0)
(0.153623 -0.359668 0)
(0.161858 -0.391404 0)
(0.186847 -0.429718 0)
(0.132384 -0.461701 0)
(0.00335678 -0.25216 0)
(0.0100414 -0.253804 0)
(0.0165889 -0.257007 0)
(0.0228948 -0.261652 0)
(0.0289014 -0.267615 0)
(0.0345524 -0.274872 0)
(0.039795 -0.283356 0)
(0.0446184 -0.292982 0)
(0.0490536 -0.303653 0)
(0.0532238 -0.315284 0)
(0.056501 -0.327875 0)
(0.067249 -0.341553 0)
(0.0891816 -0.259749 0)
(0.060807 -0.236602 0)
(0.0797549 -0.251587 0)
(0.0893348 -0.27118 0)
(0.0980991 -0.291949 0)
(0.106828 -0.315 0)
(0.115207 -0.340584 0)
(0.123349 -0.368846 0)
(0.12912 -0.40007 0)
(0.149074 -0.436332 0)
(0.0979364 -0.472616 0)
(0.00251962 -0.259157 0)
(0.00753327 -0.260626 0)
(0.0126151 -0.263208 0)
(0.0176612 -0.267251 0)
(0.0224115 -0.272828 0)
(0.0268214 -0.279721 0)
(0.0308863 -0.287832 0)
(0.0346051 -0.297118 0)
(0.0379994 -0.307456 0)
(0.0411408 -0.318811 0)
(0.0436276 -0.331272 0)
(0.0518479 -0.344823 0)
(0.06987 -0.261934 0)
(0.0461993 -0.244478 0)
(0.0621601 -0.260158 0)
(0.0695118 -0.279322 0)
(0.0761921 -0.299771 0)
(0.0825567 -0.322409 0)
(0.0883967 -0.347425 0)
(0.0936834 -0.374946 0)
(0.0970201 -0.405584 0)
(0.111416 -0.439748 0)
(0.0684405 -0.479682 0)
(0.00189704 -0.261701 0)
(0.00565067 -0.263193 0)
(0.00919246 -0.265967 0)
(0.0125572 -0.27005 0)
(0.0158623 -0.275357 0)
(0.0190081 -0.281893 0)
(0.0219682 -0.289583 0)
(0.0248148 -0.298335 0)
(0.0272405 -0.308192 0)
(0.0292352 -0.319209 0)
(0.0307607 -0.331524 0)
(0.0357981 -0.345088 0)
(0.0494182 -0.260657 0)
(0.0321829 -0.249264 0)
(0.0447065 -0.265106 0)
(0.0500792 -0.283387 0)
(0.0547385 -0.303221 0)
(0.0588554 -0.325294 0)
(0.0623366 -0.34972 0)
(0.0648089 -0.376688 0)
(0.0655447 -0.406969 0)
(0.073237 -0.439936 0)
(0.0422482 -0.484412 0)
(0.00129435 -0.259618 0)
(0.00388759 -0.261134 0)
(0.00639097 -0.263966 0)
(0.00876088 -0.268128 0)
(0.0109592 -0.273546 0)
(0.012957 -0.280222 0)
(0.0146673 -0.288092 0)
(0.0158594 -0.297059 0)
(0.016816 -0.30718 0)
(0.0174843 -0.318432 0)
(0.017736 -0.330929 0)
(0.0175275 -0.344685 0)
(0.0250095 -0.254628 0)
(0.0193797 -0.249987 0)
(0.0277921 -0.265733 0)
(0.0312645 -0.283687 0)
(0.0337211 -0.303897 0)
(0.0354532 -0.326706 0)
(0.0364453 -0.352045 0)
(0.0362554 -0.380161 0)
(0.0338793 -0.410123 0)
(0.0319976 -0.442958 0)
(0.0177302 -0.4845 0)
(0.000459472 -0.314481 0)
(0.00134848 -0.315948 0)
(0.00222595 -0.318675 0)
(0.0030231 -0.322682 0)
(0.00372049 -0.32791 0)
(0.00429616 -0.334273 0)
(0.00474145 -0.341692 0)
(0.00503789 -0.350071 0)
(0.00511038 -0.359134 0)
(0.00473329 -0.368657 0)
(0.00390055 -0.37836 0)
(-0.000967248 -0.38786 0)
(-0.00142687 -0.306008 0)
(0.0075061 -0.311332 0)
(0.0101813 -0.325529 0)
(0.0107974 -0.342086 0)
(0.0103661 -0.360314 0)
(0.00926874 -0.379719 0)
(0.00731076 -0.399877 0)
(0.00701458 -0.415173 0)
(0.00352792 -0.435326 0)
(-0.0015733 -0.453285 0)
(-0.00107162 -0.472919 0)
(5.50401e-05 -0.373811 0)
(5.91269e-05 -0.374768 0)
(0.000151557 -0.376488 0)
(0.000218062 -0.379063 0)
(0.000281834 -0.382434 0)
(0.000343983 -0.386544 0)
(0.000402636 -0.391321 0)
(0.000450956 -0.396685 0)
(0.000467999 -0.402537 0)
(0.000329968 -0.408661 0)
(8.12002e-05 -0.41438 0)
(-0.000301577 -0.419438 0)
(7.71557e-05 -0.36679 0)
(0.00110238 -0.371872 0)
(0.00127673 -0.381945 0)
(0.000726787 -0.39358 0)
(0.000110239 -0.405941 0)
(-0.000595926 -0.418619 0)
(-0.0013495 -0.431517 0)
(-0.00683523 -0.456189 0)
(-0.00593814 -0.464573 0)
(-0.0148987 -0.464171 0)
(-0.0204154 -0.450278 0)
(-0.00133141 0.0534426 0)
(-0.0117885 0.0543761 0)
(-0.0195607 0.0487827 0)
(-0.0286377 0.0404942 0)
(-0.0386252 0.0293777 0)
(-0.049939 0.0152851 0)
(-0.0629243 -0.00194684 0)
(-0.0778494 -0.0226323 0)
(-0.094726 -0.0471368 0)
(-0.112766 -0.0744879 0)
(-0.133439 -0.0908377 0)
(-0.173542 -0.0832292 0)
(-0.203997 0.0201858 0)
(-0.222844 -0.0364522 0)
(-0.234689 -0.105308 0)
(-0.24735 -0.165465 0)
(-0.267166 -0.226325 0)
(-0.295482 -0.278698 0)
(-0.329742 -0.328691 0)
(-0.374181 -0.384778 0)
(-0.441094 -0.391599 0)
(-0.591047 -0.163071 0)
(-0.852389 0.264039 0)
(-0.00374434 -0.414914 0)
(-0.00976596 -0.416191 0)
(-0.0157627 -0.416217 0)
(-0.0227464 -0.415948 0)
(-0.0308461 -0.415395 0)
(-0.0403421 -0.414482 0)
(-0.0516324 -0.413109 0)
(-0.0653101 -0.41113 0)
(-0.0823924 -0.408464 0)
(-0.104577 -0.405301 0)
(-0.13327 -0.402548 0)
(-0.162525 -0.398453 0)
(-0.168583 -0.381786 0)
(-0.164181 -0.361616 0)
(-0.178727 -0.33961 0)
(-0.200168 -0.321922 0)
(-0.230454 -0.307383 0)
(-0.273088 -0.294587 0)
(-0.3281 -0.280695 0)
(-0.415379 -0.271836 0)
(-0.539752 -0.30519 0)
(-0.599169 -0.304625 0)
(-0.608101 -0.10945 0)
(-0.00386408 -0.197217 0)
(-0.0119238 -0.198955 0)
(-0.0200808 -0.200897 0)
(-0.0288369 -0.203892 0)
(-0.0384167 -0.207801 0)
(-0.0490762 -0.212402 0)
(-0.0610661 -0.217391 0)
(-0.0746705 -0.222402 0)
(-0.0902117 -0.226792 0)
(-0.107815 -0.229249 0)
(-0.127524 -0.227592 0)
(-0.148394 -0.219596 0)
(-0.165628 -0.205354 0)
(-0.17986 -0.207333 0)
(-0.195779 -0.212052 0)
(-0.215309 -0.216268 0)
(-0.2402 -0.218736 0)
(-0.270661 -0.215874 0)
(-0.304092 -0.205296 0)
(-0.340619 -0.186188 0)
(-0.397127 -0.138755 0)
(-0.482174 -0.0214428 0)
(-0.546243 0.0902045 0)
(-0.00406336 -0.248626 0)
(-0.0122174 -0.250022 0)
(-0.020639 -0.250529 0)
(-0.0295828 -0.251258 0)
(-0.0392758 -0.252132 0)
(-0.049942 -0.253036 0)
(-0.0617869 -0.253789 0)
(-0.0750003 -0.254155 0)
(-0.0897657 -0.253803 0)
(-0.106061 -0.252275 0)
(-0.12354 -0.249044 0)
(-0.141237 -0.243358 0)
(-0.157364 -0.235057 0)
(-0.172633 -0.22733 0)
(-0.189775 -0.220307 0)
(-0.209476 -0.213315 0)
(-0.233192 -0.205326 0)
(-0.261091 -0.194712 0)
(-0.294157 -0.179686 0)
(-0.335411 -0.16021 0)
(-0.381057 -0.136284 0)
(-0.408859 -0.0895685 0)
(-0.40899 -0.00156733 0)
(-0.00416106 -0.233236 0)
(-0.0126331 -0.234527 0)
(-0.0213358 -0.234827 0)
(-0.0304722 -0.235272 0)
(-0.0402184 -0.2357 0)
(-0.0507367 -0.236007 0)
(-0.0621783 -0.23604 0)
(-0.0746648 -0.235543 0)
(-0.0882441 -0.234192 0)
(-0.102858 -0.231693 0)
(-0.118247 -0.227629 0)
(-0.133888 -0.221774 0)
(-0.149375 -0.214652 0)
(-0.165156 -0.207503 0)
(-0.182073 -0.199826 0)
(-0.200765 -0.191074 0)
(-0.22158 -0.180199 0)
(-0.244555 -0.165933 0)
(-0.269305 -0.146601 0)
(-0.29494 -0.119782 0)
(-0.320291 -0.0803392 0)
(-0.342287 -0.0263034 0)
(-0.352394 0.0283282 0)
(-0.00420137 -0.225748 0)
(-0.0127386 -0.226868 0)
(-0.021485 -0.226871 0)
(-0.0305951 -0.226822 0)
(-0.0402069 -0.226641 0)
(-0.0504481 -0.226207 0)
(-0.0614253 -0.225362 0)
(-0.0732102 -0.223919 0)
(-0.0858187 -0.221652 0)
(-0.099184 -0.218311 0)
(-0.113135 -0.213689 0)
(-0.127438 -0.207709 0)
(-0.141991 -0.200551 0)
(-0.156986 -0.192514 0)
(-0.172793 -0.183462 0)
(-0.189717 -0.172929 0)
(-0.207893 -0.160228 0)
(-0.22721 -0.144503 0)
(-0.247257 -0.124785 0)
(-0.267118 -0.100031 0)
(-0.284807 -0.0691194 0)
(-0.296119 -0.0310906 0)
(-0.298749 0.0139523 0)
(-0.00417151 -0.217151 0)
(-0.0126409 -0.218101 0)
(-0.0212864 -0.217843 0)
(-0.0302317 -0.217405 0)
(-0.0395834 -0.21671 0)
(-0.049439 -0.215658 0)
(-0.0598738 -0.21412 0)
(-0.0709322 -0.211943 0)
(-0.0826173 -0.208956 0)
(-0.0948792 -0.204989 0)
(-0.107619 -0.199904 0)
(-0.12073 -0.193641 0)
(-0.134174 -0.186234 0)
(-0.148022 -0.177694 0)
(-0.162404 -0.167861 0)
(-0.177414 -0.156395 0)
(-0.19301 -0.142799 0)
(-0.208948 -0.126467 0)
(-0.224704 -0.106725 0)
(-0.239369 -0.0828857 0)
(-0.251476 -0.0544414 0)
(-0.258874 -0.0215869 0)
(-0.260337 0.0134073 0)
(-0.00408327 -0.208847 0)
(-0.0123639 -0.20965 0)
(-0.0207884 -0.209175 0)
(-0.029457 -0.208415 0)
(-0.0384512 -0.207306 0)
(-0.0478444 -0.205762 0)
(-0.0576906 -0.203678 0)
(-0.068019 -0.200933 0)
(-0.0788282 -0.197397 0)
(-0.0900841 -0.192942 0)
(-0.101727 -0.187464 0)
(-0.113697 -0.180892 0)
(-0.125959 -0.173181 0)
(-0.138517 -0.164256 0)
(-0.151382 -0.153965 0)
(-0.164523 -0.142053 0)
(-0.177804 -0.12818 0)
(-0.190936 -0.111957 0)
(-0.203423 -0.093002 0)
(-0.214515 -0.0710186 0)
(-0.22316 -0.0459505 0)
(-0.227989 -0.0182282 0)
(-0.228595 0.0109515 0)
(-0.00394573 -0.200748 0)
(-0.0119394 -0.201421 0)
(-0.0200485 -0.200771 0)
(-0.0283532 -0.199754 0)
(-0.036916 -0.198316 0)
(-0.0457917 -0.196385 0)
(-0.0550193 -0.193877 0)
(-0.0646182 -0.190696 0)
(-0.0745854 -0.18674 0)
(-0.0848955 -0.181909 0)
(-0.095507 -0.176113 0)
(-0.106373 -0.169277 0)
(-0.117452 -0.161329 0)
(-0.128706 -0.152178 0)
(-0.140085 -0.141687 0)
(-0.151493 -0.129674 0)
(-0.162755 -0.115913 0)
(-0.173584 -0.100174 0)
(-0.18355 -0.0822627 0)
(-0.192078 -0.0620908 0)
(-0.198441 -0.0397778 0)
(-0.201764 -0.0157791 0)
(-0.201941 0.00902455 0)
(-0.00376839 -0.192969 0)
(-0.0113961 -0.193533 0)
(-0.019115 -0.192743 0)
(-0.0269887 -0.191522 0)
(-0.0350643 -0.189825 0)
(-0.0433829 -0.187594 0)
(-0.0519722 -0.18476 0)
(-0.0608444 -0.181246 0)
(-0.0699947 -0.176971 0)
(-0.0794017 -0.171854 0)
(-0.0890303 -0.165817 0)
(-0.0988366 -0.158789 0)
(-0.108771 -0.150695 0)
(-0.118772 -0.141449 0)
(-0.12876 -0.130945 0)
(-0.138613 -0.119055 0)
(-0.14815 -0.105641 0)
(-0.157108 -0.0905791 0)
(-0.165138 -0.0737963 0)
(-0.171808 -0.055317 0)
(-0.176619 -0.035322 0)
(-0.178995 -0.0142079 0)
(-0.178951 0.00738911 0)
(-0.00355937 -0.185579 0)
(-0.0107587 -0.186052 0)
(-0.0180288 -0.185151 0)
(-0.02542 -0.183771 0)
(-0.032967 -0.181873 0)
(-0.0407002 -0.179411 0)
(-0.0486386 -0.176329 0)
(-0.056789 -0.172565 0)
(-0.0651442 -0.168053 0)
(-0.0736837 -0.162728 0)
(-0.0823744 -0.156525 0)
(-0.0911723 -0.149378 0)
(-0.100022 -0.141224 0)
(-0.108853 -0.131991 0)
(-0.117573 -0.121601 0)
(-0.126056 -0.109973 0)
(-0.13413 -0.0970286 0)
(-0.141572 -0.0827169 0)
(-0.148102 -0.0670351 0)
(-0.153402 -0.0500621 0)
(-0.157125 -0.0319891 0)
(-0.15888 -0.0131459 0)
(-0.158729 0.0059979 0)
(-0.00332554 -0.178636 0)
(-0.0100477 -0.179031 0)
(-0.016824 -0.178045 0)
(-0.0236935 -0.176542 0)
(-0.0306816 -0.174491 0)
(-0.0378098 -0.171854 0)
(-0.0450906 -0.168586 0)
(-0.0525261 -0.164639 0)
(-0.0601072 -0.159958 0)
(-0.0678128 -0.154492 0)
(-0.0756105 -0.148185 0)
(-0.0834559 -0.140986 0)
(-0.0912923 -0.132842 0)
(-0.099047 -0.1237 0)
(-0.106627 -0.113508 0)
(-0.113912 -0.102218 0)
(-0.120751 -0.089796 0)
(-0.126957 -0.0762358 0)
(-0.132312 -0.0615746 0)
(-0.136579 -0.0459135 0)
(-0.139515 -0.0294334 0)
(-0.14085 -0.0124046 0)
(-0.140651 0.00481723 0)
(-0.00307259 -0.172184 0)
(-0.00928015 -0.172514 0)
(-0.0155283 -0.171463 0)
(-0.0218471 -0.169867 0)
(-0.0282543 -0.167701 0)
(-0.0347649 -0.164934 0)
(-0.0413859 -0.161531 0)
(-0.0481161 -0.157453 0)
(-0.0549441 -0.152658 0)
(-0.0618488 -0.147104 0)
(-0.0687981 -0.140747 0)
(-0.0757489 -0.133548 0)
(-0.0826455 -0.125468 0)
(-0.0894179 -0.116469 0)
(-0.0959788 -0.106522 0)
(-0.10222 -0.0956052 0)
(-0.108012 -0.0837127 0)
(-0.113202 -0.0708656 0)
(-0.117621 -0.0571225 0)
(-0.121092 -0.0425903 0)
(-0.123444 -0.0274322 0)
(-0.124484 -0.0118705 0)
(-0.124274 0.00381855 0)
(-0.00280513 -0.166257 0)
(-0.00846976 -0.166533 0)
(-0.0141642 -0.165434 0)
(-0.0199111 -0.163768 0)
(-0.0257226 -0.161517 0)
(-0.0316081 -0.158656 0)
(-0.0375709 -0.155158 0)
(-0.0436068 -0.150992 0)
(-0.0497035 -0.146126 0)
(-0.0558395 -0.140526 0)
(-0.0619842 -0.134161 0)
(-0.0680965 -0.127001 0)
(-0.0741243 -0.11902 0)
(-0.0800029 -0.110197 0)
(-0.0856537 -0.100517 0)
(-0.090983 -0.0899779 0)
(-0.0958818 -0.0785931 0)
(-0.100227 -0.0664001 0)
(-0.103888 -0.0534669 0)
(-0.106733 -0.0398983 0)
(-0.108637 -0.0258391 0)
(-0.109463 -0.0114738 0)
(-0.109261 0.00297787 0)
(-0.00252692 -0.16088 0)
(-0.00762767 -0.161112 0)
(-0.0127497 -0.159977 0)
(-0.01791 -0.158261 0)
(-0.0231159 -0.155949 0)
(-0.0283731 -0.153023 0)
(-0.0336818 -0.149461 0)
(-0.0390361 -0.145239 0)
(-0.0444228 -0.140334 0)
(-0.0498214 -0.134721 0)
(-0.0552029 -0.128377 0)
(-0.0605295 -0.121284 0)
(-0.0657538 -0.113425 0)
(-0.070818 -0.104791 0)
(-0.0756538 -0.0953803 0)
(-0.0801814 -0.0852047 0)
(-0.0843108 -0.0742898 0)
(-0.0879445 -0.0626822 0)
(-0.0909803 -0.0504531 0)
(-0.0933196 -0.0377016 0)
(-0.0948727 -0.0245557 0)
(-0.0955383 -0.0111706 0)
(-0.0953553 0.00227488 0)
(-0.00224084 -0.156072 0)
(-0.00676257 -0.156267 0)
(-0.011299 -0.155107 0)
(-0.0158626 -0.153356 0)
(-0.0204573 -0.151002 0)
(-0.0250859 -0.148032 0)
(-0.0297466 -0.144429 0)
(-0.0344323 -0.140177 0)
(-0.0391301 -0.135257 0)
(-0.0438205 -0.129654 0)
(-0.0484771 -0.123352 0)
(-0.0530658 -0.11634 0)
(-0.0575449 -0.108612 0)
(-0.0618643 -0.100168 0)
(-0.0659654 -0.0910169 0)
(-0.0697821 -0.0811783 0)
(-0.0732415 -0.0706863 0)
(-0.0762658 -0.0595924 0)
(-0.0787766 -0.0479672 0)
(-0.0806993 -0.0359034 0)
(-0.0819684 -0.0235143 0)
(-0.0825103 -0.0109327 0)
(-0.0823514 0.00169242 0)
(-0.00194926 -0.151846 0)
(-0.00588131 -0.152013 0)
(-0.00982306 -0.150834 0)
(-0.0137835 -0.149059 0)
(-0.0177644 -0.146677 0)
(-0.0217662 -0.14368 0)
(-0.025786 -0.140054 0)
(-0.0298162 -0.135789 0)
(-0.0338447 -0.130872 0)
(-0.0378536 -0.125293 0)
(-0.0418196 -0.119043 0)
(-0.0457129 -0.11212 0)
(-0.0494975 -0.104523 0)
(-0.0531309 -0.0962604 0)
(-0.0565647 -0.087348 0)
(-0.0597445 -0.077812 0)
(-0.062612 -0.0676914 0)
(-0.0651064 -0.0570393 0)
(-0.0671672 -0.0459248 0)
(-0.0687385 -0.0344337 0)
(-0.0697722 -0.0226676 0)
(-0.0702148 -0.010742 0)
(-0.070083 0.00121641 0)
(-0.00165384 -0.148213 0)
(-0.00498891 -0.148356 0)
(-0.0083301 -0.147166 0)
(-0.0116839 -0.145375 0)
(-0.0150502 -0.142976 0)
(-0.0184284 -0.139962 0)
(-0.0218146 -0.136326 0)
(-0.0252019 -0.13206 0)
(-0.0285789 -0.127156 0)
(-0.0319302 -0.121609 0)
(-0.0352355 -0.115416 0)
(-0.0384697 -0.10858 0)
(-0.0416027 -0.101107 0)
(-0.0445996 -0.0930095 0)
(-0.0474206 -0.0843093 0)
(-0.0500228 -0.0750369 0)
(-0.0523601 -0.0652338 0)
(-0.0543852 -0.0549536 0)
(-0.0560526 -0.0442631 0)
(-0.0573204 -0.0332421 0)
(-0.0581533 -0.0219825 0)
(-0.0585136 -0.0105865 0)
(-0.0584095 0.000835413 0)
(-0.00135593 -0.145173 0)
(-0.00408922 -0.145306 0)
(-0.00682597 -0.144108 0)
(-0.00957135 -0.142306 0)
(-0.0123239 -0.139897 0)
(-0.0150821 -0.136876 0)
(-0.0178422 -0.133237 0)
(-0.0205977 -0.128977 0)
(-0.023339 -0.124091 0)
(-0.026053 -0.118578 0)
(-0.0287231 -0.112441 0)
(-0.0313287 -0.105685 0)
(-0.0338455 -0.0983221 0)
(-0.0362456 -0.0903686 0)
(-0.0384981 -0.0818496 0)
(-0.0405693 -0.0727987 0)
(-0.0424236 -0.0632587 0)
(-0.044026 -0.0532831 0)
(-0.0453421 -0.042936 0)
(-0.0463412 -0.0322919 0)
(-0.0469985 -0.0214354 0)
(-0.0472874 -0.0104585 0)
(-0.0472115 0.000540071 0)
(-0.00105185 -0.142735 0)
(-0.00318147 -0.142845 0)
(-0.00531398 -0.141642 0)
(-0.00745089 -0.139835 0)