/*--------------------------------*- C++ -*----------------------------------*\
| =========                 |                                                 |
| \\      /  F ield         | OpenFOAM: The Open Source CFD Toolbox           |
|  \\    /   O peration     | Version:  2.4.0                                 |
|   \\  /    A nd           | Web:      www.OpenFOAM.org                      |
|    \\/     M anipulation  |                                                 |
\*---------------------------------------------------------------------------*/
FoamFile
{
    version     2.0;
    format      ascii;
    class       volVectorField;
    location    "0.05";
    object      U.oil;
}
// * * * * * * * * * * * * * * * * * * * * * * * * * * * * * * * * * * * * * //

dimensions      [0 1 -1 0 0 0 0];

internalField   nonuniform List<vector> 
2268
(
(0.00917721 -0.00433951 0)
(0.0278917 -0.00450896 0)
(0.0477052 -0.00485754 0)
(0.069421 -0.00540546 0)
(0.0939642 -0.00618711 0)
(0.122427 -0.00725941 0)
(0.156443 -0.00870676 0)
(0.196712 -0.010687 0)
(0.251314 -0.0133614 0)
(0.303529 -0.0167889 0)
(0.416203 -0.0258975 0)
(0.561087 -0.0300359 0)
(0.890204 0.071985 0)
(1.00022 -0.0361298 0)
(1.04187 -0.0707427 0)
(0.729693 0.0238101 0)
(0.519626 0.034468 0)
(0.435658 0.0204779 0)
(0.36926 0.0144558 0)
(0.310872 0.0142763 0)
(0.245895 0.0173718 0)
(0.163909 0.0222487 0)
(0.0588095 0.0269212 0)
(0.00909845 -0.0129822 0)
(0.0276516 -0.0134894 0)
(0.0472897 -0.0145308 0)
(0.0688044 -0.016167 0)
(0.0931038 -0.0184998 0)
(0.121256 -0.0216973 0)
(0.154848 -0.0260079 0)
(0.194553 -0.0319141 0)
(0.248336 -0.0398312 0)
(0.29849 -0.0508845 0)
(0.413217 -0.0709849 0)
(0.540253 -0.117775 0)
(0.868542 0.0421981 0)
(0.983085 0.0537845 0)
(0.91659 0.15632 0)
(0.584018 0.13031 0)
(0.486081 0.0879789 0)
(0.425353 0.0527932 0)
(0.367485 0.0408814 0)
(0.312991 0.0421225 0)
(0.250192 0.0518056 0)
(0.168873 0.0669799 0)
(0.061166 0.0819808 0)
(0.00893916 -0.0215117 0)
(0.0271648 -0.0223499 0)
(0.0464478 -0.0240707 0)
(0.0675567 -0.0267721 0)
(0.0913659 -0.0306188 0)
(0.118897 -0.035882 0)
(0.151635 -0.042964 0)
(0.190251 -0.0526542 0)
(0.242084 -0.0655899 0)
(0.289307 -0.083805 0)
(0.401266 -0.116939 0)
(0.52242 -0.169259 0)
(0.811987 -0.0243035 0)
(0.918684 -0.0536764 0)
(0.744336 0.116148 0)
(0.499637 0.165067 0)
(0.455459 0.121642 0)
(0.410793 0.0796127 0)
(0.364416 0.0647645 0)
(0.316609 0.0679804 0)
(0.258308 0.0850592 0)
(0.178973 0.112108 0)
(0.066168 0.139648 0)
(0.00870273 -0.0298535 0)
(0.0264425 -0.0310124 0)
(0.0451994 -0.0333906 0)
(0.0657092 -0.0371204 0)
(0.0887974 -0.0424203 0)
(0.115419 -0.0496537 0)
(0.14691 -0.0593606 0)
(0.183953 -0.0725702 0)
(0.232871 -0.0901548 0)
(0.276916 -0.114568 0)
(0.381941 -0.157584 0)
(0.501522 -0.219066 0)
(0.748378 -0.105397 0)
(0.826109 -0.0318362 0)
(0.563182 0.169603 0)
(0.439766 0.198624 0)
(0.425919 0.142937 0)
(0.396277 0.0979674 0)
(0.362042 0.083976 0)
(0.322802 0.0906941 0)
(0.271419 0.116199 0)
(0.195682 0.157515 0)
(0.0743739 0.206011 0)
(0.008392 -0.0379357 0)
(0.0254936 -0.0394013 0)
(0.0435609 -0.0424076 0)
(0.0632888 -0.0471161 0)
(0.0854417 -0.0537881 0)
(0.110889 -0.062864 0)
(0.140792 -0.0749997 0)
(0.175828 -0.0913854 0)
(0.221087 -0.113101 0)
(0.261922 -0.142756 0)
(0.357522 -0.193541 0)
(0.472418 -0.259763 0)
(0.690946 -0.184828 0)
(0.717147 -0.0165802 0)
(0.424939 0.203002 0)
(0.395121 0.211683 0)
(0.397172 0.152759 0)
(0.383075 0.110003 0)
(0.36124 0.0980421 0)
(0.332294 0.108837 0)
(0.29015 0.144208 0)
(0.223063 0.203065 0)
(0.0890926 0.272105 0)
(0.00801082 -0.0456951 0)
(0.0243297 -0.0474502 0)
(0.0415531 -0.05105 0)
(0.0603302 -0.0566799 0)
(0.0813541 -0.0646275 0)
(0.105393 -0.0753965 0)
(0.133421 -0.0897345 0)
(0.166081 -0.108928 0)
(0.207216 -0.134234 0)
(0.244935 -0.168401 0)
(0.329743 -0.224199 0)
(0.434392 -0.293879 0)
(0.638034 -0.24693 0)
(0.58805 0.00991399 0)
(0.341049 0.219003 0)
(0.356632 0.211632 0)
(0.372071 0.153034 0)
(0.37124 0.11612 0)
(0.361092 0.108385 0)
(0.346043 0.121825 0)
(0.316576 0.16658 0)
(0.262037 0.247347 0)
(0.107965 0.376598 0)
(0.00756335 -0.0530707 0)
(0.0229634 -0.0550958 0)
(0.0391984 -0.0592499 0)
(0.056871 -0.0657392 0)
(0.0765959 -0.0748687 0)
(0.0990255 -0.0871859 0)
(0.124943 -0.103487 0)
(0.154915 -0.125125 0)
(0.191717 -0.15347 0)
(0.22608 -0.191561 0)
(0.300244 -0.249624 0)
(0.392123 -0.322156 0)
(0.586971 -0.287552 0)
(0.464971 0.034975 0)
(0.286093 0.221087 0)
(0.324186 0.202481 0)
(0.350724 0.148178 0)
(0.361821 0.116566 0)
(0.364885 0.112553 0)
(0.3617 0.128046 0)
(0.34953 0.181011 0)
(0.319308 0.280705 0)
(0.148613 0.443365 0)
(0.00705239 -0.0597557 0)
(0.0214024 -0.0620194 0)
(0.036507 -0.0666666 0)
(0.0529208 -0.0739197 0)
(0.0711999 -0.0841625 0)
(0.0918804 -0.0978477 0)
(0.115512 -0.115719 0)
(0.14256 -0.139244 0)
(0.174929 -0.169766 0)
(0.205434 -0.210446 0)
(0.269754 -0.269318 0)
(0.348025 -0.342975 0)
(0.53705 -0.302593 0)
(0.355969 0.0591468 0)
(0.247859 0.21468 0)
(0.297155 0.188905 0)
(0.333496 0.139291 0)
(0.352742 0.111348 0)
(0.368503 0.108671 0)
(0.381718 0.128305 0)
(0.384169 0.187988 0)
(0.408167 0.333935 0)
(0.212008 0.655663 0)
(-0.0136774 0.000452585 0)
(0.0245807 -0.0161076 0)
(0.114596 -0.015792 0)
(0.177644 -0.0106847 0)
(0.215164 -0.00493984 0)
(0.22874 -0.000939532 0)
(0.227368 0.00142297 0)
(0.215167 0.00305786 0)
(0.198805 0.00380349 0)
(0.17992 0.00411377 0)
(0.159997 0.00421617 0)
(0.139892 0.00420208 0)
(0.120002 0.00413137 0)
(0.100509 0.00403871 0)
(0.0814664 0.00394451 0)
(0.0628523 0.00386029 0)
(0.0446013 0.00379289 0)
(0.0266296 0.00374492 0)
(0.0088369 0.00373805 0)
(-0.0199842 0.00202475 0)
(0.0195044 -0.0507999 0)
(0.120203 -0.0493523 0)
(0.18697 -0.0327632 0)
(0.224427 -0.0151711 0)
(0.236886 -0.00258055 0)
(0.233849 0.00498163 0)
(0.220903 0.00956038 0)
(0.20368 0.0117338 0)
(0.184074 0.0126704 0)
(0.163563 0.0129646 0)
(0.142934 0.0129092 0)
(0.122569 0.0126849 0)
(0.102636 0.0123964 0)
(0.0831773 0.0121047 0)
(0.0641654 0.0118448 0)
(0.0455296 0.0116372 0)
(0.0271801 0.0114923 0)
(0.00900228 0.0113731 0)
(-0.0343947 0.00743798 0)
(0.00422674 -0.0914211 0)
(0.125172 -0.0876771 0)
(0.196666 -0.0554704 0)
(0.233026 -0.0245104 0)
(0.242896 -0.00336642 0)
(0.237019 0.00933292 0)
(0.222847 0.0163952 0)
(0.204627 0.0198587 0)
(0.184484 0.0213458 0)
(0.163685 0.0217754 0)
(0.142904 0.0216455 0)
(0.122466 0.0212483 0)
(0.102506 0.0207527 0)
(0.0830489 0.0202569 0)
(0.0640544 0.0198175 0)
(0.045445 0.0194677 0)
(0.0271283 0.0192263 0)
(0.00898511 0.019035 0)
(-0.0566928 0.0208206 0)
(0.0118741 -0.15619 0)
(0.206847 -0.152208 0)
(0.228431 -0.0862779 0)
(0.246456 -0.0326254 0)
(0.251491 -0.00246892 0)
(0.241943 0.0146444 0)
(0.22546 0.0238601 0)
(0.205855 0.0283565 0)
(0.184952 0.0302354 0)
(0.163748 0.0307091 0)
(0.142761 0.0304515 0)
(0.122233 0.0298504 0)
(0.102251 0.0291293 0)
(0.0828087 0.0284185 0)
(0.0638521 0.0277932 0)
(0.0452936 0.0272975 0)
(0.0270357 0.0269569 0)
(0.00895433 0.0266851 0)
(-0.066524 0.0205341 0)
(0.350416 -0.26427 0)
(1.08484 -0.366293 0)
(1.01065 -0.299875 0)
(0.295708 -0.0494708 0)
(0.262901 0.000445148 0)
(0.248166 0.0214258 0)
(0.228654 0.0321925 0)
(0.207324 0.0373337 0)
(0.185478 0.0393829 0)
(0.163773 0.039777 0)
(0.142537 0.039321 0)
(0.121903 0.0384751 0)
(0.101897 0.0375049 0)
(0.0824807 0.0365652 0)
(0.0635777 0.035746 0)
(0.0450891 0.0350997 0)
(0.0269103 0.034657 0)
(0.0089124 0.0343042 0)
(0.276496 -0.0927047 0)
(1.12079 -0.308295 0)
(2.37496 -0.580848 0)
(2.35397 -0.595294 0)
(1.05867 -0.247157 0)
(0.298304 0.000138263 0)
(0.255378 0.0300051 0)
(0.232192 0.0415562 0)
(0.208894 0.0468793 0)
(0.185981 0.0488364 0)
(0.163716 0.0490037 0)
(0.142204 0.0482649 0)
(0.121459 0.0471253 0)
(0.101437 0.0458775 0)
(0.0820601 0.0446922 0)
(0.0632285 0.0436694 0)
(0.0448299 0.0428669 0)
(0.0267517 0.042319 0)
(0.00885936 0.0418842 0)
(0.940684 -0.16389 0)
(1.49138 -0.320035 0)
(2.34068 -0.542202 0)
(2.26062 -0.539208 0)
(1.00373 -0.213009 0)
(0.322416 0.00749983 0)
(0.262963 0.0406691 0)
(0.235781 0.0520373 0)
(0.210399 0.0570099 0)
(0.18637 0.0585824 0)
(0.163524 0.0583608 0)
(0.141735 0.0572482 0)
(0.120886 0.0557636 0)
(0.100862 0.0542091 0)
(0.0815413 0.052762 0)
(0.0628013 0.0515265 0)
(0.0445143 0.050563 0)
(0.0265588 0.0499074 0)
(0.00879464 0.0493902 0)
(1.00433 -0.143285 0)
(1.52441 -0.311472 0)
(1.98671 -0.435028 0)
(0.977974 -0.236174 0)
(0.383253 -0.0333099 0)
(0.306207 0.0302031 0)
(0.269836 0.0535083 0)
(0.239065 0.0637225 0)
(0.211653 0.0678524 0)
(0.186539 0.0687619 0)
(0.163136 0.0679896 0)
(0.141091 0.0664062 0)
(0.12016 0.0645167 0)
(0.100155 0.062618 0)
(0.0809149 0.0608852 0)
(0.0622901 0.0594217 0)
(0.0441386 0.0582877 0)
(0.02633 0.0575189 0)
(0.00871827 0.0569165 0)
(0.00609763 -0.0706695 0)
(0.0184768 -0.0732943 0)
(0.0314378 -0.0786664 0)
(0.0454021 -0.087084 0)
(0.0614329 -0.0981599 0)
(0.0795822 -0.112986 0)
(0.0995211 -0.132485 0)
(0.121762 -0.158082 0)
(0.147242 -0.190747 0)
(0.170862 -0.23444 0)
(0.222426 -0.293625 0)
(0.274261 -0.345121 0)
(0.459306 -0.299763 0)
(0.190136 0.0873885 0)
(0.201442 0.186123 0)
(0.263899 0.153336 0)
(0.308983 0.114652 0)
(0.342673 0.0935063 0)
(0.373044 0.0908168 0)
(0.413767 0.104939 0)
(0.454041 0.164516 0)
(0.600742 0.228583 0)
(0.805062 0.562212 0)
(0.00476697 -0.0849087 0)
(0.0144338 -0.087185 0)
(0.0244895 -0.0919785 0)
(0.035358 -0.0997505 0)
(0.0472543 -0.111681 0)
(0.0611046 -0.12685 0)
(0.0757185 -0.147539 0)
(0.0910908 -0.174233 0)
(0.10741 -0.209752 0)
(0.120659 -0.255964 0)
(0.183174 -0.31422 0)
(0.221705 -0.328787 0)
(0.311521 -0.248339 0)
(0.0357331 0.0957799 0)
(0.166411 0.122926 0)
(0.232238 0.0946905 0)
(0.285183 0.0707528 0)
(0.332908 0.0561806 0)
(0.378553 0.0521188 0)
(0.435953 0.0584095 0)
(0.502208 0.08105 0)
(0.606795 0.0929047 0)
(0.801962 0.172074 0)
(0.00381703 -0.0652722 0)
(0.0114218 -0.0691843 0)
(0.0189847 -0.0772688 0)
(0.0265964 -0.0912434 0)
(0.0352142 -0.111925 0)
(0.0413441 -0.13472 0)
(0.0512373 -0.161127 0)
(0.0573335 -0.2003 0)
(0.067366 -0.237551 0)
(0.069586 -0.293554 0)
(0.0935271 -0.352631 0)
(0.103662 -0.376301 0)
(0.0746094 -0.174965 0)
(0.0052128 0.052835 0)
(0.148878 0.0410997 0)
(0.214349 0.0285818 0)
(0.270865 0.0175251 0)
(0.324081 0.00711684 0)
(0.375748 -0.000341435 0)
(0.440655 -0.00547573 0)
(0.501875 -0.00426756 0)
(0.620129 -0.0246757 0)
(0.733615 -0.0373936 0)
(0.00157969 -0.186583 0)
(0.00468857 -0.188975 0)
(0.00593972 -0.193907 0)
(0.00432509 -0.200407 0)
(0.0119714 -0.208319 0)
(0.0164879 -0.222228 0)
(0.0209206 -0.243999 0)
(0.0315855 -0.261851 0)
(0.0328944 -0.298892 0)
(0.0490137 -0.32745 0)
(0.0570682 -0.376625 0)
(0.0747633 -0.386012 0)
(0.00486881 -0.192518 0)
(0.068731 -0.0494024 0)
(0.152267 -0.0377331 0)
(0.211954 -0.0324171 0)
(0.264153 -0.0359279 0)
(0.315117 -0.0446541 0)
(0.366559 -0.055908 0)
(0.4299 -0.0698527 0)
(0.485968 -0.0838408 0)
(0.593831 -0.123694 0)
(0.677618 -0.167862 0)
(0.0138039 -0.118575 0)
(0.0415848 -0.121878 0)
(0.0713034 -0.127725 0)
(0.103578 -0.120516 0)
(0.127693 -0.0916863 0)
(0.15083 -0.121224 0)
(0.170296 -0.112407 0)
(0.183786 -0.159733 0)
(0.195193 -0.188091 0)
(0.200804 -0.254462 0)
(0.199452 -0.312741 0)
(0.191048 -0.345021 0)
(0.174863 -0.187048 0)
(0.131203 -0.109927 0)
(0.173669 -0.0885134 0)
(0.216975 -0.0795048 0)
(0.258857 -0.0832028 0)
(0.304109 -0.0934324 0)
(0.351554 -0.108704 0)
(0.408399 -0.12949 0)
(0.457674 -0.153366 0)
(0.548434 -0.207837 0)
(0.611551 -0.261342 0)
(0.0122561 -0.141487 0)
(0.0367856 -0.144011 0)
(0.0610818 -0.149461 0)
(0.0829199 -0.160973 0)
(0.105389 -0.178729 0)
(0.125794 -0.194456 0)
(0.146267 -0.218701 0)
(0.163147 -0.237498 0)
(0.175144 -0.263598 0)
(0.177055 -0.285898 0)
(0.172856 -0.305491 0)
(0.183811 -0.291277 0)
(0.199383 -0.165528 0)
(0.144008 -0.122074 0)
(0.179687 -0.115832 0)
(0.214925 -0.116435 0)
(0.250185 -0.123825 0)
(0.289575 -0.137056 0)
(0.331473 -0.156031 0)
(0.380076 -0.181514 0)
(0.421661 -0.212207 0)
(0.49491 -0.271148 0)
(0.536032 -0.320912 0)
(0.0106631 -0.158189 0)
(0.0319071 -0.161186 0)
(0.0527805 -0.1672 0)
(0.0726199 -0.176307 0)
(0.0914195 -0.186662 0)
(0.109031 -0.200982 0)
(0.124769 -0.216097 0)
(0.137976 -0.236165 0)
(0.147138 -0.25683 0)
(0.152066 -0.278848 0)
(0.153808 -0.29915 0)
(0.178165 -0.288487 0)
(0.205202 -0.173345 0)
(0.147877 -0.141997 0)
(0.178598 -0.141284 0)
(0.208578 -0.147742 0)
(0.238224 -0.15879 0)
(0.271824 -0.175013 0)
(0.307675 -0.196891 0)
(0.348216 -0.225269 0)
(0.381658 -0.259301 0)
(0.442073 -0.31789 0)
(0.467882 -0.359901 0)
(0.00931793 -0.179512 0)
(0.0278354 -0.182155 0)
(0.0459243 -0.187344 0)
(0.0632239 -0.195115 0)
(0.0795815 -0.205104 0)
(0.0946998 -0.217511 0)
(0.108255 -0.232049 0)
(0.119669 -0.248534 0)
(0.128332 -0.266232 0)
(0.134239 -0.283909 0)
(0.138657 -0.299646 0)
(0.167704 -0.291398 0)
(0.198739 -0.181613 0)
(0.142494 -0.158622 0)
(0.171247 -0.162562 0)
(0.197618 -0.174124 0)
(0.222887 -0.188578 0)
(0.251352 -0.207381 0)
(0.281489 -0.231309 0)
(0.314716 -0.261108 0)
(0.340867 -0.296296 0)
(0.390754 -0.351952 0)
(0.399413 -0.387021 0)
(0.00807173 -0.196631 0)
(0.0241015 -0.199056 0)
(0.0397567 -0.203744 0)
(0.0547842 -0.210677 0)
(0.0689669 -0.21968 0)
(0.0820674 -0.230702 0)
(0.0938006 -0.243465 0)
(0.103868 -0.257778 0)
(0.112024 -0.272958 0)
(0.118505 -0.288261 0)
(0.124509 -0.302692 0)
(0.155966 -0.292578 0)
(0.186582 -0.192494 0)
(0.132075 -0.174663 0)
(0.160017 -0.181936 0)
(0.183252 -0.196958 0)
(0.204918 -0.213975 0)
(0.228931 -0.234688 0)
(0.254017 -0.259869 0)
(0.281004 -0.290069 0)
(0.301291 -0.324952 0)
(0.342762 -0.376189 0)
(0.333726 -0.404367 0)
(0.00695174 -0.211775 0)
(0.0207561 -0.213974 0)
(0.0342421 -0.218191 0)
(0.0472043 -0.224424 0)
(0.0594491 -0.232556 0)
(0.0707845 -0.242452 0)
(0.0810211 -0.253904 0)
(0.0900024 -0.266615 0)
(0.0976532 -0.280155 0)
(0.104287 -0.293988 0)
(0.110735 -0.307583 0)
(0.139853 -0.304366 0)
(0.171619 -0.202612 0)
(0.119182 -0.189652 0)
(0.146248 -0.199517 0)
(0.166524 -0.216784 0)
(0.185081 -0.235569 0)
(0.205266 -0.257556 0)
(0.226047 -0.283385 0)
(0.247957 -0.313399 0)
(0.263996 -0.347297 0)
(0.299929 -0.393809 0)
(0.274515 -0.416829 0)
(0.00593717 -0.224717 0)
(0.017728 -0.226725 0)
(0.0292532 -0.230554 0)
(0.040345 -0.236215 0)
(0.0508456 -0.243608 0)
(0.0606099 -0.252595 0)
(0.069514 -0.262989 0)
(0.0774823 -0.274547 0)
(0.0845143 -0.286959 0)
(0.0908959 -0.299879 0)
(0.0972207 -0.313034 0)
(0.123802 -0.312003 0)
(0.154369 -0.212834 0)
(0.105138 -0.203536 0)
(0.130855 -0.215301 0)
(0.148251 -0.233934 0)
(0.164042 -0.253837 0)
(0.180903 -0.276584 0)
(0.198031 -0.302667 0)
(0.215831 -0.332281 0)
(0.228876 -0.36521 0)
(0.261628 -0.407704 0)
(0.220682 -0.430542 0)
(0.00501289 -0.235732 0)
(0.0149682 -0.237577 0)
(0.0247026 -0.241079 0)
(0.0340822 -0.246269 0)
(0.0429844 -0.253058 0)
(0.0513022 -0.261323 0)
(0.0589546 -0.270908 0)
(0.0659078 -0.281626 0)
(0.0721903 -0.293262 0)
(0.0780426 -0.305597 0)
(0.0840967 -0.318495 0)
(0.109429 -0.313995 0)
(0.135467 -0.221855 0)
(0.0906516 -0.215975 0)
(0.114396 -0.22922 0)
(0.129022 -0.248604 0)
(0.142299 -0.26914 0)
(0.156212 -0.292264 0)
(0.170158 -0.318356 0)
(0.184454 -0.347553 0)
(0.195065 -0.379808 0)
(0.224556 -0.419829 0)
(0.173082 -0.446603 0)
(0.00416628 -0.244889 0)
(0.0124368 -0.246624 0)
(0.0205167 -0.249885 0)
(0.0283039 -0.254707 0)
(0.0357135 -0.261019 0)
(0.0426669 -0.268717 0)
(0.0491049 -0.27768 0)
(0.0550111 -0.287776 0)
(0.0604186 -0.298859 0)
(0.0655055 -0.310793 0)
(0.0706699 -0.32353 0)
(0.091499 -0.323796 0)
(0.115983 -0.229641 0)
(0.0756935 -0.226924 0)
(0.0972543 -0.241286 0)
(0.109271 -0.260954 0)
(0.120224 -0.281754 0)
(0.131453 -0.304964 0)
(0.14252 -0.330887 0)
(0.153637 -0.35966 0)
(0.161873 -0.391397 0)
(0.186862 -0.429715 0)
(0.132395 -0.461699 0)
(0.00335678 -0.25216 0)
(0.0100414 -0.253804 0)
(0.0165889 -0.257007 0)
(0.0228948 -0.261652 0)
(0.0289014 -0.267615 0)
(0.0345524 -0.274872 0)
(0.039795 -0.283356 0)
(0.0446184 -0.292982 0)
(0.0490536 -0.303653 0)
(0.0532238 -0.315284 0)
(0.0574899 -0.327875 0)
(0.0751036 -0.327063 0)
(0.0955391 -0.236603 0)
(0.0608065 -0.236395 0)
(0.0797657 -0.251571 0)
(0.089347 -0.271165 0)
(0.0981118 -0.291935 0)
(0.10684 -0.314988 0)
(0.115219 -0.340574 0)
(0.123361 -0.368837 0)
(0.129133 -0.400063 0)
(0.149087 -0.436328 0)
(0.0979444 -0.472614 0)
(0.00251962 -0.259157 0)
(0.00753327 -0.260626 0)
(0.0126151 -0.263208 0)
(0.0176612 -0.267251 0)
(0.0224115 -0.272828 0)
(0.0268214 -0.279721 0)
(0.0308863 -0.287832 0)
(0.0346051 -0.297118 0)
(0.0379994 -0.307456 0)
(0.0411408 -0.318811 0)
(0.0444229 -0.331272 0)
(0.0585575 -0.327712 0)
(0.0742492 -0.242486 0)
(0.0462044 -0.244406 0)
(0.0621699 -0.260138 0)
(0.0695228 -0.279304 0)
(0.0762031 -0.299754 0)
(0.0825673 -0.322394 0)
(0.0884068 -0.347413 0)
(0.0936933 -0.374936 0)
(0.0970303 -0.405577 0)
(0.111426 -0.439744 0)
(0.0684463 -0.479679 0)
(0.00189704 -0.261701 0)
(0.00565067 -0.263193 0)
(0.00919246 -0.265967 0)
(0.0125572 -0.27005 0)
(0.0158623 -0.275357 0)
(0.0190081 -0.281893 0)
(0.0219682 -0.289583 0)
(0.0248148 -0.298335 0)
(0.0272405 -0.308192 0)
(0.0292352 -0.319209 0)
(0.0313466 -0.331525 0)
(0.0407921 -0.326381 0)
(0.0518971 -0.245878 0)
(0.0321886 -0.249228 0)
(0.0447143 -0.265081 0)
(0.0500878 -0.283364 0)
(0.0547472 -0.303201 0)
(0.0588634 -0.325277 0)
(0.0623443 -0.349706 0)
(0.0648164 -0.376676 0)
(0.0655514 -0.40696 0)
(0.0732436 -0.439932 0)
(0.0422523 -0.484411 0)
(0.00129435 -0.259618 0)
(0.00388759 -0.261134 0)
(0.00639097 -0.263966 0)
(0.00876088 -0.268128 0)
(0.0109592 -0.273546 0)
(0.012957 -0.280222 0)
(0.0146673 -0.288092 0)
(0.0158594 -0.297059 0)
(0.016816 -0.30718 0)
(0.0174843 -0.318432 0)
(0.0180712 -0.330929 0)
(0.0195178 -0.336854 0)
(0.0257625 -0.245563 0)
(0.0193831 -0.249959 0)
(0.027797 -0.265709 0)
(0.0312697 -0.283667 0)
(0.033726 -0.303882 0)
(0.0354578 -0.326695 0)
(0.0364495 -0.352039 0)
(0.0362581 -0.380158 0)
(0.0338792 -0.410123 0)
(0.031993 -0.442961 0)
(0.0177123 -0.4845 0)
(0.000459472 -0.314481 0)
(0.00134848 -0.315948 0)
(0.00222595 -0.318675 0)
(0.0030231 -0.322682 0)
(0.00372049 -0.32791 0)
(0.00429616 -0.334273 0)
(0.00474145 -0.341692 0)
(0.00503789 -0.350071 0)
(0.00511038 -0.359134 0)
(0.00473329 -0.368657 0)
(0.00397671 -0.378359 0)
(-0.00120148 -0.345301 0)
(-0.00138479 -0.305019 0)
(0.00749803 -0.3117 0)
(0.010165 -0.325936 0)
(0.0107772 -0.342545 0)
(0.0103431 -0.360821 0)
(0.00924094 -0.380271 0)
(0.00728128 -0.400463 0)
(0.00697973 -0.415765 0)
(0.00348561 -0.43588 0)
(-0.00162367 -0.453781 0)
(-0.00128177 -0.473143 0)
(5.50401e-05 -0.373811 0)
(5.91269e-05 -0.374768 0)
(0.000151557 -0.376488 0)
(0.000218062 -0.379063 0)
(0.000281834 -0.382434 0)
(0.000343983 -0.386544 0)
(0.000402636 -0.391321 0)
(0.000450956 -0.396685 0)
(0.000467999 -0.402537 0)
(0.000329964 -0.408661 0)
(7.51153e-05 -0.41438 0)
(-0.000100349 -0.395402 0)
(0.00033305 -0.372333 0)
(0.00102419 -0.377758 0)
(0.00115801 -0.387693 0)
(0.000826295 -0.399229 0)
(0.000434592 -0.411593 0)
(-0.000124616 -0.424185 0)
(-0.000708813 -0.436841 0)
(-0.00623084 -0.461404 0)
(-0.00601004 -0.469015 0)
(-0.0120066 -0.467853 0)
(-0.0124538 -0.4588 0)
(-0.00133141 0.0534426 0)
(-0.0117885 0.0543761 0)
(-0.0195607 0.0487827 0)
(-0.0286377 0.0404942 0)
(-0.0386252 0.0293777 0)
(-0.049939 0.0152851 0)
(-0.0629243 -0.00194684 0)
(-0.0778494 -0.0226323 0)
(-0.094726 -0.0471368 0)
(-0.112766 -0.0744876 0)
(-0.133695 -0.0933105 0)
(-0.095358 -0.242607 0)
(-0.0920753 -0.227626 0)
(-0.0888528 -0.25139 0)
(-0.0923878 -0.282878 0)
(-0.0987399 -0.311373 0)
(-0.10962 -0.340547 0)
(-0.126744 -0.366904 0)
(-0.146434 -0.393487 0)
(-0.180261 -0.428 0)
(-0.234274 -0.429739 0)
(-0.360705 -0.256429 0)
(-0.417639 -0.114361 0)
(-0.00374434 -0.414914 0)
(-0.00976596 -0.416191 0)
(-0.0157627 -0.416217 0)
(-0.0227464 -0.415948 0)
(-0.0308461 -0.415395 0)
(-0.0403421 -0.414482 0)
(-0.0516324 -0.413109 0)
(-0.0653101 -0.41113 0)
(-0.0823924 -0.408464 0)
(-0.104577 -0.405301 0)
(-0.13327 -0.402748 0)
(-0.162524 -0.401877 0)
(-0.168583 -0.381818 0)
(-0.164181 -0.361616 0)
(-0.178727 -0.33961 0)
(-0.200168 -0.321922 0)
(-0.230454 -0.307383 0)
(-0.273088 -0.294588 0)
(-0.328102 -0.28071 0)
(-0.415404 -0.272032 0)
(-0.539963 -0.30652 0)
(-0.596322 -0.30312 0)
(-0.571111 -0.0955294 0)
(-0.00386408 -0.197217 0)
(-0.0119238 -0.198955 0)
(-0.0200808 -0.200897 0)
(-0.0288369 -0.203892 0)
(-0.0384167 -0.207801 0)
(-0.0490762 -0.212402 0)
(-0.0610661 -0.217391 0)
(-0.0746705 -0.222402 0)
(-0.0902117 -0.226792 0)
(-0.107815 -0.229249 0)
(-0.127524 -0.227592 0)
(-0.148394 -0.219596 0)
(-0.165628 -0.205354 0)
(-0.17986 -0.207333 0)
(-0.195779 -0.212052 0)
(-0.215309 -0.216268 0)
(-0.2402 -0.218736 0)
(-0.270661 -0.215874 0)
(-0.304092 -0.205296 0)
(-0.340619 -0.186191 0)
(-0.397141 -0.138759 0)
(-0.482166 -0.0219712 0)
(-0.543721 0.086614 0)
(-0.00406336 -0.248626 0)
(-0.0122174 -0.250022 0)
(-0.020639 -0.250529 0)
(-0.0295828 -0.251258 0)
(-0.0392758 -0.252132 0)
(-0.049942 -0.253036 0)
(-0.0617869 -0.253789 0)
(-0.0750003 -0.254155 0)
(-0.0897657 -0.253803 0)
(-0.106061 -0.252275 0)
(-0.12354 -0.249044 0)
(-0.141237 -0.243358 0)
(-0.157364 -0.235057 0)
(-0.172633 -0.22733 0)
(-0.189775 -0.220307 0)
(-0.209476 -0.213315 0)
(-0.233192 -0.205326 0)
(-0.261091 -0.194712 0)
(-0.294157 -0.179686 0)
(-0.335411 -0.16021 0)
(-0.381057 -0.13629 0)
(-0.408861 -0.0897159 0)
(-0.40894 -0.00208476 0)
(-0.00416106 -0.233236 0)
(-0.0126331 -0.234527 0)
(-0.0213358 -0.234827 0)
(-0.0304722 -0.235272 0)
(-0.0402184 -0.2357 0)
(-0.0507367 -0.236007 0)
(-0.0621783 -0.23604 0)
(-0.0746648 -0.235543 0)
(-0.0882441 -0.234192 0)
(-0.102858 -0.231693 0)
(-0.118247 -0.227629 0)
(-0.133888 -0.221774 0)
(-0.149375 -0.214652 0)
(-0.165156 -0.207503 0)
(-0.182073 -0.199826 0)
(-0.200765 -0.191074 0)
(-0.22158 -0.180199 0)
(-0.244555 -0.165933 0)
(-0.269305 -0.146601 0)
(-0.29494 -0.119782 0)
(-0.320291 -0.0803392 0)
(-0.342287 -0.0263049 0)
(-0.352393 0.028264 0)
(-0.00420137 -0.225748 0)
(-0.0127386 -0.226868 0)
(-0.021485 -0.226871 0)
(-0.0305951 -0.226822 0)
(-0.0402069 -0.226641 0)
(-0.0504481 -0.226207 0)
(-0.0614253 -0.225362 0)
(-0.0732102 -0.223919 0)
(-0.0858187 -0.221652 0)
(-0.099184 -0.218311 0)
(-0.113135 -0.213689 0)
(-0.127438 -0.207709 0)
(-0.141991 -0.200551 0)
(-0.156986 -0.192514 0)
(-0.172793 -0.183462 0)
(-0.189717 -0.172929 0)
(-0.207893 -0.160228 0)
(-0.22721 -0.144503 0)
(-0.247257 -0.124785 0)
(-0.267118 -0.100031 0)
(-0.284807 -0.0691194 0)
(-0.296119 -0.0310909 0)
(-0.298749 0.01395 0)
(-0.00417151 -0.217151 0)
(-0.0126409 -0.218101 0)
(-0.0212864 -0.217843 0)
(-0.0302317 -0.217405 0)
(-0.0395834 -0.21671 0)
(-0.049439 -0.215658 0)
(-0.0598738 -0.21412 0)
(-0.0709322 -0.211943 0)
(-0.0826173 -0.208956 0)
(-0.0948792 -0.204989 0)
(-0.107619 -0.199904 0)
(-0.12073 -0.193641 0)
(-0.134174 -0.186234 0)
(-0.148022 -0.177694 0)
(-0.162404 -0.167861 0)
(-0.177414 -0.156395 0)
(-0.19301 -0.142799 0)
(-0.208948 -0.126467 0)
(-0.224704 -0.106725 0)
(-0.239369 -0.0828857 0)
(-0.251476 -0.0544414 0)
(-0.258874 -0.0215869 0)
(-0.260337 0.0134073 0)
(-0.00408327 -0.208847 0)
(-0.0123639 -0.20965 0)
(-0.0207884 -0.209175 0)
(-0.029457 -0.208415 0)
(-0.0384512 -0.207306 0)
(-0.0478444 -0.205762 0)
(-0.0576906 -0.203678 0)
(-0.068019 -0.200933 0)
(-0.0788282 -0.197397 0)
(-0.0900841 -0.192942 0)
(-0.101727 -0.187464 0)
(-0.113697 -0.180892 0)
(-0.125959 -0.173181 0)
(-0.138517 -0.164256 0)
(-0.151382 -0.153965 0)
(-0.164523 -0.142053 0)
(-0.177804 -0.12818 0)
(-0.190936 -0.111957 0)
(-0.203423 -0.093002 0)
(-0.214515 -0.0710186 0)
(-0.22316 -0.0459505 0)
(-0.227989 -0.0182282 0)
(-0.228595 0.0109515 0)
(-0.00394573 -0.200748 0)
(-0.0119394 -0.201421 0)
(-0.0200485 -0.200771 0)
(-0.0283532 -0.199754 0)
(-0.036916 -0.198316 0)
(-0.0457917 -0.196385 0)
(-0.0550193 -0.193877 0)
(-0.0646182 -0.190696 0)
(-0.0745854 -0.18674 0)
(-0.0848955 -0.181909 0)
(-0.095507 -0.176113 0)
(-0.106373 -0.169277 0)
(-0.117452 -0.161329 0)
(-0.128706 -0.152178 0)
(-0.140085 -0.141687 0)
(-0.151493 -0.129674 0)
(-0.162755 -0.115913 0)
(-0.173584 -0.100174 0)
(-0.18355 -0.0822627 0)
(-0.192078 -0.0620908 0)
(-0.198441 -0.0397778 0)
(-0.201764 -0.0157791 0)
(-0.201941 0.00902455 0)
(-0.00376839 -0.192969 0)
(-0.0113961 -0.193533 0)
(-0.019115 -0.192743 0)
(-0.0269887 -0.191522 0)
(-0.0350643 -0.189825 0)
(-0.0433829 -0.187594 0)
(-0.0519722 -0.18476 0)
(-0.0608444 -0.181246 0)
(-0.0699947 -0.176971 0)
(-0.0794017 -0.171854 0)
(-0.0890303 -0.165817 0)
(-0.0988366 -0.158789 0)
(-0.108771 -0.150695 0)
(-0.118772 -0.141449 0)
(-0.12876 -0.130945 0)
(-0.138613 -0.119055 0)
(-0.14815 -0.105641 0)
(-0.157108 -0.0905791 0)
(-0.165138 -0.0737963 0)
(-0.171808 -0.055317 0)
(-0.176619 -0.035322 0)
(-0.178995 -0.0142079 0)
(-0.178951 0.00738911 0)
(-0.00355937 -0.185579 0)
(-0.0107587 -0.186052 0)
(-0.0180288 -0.185151 0)
(-0.02542 -0.183771 0)
(-0.032967 -0.181873 0)
(-0.0407002 -0.179411 0)
(-0.0486386 -0.176329 0)
(-0.056789 -0.172565 0)
(-0.0651442 -0.168053 0)
(-0.0736837 -0.162728 0)
(-0.0823744 -0.156525 0)
(-0.0911723 -0.149378 0)
(-0.100022 -0.141224 0)
(-0.108853 -0.131991 0)
(-0.117573 -0.121601 0)
(-0.126056 -0.109973 0)
(-0.13413 -0.0970286 0)
(-0.141572 -0.0827169 0)
(-0.148102 -0.0670351 0)
(-0.153402 -0.0500621 0)
(-0.157125 -0.0319891 0)
(-0.15888 -0.0131459 0)
(-0.158729 0.0059979 0)
(-0.00332554 -0.178636 0)
(-0.0100477 -0.179031 0)
(-0.016824 -0.178045 0)
(-0.0236935 -0.176542 0)
(-0.0306816 -0.174491 0)
(-0.0378098 -0.171854 0)
(-0.0450906 -0.168586 0)
(-0.0525261 -0.164639 0)
(-0.0601072 -0.159958 0)
(-0.0678128 -0.154492 0)
(-0.0756105 -0.148185 0)
(-0.0834559 -0.140986 0)
(-0.0912923 -0.132842 0)
(-0.099047 -0.1237 0)
(-0.106627 -0.113508 0)
(-0.113912 -0.102218 0)
(-0.120751 -0.089796 0)
(-0.126957 -0.0762358 0)
(-0.132312 -0.0615746 0)
(-0.136579 -0.0459135 0)
(-0.139515 -0.0294334 0)
(-0.14085 -0.0124046 0)
(-0.140651 0.00481723 0)
(-0.00307259 -0.172184 0)
(-0.00928015 -0.172514 0)
(-0.0155283 -0.171463 0)
(-0.0218471 -0.169867 0)
(-0.0282543 -0.167701 0)
(-0.0347649 -0.164934 0)
(-0.0413859 -0.161531 0)
(-0.0481161 -0.157453 0)
(-0.0549441 -0.152658 0)
(-0.0618488 -0.147104 0)
(-0.0687981 -0.140747 0)
(-0.0757489 -0.133548 0)
(-0.0826455 -0.125468 0)
(-0.0894179 -0.116469 0)
(-0.0959788 -0.106522 0)
(-0.10222 -0.0956052 0)
(-0.108012 -0.0837127 0)
(-0.113202 -0.0708656 0)
(-0.117621 -0.0571225 0)
(-0.121092 -0.0425903 0)
(-0.123444 -0.0274322 0)
(-0.124484 -0.0118705 0)
(-0.124274 0.00381855 0)
(-0.00280513 -0.166257 0)
(-0.00846976 -0.166533 0)
(-0.0141642 -0.165434 0)
(-0.0199111 -0.163768 0)
(-0.0257226 -0.161517 0)
(-0.0316081 -0.158656 0)
(-0.0375709 -0.155158 0)
(-0.0436068 -0.150992 0)
(-0.0497035 -0.146126 0)
(-0.0558395 -0.140526 0)
(-0.0619842 -0.134161 0)
(-0.0680965 -0.127001 0)
(-0.0741243 -0.11902 0)
(-0.0800029 -0.110197 0)
(-0.0856537 -0.100517 0)
(-0.090983 -0.0899779 0)
(-0.0958818 -0.0785931 0)
(-0.100227 -0.0664001 0)
(-0.103888 -0.0534669 0)
(-0.106733 -0.0398983 0)
(-0.108637 -0.0258391 0)
(-0.109463 -0.0114738 0)
(-0.109261 0.00297787 0)
(-0.00252692 -0.16088 0)
(-0.00762767 -0.161112 0)
(-0.0127497 -0.159977 0)
(-0.01791 -0.158261 0)
(-0.0231159 -0.155949 0)
(-0.0283731 -0.153023 0)
(-0.0336818 -0.149461 0)
(-0.0390361 -0.145239 0)
(-0.0444228 -0.140334 0)
(-0.0498214 -0.134721 0)
(-0.0552029 -0.128377 0)
(-0.0605295 -0.121284 0)
(-0.0657538 -0.113425 0)
(-0.070818 -0.104791 0)
(-0.0756538 -0.0953803 0)
(-0.0801814 -0.0852047 0)
(-0.0843108 -0.0742898 0)
(-0.0879445 -0.0626822 0)
(-0.0909803 -0.0504531 0)
(-0.0933196 -0.0377016 0)
(-0.0948727 -0.0245557 0)
(-0.0955383 -0.0111706 0)
(-0.0953553 0.00227488 0)
(-0.00224084 -0.156072 0)
(-0.00676257 -0.156267 0)
(-0.011299 -0.155107 0)
(-0.0158626 -0.153356 0)
(-0.0204573 -0.151002 0)
(-0.0250859 -0.148032 0)
(-0.0297466 -0.144429 0)
(-0.0344323 -0.140177 0)
(-0.0391301 -0.135257 0)
(-0.0438205 -0.129654 0)
(-0.0484771 -0.123352 0)
(-0.0530658 -0.11634 0)
(-0.0575449 -0.108612 0)
(-0.0618643 -0.100168 0)
(-0.0659654 -0.0910169 0)
(-0.0697821 -0.0811783 0)
(-0.0732415 -0.0706863 0)
(-0.0762658 -0.0595924 0)
(-0.0787766 -0.0479672 0)
(-0.0806993 -0.0359034 0)
(-0.0819684 -0.0235143 0)
(-0.0825103 -0.0109327 0)
(-0.0823514 0.00169242 0)
(-0.00194926 -0.151846 0)
(-0.00588131 -0.152013 0)
(-0.00982306 -0.150834 0)
(-0.0137835 -0.149059 0)
(-0.0177644 -0.146677 0)
(-0.0217662 -0.14368 0)
(-0.025786 -0.140054 0)
(-0.0298162 -0.135789 0)
(-0.0338447 -0.130872 0)
(-0.0378536 -0.125293 0)
(-0.0418196 -0.119043 0)
(-0.0457129 -0.11212 0)
(-0.0494975 -0.104523 0)
(-0.0531309 -0.0962604 0)
(-0.0565647 -0.087348 0)
(-0.0597445 -0.077812 0)
(-0.062612 -0.0676914 0)
(-0.0651064 -0.0570393 0)
(-0.0671672 -0.0459248 0)
(-0.0687385 -0.0344337 0)
(-0.0697722 -0.0226676 0)
(-0.0702148 -0.010742 0)
(-0.070083 0.00121641 0)
(-0.00165384 -0.148213 0)
(-0.00498891 -0.148356 0)
(-0.0083301 -0.147166 0)
(-0.0116839 -0.145375 0)
(-0.0150502 -0.142976 0)
(-0.0184284 -0.139962 0)
(-0.0218146 -0.136326 0)
(-0.0252019 -0.13206 0)
(-0.0285789 -0.127156 0)
(-0.0319302 -0.121609 0)
(-0.0352355 -0.115416 0)
(-0.0384697 -0.10858 0)
(-0.0416027 -0.101107 0)
(-0.0445996 -0.0930095 0)
(-0.0474206 -0.0843093 0)
(-0.0500228 -0.0750369 0)
(-0.0523601 -0.0652338 0)
(-0.0543852 -0.0549536 0)
(-0.0560526 -0.0442631 0)
(-0.0573204 -0.0332421 0)
(-0.0581533 -0.0219825 0)
(-0.0585136 -0.0105865 0)
(-0.0584095 0.000835413 0)
(-0.00135593 -0.145173 0)
(-0.00408922 -0.145306 0)
(-0.00682597 -0.144108 0)
(-0.00957135 -0.142306 0)
(-0.0123239 -0.139897 0)
(-0.0150821 -0.136876 0)
(-0.0178422 -0.133237 0)
(-0.0205977 -0.128977 0)
(-0.023339 -0.124091 0)
(-0.026053 -0.118578 0)
(-0.0287231 -0.112441 0)
(-0.0313287 -0.105685 0)
(-0.0338455 -0.0983221 0)
(-0.0362456 -0.0903686 0)
(-0.0384981 -0.0818496 0)
(-0.0405693 -0.0727987 0)
(-0.0424236 -0.0632587 0)
(-0.044026 -0.0532831 0)
(-0.0453421 -0.042936 0)
(-0.0463412 -0.0322919 0)
(-0.0469985 -0.0214354 0)
(-0.0472874 -0.0104585 0)
(-0.0472115 0.000540071 0)
(-0.00105185 -0.142735 0)
(-0.00318147 -0.142845 0)
(-0.00531398 -0.141642 0)
(-0.00745089 -0.139835 0)