/*--------------------------------*- C++ -*----------------------------------*\
| =========                 |                                                 |
| \\      /  F ield         | OpenFOAM: The Open Source CFD Toolbox           |
|  \\    /   O peration     | Version:  2.4.0                                 |
|   \\  /    A nd           | Web:      www.OpenFOAM.org                      |
|    \\/     M anipulation  |                                                 |
\*---------------------------------------------------------------------------*/
FoamFile
{
    version     2.0;
    format      ascii;
    class       volScalarField;
    location    "0.4";
    object      alpha.air;
}
// * * * * * * * * * * * * * * * * * * * * * * * * * * * * * * * * * * * * * //

dimensions      [0 0 0 0 0 0 0];

internalField   nonuniform List<scalar> 
559
(
6.02142e-17
5.70369e-16
2.90027e-15
7.39342e-15
2.67763e-14
6.53619e-14
1.33622e-13
1.95595e-13
1.85718e-05
2.05643e-05
1.92612e-05
5.42857e-06
3.39895e-07
2.74497e-07
6.29096e-07
2.0333e-06
2.67719e-06
2.11315e-06
1.44846e-06
2.33574e-06
1.02973e-05
9.87788e-06
5.4223e-06
5.41976e-06
1.82555e-05
0.000312332
0.00135312
1.03722e-05
1.1115e-05
6.43776e-06
1.16404e-06
3.39926e-07
8.75281e-07
4.32805e-06
5.28932e-07
3.50364e-07
8.70205e-08
8.8505e-08
2.72174e-07
2.50768e-06
1.64798e-05
1.51963e-05
5.5895e-06
9.70538e-06
0.000912275
0.00166599
9.79742e-06
1.765e-06
9.31092e-07
9.24852e-07
2.73358e-06
6.69275e-05
0.000346817
0.00023546
2.22208e-05
6.33376e-07
1.67139e-06
5.48612e-06
7.83799e-06
1.64732e-05
3.07515e-05
1.50267e-05
1.93847e-05
0.000254877
0.00117342
4.43211e-05
6.67681e-07
7.82835e-07
5.54038e-06
0.000799695
0.0260585
0.0853043
0.068264
0.0124627
0.000343162
9.402e-05
0.000104879
3.90119e-05
3.65147e-05
8.60062e-05
8.23866e-05
2.24565e-05
2.56947e-05
0.00017661
6.34773e-05
6.692e-07
4.90139e-06
0.000382497
0.0959198
0.630596
0.837817
0.819284
0.421901
0.0395383
0.00398812
0.000881298
0.00012753
0.000155853
0.000251829
0.000100886
1.17002e-05
5.24508e-05
0.000148085
6.36956e-05
2.75592e-06
9.31895e-05
0.0542424
0.846373
0.99811
0.999054
0.999052
0.994038
0.464767
0.0438125
0.00232346
0.000618021
0.00596306
0.00124564
0.000105253
1.18227e-05
0.000678282
0.0012685
2.01636e-05
2.90997e-06
4.5716e-05
0.381943
0.951148
0.999053
0.999053
0.999052
0.998191
0.77993
0.114606
0.00296964
0.00707322
0.150806
0.101346
0.00834117
4.92811e-05
0.00180149
0.0773365
7.76335e-06
4.01129e-06
2.43515e-05
0.196151
0.819914
0.99501
0.999054
0.999054
0.965211
0.541737
0.090169
0.00361994
0.0535295
0.650398
0.458951
0.0235514
6.28004e-05
0.000920335
0.114615
2.86159e-13
2.00638e-12
5.57834e-11
2.16226e-10
3.50691e-10
3.62066e-10
1.86508e-07
0.00141779
0.000397805
0.11595
0.454905
0.278097
4.9437e-05
0.00901318
0.104869
0.259339
9.92615e-07
0.000640208
0.00952625
0.024473
8.5286e-09
7.52598e-06
4.94759e-05
0.000129005
6.69454e-10
8.8285e-09
3.13044e-08
1.87462e-09
3.66425e-10
8.96673e-10
2.08618e-09
1.87573e-09
3.4479e-06
6.59112e-06
1.12725e-05
2.38852e-05
0.00254874
0.00355218
0.00444575
0.00602761
0.0624328
0.0774227
0.0767105
0.0802721
0.727834
0.750225
0.738636
0.725985
0.999955
0.999924
0.999835
0.999679
1
1
1
1
1
1
1
1
1
1
1
1
0.999999
0.999999
0.999999
0.999999
0.999999
0.999999
0.999999
0.999999
0.999999
0.999998
0.999999
0.999999
0.0110912
3.93806e-05
3.99315e-05
0.0272219
0.41191
0.820256
0.913341
0.899882
0.667279
0.160689
0.0135841
0.0134695
0.288259
0.868253
0.323918
0.00874466
6.13536e-05
0.00952211
0.105891
0.176783
0.0291393
0.00250227
0.0029038
0.0162405
0.0913832
0.278907
0.28366
0.129851
0.0138985
0.00377601
0.0455912
0.580999
0.93987
0.171395
0.000988078
0.000538051
0.0219065
0.0240091
0.0773437
0.0690995
0.0227226
0.00771716
0.00785178
0.00967803
0.00782381
0.00522563
0.00182872
0.000435635
0.0035126
0.227384
0.831971
0.962265
0.281285
0.000975595
0.00202572
0.0217863
0.000980147
0.00467594
0.0206277
0.021584
0.0150072
0.00537014
0.00201879
0.000873203
0.000197626
0.000116033
0.000330373
0.0518668
0.575539
0.964388
0.987502
0.624085
0.0121006
0.00194991
0.00816895
1.47085e-05
1.43591e-06
8.29157e-05
0.0010173
0.00317912
0.0025557
0.000689469
8.36059e-05
8.38178e-05
0.000114152
0.0101483
0.296618
0.864297
0.996777
0.998469
0.891337
0.168946
0.000483867
0.000500676
1.73528e-06
1.73028e-08
5.18577e-07
1.07004e-05
5.67284e-05
7.00393e-05
3.74372e-05
3.77973e-05
0.00018099
0.0047449
0.140781
0.707006
0.980277
0.999885
0.999936
0.974091
0.449495
0.000164282
2.33106e-05
1.63457e-06
1.29502e-05
1.48313e-06
1.41637e-06
2.60429e-06
2.05553e-06
6.01994e-06
0.00011787
0.00744564
0.0980313
0.57183
0.950501
0.999322
1
0.999999
0.998195
0.881394
0.113074
4.49685e-05
1.81998e-06
0.00536108
0.000690567
2.5387e-05
2.28253e-06
2.0548e-06
0.00013312
0.00779325
0.0855417
0.492264
0.920202
0.998207
0.999999
1
1
0.999969
0.996162
0.693503
0.000724506
3.20204e-06
0.077335
0.0362589
0.0076673
0.000570418
0.000641974
0.00992416
0.128652
0.496801
0.914131
0.997942
0.999998
1
1
1
1
0.999982
0.930475
0.00792202
1.58072e-05
0.674691
0.390344
0.135787
0.0493637
0.0593518
0.137819
0.558763
0.950656
0.999627
0.999999
1
1
1
1
1
1
0.991595
0.0396174
0.000171219
0.998409
0.967768
0.79229
0.535088
0.516441
0.790003
0.988827
0.99999
1
1
1
1
1
1
1
1
0.999918
0.178202
0.00193327
1
0.999997
0.999608
0.997584
0.998614
0.999831
0.999994
1
1
1
1
1
1
1
1
1
1
0.498658
0.0171104
1
1
1
0.999999
0.999999
1
1
1
1
1
1
1
1
1
1
1
1
0.803206
0.0604316
1
1
1
1
1
1
1
1
1
1
1
1
1
1
1
1
1
0.845301
0.0704385
0.999999
1
1
1
1
1
1
1
1
1
1
1
1
1
1
1
1
0.752723
0.0610425
0.999999
0.999999
0.999999
1
1
1
1
1
1
1
1
1
1
1
1
1
1
0.439672
0.035054
0.999999
0.999999
0.999999
0.999999
1
1
1
1
1
1
1
1
1
1
1
1
1
0.288058
0.016211
)
;

boundaryField
{
    leftWall
    {
        type            alphaContactAngle;
        thetaProperties 
6
(

(
water
mercury
)
 90 0 0 0

(
water
air
)
 90 0 0 0

(
water
oil
)
 90 0 0 0

(
mercury
air
)
 90 0 0 0

(
oil
mercury
)
 90 0 0 0

(
oil
air
)
 90 0 0 0
);
        value           nonuniform 0();
    }
    rightWall
    {
        type            alphaContactAngle;
        thetaProperties 
6
(

(
water
mercury
)
 90 0 0 0

(
water
air
)
 90 0 0 0

(
water
oil
)
 90 0 0 0

(
mercury
air
)
 90 0 0 0

(
oil
mercury
)
 90 0 0 0

(
oil
air
)
 90 0 0 0
);
        value           nonuniform List<scalar> 
25
(
0.00135312
0.00166599
0.00117342
0.00017661
0.000148085
0.0012685
0.0773365
0.114615
0.105891
0.0240091
0.000980147
1.47085e-05
1.73528e-06
1.63457e-06
1.81998e-06
3.20204e-06
1.58072e-05
0.000171219
0.00193327
0.0171104
0.0604316
0.0704385
0.0610425
0.035054
0.016211
)
;
    }
    lowerWall
    {
        type            alphaContactAngle;
        thetaProperties 
6
(

(
water
mercury
)
 90 0 0 0

(
water
air
)
 90 0 0 0

(
water
oil
)
 90 0 0 0

(
mercury
air
)
 90 0 0 0

(
oil
mercury
)
 90 0 0 0

(
oil
air
)
 90 0 0 0
);
        value           nonuniform List<scalar> 
40
(
6.02142e-17
6.02142e-17
5.70369e-16
2.90027e-15
7.39342e-15
2.67763e-14
6.53619e-14
1.33622e-13
1.95595e-13
0.000397805
0.11595
0.454905
0.278097
1.85718e-05
1.03722e-05
9.79742e-06
4.43211e-05
6.34773e-05
6.36956e-05
2.01636e-05
7.76335e-06
1.85718e-05
2.05643e-05
1.92612e-05
5.42857e-06
3.39895e-07
2.74497e-07
6.29096e-07
2.0333e-06
2.67719e-06
2.11315e-06
1.44846e-06
2.33574e-06
1.02973e-05
9.87788e-06
5.4223e-06
5.41976e-06
1.82555e-05
0.000312332
0.00135312
)
;
    }
    atmosphere
    {
        type            inletOutlet;
        inletValue      nonuniform 0();
        value           nonuniform 0();
    }
    defaultFaces
    {
        type            empty;
    }
    procBoundary1to0
    {
        type            processor;
        value           nonuniform List<scalar> 
26
(
3.01847e-16
2.55177e-15
1.24202e-14
3.82935e-14
1.19472e-13
2.75839e-13
4.45886e-13
5.71359e-13
1.37669e-12
9.26029e-12
1.60955e-10
6.54351e-10
7.58697e-10
5.05783e-10
6.77618e-07
0.000934289
0.0479405
0.0479405
0.700883
0.999976
1
1
1
0.999999
0.999999
0.999999
)
;
    }
    procBoundary1to3
    {
        type            processor;
        value           nonuniform List<scalar> 
23
(
0.999999
0.999999
0.999999
0.999999
0.999999
0.999999
0.999999
0.999999
0.999999
1
0.999999
1
1
1
1
1
1
1
1
1
1
0.396974
0.0184697
)
;
    }
}


// ************************************************************************* //
