/*--------------------------------*- C++ -*----------------------------------*\
| =========                 |                                                 |
| \\      /  F ield         | OpenFOAM: The Open Source CFD Toolbox           |
|  \\    /   O peration     | Version:  2.4.0                                 |
|   \\  /    A nd           | Web:      www.OpenFOAM.org                      |
|    \\/     M anipulation  |                                                 |
\*---------------------------------------------------------------------------*/
FoamFile
{
    version     2.0;
    format      ascii;
    class       volScalarField;
    location    "0.4";
    object      alphas;
}
// * * * * * * * * * * * * * * * * * * * * * * * * * * * * * * * * * * * * * //

dimensions      [0 0 0 0 0 0 0];

internalField   nonuniform List<scalar> 
559
(
1.99997
1.99997
1.99997
1.99996
1.99996
1.99995
1.99993
1.99993
1.00038
1.00038
1.00038
1.00035
1.00046
1.00122
1.00538
1.02094
1.05835
1.10601
1.11491
1.11491
1.11561
1.11561
1.11627
1.11602
1.11608
1.11569
1.11674
1.00036
1.00021
1.00011
1.00005
1.00004
1.00004
1.00004
1.00006
1.00034
1.00389
1.03773
1.11324
1.11495
1.11629
1.11562
1.1167
1.11542
1.11195
1.10195
1.00022
1.00004
1.00002
1.00003
1.00003
1.00016
1.00072
1.00054
1.00032
1.00309
1.01638
1.04009
1.09124
1.11522
1.11699
1.11568
1.0885
1.03208
1.02352
1.00016
1.00002
1.00002
1.00002
1.00161
1.05213
1.17062
1.13654
1.02513
1.00532
1.02404
1.04082
1.05134
1.05591
1.0585
1.03942
1.01277
1.00236
1.00149
1.00019
1.00002
1.00002
1.00077
1.19185
2.2612
2.67564
2.63857
1.8439
1.08412
1.03873
1.05075
1.05472
1.04717
1.02632
1.00589
1.00058
1.00046
1.00056
1.00018
1.00002
1.0002
1.10849
2.69276
2.99623
2.99811
2.9981
2.98813
1.93664
1.12441
1.05955
1.05817
1.05804
1.02225
1.00219
1.00015
1.00147
1.0026
1.00007
1.00002
1.0001
1.76389
2.90231
2.99811
2.99811
2.9981
2.99643
2.57296
1.27567
1.06396
1.07241
1.34744
1.21329
1.01737
1.00019
1.0037
1.15471
1.00067
1.00002
1.00005
1.39231
2.63984
2.99003
2.99811
2.99811
2.9312
2.11563
1.23671
1.06702
1.16644
2.32628
1.91934
1.04718
1.0002
1.00193
1.22926
1.99588
1.85406
1.11699
0.250261
0.034557
0.107789
0.533827
0.98397
1.9829
2.02762
2.14017
1.68625
1.98175
1.97428
2.04356
2.15049
1.63686
1.79811
1.82879
1.84339
0.5288
0.752747
0.963449
1.08359
0.0630565
0.098567
0.149625
0.20151
0.0746162
0.07526
0.0803533
0.0846038
0.464628
0.426904
0.400767
0.396985
0.98055
0.976785
0.969836
0.964556
1.12444
1.15418
1.15211
1.15845
2.45566
2.50044
2.47724
2.45191
2.99991
2.99985
2.99967
2.99936
3
3
3
3
3
3
3
3
3
3
3
3
3
3
3
3
3
3
3
3
3
3
3
3
1.11801
1.03771
1.00878
1.05883
1.82588
2.64126
2.82755
2.80178
2.35234
1.37841
1.09021
1.08791
1.62801
2.74685
1.64797
1.01752
1.00019
1.01911
1.21181
1.75467
1.25648
1.08349
1.05654
1.07018
1.20499
1.58131
1.60354
1.32544
1.09579
1.07081
1.15319
2.19797
2.88255
1.34281
1.002
1.00114
1.04387
1.04804
1.80334
1.52772
1.29892
1.17206
1.10902
1.10949
1.10341
1.10007
1.08145
1.06395
1.0615
1.50292
2.67664
2.92486
1.56257
1.00197
1.0041
1.04363
1.00198
1.10726
1.17492
1.17904
1.15519
1.14395
1.11892
1.09158
1.05958
1.04564
1.0387
1.14702
2.17468
2.93103
2.97502
2.24817
1.02421
1.00393
1.01638
1.00004
0.262186
0.378197
0.53739
0.713431
0.869408
0.918082
0.928867
0.953389
0.985598
1.02601
1.60846
2.73359
2.9937
2.99694
2.78268
1.3379
1.00098
1.00102
1.00001
0.0960538
0.128098
0.212096
0.358882
0.488007
0.595325
0.735754
0.857919
0.941594
1.24814
2.41163
2.96082
2.99978
2.99987
2.94818
1.89899
1.00034
1.00006
1.00001
0.360457
0.263486
0.23438
0.278939
0.367925
0.470087
0.64879
0.8302
1.08064
2.11651
2.9
2.99865
3
3
2.99639
2.76279
1.22615
1.0001
1.00001
0.905403
0.701268
0.436181
0.355537
0.388414
0.500551
0.706709
0.998164
1.93613
2.83686
2.99639
3
3
3
2.99994
2.99233
2.38701
1.00145
1.00001
1.13907
0.959834
0.698105
0.559045
0.584815
0.735184
1.08628
1.94116
2.8239
2.99585
3
3.00001
3.00001
3
3
2.99997
2.86095
1.01585
1.00003
2.34761
1.7527
1.17597
0.968042
0.998236
1.20104
2.09516
2.89964
2.99924
3
3.00001
3.00001
3.00001
3
3
3
2.98319
1.07924
1.00034
2.99681
2.93496
2.58065
2.06375
2.02734
2.57793
2.97753
2.99998
3
3.00001
3.00001
3.00001
3.00001
3.00001
3
3
2.99984
1.35641
1.00387
3
2.99999
2.99921
2.99516
2.99723
2.99966
2.99999
3
3.00001
3.00001
3.00001
3.00001
3.00001
3.00001
3.00001
3
3
1.99732
1.03422
3
3
3
3
3
3
3
3.00001
3.00001
3.00001
3.00001
3.00001
3.00001
3.00001
3.00001
3.00001
3
2.60641
1.12086
3
3
3
3
3
3
3
3.00001
3.00001
3.00001
3.00001
3.00001
3.00001
3.00001
3.00001
3.00001
3.00001
2.6906
1.14088
3
3
3
3
3
3
3
3
3.00001
3.00001
3.00001
3.00001
3.00001
3.00001
3.00001
3.00001
3.00001
2.50545
1.12209
3
3
3
3
3
3
3
3
3
3
3
3
3
3
3
3.00001
3.00001
1.87935
1.07011
3
3
3
3
3
3
3
3
3
3
3
3
3
3
3
3.00001
3.00001
1.57612
1.03242
)
;

boundaryField
{
    leftWall
    {
        type            zeroGradient;
    }
    rightWall
    {
        type            zeroGradient;
    }
    lowerWall
    {
        type            zeroGradient;
    }
    atmosphere
    {
        type            zeroGradient;
    }
    defaultFaces
    {
        type            empty;
    }
    procBoundary1to0
    {
        type            processor;
        value           nonuniform List<scalar> 
26
(
2
2
2
2
1.99999
1.99998
1.99985
1.99827
1.91224
1.27684
0.328112
0.0385647
0.0182036
0.177515
0.6857
0.990234
1.09562
1.09562
2.40176
2.99995
3
3
3
3
3
3
)
;
    }
    procBoundary1to3
    {
        type            processor;
        value           nonuniform List<scalar> 
23
(
3
3
3
3
3
3
3
3
3
3
3
3
3
3
3
3
3
3
3
3.00001
3.00001
1.79395
1.03694
)
;
    }
}


// ************************************************************************* //
