/*--------------------------------*- C++ -*----------------------------------*\
| =========                 |                                                 |
| \\      /  F ield         | OpenFOAM: The Open Source CFD Toolbox           |
|  \\    /   O peration     | Version:  2.4.0                                 |
|   \\  /    A nd           | Web:      www.OpenFOAM.org                      |
|    \\/     M anipulation  |                                                 |
\*---------------------------------------------------------------------------*/
FoamFile
{
    version     2.0;
    format      ascii;
    class       volScalarField;
    location    "0.4";
    object      alpha.mercury;
}
// * * * * * * * * * * * * * * * * * * * * * * * * * * * * * * * * * * * * * //

dimensions      [0 0 0 0 0 0 0];

internalField   nonuniform List<scalar> 
559
(
0.999973
0.99997
0.999969
0.999965
0.99996
0.999956
0.999943
0.999942
0.000342239
0.000342469
0.000342698
0.000342929
0.000461998
0.00122016
0.00537519
0.0209351
0.0583452
0.106005
0.114911
0.11491
0.115588
0.115588
0.116259
0.116015
0.116045
0.115069
0.114029
0.000342015
0.000185038
9.75184e-05
4.71569e-05
3.7352e-05
3.69113e-05
3.36512e-05
6.02769e-05
0.000343092
0.00389117
0.0377265
0.113243
0.114945
0.116258
0.115588
0.116691
0.115403
0.110126
0.0986121
0.000198739
3.51085e-05
2.1746e-05
2.75049e-05
2.88526e-05
2.56995e-05
2.28028e-05
6.67426e-05
0.000271338
0.00309342
0.0163802
0.0400814
0.0912345
0.11519
0.11693
0.115648
0.0884629
0.0315669
0.0211693
7.24641e-05
1.71008e-05
1.69246e-05
1.27984e-05
1.02621e-05
7.50363e-06
5.99718e-06
1.15044e-05
0.00020105
0.0046312
0.023857
0.0406111
0.0512748
0.0558505
0.0583387
0.0392592
0.012721
0.00230543
0.00112986
6.25541e-05
1.72163e-05
1.30839e-05
4.81887e-06
2.58095e-06
1.53606e-06
7.29813e-07
1.31444e-06
9.88882e-05
0.00504522
0.0307598
0.0490021
0.0545149
0.0469097
0.0258391
0.00568925
0.000555358
0.000357644
0.000263899
4.76601e-05
1.60286e-05
9.42199e-06
1.45693e-06
2.33687e-07
8.63339e-09
5.71167e-09
1.19838e-07
5.27064e-05
0.00710688
0.0368335
0.0550417
0.0571469
0.0462785
0.0198059
0.0019838
0.000124336
0.000115087
6.34714e-05
3.00112e-05
1.56646e-05
7.75143e-06
1.21194e-06
1.84093e-08
5.7209e-09
5.70723e-09
7.55753e-08
4.92594e-05
0.0131065
0.046877
0.0587206
0.0589778
0.0461451
0.0106545
0.000686322
8.92394e-05
9.19896e-05
3.378e-05
0.000657083
1.46099e-05
5.83238e-09
5.73134e-09
5.72844e-09
5.72405e-09
1.68561e-08
1.6739e-08
0.000774652
0.032321
0.0578287
0.061509
0.0607227
0.0257735
0.00144319
8.1388e-05
7.02259e-05
8.48501e-05
2.40782e-05
0.997852
0.924794
0.550472
0.117436
0.00927716
0.0018966
7.03242e-05
4.08816e-06
0.988639
0.802793
0.233599
0.133357
0.988586
0.964498
0.843266
0.645118
0.812182
0.890949
0.890997
0.874965
0.254925
0.365786
0.46976
0.527747
0.0228724
0.039973
0.064734
0.0897961
0.00505623
0.00963081
0.0146439
0.0182099
0.000179369
0.000362181
0.000617189
0.000789767
8.12287e-06
1.20293e-05
1.78298e-05
2.2871e-05
6.19406e-07
9.19372e-07
1.55815e-06
1.70445e-06
1.28797e-08
2.32508e-08
5.26911e-08
2.1898e-13
5.57865e-14
1.30703e-13
6.71619e-13
1.49075e-13
1.96363e-14
4.0263e-14
7.26347e-14
1.24111e-13
7.09311e-14
1.42143e-13
2.57182e-13
4.41857e-13
8.29202e-14
1.71466e-13
3.45891e-13
6.626e-13
3.2466e-14
6.34087e-14
1.19602e-13
2.1727e-13
6.61688e-15
1.18014e-14
2.06074e-14
3.5107e-14
6.25013e-16
1.05512e-15
1.75697e-15
2.84651e-15
0.0965478
0.0377268
0.00872261
0.00440002
0.00206189
0.000751563
0.000887886
0.00208571
0.0181773
0.0592868
0.0671922
0.0647603
0.0533547
0.0105043
0.000134142
3.29944e-05
6.96236e-05
6.56785e-05
2.5071e-05
0.412534
0.203428
0.0798706
0.0515876
0.0383431
0.0227043
0.0247069
0.0388174
0.07159
0.0769415
0.0721568
0.0690393
0.038143
0.00288289
2.30536e-05
2.72267e-05
6.44299e-05
6.05476e-05
2.38077e-05
0.732737
0.456405
0.288677
0.171901
0.0991076
0.0960175
0.0960512
0.10393
0.0989337
0.0838337
0.0735603
0.0582988
0.0139079
0.000340698
3.39716e-06
1.87496e-05
4.75214e-05
5.98292e-05
1.96252e-05
0.521873
0.480351
0.390902
0.288667
0.209225
0.17458
0.157515
0.135281
0.108768
0.0816475
0.0719716
0.0305386
0.00250519
1.51891e-05
8.72685e-07
9.80104e-06
2.91767e-05
4.59899e-05
1.31007e-05
0.117765
0.167441
0.217402
0.2431
0.238702
0.209988
0.171825
0.136261
0.0933678
0.0697769
0.0425127
0.00739953
0.000168107
4.29454e-07
1.29816e-07
4.22504e-06
1.56732e-05
2.23108e-05
7.09688e-06
0.023635
0.0391525
0.0769083
0.133775
0.159328
0.153996
0.135864
0.106873
0.0655242
0.0447108
0.0113852
0.000635254
4.05685e-06
3.11745e-08
1.49955e-08
8.40614e-07
6.22497e-06
1.29044e-05
3.65632e-06
0.0023859
0.0123998
0.0380439
0.0698679
0.104428
0.109819
0.0905752
0.0558782
0.0390845
0.0132408
0.00107049
1.08147e-05
9.06008e-08
9.93947e-09
9.20371e-09
3.10415e-08
1.22632e-06
9.94173e-06
3.10808e-06
0.000140468
0.00241973
0.0142354
0.0392651
0.0510706
0.0468896
0.0339991
0.0219567
0.00872827
0.00105826
2.11167e-05
1.1452e-07
1.19089e-07
1.18121e-08
9.1936e-09
9.19528e-09
3.91117e-07
4.58946e-06
2.39366e-06
1.86348e-05
0.000485509
0.0042589
0.0126244
0.0136983
0.0112614
0.00848286
0.00374433
0.00053802
1.66978e-05
1.2628e-07
1.15494e-07
1.19291e-07
1.82772e-08
9.24562e-09
9.18573e-09
5.86388e-08
1.22691e-06
1.37661e-06
2.44821e-06
7.87772e-05
0.000539599
0.00147025
0.00149345
0.00109781
0.000554915
9.73884e-05
4.65513e-06
7.80907e-08
7.90951e-08
8.25171e-08
9.43708e-08
7.47696e-08
4.64018e-08
1.24207e-08
4.20207e-09
2.47026e-07
5.60198e-07
5.19049e-08
2.01293e-06
1.59921e-05
2.79542e-05
2.61059e-05
1.62915e-05
2.41813e-06
4.75561e-08
4.18174e-08
5.04163e-08
4.54001e-08
4.307e-08
5.05082e-08
7.20806e-08
5.99499e-08
1.78867e-08
1.53694e-09
4.70421e-08
1.88453e-07
3.30628e-11
1.18308e-09
1.34063e-08
5.27726e-08
2.96877e-08
2.38227e-09
2.14749e-09
1.52286e-08
2.39626e-08
2.49212e-08
1.88489e-08
1.67133e-08
1.98141e-08
3.87618e-08
4.88338e-08
1.54263e-08
1.40138e-09
8.31297e-09
6.6722e-08
7.27003e-13
1.56557e-12
3.76411e-12
6.30876e-12
3.58443e-11
2.73496e-10
8.94853e-10
4.64254e-09
8.35124e-09
8.55326e-09
5.84615e-09
4.85804e-09
5.80384e-09
1.47192e-08
2.86325e-08
1.04404e-08
1.16381e-09
2.1595e-09
2.95606e-08
1.23403e-12
2.99435e-12
5.96504e-12
1.03317e-11
1.49168e-11
4.6456e-11
2.91691e-10
1.13646e-09
2.0099e-09
2.14844e-09
1.34325e-09
1.12143e-09
1.29607e-09
4.31747e-09
1.20794e-08
5.77825e-09
8.62749e-10
1.3896e-09
1.67445e-08
3.78519e-13
8.83676e-13
1.71766e-12
2.83083e-12
4.5898e-12
8.17401e-12
3.61129e-11
1.73117e-10
3.43322e-10
3.94178e-10
2.40601e-10
2.07658e-10
2.18952e-10
9.71317e-10
3.61162e-09
2.59782e-09
5.89407e-10
1.01484e-09
1.08035e-08
5.78799e-14
1.27005e-13
2.39347e-13
3.89544e-13
6.05981e-13
1.26862e-12
4.8057e-12
1.86846e-11
4.24921e-11
5.37886e-11
3.29353e-11
3.08854e-11
2.76847e-11
1.63785e-10
7.35667e-10
1.03396e-09
3.59283e-10
5.69779e-10
7.1904e-09
4.44496e-15
9.14963e-15
1.6375e-14
2.64415e-14
4.24498e-14
8.92481e-14
3.59224e-13
1.53617e-12
3.86084e-12
5.50967e-12
3.4286e-12
3.60002e-12
2.65319e-12
2.07023e-11
9.5422e-11
3.19888e-10
1.97347e-10
1.86176e-10
4.71262e-09
)
;

boundaryField
{
    leftWall
    {
        type            zeroGradient;
    }
    rightWall
    {
        type            zeroGradient;
    }
    lowerWall
    {
        type            zeroGradient;
    }
    atmosphere
    {
        type            inletOutlet;
        inletValue      nonuniform 0();
        value           nonuniform 0();
    }
    defaultFaces
    {
        type            empty;
    }
    procBoundary1to0
    {
        type            processor;
        value           nonuniform List<scalar> 
26
(
0.999997
0.999997
0.999997
0.999996
0.999995
0.999989
0.99992
0.999123
0.955824
0.632097
0.156008
0.0137724
0.00147313
7.88555e-05
4.06639e-06
7.84419e-07
3.63642e-07
3.63642e-07
5.91531e-09
2.18382e-14
8.5159e-15
2.19246e-14
2.90844e-14
1.12006e-14
2.33066e-15
2.48388e-16
)
;
    }
    procBoundary1to3
    {
        type            processor;
        value           nonuniform List<scalar> 
23
(
2.94444e-17
4.6816e-17
7.20558e-17
1.0496e-16
1.45196e-16
2.48319e-16
3.9059e-16
6.76369e-16
1.42892e-15
4.14387e-15
1.90611e-14
9.33449e-14
2.63099e-13
4.24879e-13
2.7292e-13
3.29011e-13
2.21203e-13
2.03401e-12
7.27906e-12
1.89139e-11
1.03566e-10
2.98952e-11
2.94381e-09
)
;
    }
}


// ************************************************************************* //
