/*--------------------------------*- C++ -*----------------------------------*\
| =========                 |                                                 |
| \\      /  F ield         | OpenFOAM: The Open Source CFD Toolbox           |
|  \\    /   O peration     | Version:  2.4.0                                 |
|   \\  /    A nd           | Web:      www.OpenFOAM.org                      |
|    \\/     M anipulation  |                                                 |
\*---------------------------------------------------------------------------*/
FoamFile
{
    version     2.0;
    format      ascii;
    class       volScalarField;
    location    "0.4";
    object      alpha.water;
}
// * * * * * * * * * * * * * * * * * * * * * * * * * * * * * * * * * * * * * //

dimensions      [0 0 0 0 0 0 0];

internalField   nonuniform List<scalar> 
559
(
9.16745e-11
6.81562e-10
1.28753e-08
7.47711e-08
3.0608e-07
1.33304e-06
1.6387e-05
1.64598e-05
1.97756e-09
3.11418e-09
6.2764e-09
3.69095e-08
1.43548e-07
3.68194e-07
6.97154e-07
1.09389e-06
1.59365e-06
2.14537e-06
2.72267e-06
3.15779e-06
3.33974e-06
3.28729e-06
2.82737e-06
2.0719e-06
1.19674e-06
3.73717e-07
2.96596e-08
1.9552e-09
4.74764e-09
4.0426e-08
1.81068e-07
3.65969e-07
4.90481e-07
5.18489e-07
5.18374e-07
5.6878e-07
9.1374e-07
1.63191e-06
2.35538e-06
3.37104e-06
3.20697e-06
2.54107e-06
1.50627e-06
5.88528e-07
1.72159e-07
1.90461e-08
1.90241e-09
1.48825e-08
1.25362e-07
3.90648e-07
6.0525e-07
7.40871e-07
8.30555e-07
9.06532e-07
9.88053e-07
1.18938e-06
1.62276e-06
2.80799e-06
6.58939e-06
7.60213e-06
6.28103e-06
3.07378e-06
5.89831e-07
4.72969e-08
3.83158e-09
2.99645e-09
4.90877e-08
2.48398e-07
4.26438e-07
6.03442e-07
6.90629e-07
7.07895e-07
6.1124e-07
6.11752e-07
8.58521e-07
2.02774e-06
5.2308e-06
1.43664e-05
1.68601e-05
1.23925e-05
4.13332e-06
3.87697e-07
9.62458e-09
2.95525e-10
6.12686e-09
8.06114e-08
2.30229e-07
2.83929e-07
2.78658e-07
2.35564e-07
1.48175e-07
9.66976e-08
1.32452e-07
3.98364e-07
3.9757e-06
1.85683e-05
4.73942e-05
5.04526e-05
2.5105e-05
4.06897e-06
1.65509e-07
7.31127e-09
1.13009e-10
5.98501e-09
7.47221e-08
1.7809e-07
6.35237e-08
1.07716e-08
1.87492e-10
9.09623e-12
3.45757e-12
3.43906e-10
6.07775e-07
5.37948e-05
0.000139302
0.000213326
0.000166375
4.7825e-05
3.77825e-06
1.13138e-07
3.92869e-09
7.46405e-11
4.79191e-09
5.33063e-08
1.09817e-07
3.36431e-08
9.21767e-10
1.12669e-11
1.07136e-11
2.36263e-12
6.68558e-11
1.3359e-05
0.000417373
0.000699412
0.000713854
0.000318846
5.87282e-05
2.56393e-06
5.02598e-08
1.82404e-09
7.74015e-11
3.48345e-09
1.44125e-08
2.4694e-11
7.7227e-12
1.13592e-11
7.6758e-12
2.81632e-10
1.3641e-13
-1.94176e-11
0.000161536
0.00145966
0.00172996
0.0013384
0.000288594
9.94667e-06
5.37385e-07
1.98519e-08
1.17611e-09
8.80639e-11
0.00197148
0.0707352
0.433477
0.867175
0.97472
0.894108
0.466244
0.0188695
0.00653862
0.00707376
0.00324531
0.00330698
0.00693595
0.00824826
0.0094427
0.0133095
0.175327
0.0941177
0.081259
0.0805187
0.726125
0.613054
0.50641
0.444417
0.959816
0.941406
0.915109
0.888286
0.93044
0.934371
0.93429
0.933606
0.535558
0.573472
0.599872
0.603853
0.0245552
0.0303313
0.0390736
0.0475224
0.000424431
0.000669884
0.00130836
0.00209736
8.96261e-06
1.56435e-05
2.87854e-05
6.21575e-05
7.86443e-10
4.2363e-09
2.17373e-08
1.00954e-12
5.03519e-13
3.8911e-13
6.96092e-13
1.03998e-12
1.35538e-13
1.72032e-13
2.8439e-13
7.19788e-13
1.07364e-13
1.66281e-13
3.04827e-13
6.17236e-13
1.32148e-14
1.216e-14
1.76834e-14
2.81864e-14
2.183e-15
1.7813e-15
2.05424e-15
2.50418e-15
4.81817e-16
4.68484e-16
5.18753e-16
5.81384e-16
0.000722977
9.84379e-05
1.96211e-05
1.53058e-05
9.51927e-06
6.2336e-06
2.21984e-05
6.72035e-05
0.000397162
0.00225793
0.00415134
0.00378714
0.00186296
0.000163251
6.00331e-07
7.07678e-08
9.37621e-09
9.34915e-10
1.069e-10
0.0114326
0.00522675
0.00138329
0.000859502
0.00064915
0.000481816
0.00121277
0.00260207
0.00585203
0.00894991
0.00890117
0.00703338
0.0021683
7.90891e-05
1.09636e-07
1.06903e-08
4.28815e-09
8.4289e-10
1.41324e-10
0.0840843
0.0668826
0.0352003
0.015277
0.00578986
0.00589062
0.00829069
0.0143105
0.0211419
0.0207612
0.0190903
0.0101505
0.00121
1.50595e-05
4.46077e-09
2.63231e-09
2.02987e-09
8.13481e-10
2.02404e-10
0.423967
0.346685
0.255032
0.163488
0.076018
0.0597025
0.0676872
0.0761008
0.0633626
0.0436129
0.0286844
0.00693702
0.000253302
1.15047e-06
1.32892e-10
7.17235e-10
1.15697e-09
7.95133e-10
3.03945e-10
0.855582
0.78941
0.682047
0.536028
0.374406
0.293287
0.243126
0.18304
0.107999
0.0640684
0.0272866
0.00240457
2.26678e-05
5.61584e-08
4.91962e-11
4.3559e-10
8.10717e-10
7.63568e-10
3.69839e-10
0.927581
0.911055
0.864833
0.775007
0.671461
0.558747
0.400186
0.249316
0.133421
0.0781284
0.0137648
0.000369366
9.86494e-07
6.18554e-09
2.48746e-11
2.63714e-10
6.0763e-10
7.13829e-10
3.78136e-10
0.641954
0.748916
0.803666
0.790934
0.736507
0.639744
0.442021
0.24057
0.154507
0.0403923
0.00207172
9.17645e-06
1.4763e-08
1.36095e-09
2.58274e-11
5.39737e-11
3.23687e-10
6.64579e-10
3.75558e-10
0.10546
0.302533
0.578105
0.683733
0.662661
0.546605
0.342877
0.194876
0.0571284
0.00459942
4.73004e-05
1.91778e-08
5.32669e-09
1.92034e-10
1.84838e-11
4.49725e-12
1.10679e-10
5.78114e-10
3.66786e-10
0.0156152
0.11317
0.321488
0.45472
0.430167
0.295926
0.179505
0.0561863
0.00490348
5.02869e-05
4.97224e-08
3.95894e-09
1.46443e-09
1.16336e-11
6.72159e-12
3.5957e-12
3.5829e-11
4.84685e-10
3.44985e-10
0.00177736
0.028065
0.0961423
0.132155
0.121961
0.0756957
0.0229253
0.00176717
1.67228e-05
2.57944e-08
7.25097e-09
8.72674e-10
2.9771e-10
5.23082e-12
4.29934e-12
2.93228e-12
7.16962e-12
3.7945e-10
3.11528e-10
1.00489e-05
0.000575956
0.00394283
0.00645337
0.00556524
0.0020927
0.000125011
6.43442e-07
6.9977e-08
3.71375e-09
1.1246e-09
1.84426e-10
4.54283e-11
2.80685e-12
2.97173e-12
2.28866e-12
3.22387e-12
2.47746e-10
2.75724e-10
1.39994e-08
1.98879e-07
1.80841e-06
6.12192e-06
3.94973e-06
3.14853e-07
2.13262e-08
5.66648e-08
8.19914e-09
5.81177e-10
1.85613e-10
3.28955e-11
6.06731e-12
1.18965e-12
2.02868e-12
1.68411e-12
2.09958e-12
1.44614e-10
2.40651e-10
2.99432e-12
2.07832e-11
1.41015e-10
3.41733e-10
1.43119e-09
4.45798e-09
7.38024e-10
2.71542e-09
8.75883e-10
8.80051e-11
2.9374e-11
4.61026e-12
7.80846e-13
4.5581e-13
1.21306e-12
1.14884e-12
1.4435e-12
9.60297e-11
2.09089e-10
1.39609e-12
4.06733e-12
1.52408e-11
5.54275e-11
1.1523e-10
1.43891e-10
8.52596e-11
1.65781e-10
8.45495e-11
1.16934e-11
4.01589e-12
5.96153e-13
1.10111e-13
1.7631e-13
6.00149e-13
7.26505e-13
1.02872e-12
8.05316e-11
1.81907e-10
5.26421e-14
1.76078e-13
5.58296e-13
1.47046e-12
4.0566e-12
6.36211e-12
5.48079e-12
7.8246e-12
6.83404e-12
1.28497e-12
4.56713e-13
6.89194e-14
3.00301e-14
8.03054e-14
2.71747e-13
4.40759e-13
7.87046e-13
6.88524e-11
1.56161e-10
3.12197e-15
5.09754e-15
9.70936e-15
2.16214e-14
6.01722e-14
2.00605e-13
3.326e-13
3.59039e-13
4.5911e-13
1.13873e-13
4.31452e-14
1.17565e-14
1.95895e-14
5.32176e-14
1.5447e-13
2.91314e-13
6.58688e-13
4.81245e-11
1.29843e-10
6.42257e-16
7.47138e-16
7.92166e-16
8.39919e-16
1.41028e-15
5.15186e-15
1.33597e-14
1.45723e-14
2.5051e-14
8.44074e-15
4.70704e-15
5.97701e-15
1.71845e-14
4.57748e-14
1.29634e-13
2.35842e-13
5.90664e-13
1.79957e-11
1.03693e-10
)
;

boundaryField
{
    leftWall
    {
        type            zeroGradient;
    }
    rightWall
    {
        type            zeroGradient;
    }
    lowerWall
    {
        type            zeroGradient;
    }
    atmosphere
    {
        type            inletOutlet;
        inletValue      nonuniform 0();
        value           nonuniform 0();
    }
    defaultFaces
    {
        type            empty;
    }
    procBoundary1to0
    {
        type            processor;
        value           nonuniform List<scalar> 
26
(
1.7642e-10
1.02532e-09
1.64266e-08
1.60493e-07
1.22598e-06
5.38807e-06
7.20272e-05
0.000853886
0.0435823
0.355252
0.827896
0.975208
0.983269
0.822564
0.314306
0.0116353
0.000263065
0.000263065
4.89286e-06
1.69914e-10
6.44177e-13
1.34332e-13
1.05506e-13
3.33121e-14
6.10735e-15
8.1294e-16
)
;
    }
    procBoundary1to3
    {
        type            processor;
        value           nonuniform List<scalar> 
23
(
1.03226e-16
1.16529e-16
1.33411e-16
1.48761e-16
1.61343e-16
1.78916e-16
1.75836e-16
1.57094e-16
1.42299e-16
1.87124e-16
4.69758e-16
5.70589e-16
1.19764e-15
8.50543e-16
1.59618e-15
4.72882e-15
1.54892e-14
4.26491e-14
1.2701e-13
2.30352e-13
5.57906e-13
9.16741e-12
8.08929e-11
)
;
    }
}


// ************************************************************************* //
