/*--------------------------------*- C++ -*----------------------------------*\
| =========                 |                                                 |
| \\      /  F ield         | OpenFOAM: The Open Source CFD Toolbox           |
|  \\    /   O peration     | Version:  2.4.0                                 |
|   \\  /    A nd           | Web:      www.OpenFOAM.org                      |
|    \\/     M anipulation  |                                                 |
\*---------------------------------------------------------------------------*/
FoamFile
{
    version     2.0;
    format      ascii;
    class       volScalarField;
    location    "0.4";
    object      p;
}
// * * * * * * * * * * * * * * * * * * * * * * * * * * * * * * * * * * * * * //

dimensions      [1 -1 -2 0 0 0 0];

internalField   nonuniform List<scalar> 
559
(
8916.2
8102.72
7309.4
6457.79
5587.89
4731.67
3871.89
2965.19
919.079
843.503
699.247
574.972
497.28
460.266
462.765
497.762
590.159
798.715
1146.7
1606.94
1802.87
1814.58
1649.34
1485.16
1482.68
1671.54
2066.3
891.595
808.783
655.038
532.492
456.809
416.339
414.523
435.959
476.499
580.28
820.747
1164.56
1410.4
1448.21
1321.68
1207.07
1192.76
1303.36
1610.65
846.669
765.257
602.353
480.496
416.417
393.648
396.646
421.574
460.563
573.567
776.473
937.623
1081.94
1081.1
991.071
929.866
954.814
1079.06
1279.57
811.278
726.006
543.626
420.514
379.905
339.44
335.711
340.619
373.326
496.471
675.499
821.214
872.097
815.887
673.231
628.727
779.211
955.02
1109.04
784.121
693.197
490.651
381.381
332.571
326.545
325.574
325.98
335.171
398.56
576.16
685.39
720.953
655.05
529.364
544.911
722.679
869.788
983.397
765.469
668.787
464.835
330.786
326.02
326.128
326.005
326.073
323.534
343.32
457.542
564.818
566.935
481.547
396.759
452.758
650.909
773.572
857.684
761.979
652.873
466.973
328.734
326.845
326.423
326.032
326.188
325.073
329.067
368.713
445.624
418.022
246.442
188.601
328.443
553.799
675.194
739.688
776.281
651.773
473.738
334.405
325.909
325.867
325.834
325.453
324.633
323.903
323.194
344.939
261.688
127.048
148.885
238.259
464.477
589.363
651.867
1358.16
995.206
479.707
280.584
214.098
197.457
160.584
120.364
201.222
722.695
756.415
762.678
882.831
727.704
618.597
620.503
424.328
355.043
307.067
308.315
177.309
101.693
28.377
-29.1229
146.54
102.945
72.5312
51.5358
170.13
144.462
116.153
88.5522
154.347
144.418
130.186
113.917
113.723
107.113
99.7044
88.4411
29.8574
27.3811
25.7886
22.4571
3.92063
4.2024
4.5641
4.75499
3.99148
3.90778
3.80023
3.70106
4.16705
4.14695
4.1123
4.07215
3.8306
3.81002
3.78566
3.75711
3.83489
3.81746
3.79334
3.76328
3.66926
3.662
3.65477
3.64732
3.56526
3.5583
3.55154
3.54458
3.45556
3.45195
3.44888
3.44615
785.951
651.014
484.116
359.675
325.985
326.577
326.515
326.439
325.042
308.551
253.124
217.067
81.2942
51.7703
110.284
177.424
356.732
470.22
533.461
683.855
606.837
485.64
392.769
345.251
327.86
324.197
321.363
305.313
236.799
155.498
69.6399
35.1144
28.0983
59.9547
143.526
266.128
351.069
401.197
340.52
388.603
392.311
335.729
306.098
305.292
300.476
268.474
218.141
154.239
81.5291
17.0615
15.4343
15.6572
29.9791
117.349
203.77
264.645
296.478
-55.8253
49.4983
146.331
187.983
203.559
199.797
182.445
158.1
131.236
81.9542
15.9783
7.85362
8.8974
9.13785
11.3038
71.2835
156.315
193.734
218.222
22.6785
24.1676
56.3185
78.6313
86.6509
87.4718
82.1207
77.5133
65.1981
22.3631
5.82752
6.00543
6.6927
6.70386
5.86863
21.6611
120.208
139.732
158.679
44.7318
30.8941
43.3388
49.943
38.9438
31.6331
29.4548
34.0921
18.6824
5.09728
4.71366
5.01815
5.3767
5.64203
4.3937
9.99021
102.866
97.0003
109.592
79.6472
48.1159
42.4527
42.316
28.3549
15.3398
12.8123
10.5909
4.51427
4.43013
4.46703
4.56752
4.55273
4.89638
4.15142
4.70542
17.2832
54.6008
67.8909
62.8546
40.6487
27.6739
37.7962
36.4445
19.62
12.6815
5.85471
4.34751
4.42786
4.4037
4.42047
4.24643
4.57911
4.38892
4.38645
4.82925
16.5533
39.0377
16.0268
19.2008
16.7136
25.911
36.061
22.4528
9.61786
4.68424
4.43536
4.43045
4.39797
4.43824
4.37054
4.86888
4.72284
4.71749
5.02329
5.99263
23.3369
5.1002
8.45994
8.78033
14.7733
23.5708
14.3973
4.95014
4.29473
4.34233
4.35555
4.41293
4.50306
4.6157
5.17927
4.86247
4.91148
4.95729
5.28185
18.2646
3.54478
3.29474
3.5083
3.98137
4.2536
4.6191
4.09537
4.19165
4.23736
4.31556
4.40426
4.52525
4.70338
5.12004
4.83499
4.97236
4.87237
5.05196
16.5326
3.99458
3.83465
3.57201
3.54425
3.6517
3.6615
3.89509
4.06415
4.16991
4.26269
4.36005
4.48106
4.64108
4.89414
4.77642
4.86215
4.84222
4.81132
10.5384
3.70145
3.66342
3.63188
3.70008
3.88545
3.97993
3.9977
4.05506
4.10782
4.18982
4.28814
4.40036
4.53303
4.69179
4.71878
4.72355
4.79317
4.84965
7.21692
3.70895
3.63608
3.58519
3.58676
3.60737
3.66249
3.78753
3.9148
4.01339
4.09976
4.19375
4.29502
4.40577
4.53425
4.58959
4.61516
4.65634
4.80372
6.80969
3.62996
3.6125
3.61705
3.65597
3.72305
3.78598
3.81262
3.85383
3.92072
3.99793
4.08356
4.17192
4.26256
4.37661
4.41831
4.48222
4.43777
4.68615
7.72967
3.53177
3.51646
3.51253
3.52702
3.55484
3.58837
3.67164
3.74868
3.81715
3.8874
3.96329
4.03642
4.10918
4.20768
4.21672
4.32237
4.1825
4.64518
9.82136
3.44216
3.44369
3.4557
3.47944
3.51392
3.55933
3.59561
3.64766
3.70717
3.77006
3.83594
3.89396
3.95258
4.02937
4.00439
4.12934
3.95976
4.27054
10.4816
)
;

boundaryField
{
    leftWall
    {
        type            fixedFluxPressure;
        gradient        nonuniform 0();
        value           nonuniform 0();
    }
    rightWall
    {
        type            fixedFluxPressure;
        gradient        uniform 0;
        value           nonuniform List<scalar> 
25
(
2066.3
1610.65
1279.57
1109.04
983.397
857.684
739.688
651.867
533.461
401.197
296.478
218.222
158.679
109.592
67.8909
39.0377
23.3369
18.2646
16.5326
10.5384
7.21692
6.80969
7.72967
9.82136
10.4816
)
;
    }
    lowerWall
    {
        type            fixedFluxPressure;
        gradient        nonuniform List<scalar> 
40
(
132710
0
0
0
0
0
0
0
0
114146
9050.87
127.269
181.416
0
0
0
0
0
0
0
0
4906.19
4906.1
4906.3
4906.6
4907.22
4910.92
4930.77
5007.07
5202.44
5486.74
5553.72
5547.34
5553.35
5551.73
5553.96
5550.1
5549.2
5520.89
5451.03
)
;
        value           nonuniform List<scalar> 
40
(
9314.32
8916.2
8102.72
7309.4
6457.79
5587.89
4731.67
3871.89
2965.19
929.585
780.448
757.228
763.835
919.079
891.595
846.669
811.278
784.121
765.469
761.979
776.281
933.798
858.221
713.965
589.691
512.001
474.999
477.557
512.783
605.766
815.175
1163.36
1623.58
1819.53
1831.23
1666
1501.81
1499.32
1688.1
2082.65
)
;
    }
    atmosphere
    {
        type            totalPressure;
        U               U.air;
        phi             phi.air;
        rho             rho;
        psi             none;
        gamma           1;
        p0              nonuniform 0();
        value           nonuniform 0();
    }
    defaultFaces
    {
        type            empty;
    }
    procBoundary1to0
    {
        type            processor;
        value           nonuniform List<scalar> 
26
(
8739.4
7925.22
7100.29
6257.31
5400.98
4574.95
3731.79
2907.54
1691.04
795.304
505.053
374.553
281.861
213.434
158.99
120.811
33.4336
33.4336
3.66129
4.09941
4.14653
3.85987
3.85274
3.67795
3.57609
3.46135
)
;
    }
    procBoundary1to3
    {
        type            processor;
        value           nonuniform List<scalar> 
23
(
3.34123
3.33935
3.33802
3.33723
3.33694
3.34227
3.35543
3.37659
3.40503
3.43807
3.48947
3.5394
3.59228
3.64783
3.70446
3.75031
3.79886
3.85217
3.78796
3.89413
3.79712
3.50859
8.10661
)
;
    }
}


// ************************************************************************* //
