/*--------------------------------*- C++ -*----------------------------------*\
| =========                 |                                                 |
| \\      /  F ield         | OpenFOAM: The Open Source CFD Toolbox           |
|  \\    /   O peration     | Version:  2.4.0                                 |
|   \\  /    A nd           | Web:      www.OpenFOAM.org                      |
|    \\/     M anipulation  |                                                 |
\*---------------------------------------------------------------------------*/
FoamFile
{
    version     2.0;
    format      ascii;
    class       surfaceScalarField;
    location    "0.4";
    object      phi.mercury;
}
// * * * * * * * * * * * * * * * * * * * * * * * * * * * * * * * * * * * * * //

dimensions      [0 3 -1 0 0 0 0];

internalField   nonuniform List<scalar> 
1061
(
7.0595e-06
1.60782e-05
2.73591e-05
3.48165e-05
4.33847e-05
5.19262e-05
6.50316e-05
7.96094e-05
-6.02658e-05
-4.63484e-05
-7.8502e-05
-5.30785e-05
-8.36269e-05
-6.03617e-05
-8.10524e-05
-5.80044e-05
-6.76036e-05
-6.93486e-05
-5.2551e-05
-8.77071e-05
-4.01097e-05
-9.44463e-05
-2.77021e-05
-0.000107616
-1.32089e-05
-0.00014103
6.26586e-06
-0.000169579
2.57325e-05
-0.000167663
4.65052e-05
-0.000164977
6.72596e-05
-0.000165622
8.69744e-05
-0.000160783
9.84575e-05
-0.000130219
0.000101255
-0.000105363
9.87646e-05
-9.45573e-05
8.22606e-05
-8.78657e-05
-8.07265e-05
-5.17994e-05
-2.15986e-05
-7.07053e-05
1.61276e-06
-8.02102e-05
2.13277e-06
-8.43262e-05
-6.8028e-06
-8.21109e-05
-2.04789e-05
-7.18611e-05
-3.16064e-05
-5.28861e-05
-4.58091e-05
-7.95232e-06
-7.74688e-05
3.83976e-05
-0.000147527
4.90184e-05
-0.000202075
5.50434e-05
-0.000229363
6.89849e-05
-0.000230457
8.5933e-05
-0.00021628
0.000101218
-0.000205503
0.000109057
-0.000161807
0.000110655
-0.000118768
0.000105657
-0.000102182
8.73313e-05
-9.48138e-05
-6.96587e-05
-3.29977e-05
1.73812e-05
-5.29351e-05
4.99597e-05
-6.80892e-05
4.63608e-05
-6.92813e-05
5.99971e-06
-6.36559e-05
-1.57239e-05
-5.20129e-05
-3.33537e-05
-3.19442e-05
-4.59453e-05
7.87166e-06
-6.7287e-05
4.92139e-05
-0.000150362
6.06231e-05
-0.000193365
6.81046e-05
-0.000238902
8.08508e-05
-0.000260504
9.37761e-05
-0.000251772
0.00010502
-0.000235578
0.000111424
-0.000195229
0.000109529
-0.000162604
0.000105059
-0.000143138
8.98052e-05
-0.000129789
-7.95751e-05
-2.37504e-05
5.24984e-05
-4.34437e-05
7.74085e-05
-5.56602e-05
6.85385e-05
-4.73237e-05
1.49681e-05
-3.2951e-05
-1.96776e-05
-2.80671e-05
-6.1574e-05
-1.94462e-05
-7.68031e-05
2.23356e-05
-8.22433e-05
6.15911e-05
-0.00015607
6.86262e-05
-0.000194898
7.55022e-05
-0.000239289
8.73176e-05
-0.000262886
9.89583e-05
-0.000261644
0.000106523
-0.000257358
0.000104705
-0.000233611
9.93013e-05
-0.000215889
9.58209e-05
-0.000173657
8.55737e-05
-0.000100123
-3.57714e-05
-1.79983e-05
7.51641e-05
-3.04578e-05
8.90481e-05
-2.93173e-05
8.06612e-05
-1.29551e-05
4.66698e-06
-6.78235e-06
-4.96056e-05
3.41988e-06
-5.88761e-05
1.51149e-05
-0.000100291
3.8391e-05
-0.000118058
7.12255e-05
-0.000172238
7.46504e-05
-0.000193501
7.94659e-05
-0.000241489
8.92473e-05
-0.00026115
9.82919e-05
-0.000263206
0.000103015
-0.000259656
0.00010276
-0.000249819
9.26009e-05
-0.000232173
7.70492e-05
-0.000119773
5.18477e-05
1.08642e-05
5.35392e-05
-9.90315e-06
9.13137e-05
-1.31361e-05
9.54757e-05
-1.28723e-06
7.6845e-05
1.06005e-05
-3.81728e-07
1.06969e-05
-4.39116e-05
3.41046e-05
-5.62866e-05
1.11591e-05
-5.22809e-05
4.51956e-05
-6.91215e-05
8.28291e-05
-0.000144708
8.00691e-05
-0.000186372
8.45886e-05
-0.000239188
9.15523e-05
-0.000260367
9.85738e-05
-0.000263528
9.97172e-05
-0.000262236
9.88977e-05
-0.000254353
8.0664e-05
-0.000224137
5.03647e-05
-9.54705e-06
2.19673e-05
0.000101176
0.00012517
1.6277e-06
2.95289e-05
2.69086e-06
7.43519e-05
6.35953e-06
4.77982e-05
1.32757e-05
4.06293e-06
3.13439e-05
-2.36245e-05
1.67879e-05
-3.23351e-05
1.88046e-05
-3.23487e-05
4.3147e-05
-5.81455e-05
7.91787e-05
-0.000102749
8.12501e-05
-0.000181969
8.68975e-05
-0.000237131
9.304e-05
-0.000259764
9.90567e-05
-0.00026251
9.92197e-05
-0.00026871
9.43742e-05
-0.000258159
7.05599e-05
-0.000134984
3.53913e-05
8.49855e-05
1.28836e-05
0.000133772
0.00014463
1.76841e-05
-2.62161e-05
1.31797e-05
1.45148e-05
3.32929e-05
1.94023e-06
3.57832e-05
-1.08355e-05
4.03501e-05
-1.75901e-05
5.54749e-05
-3.33186e-05
7.56491e-05
-4.80445e-05
4.48827e-05
-3.57446e-05
7.68833e-05
-9.2176e-05
8.2527e-05
-0.000180355
8.9928e-05
-0.000234475
9.68655e-05
-0.000259393
0.000101987
-0.000269104
9.31288e-05
-0.000264066
7.45337e-05
-0.000234834
4.34886e-05
1.70187e-05
2.20971e-05
0.000137149
8.92667e-06
0.000148917
0.000149687
6.41477e-05
6.15503e-05
4.65876e-05
5.5505e-05
2.79383e-05
5.97029e-05
2.26415e-05
8.75214e-05
7.86133e-06
0.000113807
-2.24869e-06
0.000128244
-7.04847e-06
0.000118982
6.45007e-05
4.20393e-05
2.474e-05
2.98071e-05
1.75142e-05
3.03284e-05
4.45814e-06
-1.05794e-05
4.0353e-05
5.92846e-05
2.01874e-05
6.16372e-05
1.38361e-05
6.30796e-05
8.52416e-06
-8.34038e-07
6.02225e-05
6.36956e-05
1.20516e-05
6.69661e-05
8.91908e-06
6.92548e-05
5.71455e-06
1.03027e-07
6.96504e-05
8.78278e-05
1.01342e-05
8.83632e-05
8.26248e-06
9.03042e-05
4.51213e-06
1.7441e-06
9.176e-05
0.000115911
4.16262e-06
0.000119087
4.64068e-06
0.000121841
2.37749e-06
7.09933e-07
0.000127167
0.000130556
-4.66493e-06
0.000134886
-4.39029e-06
0.000139524
-6.8945e-06
-9.42992e-06
0.000146524
0.000129174
-1.04696e-05
0.000136991
-1.14804e-05
0.000143708
-1.40632e-05
-1.98474e-05
0.000152803
7.41804e-05
-1.54033e-05
8.62006e-05
-1.79134e-05
0.000100499
-2.02954e-05
-2.59245e-05
0.000116172
4.55562e-05
-3.00287e-05
5.12097e-05
-3.1008e-05
5.82209e-05
-2.98803e-05
-2.88174e-05
4.97415e-05
4.18144e-05
-7.20346e-05
4.43183e-05
-7.57868e-05
4.70886e-05
-7.52877e-05
-7.78705e-05
2.65808e-05
0.000137557
-1.77622e-05
0.000133361
-2.52349e-05
0.000128019
-3.07535e-05
-3.23205e-05
9.24755e-05
0.000101115
-2.98642e-05
0.000110288
-3.35277e-05
0.000116306
-3.53012e-05
-3.79752e-05
0.000124146
-3.76631e-06
-2.3633e-05
-9.67852e-06
-2.76086e-05
-1.55046e-05
-2.94632e-05
-3.25744e-05
-2.09002e-05
-1.10677e-05
-2.03939e-05
-1.6584e-05
-2.20825e-05
-2.31885e-05
-2.2851e-05
-2.49935e-05
-3.07614e-05
-3.00618e-05
-1.87641e-05
-3.28216e-05
-1.93183e-05
-3.58259e-05
-1.98347e-05
-2.04551e-05
-4.03626e-05
-3.50605e-05
-1.67142e-05
-3.71472e-05
-1.72213e-05
-3.96787e-05
-1.73025e-05
-1.73646e-05
-4.27608e-05
-3.39727e-05
-3.53433e-05
-3.7288e-05
-3.96974e-05
6.18708e-05
-3.11167e-05
7.78933e-05
-2.09767e-05
8.1472e-05
-2.70187e-05
8.95699e-05
-3.88715e-05
0.000104777
-5.07447e-05
0.000115807
-7.32627e-05
0.000132218
-0.000102306
0.000151353
-0.000108683
0.000162524
-0.000131304
0.000177465
-0.000184174
0.000194362
-0.00022939
0.000202937
-0.000245933
0.00020513
-0.000241829
0.000168342
-0.000245574
8.8435e-05
-0.000116477
2.55181e-05
0.000131765
2.22676e-05
0.000162981
8.54805e-06
0.000164433
0.000153002
6.64906e-05
-2.96501e-05
9.05244e-05
-3.7424e-05
0.000108659
-4.508e-05
0.000118228
-5.32485e-05
0.000118824
-5.91936e-05
0.000126312
-7.50574e-05
0.00014135
-0.000102689
0.000153608
-0.000117997
0.000166156
-0.000144565
0.000184141
-0.000189565
0.000199863
-0.000224235
0.000208675
-0.0002309
0.000208635
-0.000233033
0.000153177
-0.000232932
2.43806e-05
4.59239e-06
-3.89515e-06
0.000143846
6.71634e-06
0.000163099
1.03453e-06
0.000164163
0.000151418
7.39563e-05
-2.51097e-05
9.06499e-05
-4.49236e-05
0.000108062
-5.84364e-05
0.000119197
-6.55413e-05
0.000124926
-6.91569e-05
0.000134555
-8.27716e-05
0.000146407
-0.000103971
0.000157924
-0.000121116
0.000173646
-0.000151761
0.000190672
-0.000190518
0.000204988
-0.000213702
0.000207908
-0.000213673
0.000202987
-0.000212474
0.000109757
-0.00017977
-1.87544e-05
6.56116e-05
-1.64291e-05
0.000130502
-4.10001e-06
0.000160406
-3.933e-07
0.00015935
0.000146461
9.15998e-05
-1.55524e-05
9.59311e-05
-4.08369e-05
0.000102997
-5.85269e-05
0.000111763
-6.7911e-05
0.000122356
-7.36875e-05
0.000135324
-9.0696e-05
0.000148161
-0.000108031
0.000162926
-0.000124407
0.000181622
-0.00015522
0.000197035
-0.000188805
0.000205885
-0.000200586
0.000204768
-0.000193916
0.000191542
-0.000198116
9.71161e-05
7.52567e-05
-2.29521e-05
6.3562e-05
-2.60284e-05
9.88045e-05
-1.13444e-05
0.000149827
5.02812e-07
0.000152878
0.000143517
0.000138707
-7.53521e-06
0.00013667
-2.50956e-05
0.000129517
-4.3878e-05
0.000127133
-5.69875e-05
0.000132532
-6.99431e-05
0.000143142
-8.90383e-05
0.00015658
-0.000103306
0.000172385
-0.000123359
0.000188565
-0.000155814
0.000202017
-0.000179386
0.000206449
-0.000179461
0.000198335
-0.000174839
0.000119182
-0.000145127
2.63507e-05
0.000336973
-2.16329e-05
7.60879e-05
-2.67713e-05
7.13481e-05
-1.49947e-05
0.000128766
-2.27256e-06
0.000148986
0.000142571
0.000164536
-2.02033e-05
0.000171705
-2.21307e-05
0.000165995
-3.11564e-05
0.000156845
-4.0649e-05
0.000154761
-5.76998e-05
0.000159599
-7.8924e-05
0.000169185
-9.52606e-05
0.000182539
-0.000122706
0.000195618
-0.000151833
0.000205328
-0.000162365
0.000205141
-0.000157841
0.000198076
-0.000155903
8.49568e-05
4.16649e-05
2.3937e-05
0.000609014
-1.90405e-05
0.000119394
-1.697e-05
4.45294e-05
-1.15488e-05
8.30329e-05
-3.11925e-06
0.000141189
0.000146076
0.000175036
-3.43089e-05
0.000180613
-2.92083e-05
0.000178323
-3.06739e-05
0.000172403
-3.51266e-05
0.000169357
-5.0366e-05
0.000171814
-7.28592e-05
0.000179035
-9.33325e-05
0.000188788
-0.000122419
0.000199852
-0.000144086
0.000197628
-0.000144986
0.000196709
-0.000146547
9.68577e-05
-3.95234e-05
8.40267e-06
0.000218644
4.69733e-05
0.000624342
-8.18302e-06
0.000271155
3.72932e-06
4.36616e-05
-4.55924e-06
4.64395e-05
-3.46331e-06
0.000133962
0.00014231
0.000171768
-6.827e-05
0.000180298
-4.07104e-05
0.000174655
-3.90504e-05
0.000171036
-4.2671e-05
0.000171201
-5.36319e-05
0.000173883
-7.04511e-05
0.000180994
-9.34335e-05
0.000190593
-0.00012117
0.00018652
-0.000133363
0.000176563
-0.000136548
7.80452e-05
-7.03146e-05
-4.44316e-05
9.43642e-05
-7.2139e-06
0.000201219
7.40894e-05
0.000554571
2.66115e-05
0.000352403
8.94513e-06
0.000103352
-1.94012e-06
6.38925e-05
-3.65775e-06
0.00011552
0.00013604
0.000110981
-0.000110815
0.000164164
-6.10813e-05
0.000162672
-4.91615e-05
0.000160681
-5.33839e-05
0.000162797
-6.36027e-05
0.000168292
-8.23221e-05
0.000178338
-0.000105041
0.000177281
-0.000124194
0.000169441
-0.000131414
8.00309e-05
-6.63725e-05
-6.52504e-05
5.15653e-05
-7.69687e-05
9.5504e-05
-3.70477e-05
0.000168998
6.76978e-05
0.000375568
6.94413e-05
0.000293502
1.94091e-05
0.000180317
-1.63222e-06
8.24468e-05
-2.84326e-06
0.000102073
0.000128554
6.81227e-05
-9.90998e-05
0.000114667
-0.000111
0.000140001
-7.89585e-05
0.000146986
-7.72865e-05
0.000149559
-8.50928e-05
0.000157415
-0.000103905
0.000161173
-0.000116086
0.00014548
-8.29693e-05
4.91416e-05
-5.87268e-05
-8.05958e-05
4.621e-05
-9.34623e-05
6.83114e-05
-8.9293e-05
8.77585e-05
-5.26812e-05
0.000131903
5.12011e-05
0.000311668
7.5767e-05
0.000320418
4.36528e-05
0.000239377
6.83639e-06
0.000114574
1.18636e-06
0.000106035
0.000132681
6.59994e-05
-6.0523e-05
9.43642e-05
-7.68928e-05
0.000119708
-6.19195e-05
0.000133186
-5.85336e-05
0.000136727
-7.29399e-05
0.000107644
-9.07357e-05
2.26154e-05
-6.40503e-05
-7.87823e-05
2.13902e-05
-9.24098e-05
3.85495e-05
-9.46669e-05
5.29701e-05
-9.28312e-05
6.53373e-05
-8.69703e-05
8.04573e-05
-5.70458e-05
0.000104365
3.31101e-05
0.000204811
6.59801e-05
0.000287728
5.49192e-05
0.000260903
1.50848e-05
0.000164884
6.03743e-06
0.000115108
0.000141885
0.000135551
-9.12696e-05
0.000105845
-8.2789e-05
8.7563e-05
-5.92192e-05
4.46737e-05
-3.04558e-05
-3.91218e-05
-3.69986e-08
-0.000124442
2.26139e-07
-9.95989e-05
-4.72342e-06
-9.28989e-05
1.7781e-05
-9.2614e-05
3.75206e-05
-8.88269e-05
4.94104e-05
-8.41869e-05
6.1671e-05
-7.72108e-05
7.68152e-05
-5.46824e-05
9.12211e-05
-2.50748e-06
0.000145291
3.69244e-05
0.000238884
5.00321e-05
0.000252987
2.22507e-05
0.000187531
1.22275e-05
0.000130449
0.000151261
-3.40981e-05
-7.8035e-05
-5.16117e-05
-6.59403e-05
-7.52083e-05
-4.43763e-05
-7.99592e-05
-1.81245e-05
-5.94944e-05
1.47558e-06
-5.5265e-05
-1.26119e-06
-7.39725e-05
1.36882e-05
-8.17682e-05
2.69293e-05
-8.08238e-05
3.76357e-05
-7.68364e-05
4.78566e-05
-7.27173e-05
6.07614e-05
-6.66615e-05
7.46847e-05
-5.15426e-05
8.43308e-05
-2.52212e-05
0.000122765
1.43977e-05
0.000187244
4.40569e-05
0.000232474
2.28917e-05
0.000210133
1.63031e-05
0.00014322
0.000161235
-4.95309e-05
-5.92653e-05
-6.6323e-05
-4.91478e-05
-7.5863e-05
-3.4843e-05
-8.06177e-05
-1.33729e-05
-8.07291e-05
1.61544e-06
-8.5699e-05
3.98056e-06
-8.097e-05
9.42132e-06
-7.44898e-05
2.12763e-05
-7.01054e-05
3.43349e-05
-6.63362e-05
4.54231e-05
-6.137e-05
5.68931e-05
-5.50308e-05
6.91906e-05
-4.43852e-05
7.57342e-05
-2.96186e-05
0.000112563
5.74251e-06
0.000150408
3.87568e-05
0.000205166
1.67314e-05
0.00023936
1.5105e-05
0.000148363
0.00016755
-5.27243e-05
-4.68953e-05
-6.32643e-05
-3.86153e-05
-7.11443e-05
-2.69664e-05
-6.90117e-05
-1.55219e-05
-6.24139e-05
-5.00047e-06
-5.97239e-05
1.2561e-06
-6.34994e-05
1.31363e-05
-6.40115e-05
2.17929e-05
-6.07192e-05
3.11286e-05
-5.66835e-05
4.15179e-05
-5.07269e-05
5.10091e-05
-4.35859e-05
6.20822e-05
-3.40693e-05
6.6394e-05
-2.16757e-05
0.000100868
1.18354e-05
0.000118581
3.47406e-05
0.000184932
1.44436e-05
0.000270205
1.26436e-05
0.000144831
0.00017257
-5.10904e-05
-3.85695e-05
-5.6799e-05
-3.29012e-05
-5.96572e-05
-2.41142e-05
-6.05165e-05
-1.46634e-05
-6.09923e-05
-4.52747e-06
-6.19472e-05
2.20701e-06
-5.83977e-05
9.59167e-06
-5.58406e-05
1.9236e-05
-5.22723e-05
2.75629e-05
-4.79735e-05
3.72123e-05
-4.1758e-05
4.47952e-05
-3.39354e-05
5.42478e-05
-2.45102e-05
5.6981e-05
-1.11352e-05
8.74703e-05
2.05996e-05
8.69719e-05
2.48602e-05
0.000181255
1.46293e-05
0.000293047
1.08627e-05
0.000139086
0.000179461
-4.55037e-05
-5.04212e-05
-5.31947e-05
-5.34541e-05
-5.2138e-05
-5.09465e-05
-5.04241e-05
-4.84479e-05
-4.49527e-05
-4.04408e-05
-3.43799e-05
-2.67034e-05
-1.76835e-05
-2.81958e-06
2.58684e-05
2.1149e-05
1.68389e-05
1.06168e-05
)
;

boundaryField
{
    leftWall
    {
        type            fixedValue;
        value           nonuniform 0();
    }
    rightWall
    {
        type            fixedValue;
        value           uniform 0;
    }
    lowerWall
    {
        type            fixedValue;
        value           uniform 0;
    }
    atmosphere
    {
        type            calculated;
        value           nonuniform 0();
    }
    defaultFaces
    {
        type            empty;
        value           nonuniform 0();
    }
    procBoundary1to0
    {
        type            processor;
        value           nonuniform List<scalar> 
26
(
-7.05962e-06
-9.01872e-06
-1.12809e-05
-7.45748e-06
-8.56827e-06
-8.54152e-06
-1.31055e-05
-1.45675e-05
-4.63374e-05
-4.36731e-05
-5.6354e-05
-9.08638e-05
-0.000113617
-0.000113917
-7.54439e-05
-4.15771e-05
-1.89704e-05
-4.06321e-05
-3.86991e-05
-0.000145498
-8.84072e-05
-2.45621e-06
7.83868e-06
2.84396e-05
3.3016e-05
3.33624e-05
)
;
    }
    procBoundary1to3
    {
        type            processor;
        value           nonuniform List<scalar> 
23
(
-1.60924e-05
-1.58535e-05
-1.53509e-05
-1.49575e-05
-3.27544e-05
-2.79898e-05
-2.13372e-05
-1.44083e-05
-5.84555e-06
1.01559e-06
9.06382e-06
1.72638e-05
2.40615e-05
3.27037e-05
3.87292e-05
4.65722e-05
4.79567e-05
7.25998e-05
5.82435e-05
0.000185979
0.000308369
0.000136504
0.000187701
)
;
    }
}


// ************************************************************************* //
