/*--------------------------------*- C++ -*----------------------------------*\
| =========                 |                                                 |
| \\      /  F ield         | OpenFOAM: The Open Source CFD Toolbox           |
|  \\    /   O peration     | Version:  2.4.0                                 |
|   \\  /    A nd           | Web:      www.OpenFOAM.org                      |
|    \\/     M anipulation  |                                                 |
\*---------------------------------------------------------------------------*/
FoamFile
{
    version     2.0;
    format      ascii;
    class       surfaceScalarField;
    location    "0.4";
    object      phi.water;
}
// * * * * * * * * * * * * * * * * * * * * * * * * * * * * * * * * * * * * * //

dimensions      [0 3 -1 0 0 0 0];

internalField   nonuniform List<scalar> 
1061
(
7.05979e-06
1.60828e-05
2.73872e-05
3.49299e-05
4.36293e-05
5.3112e-05
6.7678e-05
6.10524e-05
-2.96102e-05
2.56166e-05
-5.55903e-05
2.37491e-05
-8.08917e-05
2.38021e-05
-9.60239e-05
1.42362e-05
-9.86455e-05
2.29883e-06
-9.09131e-05
-8.9266e-06
-7.17762e-05
-2.85487e-05
-4.97694e-05
-4.87117e-05
-2.98539e-05
-6.99175e-05
-8.18111e-06
-8.61181e-05
1.25358e-05
-9.63269e-05
3.90883e-05
-0.000108925
6.64631e-05
-0.000109938
9.19971e-05
-0.00010558
0.000104568
-7.95708e-05
0.000103807
-5.7045e-05
9.62736e-05
-4.65654e-05
7.3424e-05
-3.57304e-05
-1.8455e-05
-2.48653e-05
5.01756e-05
-4.95487e-05
5.06648e-05
-7.31314e-05
4.96471e-05
-8.27768e-05
2.55922e-05
-8.3995e-05
5.72703e-06
-7.91816e-05
-7.33334e-06
-7.25847e-05
-2.00342e-05
-6.45342e-05
-2.62393e-05
-3.72843e-05
-3.90668e-05
2.67184e-06
-7.76858e-05
3.60538e-05
-0.000132004
6.10906e-05
-0.000154352
8.36243e-05
-0.000151033
0.000103977
-0.000144179
0.000112319
-0.00010261
0.000112351
-6.45949e-05
0.000103931
-4.48396e-05
7.93382e-05
-1.66875e-05
3.10717e-05
-2.12988e-05
7.26748e-05
-4.25738e-05
7.27109e-05
-6.29107e-05
7.02146e-05
-6.84264e-05
3.12818e-05
-6.57775e-05
3.22178e-06
-5.61385e-05
-1.78822e-05
-4.94914e-05
-3.0358e-05
-4.45969e-05
-3.27627e-05
-2.48488e-05
-4.79578e-05
9.67505e-06
-9.56427e-05
4.16437e-05
-0.000148066
6.94281e-05
-0.000175634
9.22043e-05
-0.000178177
0.000106785
-0.000163613
0.00011451
-0.00012065
0.000110238
-7.72262e-05
9.65954e-05
-3.96061e-05
6.39586e-05
2.19758e-05
8.87771e-05
-1.76244e-05
9.08631e-05
-3.44576e-05
8.94735e-05
-5.0769e-05
8.66134e-05
-4.6259e-05
2.69632e-05
-3.23393e-05
-1.43702e-05
-2.8836e-05
-5.3103e-05
-2.06658e-05
-8.18953e-05
-1.36058e-05
-9.08834e-05
4.97028e-06
-7.7075e-05
3.18097e-05
-0.000115525
5.64519e-05
-0.000169352
8.03738e-05
-0.000193842
0.000100687
-0.000192741
0.000114166
-0.000175898
0.000111145
-0.000123765
9.70301e-05
-6.21632e-05
6.83156e-05
1.65588e-05
2.68445e-05
0.000115324
0.000172028
-1.23847e-05
0.00010331
-2.18612e-05
9.89044e-05
-2.56356e-05
9.05364e-05
-1.20025e-05
1.05699e-05
-6.50615e-06
-5.97906e-05
6.19897e-06
-8.93407e-05
1.91701e-05
-0.000146577
2.60902e-05
-0.000158774
3.50124e-05
-0.000161442
4.86012e-05
-0.000155529
6.60748e-05
-0.000182097
8.56933e-05
-0.000185905
0.000103616
-0.00018433
0.000113236
-0.000174144
0.000107392
-0.000111742
7.90882e-05
1.01323e-05
3.67586e-05
0.000115446
7.04419e-06
0.000170147
0.000193438
-2.74726e-06
0.000106114
-5.20456e-06
0.000101337
5.00456e-06
7.92048e-05
1.1314e-05
-8.95453e-07
1.55569e-05
-4.32154e-05
3.48029e-05
-5.61207e-05
2.36017e-05
-5.19829e-05
2.32202e-05
-4.46912e-05
7.03597e-05
-0.000129625
5.49991e-05
-0.000170193
7.58902e-05
-0.000151905
9.29732e-05
-0.000172706
0.000107122
-0.000188812
9.92075e-05
-0.000189673
9.36714e-05
-0.000106526
6.25879e-05
6.92762e-05
2.22347e-05
0.000164401
2.02418e-06
0.000195223
0.000193977
9.8773e-06
9.32822e-05
1.11285e-05
0.000100047
1.47767e-05
6.18493e-05
1.99656e-05
-1.21627e-06
3.19962e-05
-2.36449e-05
1.67964e-05
-2.8592e-05
2.41312e-05
-3.52173e-05
3.47964e-05
-2.85904e-05
5.81347e-05
-9.94749e-05
5.89228e-05
-0.000143052
8.85995e-05
-0.000195606
0.000101413
-0.000205413
0.000102907
-0.000227285
8.32851e-05
-0.000262261
7.01637e-05
-8.73115e-05
4.34381e-05
0.000119932
1.44683e-05
0.000193999
1.32926e-06
0.000209196
0.000189896
2.16639e-05
3.98476e-06
3.07481e-05
3.77807e-05
3.70677e-05
3.26057e-05
3.58917e-05
-5.28315e-06
3.85493e-05
-1.8193e-05
5.36995e-05
-2.76962e-05
7.9231e-05
-3.47804e-05
8.40076e-05
-2.77185e-05
4.73171e-05
-4.20326e-05
7.51627e-05
-0.000155459
9.29911e-05
-0.00021013
0.000106388
-0.00022185
0.000101888
-0.000268785
5.83417e-05
-0.000264589
4.2393e-05
-2.31954e-05
1.89303e-05
0.000146095
4.99852e-06
0.000207944
3.49691e-08
0.000214924
0.000187953
6.82247e-05
8.91401e-05
6.1486e-05
6.40874e-05
5.74871e-05
6.13538e-05
6.06339e-05
0.000112488
4.19015e-05
0.000167967
1.94128e-05
0.000157795
-1.09686e-05
0.000114876
6.98407e-05
2.68206e-05
2.2073e-05
1.35473e-05
1.78196e-05
1.19673e-05
2.43357e-06
-8.75011e-06
2.1572e-05
7.19511e-05
2.66003e-05
7.21449e-05
1.94697e-05
6.25081e-05
1.50713e-05
6.27321e-06
5.62026e-05
7.06075e-05
2.10473e-05
7.27114e-05
1.55401e-05
7.00597e-05
1.25179e-05
7.86627e-06
6.81329e-05
0.000109109
2.27333e-05
0.000105701
1.73046e-05
0.000103936
1.1046e-05
6.58723e-06
9.77748e-05
0.000172608
1.72929e-05
0.000173648
1.58023e-05
0.000172563
1.18513e-05
9.0264e-06
0.000169308
0.000168398
6.73809e-06
0.000178051
6.44798e-06
0.000186915
3.12523e-06
8.95671e-07
0.000195282
0.000128844
-1.06505e-05
0.000143278
-9.92059e-06
0.000156096
-1.10514e-05
-1.56625e-05
0.000172138
7.90936e-05
-2.60575e-05
9.05341e-05
-2.95739e-05
0.000104298
-3.04994e-05
-3.66222e-05
0.000122656
4.22174e-05
-3.14679e-05
5.01693e-05
-3.76734e-05
6.14898e-05
-4.00876e-05
-4.56259e-05
6.94954e-05
4.09611e-05
-4.88e-05
4.41079e-05
-4.72488e-05
5.0208e-05
-4.22746e-05
-3.27178e-05
4.89304e-05
0.000137483
-1.76786e-05
0.000132835
-2.4848e-05
0.000128197
-2.92954e-05
-3.22519e-05
4.03647e-05
0.000101115
-2.98643e-05
0.000110288
-3.35278e-05
0.000116306
-3.53013e-05
-3.79754e-05
0.000124197
-3.7663e-06
-2.3633e-05
-9.6785e-06
-2.76086e-05
-1.55046e-05
-2.94632e-05
-3.25744e-05
-2.09002e-05
-1.10676e-05
-2.03939e-05
-1.6584e-05
-2.20825e-05
-2.31884e-05
-2.28509e-05
-2.49935e-05
-3.07613e-05
-3.00618e-05
-1.87641e-05
-3.28216e-05
-1.93183e-05
-3.58259e-05
-1.98346e-05
-2.0455e-05
-4.03625e-05
-3.50605e-05
-1.67142e-05
-3.71472e-05
-1.72213e-05
-3.96787e-05
-1.73025e-05
-1.73646e-05
-4.27608e-05
-3.39727e-05
-3.53433e-05
-3.7288e-05
-3.96974e-05
4.92963e-05
-3.91069e-06
9.98569e-05
1.07514e-05
0.000135391
5.58452e-06
0.000127906
-1.65089e-05
0.000142936
-1.99379e-05
0.00013192
-2.94241e-05
0.000149407
-6.15205e-05
0.000154985
-7.98475e-05
0.000175611
-0.000110553
0.000199337
-0.000174019
0.000206137
-0.000215495
0.000214509
-0.00024122
0.000198676
-0.000270029
0.000103358
-0.000237074
1.61104e-05
5.88424e-05
-7.35447e-06
0.000161261
-1.00025e-05
0.000210803
-8.54534e-06
0.00021444
0.000183193
7.47634e-05
-8.32686e-06
9.59851e-05
-7.60283e-06
0.00013748
-1.55335e-05
0.000151095
-2.55382e-05
0.000156322
-3.19524e-05
0.000145798
-4.32222e-05
0.000155793
-7.79378e-05
0.000171805
-9.74836e-05
0.000192717
-0.000122883
0.000205144
-0.000175764
0.000210573
-0.000218741
0.000207695
-0.000244851
0.000175868
-0.000278161
0.000109746
-0.000147462
-2.98721e-05
7.52052e-05
-3.29936e-05
0.000159138
-1.96121e-05
0.000198096
-1.27296e-05
0.000207472
0.0001746
7.66363e-05
-5.14344e-06
9.67085e-05
-1.8964e-05
0.000120006
-2.93445e-05
0.000131805
-3.91926e-05
0.000143293
-4.13787e-05
0.000152849
-5.42316e-05
0.000162203
-7.51613e-05
0.000177129
-9.47006e-05
0.000194008
-0.000131263
0.000204778
-0.000180649
0.000207271
-0.000220033
0.000205193
-0.000255338
0.000137883
-0.000257283
6.20641e-05
2.94876e-05
-4.08959e-05
7.75661e-05
-3.71226e-05
0.000143407
-2.38849e-05
0.000185388
-1.10531e-05
0.000194977
0.000164184
8.59026e-05
-7.89724e-06
9.25333e-05
-2.61035e-05
0.000106152
-3.67684e-05
0.000118864
-4.47029e-05
0.000129762
-5.01087e-05
0.000145907
-6.48055e-05
0.000157621
-8.22688e-05
0.000175521
-0.000107076
0.000193805
-0.000147619
0.000199704
-0.000192724
0.000209212
-0.000231594
0.000197224
-0.000244201
0.000115702
-0.000203691
4.47666e-06
0.000227854
-3.46401e-05
7.96024e-05
-4.31584e-05
0.000105699
-2.40829e-05
0.000166265
-5.80438e-06
0.000177396
0.000158329
0.000158045
2.36311e-07
0.000141708
-1.64879e-05
0.000132717
-3.26939e-05
0.00013067
-4.42722e-05
0.00013862
-5.42925e-05
0.000149149
-7.20329e-05
0.000161493
-9.29304e-05
0.000183666
-0.000125298
0.000193619
-0.000164775
0.000213757
-0.000203775
0.000212901
-0.000225082
0.000178679
-0.000211993
8.39928e-05
-3.27257e-05
-2.59913e-06
0.000468701
-3.26589e-05
8.22328e-05
-4.20062e-05
7.98274e-05
-2.19908e-05
0.000139805
-5.34038e-06
0.000160967
0.000152989
0.000202963
-6.03104e-06
0.000198828
-1.187e-05
0.000186911
-2.07102e-05
0.000172148
-3.13757e-05
0.000166116
-5.0382e-05
0.000167649
-7.56227e-05
0.000179242
-0.000102752
0.000189416
-0.000137048
0.000209393
-0.000173753
0.000229797
-0.000198667
0.000212498
-0.000188351
0.000156625
-0.000181902
2.95589e-05
0.00012768
9.17801e-06
0.000649209
-2.39428e-05
0.000112812
-2.90841e-05
5.49635e-05
-1.36642e-05
9.16078e-05
-3.69193e-06
0.000151003
0.000149298
0.000199227
-3.15351e-05
0.000207053
-1.79839e-05
0.000204949
-1.77656e-05
0.000197316
-2.3129e-05
0.000189237
-4.15538e-05
0.000186816
-7.2429e-05
0.000192648
-0.000104393
0.000206368
-0.000142145
0.000225867
-0.000171937
0.000213698
-0.000164998
0.000174615
-0.000169588
9.66532e-05
-4.71699e-05
6.35655e-06
0.000253042
4.09234e-05
0.000627984
-7.64775e-06
0.000247895
2.82706e-06
3.95857e-05
-4.85571e-06
4.73404e-05
-3.72108e-06
0.000148307
0.000145577
0.000162978
-8.31674e-05
0.00018599
-4.28601e-05
0.000192828
-2.57293e-05
0.000194206
-2.51697e-05
0.000192365
-3.96394e-05
0.000191896
-6.88806e-05
0.000201753
-0.000108001
0.000216685
-0.000143603
0.000213739
-0.00014674
0.000205226
-0.000139009
0.000116225
-8.16273e-05
-4.59358e-05
9.84562e-05
3.30058e-07
0.000205537
7.48199e-05
0.000554084
2.1375e-05
0.000347279
1.07829e-05
9.2772e-05
-6.69049e-07
7.2687e-05
-4.44418e-06
0.000130228
0.000141129
0.000101453
-0.000123982
0.000136823
-8.0912e-05
0.000160239
-4.91851e-05
0.000173099
-3.90714e-05
0.000181103
-4.90985e-05
0.00019278
-7.67281e-05
0.000206297
-0.000118768
0.000206746
-0.000125058
0.000192926
-0.000104442
0.000103953
-6.83521e-05
-8.06839e-05
6.42898e-05
-7.88309e-05
9.40595e-05
-3.55605e-05
0.000161755
7.20847e-05
0.000446648
6.87549e-05
0.000352036
1.3926e-05
0.000177342
6.34166e-07
9.09641e-05
-3.37744e-06
0.000116434
0.000137662
7.22168e-05
-0.000132372
9.38719e-05
-0.000116361
0.000119303
-9.0827e-05
0.000140495
-8.08963e-05
0.000153546
-8.64987e-05
0.000159546
-0.000117954
0.000135667
-0.00014189
9.54864e-05
-7.69547e-05
1.85886e-05
-3.18017e-05
-9.17426e-05
5.57307e-05
-9.86037e-05
7.25125e-05
-9.66069e-05
9.19535e-05
-6.75163e-05
0.000132546
5.84022e-05
0.000320763
8.36623e-05
0.000326782
2.76318e-05
0.000237975
9.22145e-06
0.000113284
1.54556e-06
0.000109768
0.00013878
8.06913e-05
-7.50703e-05
0.000103155
-6.80575e-05
0.000120995
-7.2376e-05
0.000133072
-8.30661e-05
0.000137072
-6.72896e-05
0.000109326
-7.584e-05
3.55476e-05
-7.77571e-05
-5.79222e-05
9.95743e-06
-9.33314e-05
4.09705e-05
-9.75549e-05
5.71154e-05
-9.58989e-05
7.0897e-05
-9.16352e-05
8.7693e-05
-7.0573e-05
0.000111479
3.64909e-05
0.000213703
7.19628e-05
0.000291315
4.68298e-05
0.000263
1.5208e-05
0.000164656
7.19914e-06
0.000116235
0.000143713
0.000119767
-9.19648e-05
9.26266e-05
-6.76552e-05
9.00935e-05
-4.25866e-05
4.03639e-05
-3.66124e-05
-3.32334e-05
-5.13302e-06
-0.000100378
4.5367e-06
-0.000110081
-5.05593e-06
-9.48844e-05
1.84233e-05
-9.3939e-05
4.05023e-05
-9.02133e-05
5.33583e-05
-8.52825e-05
6.59726e-05
-7.89866e-05
8.14034e-05
-6.39372e-05
9.64365e-05
-4.24541e-06
0.000154015
4.37783e-05
0.000243294
5.08018e-05
0.000255974
2.08484e-05
0.000187449
1.30802e-05
0.00013075
0.000151732
-3.4098e-05
-7.80355e-05
-5.16139e-05
-6.59436e-05
-7.52049e-05
-4.43914e-05
-7.99301e-05
-1.81613e-05
-5.95181e-05
1.39408e-06
-5.51975e-05
-1.34102e-06
-7.39673e-05
1.39186e-05
-8.2625e-05
2.76746e-05
-8.10968e-05
3.89716e-05
-7.71853e-05
4.9449e-05
-7.30355e-05
6.18275e-05
-6.71388e-05
7.55124e-05
-5.59203e-05
8.52226e-05
-2.93307e-05
0.00012743
2.09492e-05
0.000193015
4.29744e-05
0.000233949
2.19118e-05
0.000210362
1.67714e-05
0.000143241
0.000161321
-4.95303e-05
-5.92654e-05
-6.63224e-05
-4.91484e-05
-7.58629e-05
-3.48447e-05
-8.06177e-05
-1.33761e-05
-8.0729e-05
1.61321e-06
-8.57157e-05
3.96329e-06
-8.1165e-05
9.37974e-06
-7.47371e-05
2.12651e-05
-7.01945e-05
3.44304e-05
-6.6321e-05
4.55758e-05
-6.14196e-05
5.69323e-05
-5.51084e-05
6.92042e-05
-4.55653e-05
7.56846e-05
-3.13068e-05
0.000113173
8.98944e-06
0.000152722
3.71767e-05
0.000205761
1.6258e-05
0.000239696
1.52947e-05
0.000148338
0.000167565
-5.27242e-05
-4.68951e-05
-6.32641e-05
-3.86149e-05
-7.11444e-05
-2.69657e-05
-6.9012e-05
-1.55206e-05
-6.24145e-05
-4.99884e-06
-5.97228e-05
1.25853e-06
-6.34948e-05
1.31406e-05
-6.40285e-05
2.17979e-05
-6.07305e-05
3.11274e-05
-5.66656e-05
4.15169e-05
-5.07324e-05
5.09993e-05
-4.35918e-05
6.20701e-05
-3.4277e-05
6.63708e-05
-2.18914e-05
0.000100792
1.27692e-05
0.000118062
3.33328e-05
0.000185199
1.43719e-05
0.000270509
1.27392e-05
0.000144779
0.000172573
-5.10904e-05
-3.85695e-05
-5.6799e-05
-3.29012e-05
-5.96572e-05
-2.41142e-05
-6.05165e-05
-1.46635e-05
-6.09923e-05
-4.52758e-06
-6.19474e-05
2.20686e-06
-5.83987e-05
9.59154e-06
-5.58433e-05
1.9236e-05
-5.22736e-05
2.75623e-05
-4.79703e-05
3.72109e-05
-4.17585e-05
4.47934e-05
-3.39347e-05
5.42454e-05
-2.45371e-05
5.6977e-05
-1.11879e-05
8.74415e-05
2.01978e-05
8.66782e-05
2.39841e-05
0.000181416
1.49051e-05
0.00029319
1.09268e-05
0.000139078
0.000179467
-4.55037e-05
-5.04212e-05
-5.31947e-05
-5.34541e-05
-5.2138e-05
-5.09465e-05
-5.04241e-05
-4.84482e-05
-4.49527e-05
-4.04405e-05
-3.438e-05
-2.67031e-05
-1.76854e-05
-2.83757e-06
2.56339e-05
2.09769e-05
1.70239e-05
1.06684e-05
)
;

boundaryField
{
    leftWall
    {
        type            fixedValue;
        value           nonuniform 0();
    }
    rightWall
    {
        type            fixedValue;
        value           uniform 0;
    }
    lowerWall
    {
        type            fixedValue;
        value           uniform 0;
    }
    atmosphere
    {
        type            calculated;
        value           nonuniform 0();
    }
    defaultFaces
    {
        type            empty;
        value           nonuniform 0();
    }
    procBoundary1to0
    {
        type            processor;
        value           nonuniform List<scalar> 
26
(
-7.05964e-06
-9.01875e-06
-1.12808e-05
-7.45985e-06
-8.5661e-06
-8.56368e-06
-1.29288e-05
-1.13827e-05
-5.13633e-05
-3.63363e-05
-5.78063e-05
-0.000119799
-0.000150754
-0.000135944
-9.46154e-05
-5.06726e-05
-3.46909e-05
-3.70227e-05
-3.81056e-05
-0.000145482
-8.84072e-05
-2.45622e-06
7.83868e-06
2.84396e-05
3.3016e-05
3.33624e-05
)
;
    }
    procBoundary1to3
    {
        type            processor;
        value           nonuniform List<scalar> 
23
(
-1.60924e-05
-1.58535e-05
-1.53509e-05
-1.49575e-05
-3.27544e-05
-2.79898e-05
-2.13372e-05
-1.44083e-05
-5.84554e-06
1.01559e-06
9.06382e-06
1.72638e-05
2.40615e-05
3.27035e-05
3.8729e-05
4.65719e-05
4.79563e-05
7.2595e-05
5.82054e-05
0.000186078
0.000308415
0.000136505
0.00018771
)
;
    }
}


// ************************************************************************* //
