/*--------------------------------*- C++ -*----------------------------------*\
| =========                 |                                                 |
| \\      /  F ield         | OpenFOAM: The Open Source CFD Toolbox           |
|  \\    /   O peration     | Version:  2.4.0                                 |
|   \\  /    A nd           | Web:      www.OpenFOAM.org                      |
|    \\/     M anipulation  |                                                 |
\*---------------------------------------------------------------------------*/
FoamFile
{
    version     2.0;
    format      ascii;
    class       surfaceScalarField;
    location    "0.4";
    object      phi.air;
}
// * * * * * * * * * * * * * * * * * * * * * * * * * * * * * * * * * * * * * //

dimensions      [0 3 -1 0 0 0 0];

internalField   nonuniform List<scalar> 
1061
(
7.05955e-06
1.60783e-05
2.73592e-05
3.48167e-05
4.33849e-05
5.19264e-05
6.50319e-05
7.96054e-05
-2.82485e-05
2.68264e-05
-5.17839e-05
2.69802e-05
-7.8796e-05
2.75597e-05
-9.54576e-05
1.454e-05
-9.77764e-05
6.82056e-07
-8.8973e-05
-1.11804e-05
-6.93418e-05
-3.06396e-05
-4.76031e-05
-5.39362e-05
-2.8205e-05
-7.67439e-05
-6.33152e-06
-9.29763e-05
1.38454e-05
-9.97645e-05
3.97251e-05
-0.000116896
6.65458e-05
-0.000111489
9.13189e-05
-0.000112736
0.00010352
-8.13552e-05
0.000103443
-6.58826e-05
9.40281e-05
-4.97774e-05
5.67848e-05
2.1591e-05
0.000118309
-2.39249e-05
5.30591e-05
-4.71966e-05
5.34698e-05
-7.20206e-05
5.16093e-05
-8.25679e-05
2.64726e-05
-8.3908e-05
6.34788e-06
-7.91645e-05
-3.55604e-06
-7.25908e-05
-7.9569e-06
-6.30761e-05
-1.86955e-05
-3.35461e-05
-3.78548e-05
3.35806e-06
-8.44381e-05
3.78247e-05
-0.000134375
6.17883e-05
-0.00016466
8.38093e-05
-0.000154782
0.000103901
-0.00014853
0.000112142
-0.000103627
0.000112063
-7.16633e-05
0.00010038
-5.00347e-05
6.50996e-05
5.83426e-06
0.000121201
-2.04094e-05
7.99624e-05
-4.19549e-05
7.32221e-05
-6.25136e-05
7.09695e-05
-6.8278e-05
3.28268e-05
-6.52608e-05
4.23218e-05
-5.62846e-05
6.24052e-05
-5.23162e-05
6.73489e-05
-4.69389e-05
7.31089e-05
-2.47061e-05
5.57972e-05
1.41364e-05
-8.1751e-05
4.34624e-05
-0.00016054
7.06362e-05
-0.000182336
9.23313e-05
-0.000186472
0.000106797
-0.000163854
0.000114229
-0.000122969
0.000110125
-7.76455e-05
9.63105e-05
-4.76093e-05
5.57898e-05
1.14895e-05
0.000145547
-1.47395e-05
0.00010016
-3.40148e-05
8.967e-05
-5.01955e-05
8.78475e-05
-3.73349e-05
4.83906e-05
-2.12625e-05
7.44887e-05
-2.76461e-05
5.3903e-05
-2.18632e-05
2.86694e-05
-2.1832e-05
4.45561e-05
-3.03121e-05
3.65682e-05
3.24803e-05
1.75436e-06
5.92496e-05
-7.4873e-05
8.10132e-05
-0.000171605
0.000100701
-0.000196102
0.000114193
-0.000188183
0.000110867
-0.000128121
9.64302e-05
-7.3301e-05
6.92337e-05
6.69297e-06
2.51479e-05
0.0001163
0.000212949
-8.46756e-06
0.000111491
-2.11121e-05
9.9193e-05
-1.43963e-05
9.42847e-05
4.47121e-06
9.80032e-05
1.8075e-06
3.29009e-05
1.1165e-05
-1.85426e-05
1.47471e-05
-2.80633e-05
1.31196e-05
-2.26338e-05
-2.88828e-06
-5.7276e-07
3.44414e-06
-1.3389e-06
4.56974e-05
-2.98743e-05
8.45862e-05
-0.000126928
0.000102487
-0.000192338
0.000113205
-5.03478e-05
0.000107657
-8.87462e-05
7.71213e-05
-4.61283e-06
3.45255e-05
0.00011714
1.9755e-06
0.000236958
0.000293296
1.03767e-06
0.000107393
4.53795e-07
0.000101659
4.73981e-05
7.90247e-05
2.50551e-05
1.10788e-05
2.11164e-05
-1.89362e-05
3.30391e-05
-4.59652e-05
1.07772e-05
-1.78329e-05
-1.66929e-05
-1.05232e-05
5.47333e-06
-9.44371e-05
1.03619e-05
-9.8223e-05
5.39315e-05
-6.52286e-05
9.07968e-05
-0.000111721
0.000117213
-8.21699e-05
0.000119597
5.30004e-05
9.03718e-05
0.000194376
5.82745e-05
0.000223875
6.52328e-06
0.000173661
-1.25597e-05
0.000303009
0.000338255
1.21547e-05
9.18365e-05
1.32631e-05
0.000100068
9.10886e-05
6.13575e-05
4.59051e-05
-2.04282e-05
3.72946e-05
-2.19544e-05
7.52695e-06
-1.63947e-05
1.23404e-05
-2.27454e-05
1.90859e-05
-1.73847e-05
1.56184e-05
-9.9058e-05
2.37642e-05
-0.000149375
6.41752e-05
-0.000133246
0.000101494
-0.000124377
0.000138289
-6.69084e-05
0.000106371
6.13926e-05
4.60853e-05
9.46863e-05
3.54822e-06
0.000234097
-5.85787e-06
0.00020469
-1.25316e-05
0.000310961
0.000305669
2.25129e-05
3.15766e-05
3.23079e-05
5.11057e-05
9.07735e-05
4.43623e-05
5.94638e-05
-4.33933e-05
5.28673e-05
-2.61436e-05
5.65427e-05
-2.06946e-05
8.09016e-05
-4.7056e-05
0.000105695
-4.12042e-05
0.000101592
-9.19501e-05
8.34618e-05
-0.000118405
8.27286e-05
-0.000122464
0.000116706
-0.000129409
0.000173855
-8.06487e-05
5.72025e-05
4.81641e-05
-1.34294e-05
0.000101516
-2.37564e-05
0.00019249
-1.22298e-05
0.000216339
-1.58024e-05
0.000311573
0.000297619
6.41718e-05
9.73149e-05
4.91301e-05
5.64459e-05
3.85393e-05
5.99188e-05
4.37458e-05
9.71993e-05
3.60258e-05
0.000152397
1.93089e-05
0.000154132
2.48673e-05
0.000113774
7.52831e-05
-2.81487e-05
1.77268e-05
1.15164e-05
1.73905e-05
9.86273e-06
2.40304e-05
4.63807e-06
-8.72618e-06
8.3122e-05
2.13462e-05
7.93872e-05
2.7134e-05
6.26266e-05
1.98714e-05
1.64277e-05
4.90842e-05
7.07349e-05
1.40522e-05
7.59789e-05
1.48352e-05
6.90856e-05
1.7371e-05
1.21336e-05
6.64601e-05
9.41678e-05
1.61407e-05
9.23933e-05
1.17661e-05
9.39323e-05
6.16166e-06
2.04498e-06
0.000102121
0.000152494
1.38249e-05
0.000150596
1.20954e-05
0.000148644
8.16661e-06
5.55719e-06
0.000147862
0.00016178
5.87258e-06
0.000168287
4.98395e-06
0.000174516
1.33095e-06
-1.50428e-06
0.000181486
0.000128167
6.47111e-06
0.000142759
5.75153e-06
0.000155925
2.43682e-06
-4.96352e-06
0.000172034
9.00227e-05
1.09167e-05
0.000104249
8.43935e-06
0.000124241
6.41919e-06
-1.05847e-06
0.000146482
5.00269e-05
5.32079e-06
5.50438e-05
-6.66639e-07
6.51122e-05
-3.92501e-06
-1.06605e-05
7.15785e-05
3.94075e-05
-1.6266e-05
4.01225e-05
-1.98217e-05
4.63133e-05
-2.60151e-05
-2.57352e-05
4.66433e-05
0.000138692
-1.71761e-05
0.000134812
-2.43653e-05
0.000129833
-2.92911e-05
-3.01459e-05
0.000125887
0.000101102
-2.98678e-05
0.000110266
-3.35306e-05
0.000116276
-3.5303e-05
-3.79764e-05
0.000124102
-3.77494e-06
-2.36351e-05
-9.69502e-06
-2.76106e-05
-1.5533e-05
-2.94651e-05
-3.25754e-05
-2.0934e-05
-1.10756e-05
-2.03965e-05
-1.66009e-05
-2.20853e-05
-2.32131e-05
-2.28529e-05
-2.49954e-05
-3.07931e-05
-3.007e-05
-1.87663e-05
-3.28349e-05
-1.93204e-05
-3.58503e-05
-1.98376e-05
-2.04567e-05
-4.0389e-05
-3.50681e-05
-1.67164e-05
-3.7164e-05
-1.72246e-05
-3.96969e-05
-1.73047e-05
-1.73669e-05
-4.27866e-05
-3.39853e-05
-3.5355e-05
-3.7307e-05
-3.97162e-05
0.000171105
2.38492e-06
0.000108164
2.01297e-05
0.000217002
-2.95921e-06
0.000188461
-3.19325e-05
0.000154312
-7.29533e-05
0.000172496
-5.93837e-05
0.000188322
-6.84816e-05
0.000220276
-5.98201e-05
0.000227507
-4.14933e-05
0.000241108
-8.82617e-05
0.000226899
-0.00014337
0.000304184
-0.000138415
0.000265854
-0.00018064
-2.06669e-05
0.000222323
-4.60903e-05
0.000116032
-9.77374e-05
0.00018611
-6.08873e-05
0.00023377
-4.46126e-05
0.000296298
0.000277417
8.75387e-05
2.83879e-05
0.000157636
1.47619e-05
0.000182918
-2.00452e-06
0.000214464
1.04955e-07
0.000199146
7.14955e-06
0.00017871
-7.92744e-07
0.000173176
-7.93455e-06
0.000187152
6.26094e-06
0.000240265
-3.10079e-05
0.000249617
-0.000111836
0.000259196
-0.000176199
0.000259091
-0.000176052
0.000171989
-0.000136433
-8.11471e-05
0.000406914
-9.1384e-05
0.000108712
-9.76834e-05
0.000178989
-6.88506e-05
0.000242514
-4.25781e-05
0.000275542
0.00025302
6.94928e-05
1.03784e-05
9.08285e-05
1.94705e-05
0.000131981
2.0146e-05
0.000147857
8.1016e-06
0.00014081
1.69769e-05
0.000152727
1.22709e-05
0.000176352
-8.85688e-06
0.000189473
-4.68861e-05
0.000197113
-0.000112003
0.000226213
-0.000175969
0.000276477
-0.000150694
0.00021565
-0.000214731
8.29758e-05
-2.52178e-05
-6.86042e-05
0.00052561
-0.000130286
0.000119891
-9.30759e-05
0.000171379
-6.64469e-05
0.000229725
-3.33936e-05
0.000257576
0.000210579
7.2007e-05
-5.98427e-05
7.6858e-05
-3.45097e-05
9.26715e-05
-3.39913e-05
0.000106762
-1.89196e-05
0.000124177
-7.41948e-06
0.000140306
-4.96457e-05
0.000152002
-8.56807e-05
0.000166057
-0.000113032
0.000189645
-0.000147573
0.000250398
-0.000135556
0.000210114
-0.000194451
0.000179201
-0.000199999
2.98578e-05
0.000111249
-5.94584e-05
0.000594347
-0.000176409
0.000144484
-8.79514e-05
0.000152173
-5.37714e-05
0.000195502
-2.36753e-05
0.000225532
0.000159545
0.000148022
-3.47529e-06
0.000129322
-2.03635e-05
0.000119479
-3.64439e-05
0.000123805
-3.85725e-05
0.000132174
-4.76808e-05
0.000143965
-7.47617e-05
0.000157126
-9.65295e-05
0.000175418
-0.000118102
0.000221253
-0.000120301
0.000224213
-0.000156926
0.00019515
-0.000212008
0.000116818
-0.000124242
1.12365e-05
0.000216429
-4.11812e-05
0.000640506
-0.000113404
0.000169867
-0.000123246
9.61784e-05
-3.18132e-05
0.000145353
-1.3807e-05
0.000180476
0.000153526
0.0001904
-1.04677e-05
0.00018799
-1.53334e-05
0.000175971
-2.50017e-05
0.000163203
-3.59811e-05
0.000159016
-5.43414e-05
0.000162811
-7.71406e-05
0.000172243
-9.72753e-05
0.0001975
-9.61828e-05
0.000219027
-0.000131054
0.000186173
-0.000188293
0.000161952
-0.000180074
6.58122e-05
-2.78373e-05
1.58706e-05
0.000266949
-1.0713e-05
0.000666235
-8.03927e-05
0.000217297
-0.000163691
9.35074e-05
-1.35798e-05
0.000168902
-4.27251e-06
0.0001542
0.000149972
0.000195378
-1.68805e-05
0.000199249
-1.80876e-05
0.000194533
-2.19074e-05
0.000185994
-2.8158e-05
0.000179557
-4.58039e-05
0.000179495
-7.35721e-05
0.000182231
-9.79598e-05
0.000210145
-0.00013278
0.000179113
-0.000163154
0.000168839
-0.000171136
8.98731e-05
-9.63408e-05
-5.50394e-06
6.84218e-05
7.9078e-06
0.000253559
4.6095e-05
0.000628054
-3.94972e-05
0.000298274
-7.99571e-05
8.22807e-05
-3.40114e-05
9.5116e-05
-4.61301e-06
0.000168282
0.000145967
0.000169911
-1.68876e-05
0.000186002
-1.51242e-05
0.00018645
-7.7236e-06
0.000185487
-2.65462e-05
0.000184378
-4.55566e-05
0.000185928
-7.4903e-05
0.000215804
-0.000113462
0.000186004
-0.000136305
0.000172142
-0.000151284
9.58074e-05
-8.95033e-05
-1.60943e-05
1.75838e-05
-4.70942e-05
9.94805e-05
1.24738e-06
0.000205218
7.52065e-05
0.000554095
2.44822e-05
0.000348814
-1.3927e-05
0.000113205
-6.64995e-05
8.03029e-05
-1.72076e-05
0.00014369
0.000141541
8.47188e-05
-5.59491e-05
0.00012898
-5.914e-05
0.000130137
-4.15862e-05
0.00016219
-2.38347e-05
0.000197944
-3.22932e-05
0.000215849
-7.29322e-05
0.000204063
-0.000102097
0.000174637
-0.000123782
7.72931e-05
-5.51282e-05
-3.47953e-05
2.40434e-05
-8.43018e-05
6.71189e-05
-7.88679e-05
9.40465e-05
-3.53344e-05
0.000161684
7.20917e-05
0.000446669
6.88446e-05
0.000352058
3.87018e-06
0.000177563
-3.94893e-05
0.000100898
-2.66973e-05
0.0001165
0.000138832
4.02414e-05
-7.78528e-05
7.82428e-05
-9.81118e-05
9.66306e-05
-6.07537e-05
0.000124263
-3.65777e-05
0.000169492
-2.60871e-05
0.000180815
-5.30203e-05
0.000134257
-7.16913e-05
3.46629e-05
-3.02516e-05
-6.03893e-05
3.67643e-05
-9.32369e-05
5.68022e-05
-9.86882e-05
7.25702e-05
-9.66096e-05
9.1968e-05
-6.74816e-05
0.000132556
5.84093e-05
0.000320778
8.36662e-05
0.000326801
2.31928e-05
0.000237988
-2.10377e-05
0.000129485
-2.09285e-05
0.000108377
0.000136838
0.00010815
-7.95242e-05
8.82514e-05
-9.9779e-05
0.000108536
-9.9453e-05
0.000124863
-6.90125e-05
0.000120023
-3.82884e-05
7.87563e-05
-3.56336e-05
-2.4209e-05
1.27058e-05
-9.11735e-05
3.46589e-05
-9.72267e-05
4.28e-05
-9.75557e-05
5.71313e-05
-9.58923e-05
7.0907e-05
-9.16301e-05
8.77057e-05
-7.05679e-05
0.000111494
3.64886e-05
0.000213721
7.19592e-05
0.00029133
4.69348e-05
0.000263013
7.833e-06
0.000165263
-1.76093e-05
0.000114156
0.000156351
0.000135775
-9.12375e-05
0.000118403
-8.34482e-05
7.88971e-05
-6.79592e-05
1.36968e-05
-2.27911e-05
-7.64877e-05
2.20292e-05
-0.000128651
3.33928e-06
-0.000111896
-4.72696e-06
-9.62531e-05
1.90157e-05
-9.396e-05
4.05069e-05
-9.0198e-05
5.33693e-05
-8.52746e-05
6.59837e-05
-7.89829e-05
8.1414e-05
-6.39375e-05
9.64485e-05
-4.24833e-06
0.000154032
4.37756e-05
0.000243306
5.0803e-05
0.000255985
3.14544e-05
0.000187479
-6.80471e-06
0.000139082
0.0001581
-3.41353e-05
-7.80362e-05
-5.1645e-05
-6.59384e-05
-7.52386e-05
-4.43735e-05
-7.9997e-05
-1.81206e-05
-5.95638e-05
1.5137e-06
-5.5225e-05
-1.00769e-06
-7.39031e-05
1.39511e-05
-8.26042e-05
2.77168e-05
-8.1083e-05
3.89857e-05
-7.71743e-05
4.94605e-05
-7.30284e-05
6.18379e-05
-6.71357e-05
7.55214e-05
-5.59198e-05
8.52326e-05
-2.93299e-05
0.000127442
2.09497e-05
0.000193027
4.29744e-05
0.00023396
1.98195e-05
0.00021039
-9.31628e-07
0.000147474
0.00016239
-4.95638e-05
-5.92656e-05
-6.63553e-05
-4.91469e-05
-7.58908e-05
-3.4838e-05
-8.06405e-05
-1.33708e-05
-8.07453e-05
1.61855e-06
-8.57243e-05
3.97134e-06
-8.11659e-05
9.39275e-06
-7.47289e-05
2.12798e-05
-7.01851e-05
3.44419e-05
-6.63115e-05
4.5587e-05
-6.14138e-05
5.69402e-05
-5.5105e-05
6.92126e-05
-4.55645e-05
7.56921e-05
-3.13051e-05
0.000113183
8.98993e-06
0.000152732
3.71777e-05
0.000205773
6.95837e-06
0.000239732
-5.85094e-06
0.000148527
0.000164702
-5.27564e-05
-4.68983e-05
-6.32929e-05
-3.86103e-05
-7.11712e-05
-2.69597e-05
-6.90324e-05
-1.55096e-05
-6.24282e-05
-4.98565e-06
-5.97294e-05
1.27262e-06
-6.34931e-05
1.31564e-05
-6.40236e-05
2.18103e-05
-6.07215e-05
3.11399e-05
-5.66591e-05
4.15246e-05
-5.07264e-05
5.10075e-05
-4.35894e-05
6.20757e-05
-3.42753e-05
6.6378e-05
-2.18909e-05
0.000100799
1.27695e-05
0.000118072
3.33316e-05
0.000185211
5.10654e-07
0.000270573
-7.26659e-06
0.000147014
0.000166497
-5.11161e-05
-3.85688e-05
-5.68267e-05
-3.28998e-05
-5.968e-05
-2.41063e-05
-6.05351e-05
-1.46544e-05
-6.1005e-05
-4.51574e-06
-6.19529e-05
2.2205e-06
-5.83998e-05
9.60335e-06
-5.58382e-05
1.92487e-05
-5.22686e-05
2.75703e-05
-4.79636e-05
3.72196e-05
-4.17547e-05
4.47986e-05
-3.39312e-05
5.42522e-05
-2.45358e-05
5.69827e-05
-1.11866e-05
8.74495e-05
2.01977e-05
8.66873e-05
2.39786e-05
0.00018143
-4.58852e-06
0.000293292
-5.65678e-06
0.000142256
0.000177822
-4.5529e-05
-5.04437e-05
-5.32166e-05
-5.34704e-05
-5.21494e-05
-5.09533e-05
-5.04244e-05
-4.84469e-05
-4.49473e-05
-4.04368e-05
-3.4375e-05
-2.67005e-05
-1.76824e-05
-2.83615e-06
2.56348e-05
2.09708e-05
-1.03809e-06
-4.87715e-06
)
;

boundaryField
{
    leftWall
    {
        type            fixedValue;
        value           nonuniform 0();
    }
    rightWall
    {
        type            fixedValue;
        value           uniform 0;
    }
    lowerWall
    {
        type            fixedValue;
        value           uniform 0;
    }
    atmosphere
    {
        type            calculated;
        value           nonuniform 0();
    }
    defaultFaces
    {
        type            empty;
        value           nonuniform 0();
    }
    procBoundary1to0
    {
        type            processor;
        value           nonuniform List<scalar> 
26
(
-7.05964e-06
-9.01874e-06
-1.12809e-05
-7.45752e-06
-8.56831e-06
-8.54155e-06
-1.31055e-05
-1.45634e-05
-4.63666e-05
-4.2578e-05
-5.68622e-05
-0.00010701
-0.000144622
-0.000135452
-9.23193e-05
-4.60372e-05
3.68992e-05
-4.44441e-05
-3.79817e-05
-0.000146624
-8.84111e-05
-2.45775e-06
7.83699e-06
2.84397e-05
3.30183e-05
3.33637e-05
)
;
    }
    procBoundary1to3
    {
        type            processor;
        value           nonuniform List<scalar> 
23
(
-1.60949e-05
-1.58548e-05
-1.53527e-05
-1.49578e-05
-3.2756e-05
-2.79851e-05
-2.13334e-05
-1.44006e-05
-5.83681e-06
1.02444e-06
9.07453e-06
1.72712e-05
2.40707e-05
3.27091e-05
3.87368e-05
4.65777e-05
4.79646e-05
7.26033e-05
5.82163e-05
0.000186094
0.000308537
0.0001396
0.000194052
)
;
    }
}


// ************************************************************************* //
