/*--------------------------------*- C++ -*----------------------------------*\
| =========                 |                                                 |
| \\      /  F ield         | OpenFOAM: The Open Source CFD Toolbox           |
|  \\    /   O peration     | Version:  2.4.0                                 |
|   \\  /    A nd           | Web:      www.OpenFOAM.org                      |
|    \\/     M anipulation  |                                                 |
\*---------------------------------------------------------------------------*/
FoamFile
{
    version     2.0;
    format      ascii;
    class       surfaceScalarField;
    location    "0.4";
    object      phi.oil;
}
// * * * * * * * * * * * * * * * * * * * * * * * * * * * * * * * * * * * * * //

dimensions      [0 3 -1 0 0 0 0];

internalField   nonuniform List<scalar> 
1061
(
1.09713e-05
2.00163e-05
3.17551e-05
3.96563e-05
4.84432e-05
5.70359e-05
6.99297e-05
8.62268e-05
-2.83792e-05
2.84158e-05
-5.46782e-05
2.63171e-05
-8.07749e-05
2.61085e-05
-9.67254e-05
1.59577e-05
-0.000101432
4.70246e-06
-9.92165e-05
-2.28679e-06
-8.65562e-05
-1.28968e-05
-6.8544e-05
-1.80802e-05
-5.12471e-05
-1.51085e-05
-3.06601e-05
-1.29324e-05
-8.73488e-06
-9.75563e-06
2.71982e-05
-1.73572e-05
6.5187e-05
-1.91149e-05
9.98895e-05
-1.6204e-05
0.000114016
1.4471e-06
0.000107657
1.98672e-05
9.23806e-05
2.79762e-05
5.96273e-05
4.59876e-05
7.91573e-05
-2.40079e-05
5.24254e-05
-4.91132e-05
5.14026e-05
-7.29228e-05
4.98995e-05
-8.27495e-05
2.57707e-05
-8.40001e-05
5.93532e-06
-7.92123e-05
-7.12787e-06
-7.26466e-05
-1.9685e-05
-6.63224e-05
-2.53528e-05
-5.21345e-05
-3.31362e-05
-2.69606e-05
-4.75637e-05
1.20203e-05
-5.78134e-05
4.7807e-05
-5.57598e-05
7.97255e-05
-4.89745e-05
0.00010854
-4.11969e-05
0.000117696
-4.53122e-06
0.000115106
2.39835e-05
0.000101164
4.13451e-05
6.67027e-05
7.58496e-05
0.000143893
-2.11175e-05
7.35316e-05
-4.24586e-05
7.27378e-05
-6.2816e-05
7.02543e-05
-6.84199e-05
3.13738e-05
-6.581e-05
3.30916e-06
-5.61679e-05
-1.78183e-05
-4.95547e-05
-3.04864e-05
-4.58803e-05
-3.26598e-05
-3.59973e-05
-4.37855e-05
-1.15889e-05
-7.26033e-05
2.15027e-05
-9.32246e-05
5.59388e-05
-9.73203e-05
8.97056e-05
-8.70324e-05
0.000109806
-6.47221e-05
0.000119723
-1.66711e-05
0.000111324
2.99343e-05
8.71051e-05
5.9947e-05
4.38206e-05
0.000110951
0.000179018
-1.75618e-05
9.10883e-05
-3.43006e-05
8.94761e-05
-5.07342e-05
8.66877e-05
-4.63438e-05
2.69751e-05
-3.23546e-05
-1.51447e-05
-2.88572e-05
-5.64027e-05
-2.06411e-05
-8.83744e-05
-1.4275e-05
-9.88272e-05
-5.99135e-06
-7.62774e-05
1.41867e-05
-9.54791e-05
4.16239e-05
-0.000120767
7.34832e-05
-0.000129304
0.000102465
-0.000119399
0.000122631
-9.01694e-05
0.000118054
-1.89618e-05
9.5597e-05
4.25434e-05
5.7845e-05
8.89778e-05
1.69358e-05
0.000148268
0.000193324
-1.23286e-05
0.000103416
-2.17729e-05
9.89204e-05
-2.56456e-05
9.05578e-05
-1.20389e-05
1.0181e-05
-6.71773e-06
-6.41651e-05
5.86431e-06
-9.94523e-05
1.97746e-05
-0.000176916
2.67074e-05
-0.000190306
2.75404e-05
-0.000184
3.46086e-05
-0.000143606
5.46294e-05
-0.000144311
8.19158e-05
-0.000156616
0.000107861
-0.00014541
0.000123088
-0.000106796
0.00011285
-1.28829e-05
7.61362e-05
7.44108e-05
3.39354e-05
0.00012955
4.8045e-06
0.00017709
0.000197942
-2.72801e-06
0.000106143
-5.15933e-06
0.000101351
5.06857e-06
7.91802e-05
1.07719e-05
-1.05104e-06
1.43108e-05
-4.73881e-05
4.03915e-05
-8.85857e-05
6.72993e-05
-0.000178906
7.99894e-05
-0.000168791
7.47954e-05
-0.000177563
6.34088e-05
-0.000193306
7.27812e-05
-0.000173269
9.14956e-05
-0.00017599
0.000112287
-0.000166803
0.000110887
-0.000119633
9.96017e-05
-1.44431e-05
6.03742e-05
0.000112397
2.15165e-05
0.000168365
1.73894e-06
0.000196738
0.000194049
9.8671e-06
9.6299e-05
1.11637e-05
0.000100055
1.38533e-05
6.17391e-05
1.84026e-05
-8.86981e-07
2.92791e-05
-2.39084e-05
5.71732e-05
-5.35708e-05
7.35877e-05
-9.0639e-05
8.22898e-05
-8.269e-05
8.62884e-05
-9.56032e-05
7.80595e-05
-0.000194896
8.38513e-05
-0.000201601
9.94305e-05
-0.000193025
0.000114848
-0.000188077
9.6733e-05
-0.000194826
7.22458e-05
-7.38655e-06
4.15043e-05
0.000140614
1.41195e-05
0.000195608
1.26408e-06
0.000210114
0.000189261
2.18317e-05
7.78881e-05
3.07706e-05
9.20529e-05
3.67471e-05
5.05992e-05
3.49805e-05
-6.68458e-06
3.55852e-05
-2.57874e-05
4.79405e-05
-3.8122e-05
7.0752e-05
-5.16225e-05
8.1303e-05
-5.99534e-05
8.7733e-05
-9.03257e-05
8.86916e-05
-0.000178407
9.16387e-05
-0.000204361
0.000104563
-0.000207388
0.00010798
-0.000232741
6.92161e-05
-0.000216138
3.78258e-05
2.59101e-05
1.8362e-05
0.000148807
4.80571e-06
0.000208672
3.11427e-08
0.000215579
0.000187203
5.48736e-05
8.62008e-05
6.63976e-05
6.20082e-05
6.43281e-05
6.32963e-05
6.93603e-05
0.000117483
4.5179e-05
0.000176622
2.25882e-05
0.000162341
9.95586e-07
0.000110686
6.64629e-05
2.22729e-05
2.00389e-05
3.9232e-06
1.78125e-05
1.88702e-06
1.99571e-06
-4.48673e-06
1.66132e-05
7.20841e-05
2.76512e-05
6.56094e-05
2.03839e-05
5.82977e-05
1.47974e-05
7.23915e-06
5.07903e-05
7.08681e-05
2.36108e-05
7.19669e-05
1.80145e-05
6.94684e-05
1.36553e-05
8.86601e-06
6.49818e-05
0.000113283
2.44104e-05
0.000109053
1.77411e-05
0.000105542
1.06551e-05
5.80499e-06
9.73573e-05
0.000182105
1.77135e-05
0.00018243
1.55113e-05
0.000180013
1.11903e-05
8.07677e-06
0.000176024
0.000175072
6.44379e-06
0.000185668
5.23996e-06
0.000195773
2.0647e-06
-1.11179e-06
0.000204636
0.000125803
-7.02224e-06
0.00014018
-7.78022e-06
0.000153109
-9.68301e-06
-1.59096e-05
0.000169364
7.64895e-05
-1.89462e-05
8.88407e-05
-2.18695e-05
0.000100602
-2.30657e-05
-2.96206e-05
0.000112816
4.59406e-05
-4.18763e-05
5.22809e-05
-4.56451e-05
5.88491e-05
-4.60501e-05
-4.88623e-05
6.35698e-05
4.1948e-05
-8.12395e-05
4.46844e-05
-8.7267e-05
4.77186e-05
-8.91794e-05
-8.6765e-05
4.9038e-05
0.000107743
-5.23567e-05
0.000110963
-5.71975e-05
0.000110906
-5.94662e-05
-5.81617e-05
0.000108677
0.000101462
-3.22033e-05
0.00011107
-3.58511e-05
0.000117407
-3.69961e-05
-3.88821e-05
0.000125327
-3.6859e-06
-2.30837e-05
-9.56762e-06
-2.73996e-05
-1.55398e-05
-2.94638e-05
-3.25753e-05
-2.10209e-05
-1.10192e-05
-2.04618e-05
-1.65884e-05
-2.21319e-05
-2.32661e-05
-2.2877e-05
-2.50227e-05
-3.09138e-05
-3.00507e-05
-1.8819e-05
-3.28285e-05
-1.93477e-05
-3.58484e-05
-1.9889e-05
-2.05566e-05
-4.03903e-05
-3.5061e-05
-1.67136e-05
-3.71477e-05
-1.72212e-05
-3.96849e-05
-1.73043e-05
-1.73649e-05
-4.27673e-05
-3.3972e-05
-3.53438e-05
-3.72879e-05
-3.96991e-05
8.58635e-05
1.85253e-05
0.000136501
4.97546e-05
0.000148625
3.95084e-05
0.000129729
-3.87945e-06
0.000141709
-2.13031e-05
0.00016219
-2.90915e-05
0.00017358
-5.32998e-05
0.000178947
-7.30618e-05
0.00018272
-0.000105508
0.000200749
-0.000160155
0.000210645
-0.000206724
0.000218242
-0.000232501
0.00019953
-0.000256966
8.98914e-05
-0.000140307
1.38054e-05
6.50156e-05
-7.58996e-06
0.000161335
-1.02578e-05
0.000211177
-8.49455e-06
0.000214727
0.000182828
7.65375e-05
-2.63706e-06
0.000129362
5.04144e-06
0.000171497
2.47037e-06
0.000185659
-1.67437e-05
0.000179443
-2.6892e-05
0.000175363
-3.93929e-05
0.000169863
-6.36028e-05
0.000173075
-8.07817e-05
0.000196537
-0.000104898
0.000210396
-0.000165204
0.000215543
-0.000213859
0.000203696
-0.000247325
0.000149705
-0.000251151
3.33746e-05
-3.88115e-05
-3.01641e-05
7.54726e-05
-3.31109e-05
0.000159155
-1.97563e-05
0.000198273
-1.2743e-05
0.000207647
0.000174564
6.57356e-05
-4.36793e-06
9.18784e-05
-1.69861e-05
0.000124475
-2.45205e-05
0.000141091
-2.94223e-05
0.00014946
-3.17567e-05
0.000158063
-4.28937e-05
0.000166742
-6.13488e-05
0.000180082
-7.83293e-05
0.000199306
-0.000118737
0.000212078
-0.000179407
0.000208045
-0.000222717
0.000204324
-0.000244469
0.00012199
-0.000239181
7.30609e-06
-5.62769e-06
-4.01118e-05
7.61625e-05
-3.71627e-05
0.0001434
-2.39445e-05
0.000185444
-1.10724e-05
0.00019507
0.000164195
8.31081e-05
-1.31818e-05
8.19679e-05
-3.3309e-05
9.50379e-05
-4.28031e-05
0.000110587
-4.29841e-05
0.000125527
-4.23233e-05
0.000142038
-5.614e-05
0.000154627
-7.23537e-05
0.000170784
-9.47308e-05
0.000194405
-0.000144302
0.000205151
-0.000193409
0.00020481
-0.000228558
0.000197752
-0.000231744
0.000116698
-0.000225827
1.01553e-05
5.34524e-06
-3.11856e-05
7.39726e-05
-4.31528e-05
0.000105439
-2.41016e-05
0.00016628
-5.81008e-06
0.000177428
0.000158335
0.000154991
-5.22699e-06
0.000145814
-1.93674e-05
0.000125602
-3.41698e-05
0.000123999
-4.62245e-05
0.000132046
-5.47412e-05
0.000143532
-7.14978e-05
0.000155281
-8.7381e-05
0.000177515
-0.000119736
0.000199074
-0.000167001
0.000202054
-0.000206289
0.000205392
-0.000219327
0.000198954
-0.000215169
0.000117871
-0.000194162
1.05385e-05
5.29598e-05
-2.85226e-05
6.17083e-05
-4.15874e-05
7.94933e-05
-2.19958e-05
0.000139809
-5.34176e-06
0.000160974
0.000152991
0.00020853
-1.37807e-05
0.000200518
-1.66556e-05
0.000183815
-2.32816e-05
0.000173201
-3.31672e-05
0.000164392
-5.08509e-05
0.000164096
-7.58659e-05
0.000174755
-0.000102969
0.000195246
-0.000141762
0.00020279
-0.000182461
0.000208442
-0.000203254
0.000204447
-0.000202088
0.000192381
-0.000197087
0.000108184
8.55533e-07
2.08028e-05
0.000214882
-1.87996e-05
4.63179e-05
-2.70114e-05
5.23935e-05
-1.3665e-05
9.1343e-05
-3.69213e-06
0.000151007
0.000149299
0.000197357
-3.7522e-05
0.000209079
-2.4528e-05
0.000207997
-2.0112e-05
0.000200674
-2.51574e-05
0.000189535
-4.47335e-05
0.000186414
-7.74868e-05
0.000193153
-0.000113747
0.000202358
-0.000154991
0.000208901
-0.000181864
0.000204432
-0.000183629
0.000193381
-0.000178616
0.000105596
-8.21543e-05
2.26576e-05
0.000205072
2.20806e-05
0.000556679
9.02073e-07
7.08945e-05
6.77982e-06
2.92864e-05
-4.75617e-06
4.59808e-05
-3.72112e-06
0.000148309
0.000145577
0.000148481
-7.50187e-05
0.000176847
-5.3411e-05
0.000189984
-3.21471e-05
0.000196366
-2.75951e-05
0.000194081
-4.20307e-05
0.00019285
-7.78341e-05
0.000199897
-0.000122873
0.000204819
-0.00015895
0.000202395
-0.000166488
0.000196774
-0.0001579
0.000106308
-8.04596e-05
-3.24737e-05
7.85044e-05
2.26701e-06
0.000205653
3.35992e-05
0.000544865
1.29502e-05
0.000188722
1.41827e-05
3.88958e-05
9.21632e-07
7.18428e-05
-4.44396e-06
0.000130226
0.000141129
8.71834e-05
-0.000121436
0.000121625
-9.69106e-05
0.000149884
-6.21956e-05
0.000169115
-4.59604e-05
0.000182636
-5.42653e-05
0.000191081
-8.81894e-05
0.000191846
-0.000135217
0.000183102
-0.000150996
0.000172192
-0.0001402
7.76005e-05
-6.92799e-05
-6.58471e-05
5.10621e-05
-7.43108e-05
9.49073e-05
-1.98361e-05
0.000174165
6.83406e-05
0.000456272
4.36578e-05
0.000340139
1.7484e-05
0.000115789
2.28541e-06
8.73633e-05
-3.37374e-06
0.000116434
0.000137662
5.63876e-05
-0.000198567
7.97081e-05
-0.000168329
0.000108816
-0.000111015
0.000137057
-8.62169e-05
0.000156203
-9.20183e-05
0.000153908
-0.000124784
0.00012871
-0.000160085
4.9224e-05
-0.000126254
-2.33752e-05
-5.82049e-05
-7.5138e-05
4.34717e-05
-9.17446e-05
6.73084e-05
-8.94319e-05
8.99529e-05
-4.94583e-05
0.000135875
5.37561e-05
0.000321087
8.13014e-05
0.00032154
3.44918e-05
0.000230975
1.06283e-05
8.83178e-05
1.56248e-06
0.000109773
0.00013878
9.43893e-05
-0.000129504
9.29029e-05
-0.000166132
0.000111411
-0.000177763
0.000127644
-0.00015121
0.000125149
-0.000163215
8.56486e-05
-0.000162876
2.37867e-05
-0.000110302
-4.99505e-05
-3.43594e-05
-9.11478e-05
3.45387e-05
-9.17995e-05
5.1465e-05
-9.1874e-05
6.62211e-05
-8.61464e-05
8.35432e-05
-5.7739e-05
0.000109243
3.54375e-05
0.000207575
7.50329e-05
0.000289006
3.52372e-05
0.000252834
1.55027e-05
0.000101029
7.29283e-06
0.000116273
0.000143707
0.000111255
-9.15807e-05
0.000123442
-8.81094e-05
0.000136749
-0.000108524
9.9348e-05
-9.56639e-05
3.77353e-05
-9.69294e-05
-3.6519e-05
-9.12968e-05
-8.40522e-05
-2.36951e-05
-8.99989e-05
1.32165e-05
-9.07557e-05
3.59453e-05
-8.79485e-05
4.88283e-05
-8.34054e-05
6.18935e-05
-7.52038e-05
7.80547e-05
-5.46157e-05
9.37082e-05
-2.09993e-06
0.000149119
4.81568e-05
0.000240486
4.59413e-05
0.000246362
2.00036e-05
0.000160261
1.33351e-05
0.00013025
0.000151722
-3.46407e-05
-7.79826e-05
-5.29166e-05
-6.7384e-05
-7.3809e-05
-4.79987e-05
-7.74332e-05
-2.2906e-05
-5.90958e-05
-1.1586e-06
-4.9288e-05
-1.30019e-05
-7.35464e-05
1.02377e-05
-8.19024e-05
2.36432e-05
-7.99729e-05
3.56831e-05
-7.6511e-05
4.68294e-05
-7.20653e-05
5.98269e-05
-6.4207e-05
7.36384e-05
-4.85605e-05
8.32363e-05
-2.44365e-05
0.000123493
2.39589e-05
0.000187954
4.31426e-05
0.000226901
2.22978e-05
0.00018259
1.72857e-05
0.000142744
0.000161318
-4.99041e-05
-5.91752e-05
-6.57063e-05
-4.86745e-05
-7.03101e-05
-3.17257e-05
-7.99384e-05
-6.05916e-06
-7.41257e-05
5.80944e-06
-8.42852e-05
6.05383e-06
-8.04391e-05
9.59773e-06
-7.42985e-05
2.0684e-05
-6.98075e-05
3.36031e-05
-6.60157e-05
4.4843e-05
-6.07826e-05
5.63147e-05
-5.27467e-05
6.83461e-05
-3.98131e-05
7.439e-05
-2.7842e-05
0.00010989
1.37757e-05
0.00014696
3.82732e-05
0.00019845
1.8304e-05
0.000201791
1.59984e-05
0.000148317
0.000167571
-5.28379e-05
-4.72053e-05
-6.3349e-05
-3.90827e-05
-7.08434e-05
-2.7828e-05
-6.85445e-05
-1.69328e-05
-6.19778e-05
-6.567e-06
-5.96495e-05
4.50459e-07
-6.34461e-05
1.27808e-05
-6.3942e-05
2.15878e-05
-6.0617e-05
3.09765e-05
-5.64265e-05
4.13633e-05
-5.02794e-05
5.0821e-05
-4.15845e-05
6.16347e-05
-3.00384e-05
6.54096e-05
-1.98645e-05
9.80015e-05
1.83944e-05
0.000112102
3.54037e-05
0.00017794
1.652e-05
0.000209417
1.32609e-05
0.000144667
0.000172583
-5.11155e-05
-3.85707e-05
-5.68128e-05
-3.28864e-05
-5.96487e-05
-2.40657e-05
-6.04971e-05
-1.45201e-05
-6.09678e-05
-4.39796e-06
-6.18907e-05
2.27685e-06
-5.83503e-05
9.58194e-06
-5.58057e-05
1.91951e-05
-5.2227e-05
2.75289e-05
-4.77726e-05
3.71685e-05
-4.14664e-05
4.47074e-05
-3.20555e-05
5.39398e-05
-2.16733e-05
5.61587e-05
-9.80162e-06
8.49056e-05
2.56489e-05
8.05604e-05
3.25021e-05
0.000173336
1.62867e-05
0.000208784
1.11161e-05
0.00013901
0.000179468
-4.55047e-05
-5.04254e-05
-5.31923e-05
-5.34475e-05
-5.21266e-05
-5.09386e-05
-5.04132e-05
-4.84336e-05
-4.49296e-05
-4.02781e-05
-3.42246e-05
-2.49046e-05
-1.60527e-05
-1.91601e-06
2.99293e-05
3.10414e-05
1.79622e-05
1.07709e-05
)
;

boundaryField
{
    leftWall
    {
        type            fixedValue;
        value           nonuniform 0();
    }
    rightWall
    {
        type            fixedValue;
        value           uniform 0;
    }
    lowerWall
    {
        type            fixedValue;
        value           uniform 0;
    }
    atmosphere
    {
        type            calculated;
        value           nonuniform 0();
    }
    defaultFaces
    {
        type            empty;
        value           nonuniform 0();
    }
    procBoundary1to0
    {
        type            processor;
        value           nonuniform List<scalar> 
26
(
-6.57197e-06
-8.37667e-06
-1.06564e-05
-6.9175e-06
-8.04491e-06
-7.96489e-06
-1.25243e-05
-1.43403e-05
-4.58882e-05
-3.56371e-05
-6.18313e-05
-0.000123631
-0.000157196
-0.000140211
-8.79393e-05
-4.54418e-05
-2.43387e-05
-4.08583e-05
-3.87104e-05
-0.000102115
-8.88563e-05
-2.79731e-06
7.69394e-06
2.83671e-05
3.30012e-05
3.33631e-05
)
;
    }
    procBoundary1to3
    {
        type            processor;
        value           nonuniform List<scalar> 
23
(
-1.61006e-05
-1.58589e-05
-1.53579e-05
-1.49637e-05
-3.27722e-05
-2.80061e-05
-2.136e-05
-1.44392e-05
-5.88122e-06
9.84933e-07
9.04765e-06
1.72516e-05
2.40505e-05
3.26827e-05
3.86646e-05
4.63258e-05
4.72104e-05
7.03845e-05
5.22032e-05
0.000177121
0.000214497
0.000136446
0.000187706
)
;
    }
}


// ************************************************************************* //
