/*--------------------------------*- C++ -*----------------------------------*\
| =========                 |                                                 |
| \\      /  F ield         | OpenFOAM: The Open Source CFD Toolbox           |
|  \\    /   O peration     | Version:  2.4.0                                 |
|   \\  /    A nd           | Web:      www.OpenFOAM.org                      |
|    \\/     M anipulation  |                                                 |
\*---------------------------------------------------------------------------*/
FoamFile
{
    version     2.0;
    format      ascii;
    class       volScalarField;
    location    "0.4";
    object      rho;
}
// * * * * * * * * * * * * * * * * * * * * * * * * * * * * * * * * * * * * * //

dimensions      [1 -3 0 0 0 0 0];

internalField   nonuniform List<scalar> 
559
(
13528.6
13528.6
13528.6
13528.5
13528.5
13528.4
13528.3
13528.3
504.45
504.452
504.456
504.466
506.02
515.898
570.034
772.763
1260.18
1881.15
1997.17
1997.16
2005.99
2006
2014.74
2011.56
2011.94
1999.08
1985.01
504.451
502.406
501.268
500.614
500.487
500.481
500.437
500.786
504.471
550.699
991.54
1975.44
1997.62
2014.71
2005.98
2020.36
2003.58
1934.38
1783.99
502.585
500.457
500.283
500.359
500.375
500.303
500.125
500.753
503.525
540.305
713.418
1022.22
1688.69
2000.81
2023.47
2006.77
1652.57
911.159
775.231
500.922
500.223
500.221
500.165
499.736
487.096
457.512
466.087
496.402
560.17
810.788
1029.07
1168.05
1227.67
1260.06
1011.47
665.732
530.025
514.634
500.784
500.224
500.169
499.873
452.172
185.355
81.9397
91.1948
290.76
546.006
898.783
1138.02
1210.24
1111.13
836.545
574.077
507.23
504.634
503.366
500.59
500.208
500.077
472.954
77.6681
1.94596
1.47286
1.4744
4.6617
360.678
958.069
1216.05
1244.37
1100.07
757.454
525.797
501.615
501.162
500.195
500.381
500.203
500.079
309.428
25.3827
1.47593
1.47286
1.4738
2.54457
281.587
1053.78
1263.94
1265.25
1026.13
588.276
504.782
501.139
500.3
461.85
508.558
500.189
499.989
402.122
90.8662
3.49308
1.47367
1.47304
28.4536
650.865
1209.19
1300.46
1265.11
511.399
289.792
489.309
500.884
500.647
443.122
13502
12584.5
7888.84
2463.66
1108.23
971.765
734.038
508.781
13384
10905.3
3318.19
2100.39
13383.7
13066.1
11439.3
8782.49
11169.6
12154.9
12144.7
11928
4184.49
5572.35
6873.69
7598.16
1277.91
1491.51
1800.97
2114.1
1031.1
1092.67
1157.94
1204.06
770.114
791.451
807.972
812.204
511.112
513.55
517.551
521.051
469.066
461.713
462.396
461.015
136.816
125.646
131.436
137.765
1.0225
1.03806
1.08251
1.16036
1.00014
1.00013
1.00012
1.00013
1.00007
1.00003
1.00002
1.00001
1.00002
1.00001
1.00001
1.00001
1.00001
1
1.00001
1.00001
1
1
1
1
1
1
1
1
1752.75
991.572
613.638
543.753
321.328
100.49
55.8241
78.1691
404.06
1193.39
1370.75
1338.93
1052.25
203.685
340.113
496.067
500.877
496.105
447.488
5792.41
3138.54
1540.08
1171.12
991.794
750.457
683.34
865.508
1370.88
1500.01
1442.7
1380.28
708.132
68.6061
414.775
499.862
500.571
489.858
488.33
10050.3
6445.46
4267.44
2743.49
1790.25
1749.13
1751.69
1858.66
1798.67
1602.43
1466.21
1151.19
266.659
24.2768
359.684
499.758
499.609
489.909
499.767
7509.14
6921.54
5709.8
4335.3
3261.32
2803.44
2585.68
2300.53
1948.77
1585.43
1426.18
614.163
51.538
7.43551
188.594
494.09
499.408
496.523
500.164
2462.15
3076.25
3673.04
3933.78
3795.98
3382.23
2860.23
2366.82
1770.43
1436.09
919.529
166.327
4.8106
1.77043
55.2251
415.752
499.963
500.041
500.092
1271.73
1465.65
1934.45
2630.43
2911.58
2785.77
2470.25
2017.02
1418.06
1051.35
302.425
19.3037
1.11153
1.03318
13.9297
275.714
500
500.157
500.047
852.057
1036.01
1397.51
1805.77
2228.84
2250.7
1901.06
1344.61
1037.57
407.367
40.684
1.48503
1.00255
1.00131
1.9018
60.1859
443.593
500.108
500.04
551.885
682.449
974.513
1353.45
1496.73
1384.16
1110.52
840.827
396.646
56.9075
2.1947
1.00367
1.00313
1.00128
1.01672
2.91645
153.948
499.699
500.03
469.46
544.817
712.407
891.559
893.238
789.736
636.078
328.975
53.3108
2.27099
1.00441
1.00318
1.00311
1.00136
1.0014
1.01049
35.6951
496.063
500.011
164.25
320.278
487.344
560.601
550.822
483.38
239.87
27.7757
1.25661
1.00317
1.00255
1.00229
1.00245
1.00218
1.00198
1.00181
5.19555
480.235
499.922
1.79994
17.3982
106.827
236.582
245.419
107.047
6.67005
1.0075
1.00209
1.00184
1.00145
1.00132
1.00151
1.00204
1.0022
1.0019
1.04241
411.079
499.038
1.00014
1.00171
1.19675
2.20945
1.69427
1.08567
1.00396
1.00145
1.00108
1.0009
1.00068
1.00064
1.0008
1.00137
1.00203
1.00181
1.00183
251.171
491.463
1.00002
1.00007
1.00031
1.00062
1.00082
1.00082
1.00032
1.00043
1.00042
1.00035
1.00028
1.00029
1.00041
1.00085
1.00161
1.00162
1.00172
99.2013
469.846
1.00002
1.00004
1.00012
1.00037
1.00044
1.00017
1.00012
1.00014
1.00014
1.00012
1.00011
1.00014
1.00024
1.00054
1.00114
1.0014
1.00162
78.1961
464.852
1.00001
1.00002
1.00004
1.00006
1.00009
1.00005
1.00004
1.00004
1.00004
1.00004
1.00005
1.00008
1.00016
1.00038
1.00082
1.0012
1.00156
124.392
469.541
1
1.00001
1.00001
1.00001
1.00002
1.00002
1.00002
1.00002
1.00002
1.00002
1.00003
1.00005
1.00013
1.00031
1.00067
1.00109
1.00153
280.605
482.509
1
1
1
1
1
1
1.00001
1.00001
1.00001
1.00001
1.00002
1.00004
1.00011
1.00027
1.00061
1.00107
1.00154
356.261
491.912
)
;

boundaryField
{
    leftWall
    {
        type            calculated;
        value           nonuniform 0();
    }
    rightWall
    {
        type            calculated;
        value           nonuniform List<scalar> 
25
(
1985.01
1783.99
775.231
514.634
503.366
500.195
461.85
443.122
447.488
488.33
499.767
500.164
500.092
500.047
500.04
500.03
500.011
499.922
499.038
491.463
469.846
464.852
469.541
482.509
491.912
)
;
    }
    lowerWall
    {
        type            calculated;
        value           nonuniform List<scalar> 
40
(
13528.6
13528.6
13528.6
13528.6
13528.5
13528.5
13528.4
13528.3
13528.3
13384
10905.3
3318.19
2100.39
504.45
504.451
502.585
500.922
500.784
500.59
500.381
508.558
504.45
504.452
504.456
504.466
506.02
515.898
570.034
772.763
1260.18
1881.15
1997.17
1997.16
2005.99
2006
2014.74
2011.56
2011.94
1999.08
1985.01
)
;
    }
    atmosphere
    {
        type            calculated;
        value           nonuniform 0();
    }
    defaultFaces
    {
        type            empty;
    }
    procBoundary1to0
    {
        type            processor;
        value           nonuniform List<scalar> 
26
(
13529
13529
13529
13529
13528.9
13528.9
13528
13518
12975.2
8913.22
2946.58
1167.04
1010.83
912.309
657.205
505.362
476.214
476.214
150.262
1.01223
1.00016
1.00013
1.00006
1.00003
1.00001
1
)
;
    }
    procBoundary1to3
    {
        type            processor;
        value           nonuniform List<scalar> 
23
(
1
1
0.999999
1
0.999999
0.999999
0.999999
1
1
1
1
1
1
1
1.00001
1.00003
1.00009
1.00024
1.00057
1.00113
1.00157
301.911
490.784
)
;
    }
}


// ************************************************************************* //
