/*--------------------------------*- C++ -*----------------------------------*\
| =========                 |                                                 |
| \\      /  F ield         | OpenFOAM: The Open Source CFD Toolbox           |
|  \\    /   O peration     | Version:  2.4.0                                 |
|   \\  /    A nd           | Web:      www.OpenFOAM.org                      |
|    \\/     M anipulation  |                                                 |
\*---------------------------------------------------------------------------*/
FoamFile
{
    version     2.0;
    format      ascii;
    class       volVectorField;
    location    "0.4";
    object      U.air;
}
// * * * * * * * * * * * * * * * * * * * * * * * * * * * * * * * * * * * * * //

dimensions      [0 1 -1 0 0 0 0];

internalField   nonuniform List<vector> 
559
(
(0.017802 0.0119862 0)
(0.0246502 0.0611439 0)
(0.0730416 0.119419 0)
(0.0368372 0.169413 0)
(0.0605059 0.207433 0)
(0.0368378 0.26751 0)
(0.0732311 0.298208 0)
(0.0862578 0.406883 0)
(-0.189848 0.115036 0)
(-0.485272 0.0927179 0)
(-0.792939 0.0561976 0)
(-1.03233 0.000315356 0)
(-1.12594 -0.0525103 0)
(-1.11394 -0.124707 0)
(-0.949365 -0.305154 0)
(-0.651728 -0.460432 0)
(-0.435591 -0.55684 0)
(-0.182515 -0.599272 0)
(0.061039 -0.51037 0)
(0.274806 -0.490144 0)
(0.59283 -0.555751 0)
(0.888469 -0.511445 0)
(1.13629 -0.476442 0)
(1.20775 -0.415967 0)
(1.15405 -0.38661 0)
(0.914284 -0.240646 0)
(0.661031 0.0161748 0)
(-0.146998 0.1732 0)
(-0.430336 0.173124 0)
(-0.735793 0.19481 0)
(-0.903942 0.136506 0)
(-0.95826 0.0551436 0)
(-0.959464 0.0166972 0)
(-0.8647 0.0120386 0)
(-0.769478 0.00389954 0)
(-0.66478 0.0208197 0)
(-0.24492 -0.157444 0)
(0.238572 -0.477014 0)
(0.612187 -0.724861 0)
(0.793721 -0.599987 0)
(1.06496 -0.642577 0)
(1.25024 -0.342473 0)
(1.30727 -0.26209 0)
(1.23556 -0.153736 0)
(1.02117 0.110376 0)
(0.722288 0.58114 0)
(-0.105284 0.309854 0)
(-0.389818 0.316373 0)
(-0.645276 0.310604 0)
(-0.763674 0.112377 0)
(-0.772725 0.0874794 0)
(-0.695571 0.137047 0)
(-0.628604 0.121875 0)
(-0.541193 0.0827127 0)
(-0.527007 -0.0931934 0)
(-0.0536585 -0.49789 0)
(0.320951 -0.706193 0)
(0.667216 -0.761338 0)
(0.955903 -0.910311 0)
(1.12004 -0.798747 0)
(1.27386 -0.631513 0)
(1.28929 -0.402689 0)
(1.23089 -0.307402 0)
(0.917932 0.0699674 0)
(0.582547 0.738945 0)
(-0.0772389 0.452801 0)
(-0.300524 0.395021 0)
(-0.54013 0.353089 0)
(-0.536565 0.2228 0)
(-0.305555 0.356163 0)
(-0.27793 0.271927 0)
(-0.316842 0.242108 0)
(-0.235439 0.335055 0)
(-0.329539 0.316849 0)
(0.11056 -0.254186 0)
(0.54738 -0.655883 0)
(0.800329 -0.836678 0)
(1.0587 -0.858163 0)
(1.21116 -0.798587 0)
(1.31093 -0.590088 0)
(1.23083 -0.409859 0)
(1.03456 -0.0304581 0)
(0.486318 0.434773 0)
(0.165049 1.06537 0)
(-0.0401329 0.499684 0)
(-0.186862 0.463287 0)
(-0.291612 0.460163 0)
(-0.0306321 0.387705 0)
(0.0304256 0.151374 0)
(0.0373787 -0.0456458 0)
(0.162776 -0.0944347 0)
(0.114081 -0.128707 0)
(0.048665 -0.0809767 0)
(0.00687314 -0.0332493 0)
(0.336164 -0.312296 0)
(0.783893 -0.7973 0)
(1.08411 -0.93535 0)
(1.20796 -0.730645 0)
(1.3025 -0.494402 0)
(1.17197 -0.0470862 0)
(0.656541 0.42301 0)
(0.115377 0.89183 0)
(-0.0154561 1.25183 0)
(0.00174601 0.536922 0)
(0.0165842 0.476685 0)
(0.147822 0.439266 0)
(0.521503 0.182959 0)
(0.222313 -0.0032687 0)
(0.264107 0.13755 0)
(0.442835 0.1556 0)
(-0.0837805 0.300912 0)
(-0.598364 0.465285 0)
(0.283085 -0.320272 0)
(0.38331 -0.23101 0)
(0.841526 -0.574993 0)
(1.17024 -0.812616 0)
(1.3509 -0.035884 0)
(1.21929 -0.143936 0)
(0.991749 0.238993 0)
(0.334368 0.70504 0)
(-0.136701 1.33017 0)
(-0.0724645 1.55945 0)
(0.0527174 0.494924 0)
(0.195476 0.501606 0)
(0.467533 0.372697 0)
(0.723101 0.0230701 0)
(0.47793 -0.0846251 0)
(0.149982 -0.405552 0)
(-0.0143347 -0.319973 0)
(0.39445 -0.328431 0)
(-0.156501 -0.801287 0)
(0.403108 -0.509047 0)
(0.577464 -0.525616 0)
(0.938083 -0.582023 0)
(1.34197 -0.396734 0)
(1.44624 0.236666 0)
(0.926431 0.610655 0)
(0.364546 1.0819 0)
(-0.0245696 0.915972 0)
(-0.190702 1.50631 0)
(-0.054855 1.56391 0)
(0.168578 0.404748 0)
(0.320935 0.482975 0)
(0.648075 0.235304 0)
(0.864811 -0.182035 0)
(0.613532 0.00117727 0)
(0.594254 0.12821 0)
(0.72905 0.00458935 0)
(1.15165 0.0193261 0)
(1.07164 -0.255104 0)
(1.02003 -0.558468 0)
(0.999065 -0.606066 0)
(1.10568 -0.623661 0)
(1.62327 -0.367778 0)
(1.50523 0.224099 0)
(0.12907 0.529813 0)
(-0.142668 1.08884 0)
(-0.217887 1.04719 0)
(-0.204686 1.51227 0)
(-0.0742736 1.45708 0)
(0.363623 0.413793 0)
(0.2668 0.329831 0)
(0.317361 0.203982 0)
(0.551253 0.257423 0)
(0.793522 0.258066 0)
(0.778832 0.167286 0)
(0.567429 0.105822 0)
(0.350816 0.190929 0)
(0.219396 0.424989 0)
(-0.0450983 0.240089 0)
(-0.00296202 0.0859337 0)
(-0.00351691 -0.0982414 0)
(0.375858 0.241704 0)
(0.423578 0.274234 0)
(0.402309 0.303019 0)
(0.305226 0.178705 0)
(0.353405 0.16794 0)
(0.385926 0.213576 0)
(0.396703 0.197989 0)
(0.368161 0.156152 0)
(0.517019 0.194301 0)
(0.504191 0.161395 0)
(0.492539 0.12807 0)
(0.531097 0.0774141 0)
(0.806186 0.216606 0)
(0.818936 0.180902 0)
(0.810586 0.121492 0)
(0.793079 0.073671 0)
(0.837181 0.138215 0)
(0.882836 0.124611 0)
(0.916841 0.0806499 0)
(0.949099 0.050301 0)
(0.637626 0.0647869 0)
(0.728807 0.0685229 0)
(0.807997 0.0285369 0)
(0.873023 -0.0113833 0)
(0.442382 0.108835 0)
(0.524554 0.0955208 0)
(0.624744 0.0673996 0)
(0.724917 -0.0370915 0)
(0.25057 0.0675433 0)
(0.285862 -0.000567496 0)
(0.32606 -0.033459 0)
(0.366192 -0.122278 0)
(0.205328 -0.2307 0)
(0.217303 -0.253493 0)
(0.229708 -0.262926 0)
(0.257221 -0.302541 0)
(0.769978 0.3303 0)
(0.735205 0.237955 0)
(0.71144 0.150665 0)
(0.699726 0.139409 0)
(0.497385 -0.631631 0)
(0.569038 -0.665106 0)
(0.616653 -0.656897 0)
(0.644986 -0.65664 0)
(-0.0082819 -0.180971 0)
(-0.0333873 -0.240652 0)
(-0.0680223 -0.294266 0)
(-0.101456 -0.357034 0)
(-0.0481889 -0.270875 0)
(-0.0708598 -0.295462 0)
(-0.106662 -0.285225 0)
(-0.14659 -0.295554 0)
(-0.153329 -0.246885 0)
(-0.171529 -0.260017 0)
(-0.182194 -0.279066 0)
(-0.204968 -0.299559 0)
(-0.181695 -0.167132 0)
(-0.194911 -0.176956 0)
(-0.204443 -0.178899 0)
(-0.222295 -0.181281 0)
(-0.178416 -0.206292 0)
(-0.187723 -0.205567 0)
(-0.19347 -0.20391 0)
(-0.207387 -0.20047 0)
(0.414021 0.137854 0)
(0.714814 0.172202 0)
(0.864149 0.146548 0)
(1.12146 -0.122087 0)
(0.899218 -0.225922 0)
(0.79229 -0.341361 0)
(0.947942 -0.401219 0)
(1.17334 -0.257771 0)
(1.13448 -0.267068 0)
(1.25073 -0.485044 0)
(1.26981 -0.626512 0)
(1.41635 -0.646323 0)
(1.53865 -0.623708 0)
(0.661967 0.499611 0)
(-0.3752 0.572186 0)
(-0.398978 0.955794 0)
(-0.429683 1.13303 0)
(-0.294421 1.49589 0)
(-0.127752 1.40041 0)
(0.350309 0.0730338 0)
(0.622562 0.104049 0)
(0.927045 0.00847733 0)
(1.01453 -0.116273 0)
(1.15339 -0.136107 0)
(1.04153 -0.0666504 0)
(0.959615 -0.0817428 0)
(0.959496 -0.0806382 0)
(1.13635 -0.203252 0)
(1.32907 -0.48899 0)
(1.35008 -0.782741 0)
(1.40089 -0.770267 0)
(1.37397 -0.780487 0)
(-0.0158853 1.64417 0)
(-0.536274 0.551938 0)
(-0.538712 0.90625 0)
(-0.426388 1.17876 0)
(-0.304175 1.39644 0)
(-0.120259 1.28593 0)
(0.370458 0.0806813 0)
(0.414835 0.0624435 0)
(0.585135 0.0246525 0)
(0.749381 0.023826 0)
(0.795575 0.0606555 0)
(0.798435 0.0234988 0)
(0.891202 -0.0712401 0)
(0.972037 -0.147774 0)
(1.02718 -0.406777 0)
(1.12366 -0.736311 0)
(1.36911 -0.799084 0)
(1.32717 -0.943998 0)
(1.10477 -0.518553 0)
(-0.356332 2.21709 0)
(-0.551388 0.553295 0)
(-0.610999 0.883867 0)
(-0.428012 1.15207 0)
(-0.268672 1.30201 0)
(-0.0830075 1.13558 0)
(0.470344 -0.121983 0)
(0.390368 -0.0650133 0)
(0.443649 -0.0595114 0)
(0.531487 -0.0467246 0)
(0.623958 0.003237 0)
(0.707848 -0.138769 0)
(0.789263 -0.287613 0)
(0.851248 -0.433247 0)
(0.949017 -0.638722 0)
(1.19165 -0.770075 0)
(1.31087 -0.852796 0)
(1.13477 -0.987402 0)
(0.772963 0.303839 0)
(-0.469687 2.96257 0)
(-0.627576 0.535271 0)
(-0.686924 0.762196 0)
(-0.407674 1.03728 0)
(-0.199163 1.18876 0)
(-0.0314954 0.893131 0)
(0.814989 -0.133515 0)
(0.770376 -0.119747 0)
(0.667243 -0.177489 0)
(0.646193 -0.156426 0)
(0.67841 -0.16587 0)
(0.743139 -0.332764 0)
(0.811083 -0.450428 0)
(0.891367 -0.549023 0)
(1.06644 -0.658184 0)
(1.25631 -0.740979 0)
(1.18735 -0.990181 0)
(0.958689 -0.828107 0)
(0.263509 0.945356 0)
(-0.110256 3.1505 0)
(-0.58928 0.748351 0)
(-0.577151 0.639206 0)
(-0.423301 0.866438 0)
(-0.127263 1.00367 0)
(0.00668286 0.760439 0)
(1.02652 -0.00476563 0)
(1.04557 -0.0577952 0)
(0.995006 -0.122974 0)
(0.903451 -0.175451 0)
(0.854141 -0.247857 0)
(0.863174 -0.360425 0)
(0.903865 -0.460288 0)
(0.996749 -0.52906 0)
(1.15447 -0.643066 0)
(1.16252 -0.876096 0)
(1.0498 -0.946527 0)
(0.701994 -0.431704 0)
(-0.0608255 1.2303 0)
(0.308271 3.22912 0)
(-0.539012 0.965659 0)
(-0.6135 0.405593 0)
(-0.43385 0.806196 0)
(-0.0774333 0.800377 0)
(0.0416996 0.743767 0)
(1.02383 -0.0423663 0)
(1.0828 -0.0756236 0)
(1.07036 -0.106431 0)
(1.02826 -0.137239 0)
(0.973262 -0.231912 0)
(0.967395 -0.36017 0)
(0.990845 -0.478284 0)
(1.09793 -0.571497 0)
(1.12561 -0.774433 0)
(1.0732 -0.904479 0)
(0.810546 -0.799547 0)
(0.198568 0.180039 0)
(-0.284812 1.33963 0)
(0.421934 3.16603 0)
(-0.0827648 1.25985 0)
(-0.499935 0.385006 0)
(-0.160836 0.526061 0)
(-0.168184 0.776419 0)
(0.0437953 0.721426 0)
(0.875271 -0.0705449 0)
(1.03089 -0.0480722 0)
(1.02377 -0.0606985 0)
(0.997656 -0.119915 0)
(0.999207 -0.200161 0)
(1.02024 -0.35225 0)
(1.12221 -0.496963 0)
(1.14228 -0.696139 0)
(1.10371 -0.837703 0)
(0.917647 -0.80742 0)
(0.102649 -0.124231 0)
(-0.242139 0.53486 0)
(-0.354885 1.18829 0)
(0.391543 2.99198 0)
(0.31723 1.69154 0)
(-0.0895537 0.517207 0)
(-0.181979 0.4162 0)
(-0.234779 0.788454 0)
(-0.00845837 0.707482 0)
(0.39915 -0.239282 0)
(0.59412 -0.189875 0)
(0.747753 -0.0950255 0)
(0.833051 -0.11325 0)
(0.969369 -0.187579 0)
(1.14227 -0.345377 0)
(1.15108 -0.547403 0)
(1.07153 -0.715844 0)
(0.871204 -0.696434 0)
(0.0225175 -0.0755837 0)
(-0.417127 0.304501 0)
(-0.45866 0.487239 0)
(-0.496413 0.923867 0)
(0.223326 2.54829 0)
(0.44382 1.7587 0)
(0.312917 0.707538 0)
(-0.266275 0.368071 0)
(-0.117136 0.657926 0)
(-0.0606019 0.685081 0)
(0.214022 -0.421161 0)
(0.316294 -0.373295 0)
(0.477101 -0.24012 0)
(0.609336 -0.117474 0)
(0.8006 -0.087187 0)
(0.963867 -0.315456 0)
(0.919252 -0.566926 0)
(0.645548 -0.489721 0)
(-0.191278 0.108026 0)
(-0.464823 0.280295 0)
(-0.523419 0.353955 0)
(-0.541528 0.448189 0)
(-0.571261 0.680847 0)
(-0.00679526 1.80777 0)
(0.507368 1.6452 0)
(0.481174 1.02103 0)
(-0.274603 0.530924 0)
(-0.036121 0.54553 0)
(-0.0753036 0.684204 0)
(0.621001 0.0396223 0)
(0.483225 -0.281966 0)
(0.508668 -0.46754 0)
(0.63757 -0.410698 0)
(0.691518 -0.405934 0)
(0.616995 -0.370504 0)
(0.308961 0.135426 0)
(-0.507673 0.194922 0)
(-0.502389 0.225132 0)
(-0.525516 0.291253 0)
(-0.520158 0.355685 0)
(-0.517078 0.434664 0)
(-0.499234 0.565884 0)
(-0.139223 1.20863 0)
(0.437943 1.52004 0)
(0.434836 1.23181 0)
(-0.00840311 0.726654 0)
(0.0203611 0.547602 0)
(-0.0868989 0.72003 0)
(0.712604 -0.607853 0)
(0.700369 -0.397678 0)
(0.497961 -0.186776 0)
(0.381524 0.120163 0)
(-0.204659 0.418951 0)
(-0.671227 0.219864 0)
(-0.639607 -0.0273397 0)
(-0.554588 0.111126 0)
(-0.516145 0.210704 0)
(-0.502575 0.275373 0)
(-0.460813 0.331107 0)
(-0.452465 0.408845 0)
(-0.40688 0.495308 0)
(-0.214025 0.850606 0)
(0.138639 1.31122 0)
(0.353437 1.27733 0)
(0.196655 0.895442 0)
(0.0604083 0.597376 0)
(-0.0611841 0.769517 0)
(-0.15802 -0.423729 0)
(-0.198499 -0.485578 0)
(-0.370827 -0.401285 0)
(-0.449583 -0.278839 0)
(-0.353358 -0.125408 0)
(-0.300391 -0.143368 0)
(-0.334439 0.00714203 0)
(-0.438693 0.107286 0)
(-0.438194 0.187839 0)
(-0.433766 0.243568 0)
(-0.386765 0.308432 0)
(-0.392104 0.379064 0)
(-0.338948 0.435843 0)
(-0.226972 0.664669 0)
(-0.101217 1.03822 0)
(0.306414 1.22732 0)
(0.156143 0.943597 0)
(0.0189925 0.66835 0)
(-0.021701 0.797535 0)
(-0.224854 -0.259354 0)
(-0.319945 -0.1731 0)
(-0.387798 -0.0828818 0)
(-0.4219 0.0581643 0)
(-0.433623 0.116899 0)
(-0.443578 0.105945 0)
(-0.449237 0.0838831 0)
(-0.423491 0.125726 0)
(-0.385557 0.177239 0)
(-0.37882 0.228977 0)
(-0.325637 0.287835 0)
(-0.330026 0.349546 0)
(-0.274735 0.386667 0)
(-0.187351 0.577505 0)
(-0.1638 0.819077 0)
(0.263609 1.05631 0)
(0.100772 1.06524 0)
(-0.0413688 0.735914 0)
(-0.00487366 0.805998 0)
(-0.255025 -0.307135 0)
(-0.318261 -0.268169 0)
(-0.370021 -0.210228 0)
(-0.37722 -0.153462 0)
(-0.349865 -0.0837014 0)
(-0.324018 -0.0388236 0)
(-0.333369 0.0386207 0)
(-0.346731 0.103054 0)
(-0.329805 0.159108 0)
(-0.327243 0.210803 0)
(-0.272357 0.261617 0)
(-0.273926 0.317637 0)
(-0.208727 0.341343 0)
(-0.132923 0.51736 0)
(-0.123121 0.643515 0)
(0.283405 0.929754 0)
(0.0179142 1.21817 0)
(-0.029637 0.729222 0)
(-0.0165266 0.810388 0)
(-0.255107 -0.170676 0)
(-0.29385 -0.138572 0)
(-0.314521 -0.0867831 0)
(-0.320904 -0.0293362 0)
(-0.325524 0.0135401 0)
(-0.329084 0.0368818 0)
(-0.322783 0.0621373 0)
(-0.310151 0.0994703 0)
(-0.28571 0.141826 0)
(-0.280557 0.190782 0)
(-0.225252 0.231636 0)
(-0.228512 0.281121 0)
(-0.149087 0.298954 0)
(-0.0894261 0.455037 0)
(-0.0519051 0.485827 0)
(0.311189 0.873797 0)
(-0.117092 1.3801 0)
(0.0232978 0.689601 0)
(-0.0338115 0.839992 0)
(-0.233428 -0.187563 0)
(-0.258249 -0.159888 0)
(-0.280579 -0.123938 0)
(-0.284176 -0.0912917 0)
(-0.284433 -0.0433873 0)
(-0.275463 -0.00264849 0)
(-0.272655 0.0442816 0)
(-0.26829 0.0888992 0)
(-0.245929 0.124977 0)
(-0.241125 0.169319 0)
(-0.183666 0.20174 0)
(-0.193371 0.243328 0)
(-0.0999518 0.253599 0)
(-0.0676318 0.387799 0)
(0.024873 0.339637 0)
(0.301569 0.871759 0)
(-0.132113 1.4787 0)
(0.0483807 0.675455 0)
(-0.0460146 0.907575 0)
)
;

boundaryField
{
    leftWall
    {
        type            fixedValue;
        value           nonuniform 0();
    }
    rightWall
    {
        type            fixedValue;
        value           uniform (0 0 0);
    }
    lowerWall
    {
        type            fixedValue;
        value           uniform (0 0 0);
    }
    atmosphere
    {
        type            fluxCorrectedVelocity;
        value           nonuniform 0();
    }
    defaultFaces
    {
        type            empty;
    }
    procBoundary1to0
    {
        type            processor;
        value           nonuniform List<vector> 
26
(
(0.137768 0.0288154 0)
(0.174721 0.0879001 0)
(0.179034 0.126432 0)
(0.127851 0.172674 0)
(0.127692 0.212617 0)
(0.148009 0.270877 0)
(0.2111 0.307116 0)
(0.230178 0.371761 0)
(0.241059 0.362046 0)
(0.221135 0.277051 0)
(0.335427 0.226731 0)
(0.62065 0.333428 0)
(0.742718 0.273725 0)
(0.669475 0.174875 0)
(0.44421 0.122736 0)
(0.153583 0.17823 0)
(0.185816 0.170434 0)
(0.185816 0.170434 0)
(0.180016 -0.213745 0)
(0.841963 0.39494 0)
(0.406254 -0.603142 0)
(0.0610789 -0.115938 0)
(-0.0331427 -0.248494 0)
(-0.14731 -0.222651 0)
(-0.167296 -0.169852 0)
(-0.178358 -0.213858 0)
)
;
    }
    procBoundary1to3
    {
        type            processor;
        value           nonuniform List<vector> 
23
(
(-0.17379 -0.169623 0)
(-0.18007 -0.166539 0)
(-0.187192 -0.157333 0)
(-0.195382 -0.153186 0)
(-0.212744 -0.143138 0)
(-0.228292 -0.12594 0)
(-0.236372 -0.0979829 0)
(-0.245017 -0.0625561 0)
(-0.252566 -0.0231748 0)
(-0.246633 0.00629598 0)
(-0.241277 0.03971 0)
(-0.234076 0.0783939 0)
(-0.210743 0.108332 0)
(-0.209107 0.147356 0)
(-0.147306 0.174051 0)
(-0.170214 0.208098 0)
(-0.0572203 0.213863 0)
(-0.0780652 0.312453 0)
(0.0819324 0.21927 0)
(0.197259 0.920921 0)
(-0.0312725 1.53339 0)
(0.0687658 0.677069 0)
(-0.04709 0.972507 0)
)
;
    }
}


// ************************************************************************* //
