/*--------------------------------*- C++ -*----------------------------------*\
| =========                 |                                                 |
| \\      /  F ield         | OpenFOAM: The Open Source CFD Toolbox           |
|  \\    /   O peration     | Version:  2.4.0                                 |
|   \\  /    A nd           | Web:      www.OpenFOAM.org                      |
|    \\/     M anipulation  |                                                 |
\*---------------------------------------------------------------------------*/
FoamFile
{
    version     2.0;
    format      ascii;
    class       volVectorField;
    location    "0.4";
    object      U.mercury;
}
// * * * * * * * * * * * * * * * * * * * * * * * * * * * * * * * * * * * * * //

dimensions      [0 1 -1 0 0 0 0];

internalField   nonuniform List<vector> 
559
(
(0.0178019 0.0119859 0)
(0.0246501 0.0611435 0)
(0.0730414 0.119419 0)
(0.036837 0.169412 0)
(0.0605057 0.207432 0)
(0.0368375 0.267509 0)
(0.0732308 0.298207 0)
(0.0862567 0.40688 0)
(-0.536833 -0.252523 0)
(-0.857138 -0.338354 0)
(-0.960018 -0.41303 0)
(-0.966004 -0.474782 0)
(-0.879837 -0.554113 0)
(-0.708444 -0.70174 0)
(-0.520131 -0.77389 0)
(-0.359119 -0.787576 0)
(-0.241768 -0.775446 0)
(-0.0392633 -0.770002 0)
(0.19704 -0.685489 0)
(0.393051 -0.708349 0)
(0.636091 -0.752482 0)
(0.863375 -0.7231 0)
(1.08301 -0.646428 0)
(1.16372 -0.585592 0)
(1.16404 -0.560926 0)
(1.0876 -0.549096 0)
(0.810023 -0.514381 0)
(-0.467968 -0.187686 0)
(-0.776807 -0.156384 0)
(-0.912794 -0.136946 0)
(-0.950678 -0.0441163 0)
(-0.967976 -0.0835497 0)
(-0.905286 -0.129314 0)
(-0.745942 -0.175583 0)
(-0.492833 -0.299319 0)
(0.259631 -0.622632 0)
(0.564474 -0.939706 0)
(0.589118 -1.00429 0)
(0.702364 -0.960854 0)
(0.854009 -0.914001 0)
(1.06537 -0.885255 0)
(1.20008 -0.654023 0)
(1.2885 -0.46434 0)
(1.24942 -0.38896 0)
(1.17542 -0.348062 0)
(0.860063 -0.321762 0)
(-0.313112 -0.0143697 0)
(-0.555349 0.186334 0)
(-0.743195 0.176005 0)
(-0.806513 -0.0259098 0)
(-0.768886 -0.124027 0)
(-0.661913 -0.171223 0)
(-0.547245 -0.253482 0)
(-0.242739 -0.426951 0)
(0.381523 -0.793038 0)
(0.676386 -0.972058 0)
(0.721863 -1.16503 0)
(0.846535 -1.24157 0)
(1.0033 -1.18745 0)
(1.11029 -1.10054 0)
(1.25164 -0.891933 0)
(1.25819 -0.676759 0)
(1.2474 -0.584409 0)
(1.16798 -0.544864 0)
(0.902796 -0.360794 0)
(-0.207408 0.210328 0)
(-0.422012 0.328855 0)
(-0.629541 0.254696 0)
(-0.612243 0.0887716 0)
(-0.42584 -0.0130344 0)
(-0.344554 -0.196703 0)
(-0.307983 -0.255777 0)
(-0.178093 -0.294135 0)
(0.612886 -0.685628 0)
(0.764874 -0.924844 0)
(0.818414 -1.15009 0)
(0.921725 -1.25755 0)
(1.07454 -1.24955 0)
(1.16804 -1.21133 0)
(1.22115 -1.04871 0)
(1.17543 -0.949869 0)
(1.13721 -0.807959 0)
(1.08024 -0.654929 0)
(0.860439 -0.361255 0)
(-0.152136 0.30326 0)
(-0.315728 0.409628 0)
(-0.439712 0.385671 0)
(-0.20099 0.0833992 0)
(-0.108097 -0.239561 0)
(-0.0360627 -0.388773 0)
(0.137195 -0.55142 0)
(0.199226 -0.637874 0)
(0.83283 -0.828209 0)
(0.839857 -0.966262 0)
(0.871948 -1.18061 0)
(0.952383 -1.27956 0)
(1.08223 -1.27611 0)
(1.15235 -1.25241 0)
(1.17888 -1.19307 0)
(1.16629 -1.10499 0)
(1.02775 -0.756666 0)
(0.715446 -0.235844 0)
(0.466282 0.0604222 0)
(-0.0999091 0.413266 0)
(-0.139538 0.434266 0)
(-0.195147 0.406213 0)
(0.205365 -0.0627215 0)
(0.0782811 -0.331272 0)
(0.257363 -0.057444 0)
(0.491999 -0.112418 0)
(0.0336823 -0.121414 0)
(0.9961 -0.78464 0)
(0.878102 -0.925326 0)
(0.930922 -1.1726 0)
(0.993494 -1.26263 0)
(1.09364 -1.27899 0)
(1.14537 -1.26783 0)
(1.14466 -1.22531 0)
(1.13777 -1.12674 0)
(0.815192 -0.302297 0)
(0.33967 0.38848 0)
(0.168219 0.560522 0)
(-0.0206474 0.465281 0)
(0.0689876 0.490116 0)
(-0.022771 0.371347 0)
(0.220256 0.0614248 0)
(0.277701 -0.0773114 0)
(0.193437 -0.395691 0)
(0.166767 -0.389401 0)
(0.343339 -0.533346 0)
(0.911252 -0.621459 0)
(0.878924 -0.893289 0)
(0.955423 -1.16604 0)
(1.01584 -1.26354 0)
(1.09315 -1.28054 0)
(1.14892 -1.28542 0)
(1.14135 -1.25723 0)
(1.07589 -1.01154 0)
(0.595719 0.201976 0)
(0.211723 0.603759 0)
(0.0909059 0.69235 0)
(0.269398 -0.103731 0)
(0.236861 0.230022 0)
(0.294319 0.269763 0)
(0.468644 -0.0600696 0)
(0.409369 -0.131871 0)
(0.511229 -0.0158617 0)
(0.702975 -0.0584278 0)
(1.05587 -0.0648268 0)
(0.84298 -0.378971 0)
(0.894535 -0.878735 0)
(0.971189 -1.12358 0)
(1.03472 -1.23648 0)
(1.09981 -1.25654 0)
(1.14765 -1.2795 0)
(1.13507 -1.24118 0)
(0.710757 -0.118783 0)
(0.340165 0.612293 0)
(0.158659 0.690447 0)
(0.051198 0.715556 0)
(0.267669 0.413763 0)
(0.264849 0.32452 0)
(0.312815 0.175903 0)
(0.474668 0.148738 0)
(0.594801 0.0863739 0)
(0.679137 0.00143794 0)
(0.618299 -0.0217815 0)
(0.326216 -0.0763721 0)
(0.311505 0.341539 0)
(0.191552 0.221231 0)
(0.103291 -0.0335755 0)
(0.211005 -0.22951 0)
(0.309088 0.275792 0)
(0.311537 0.199046 0)
(0.355915 0.127175 0)
(0.336638 -0.00954793 0)
(0.332363 0.156175 0)
(0.342425 0.105263 0)
(0.372853 0.0664215 0)
(0.377286 -0.0108944 0)
(0.471457 0.137144 0)
(0.477763 0.106993 0)
(0.472964 0.0550317 0)
(0.494272 0.0104673 0)
(0.606258 0.0982955 0)
(0.62901 0.0951041 0)
(0.65005 0.061471 0)
(0.665653 0.0381841 0)
(0.687683 0.000925572 0)
(0.707477 0.010179 0)
(0.735838 -0.0108968 0)
(0.759406 -0.025543 0)
(0.68681 -0.109375 0)
(0.721012 -0.111128 0)
(0.756833 -0.145288 0)
(0.786439 -0.18625 0)
(0.379594 -0.188887 0)
(0.434458 -0.207779 0)
(0.513246 -0.233752 0)
(0.580184 -0.334418 0)
(0.229177 -0.339883 0)
(0.266548 -0.3952 0)
(0.300199 -0.411481 0)
(0.324268 -0.46778 0)
(0.214285 -0.610577 0)
(0.235559 -0.635535 0)
(0.243295 -0.627325 0)
(0.264958 -0.631473 0)
(0.763854 0.287772 0)
(0.729569 0.171453 0)
(0.702411 0.0375721 0)
(0.688512 -0.025422 0)
(0.497411 -0.631631 0)
(0.569132 -0.665112 0)
(0.616797 -0.656897 0)
(0.645159 -0.656632 0)
(-0.00826288 -0.180938 0)
(-0.03332 -0.240623 0)
(-0.0679018 -0.294244 0)
(-0.101289 -0.357023 0)
(-0.0481723 -0.270846 0)
(-0.070793 -0.295434 0)
(-0.10655 -0.285201 0)
(-0.146438 -0.295535 0)
(-0.153307 -0.246858 0)
(-0.171471 -0.25999 0)
(-0.182093 -0.279039 0)
(-0.204832 -0.299539 0)
(-0.181669 -0.167106 0)
(-0.194846 -0.176924 0)
(-0.204349 -0.17887 0)
(-0.222177 -0.181258 0)
(-0.178379 -0.206265 0)
(-0.187657 -0.205541 0)
(-0.193388 -0.203887 0)
(-0.207286 -0.200455 0)
(0.264343 -0.139702 0)
(0.368148 -0.0733046 0)
(0.424019 -0.102656 0)
(0.440406 -0.167704 0)
(0.553528 -0.242473 0)
(0.625041 -0.377748 0)
(0.669909 -0.51251 0)
(0.764217 -0.496675 0)
(0.835604 -0.56994 0)
(0.9002 -0.863178 0)
(0.98756 -1.10521 0)
(1.0616 -1.22377 0)
(1.12363 -1.24523 0)
(1.11578 -1.22227 0)
(0.804909 -0.771019 0)
(0.143932 0.574718 0)
(0.145282 0.790542 0)
(0.0904798 0.797559 0)
(0.00229684 0.736878 0)
(0.32923 -0.145731 0)
(0.39266 -0.136932 0)
(0.539743 -0.169042 0)
(0.606334 -0.211795 0)
(0.632869 -0.252316 0)
(0.655692 -0.346853 0)
(0.713405 -0.482654 0)
(0.785364 -0.537108 0)
(0.844329 -0.673494 0)
(0.940294 -0.909653 0)
(1.02611 -1.09639 0)
(1.08736 -1.1561 0)
(1.12304 -1.14974 0)
(1.13432 -1.11629 0)
(0.373051 -0.222853 0)
(-0.0873116 0.720427 0)
(0.041655 0.814297 0)
(0.0292557 0.805942 0)
(-0.016047 0.742591 0)
(0.391235 -0.147647 0)
(0.428999 -0.216908 0)
(0.52875 -0.27123 0)
(0.60755 -0.307051 0)
(0.658864 -0.324882 0)
(0.690925 -0.37217 0)
(0.757767 -0.489998 0)
(0.809633 -0.5834 0)
(0.887461 -0.722204 0)
(0.974143 -0.916797 0)
(1.05543 -1.06158 0)
(1.10848 -1.0885 0)
(1.11457 -1.08689 0)
(1.07778 -1.07219 0)
(-0.0954898 0.306769 0)
(-0.145833 0.710622 0)
(-0.0487858 0.804628 0)
(0.00247457 0.795416 0)
(-0.00636326 0.733801 0)
(0.503284 -0.111416 0)
(0.500655 -0.237624 0)
(0.523466 -0.308173 0)
(0.575548 -0.338738 0)
(0.632231 -0.353656 0)
(0.688241 -0.434883 0)
(0.764877 -0.526364 0)
(0.832674 -0.598178 0)
(0.920012 -0.744334 0)
(1.02022 -0.917338 0)
(1.06953 -0.998918 0)
(1.08605 -0.989733 0)
(1.13995 -0.970934 0)
(0.977817 -0.514386 0)
(-0.152607 0.34892 0)
(-0.161978 0.552495 0)
(-0.12528 0.778601 0)
(-0.0128287 0.788472 0)
(0.0220611 0.721762 0)
(0.745111 -0.0281452 0)
(0.761846 -0.149115 0)
(0.711989 -0.260852 0)
(0.682 -0.325247 0)
(0.687294 -0.371945 0)
(0.739214 -0.45807 0)
(0.806149 -0.526364 0)
(0.885277 -0.601131 0)
(0.966863 -0.752269 0)
(1.04384 -0.903077 0)
(1.08635 -0.921296 0)
(1.09687 -0.909194 0)
(1.06042 -0.889956 0)
(0.311302 1.74322 0)
(-0.186953 0.42773 0)
(-0.178236 0.47466 0)
(-0.131224 0.739832 0)
(-0.0488474 0.769063 0)
(0.0326898 0.724057 0)
(0.851266 -0.0470204 0)
(0.930412 -0.0905211 0)
(0.926599 -0.158709 0)
(0.862566 -0.226854 0)
(0.828195 -0.308013 0)
(0.840801 -0.401905 0)
(0.885539 -0.46938 0)
(0.941641 -0.593138 0)
(1.00672 -0.755372 0)
(1.06659 -0.817676 0)
(1.08379 -0.801419 0)
(1.13111 -0.772734 0)
(0.914457 -0.380532 0)
(0.332456 3.03294 0)
(-0.205968 0.456091 0)
(-0.155492 0.317397 0)
(-0.0741038 0.582362 0)
(-0.065504 0.70449 0)
(0.0451715 0.722252 0)
(0.90127 -0.145034 0)
(0.964198 -0.122209 0)
(0.97166 -0.143458 0)
(0.946763 -0.166597 0)
(0.909999 -0.249867 0)
(0.916395 -0.363384 0)
(0.936596 -0.456664 0)
(0.979697 -0.591838 0)
(1.02628 -0.700963 0)
(1.05631 -0.719475 0)
(1.07152 -0.725658 0)
(0.982311 -0.680467 0)
(-0.163392 1.12002 0)
(0.418494 3.13832 0)
(-0.0594357 0.952515 0)
(-0.053471 0.187882 0)
(0.0468971 0.226069 0)
(-0.0732136 0.686998 0)
(0.0472702 0.706082 0)
(0.938213 -0.209044 0)
(0.971642 -0.161251 0)
(0.948083 -0.153913 0)
(0.922338 -0.172535 0)
(0.917983 -0.234718 0)
(0.925669 -0.338312 0)
(0.941471 -0.440849 0)
(0.988932 -0.581956 0)
(1.01808 -0.655567 0)
(0.985295 -0.672054 0)
(0.881304 -0.652886 0)
(-0.206891 0.453525 0)
(-0.324716 1.10826 0)
(0.396981 3.00434 0)
(0.311379 1.68159 0)
(-0.0232532 0.373881 0)
(0.0524013 0.284078 0)
(-0.0554519 0.677545 0)
(0.0257475 0.697896 0)
(0.419108 -0.533911 0)
(0.891602 -0.243092 0)
(0.885458 -0.225091 0)
(0.860832 -0.239721 0)
(0.864864 -0.281004 0)
(0.880478 -0.337766 0)
(0.915399 -0.454641 0)
(0.968519 -0.567004 0)
(0.936521 -0.631244 0)
(0.837992 -0.63493 0)
(-0.218689 0.153303 0)
(-0.45329 0.504336 0)
(-0.437234 0.934205 0)
(0.236643 2.61161 0)
(0.447236 1.79497 0)
(0.315959 0.712983 0)
(-0.0135022 0.416538 0)
(-0.0248353 0.61056 0)
(-0.0012999 0.67895 0)
(0.284407 -0.64949 0)
(0.554217 -0.394628 0)
(0.730615 -0.2602 0)
(0.784009 -0.276674 0)
(0.803226 -0.329084 0)
(0.8131 -0.452075 0)
(0.885928 -0.563588 0)
(0.833573 -0.664688 0)
(0.663152 -0.591803 0)
(-0.349888 0.184298 0)
(-0.496048 0.345592 0)
(-0.512813 0.456062 0)
(-0.494336 0.720103 0)
(0.0124358 1.75646 0)
(0.504349 1.62623 0)
(0.484626 1.03048 0)
(-0.103734 0.495306 0)
(0.0396503 0.539796 0)
(-0.0169146 0.674817 0)
(0.587683 -0.340314 0)
(0.474004 -0.815634 0)
(0.604951 -0.595724 0)
(0.684527 -0.548381 0)
(0.754315 -0.596027 0)
(0.72254 -0.676042 0)
(0.450125 -0.655895 0)
(-0.395978 0.0841224 0)
(-0.472336 0.196092 0)
(-0.509863 0.281073 0)
(-0.505125 0.350354 0)
(-0.498606 0.433887 0)
(-0.460078 0.576251 0)
(-0.118075 1.18957 0)
(0.429054 1.50232 0)
(0.433637 1.23049 0)
(-0.00536723 0.724724 0)
(0.101383 0.542973 0)
(-0.0141667 0.681125 0)
(0.712857 -0.609323 0)
(0.7019 -0.399044 0)
(0.53987 -0.277106 0)
(0.470477 -0.208728 0)
(-0.0333952 0.0511047 0)
(-0.622096 0.139306 0)
(-0.637475 -0.0300563 0)
(-0.546963 0.105757 0)
(-0.508725 0.204496 0)
(-0.495588 0.269452 0)
(-0.456108 0.327523 0)
(-0.446472 0.405747 0)
(-0.395393 0.495229 0)
(-0.200285 0.843306 0)
(0.149655 1.30565 0)
(0.354552 1.27024 0)
(0.197013 0.896303 0)
(0.146692 0.593182 0)
(0.00252491 0.7164 0)
(-0.157831 -0.423735 0)
(-0.198307 -0.485733 0)
(-0.370651 -0.402149 0)
(-0.449431 -0.280379 0)
(-0.353227 -0.126541 0)
(-0.300277 -0.143514 0)
(-0.334459 0.00694766 0)
(-0.438183 0.105542 0)
(-0.437213 0.185127 0)
(-0.432162 0.240782 0)
(-0.385389 0.306315 0)
(-0.390775 0.377277 0)
(-0.336706 0.434837 0)
(-0.221772 0.662953 0)
(-0.0888326 1.04056 0)
(0.307892 1.22311 0)
(0.156706 0.943622 0)
(0.151929 0.66613 0)
(0.024289 0.771703 0)
(-0.224681 -0.25935 0)
(-0.319767 -0.173111 0)
(-0.387635 -0.0829108 0)
(-0.421762 0.0581243 0)
(-0.433519 0.116839 0)
(-0.443501 0.105839 0)
(-0.449072 0.083668 0)
(-0.4231 0.124966 0)
(-0.385114 0.176106 0)
(-0.378406 0.227792 0)
(-0.325406 0.287023 0)
(-0.329849 0.348859 0)
(-0.274432 0.386152 0)
(-0.186578 0.576465 0)
(-0.16027 0.819394 0)
(0.264781 1.05602 0)
(0.101285 1.06443 0)
(0.116168 0.720912 0)
(0.0381631 0.810038 0)
(-0.254868 -0.307127 0)
(-0.318098 -0.268185 0)
(-0.369872 -0.210261 0)
(-0.377093 -0.153512 0)
(-0.349773 -0.0837634 0)
(-0.323962 -0.0388958 0)
(-0.333358 0.0385169 0)
(-0.346743 0.102847 0)
(-0.329794 0.158779 0)
(-0.327223 0.210452 0)
(-0.272356 0.261388 0)
(-0.273927 0.317442 0)
(-0.208713 0.341179 0)
(-0.132904 0.516868 0)
(-0.123038 0.643054 0)
(0.283355 0.929054 0)
(0.0183843 1.21712 0)
(0.0996963 0.720431 0)
(0.0362023 0.832274 0)
(-0.254969 -0.17067 0)
(-0.293707 -0.138587 0)
(-0.314386 -0.0868173 0)
(-0.320793 -0.0293854 0)
(-0.325439 0.0134785 0)
(-0.329035 0.0368128 0)
(-0.322764 0.062065 0)
(-0.31016 0.0993863 0)
(-0.285731 0.141729 0)
(-0.280583 0.190686 0)
(-0.225277 0.23157 0)
(-0.22853 0.281062 0)
(-0.149098 0.298902 0)
(-0.0894415 0.454891 0)
(-0.0520148 0.485568 0)
(0.311127 0.873241 0)
(-0.116668 1.37914 0)
(0.103277 0.683308 0)
(0.0208297 0.859023 0)
(-0.233309 -0.187561 0)
(-0.258121 -0.159903 0)
(-0.28046 -0.123966 0)
(-0.284073 -0.0913322 0)
(-0.284359 -0.043437 0)
(-0.275415 -0.00270281 0)
(-0.272636 0.0442266 0)
(-0.268293 0.088848 0)
(-0.245947 0.124929 0)
(-0.241149 0.169277 0)
(-0.183689 0.201704 0)
(-0.193391 0.243294 0)
(-0.0999668 0.253562 0)
(-0.0676453 0.387742 0)
(0.0248402 0.339535 0)
(0.30161 0.871484 0)
(-0.131933 1.47793 0)
(0.11493 0.659847 0)
(0.00728734 0.896467 0)
)
;

boundaryField
{
    leftWall
    {
        type            fixedValue;
        value           nonuniform 0();
    }
    rightWall
    {
        type            fixedValue;
        value           uniform (0 0 0);
    }
    lowerWall
    {
        type            fixedValue;
        value           uniform (0 0 0);
    }
    atmosphere
    {
        type            fluxCorrectedVelocity;
        value           nonuniform 0();
    }
    defaultFaces
    {
        type            empty;
    }
    procBoundary1to0
    {
        type            processor;
        value           nonuniform List<vector> 
26
(
(0.137767 0.0288154 0)
(0.17472 0.0879 0)
(0.179034 0.126432 0)
(0.12785 0.172674 0)
(0.127691 0.212617 0)
(0.148009 0.270877 0)
(0.211101 0.307111 0)
(0.23027 0.371352 0)
(0.242025 0.35486 0)
(0.226533 0.24974 0)
(0.321061 0.11995 0)
(0.482777 0.0773371 0)
(0.60327 0.00431889 0)
(0.696902 0.0692835 0)
(0.442675 0.061228 0)
(0.175522 -0.0648399 0)
(0.180865 -0.253031 0)
(0.180865 -0.253031 0)
(0.185697 -0.595126 0)
(0.837163 0.373979 0)
(0.406231 -0.603132 0)
(0.061062 -0.115914 0)
(-0.0331527 -0.248469 0)
(-0.147312 -0.222633 0)
(-0.167292 -0.16983 0)
(-0.178348 -0.213839 0)
)
;
    }
    procBoundary1to3
    {
        type            processor;
        value           nonuniform List<vector> 
23
(
(-0.173753 -0.169604 0)
(-0.180013 -0.166526 0)
(-0.187122 -0.157321 0)
(-0.195296 -0.153181 0)
(-0.212636 -0.143135 0)
(-0.228176 -0.125954 0)
(-0.236259 -0.098003 0)
(-0.244925 -0.0625884 0)
(-0.252494 -0.0232135 0)
(-0.246589 0.00625386 0)
(-0.241255 0.0396648 0)
(-0.234076 0.0783549 0)
(-0.210757 0.108292 0)
(-0.209128 0.147324 0)
(-0.147329 0.174016 0)
(-0.170236 0.208064 0)
(-0.0572401 0.213822 0)
(-0.0780822 0.312404 0)
(0.0819151 0.219204 0)
(0.197286 0.920799 0)
(-0.0312833 1.53272 0)
(0.125025 0.655422 0)
(0.00191826 0.940679 0)
)
;
    }
}


// ************************************************************************* //
