/*--------------------------------*- C++ -*----------------------------------*\
| =========                 |                                                 |
| \\      /  F ield         | OpenFOAM: The Open Source CFD Toolbox           |
|  \\    /   O peration     | Version:  2.4.0                                 |
|   \\  /    A nd           | Web:      www.OpenFOAM.org                      |
|    \\/     M anipulation  |                                                 |
\*---------------------------------------------------------------------------*/
FoamFile
{
    version     2.0;
    format      ascii;
    class       volVectorField;
    location    "0.4";
    object      U.water;
}
// * * * * * * * * * * * * * * * * * * * * * * * * * * * * * * * * * * * * * //

dimensions      [0 1 -1 0 0 0 0];

internalField   nonuniform List<vector> 
559
(
(0.017802 0.0119868 0)
(0.0246501 0.0611535 0)
(0.0730393 0.119491 0)
(0.0368173 0.169752 0)
(0.0604169 0.208498 0)
(0.0366571 0.273235 0)
(0.0725233 0.310104 0)
(0.0862745 0.448553 0)
(-0.190847 0.106645 0)
(-0.509062 0.0848018 0)
(-0.828465 0.0430033 0)
(-1.04752 0.00298155 0)
(-1.133 -0.0421345 0)
(-1.12786 -0.105456 0)
(-0.976157 -0.276801 0)
(-0.679931 -0.429167 0)
(-0.45805 -0.531549 0)
(-0.197707 -0.580862 0)
(0.035917 -0.47721 0)
(0.270127 -0.479928 0)
(0.585152 -0.520537 0)
(0.890473 -0.49638 0)
(1.1503 -0.432245 0)
(1.21452 -0.390489 0)
(1.17368 -0.36632 0)
(1.02214 -0.347958 0)
(0.721112 -0.290456 0)
(-0.144753 0.16562 0)
(-0.447702 0.156833 0)
(-0.75512 0.178974 0)
(-0.910517 0.131221 0)
(-0.959881 0.0539317 0)
(-0.960101 0.00791386 0)
(-0.864178 -0.0155126 0)
(-0.770068 -0.0101942 0)
(-0.682126 0.0308456 0)
(-0.290557 -0.113989 0)
(0.249447 -0.49376 0)
(0.587334 -0.660951 0)
(0.796923 -0.618507 0)
(1.06377 -0.586865 0)
(1.24566 -0.375114 0)
(1.31231 -0.204519 0)
(1.25971 -0.137831 0)
(1.12573 -0.0800892 0)
(0.763099 0.00551246 0)
(-0.10852 0.284307 0)
(-0.397905 0.307097 0)
(-0.650169 0.303324 0)
(-0.766499 0.106567 0)
(-0.776417 -0.00387696 0)
(-0.69688 -0.058832 0)
(-0.611392 -0.138443 0)
(-0.512428 -0.186108 0)
(-0.503737 -0.332604 0)
(-0.097293 -0.536789 0)
(0.278815 -0.669703 0)
(0.659489 -0.749998 0)
(0.945272 -0.854482 0)
(1.11962 -0.815032 0)
(1.27717 -0.600212 0)
(1.29149 -0.406096 0)
(1.24037 -0.274618 0)
(0.975253 0.00589088 0)
(0.536559 0.376141 0)
(-0.0931868 0.412297 0)
(-0.317887 0.393187 0)
(-0.545069 0.348176 0)
(-0.584136 0.1678 0)
(-0.416 0.0430297 0)
(-0.348082 -0.150893 0)
(-0.316997 -0.211258 0)
(-0.18468 -0.200381 0)
(-0.113939 -0.199995 0)
(0.172706 -0.447087 0)
(0.530623 -0.7853 0)
(0.781849 -0.880351 0)
(1.05868 -0.84329 0)
(1.20976 -0.780535 0)
(1.31365 -0.605188 0)
(1.24204 -0.372523 0)
(1.03962 0.00534682 0)
(0.484619 0.448713 0)
(0.146116 0.786953 0)
(-0.0620515 0.457298 0)
(-0.212255 0.462064 0)
(-0.357173 0.447745 0)
(-0.184794 0.124522 0)
(-0.101675 -0.217341 0)
(-0.0283067 -0.37552 0)
(0.163398 -0.551103 0)
(0.259278 -0.665338 0)
(0.302737 -0.586417 0)
(0.452594 -0.673366 0)
(0.659555 -0.864643 0)
(0.858431 -0.990355 0)
(1.10114 -0.9702 0)
(1.21243 -0.860318 0)
(1.32331 -0.536835 0)
(1.1942 -0.0262827 0)
(0.67936 0.447335 0)
(0.153996 0.726808 0)
(0.0178092 0.911321 0)
(-0.0200418 0.513728 0)
(-0.0364311 0.475218 0)
(-0.115395 0.430231 0)
(0.219028 -0.0507059 0)
(0.0807088 -0.322954 0)
(0.259369 -0.0530137 0)
(0.492546 -0.111913 0)
(0.139554 -0.0282456 0)
(0.201005 -0.346316 0)
(0.770668 -0.874945 0)
(0.849298 -0.955219 0)
(0.95801 -1.0383 0)
(1.17131 -1.02901 0)
(1.21554 -0.906929 0)
(1.23386 -0.526882 0)
(1.05584 0.185445 0)
(0.454124 0.675194 0)
(0.0340731 0.907391 0)
(0.0129538 0.951259 0)
(0.0395099 0.494789 0)
(0.170537 0.500764 0)
(0.0477915 0.374179 0)
(0.251763 0.0479927 0)
(0.278637 -0.0777923 0)
(0.196562 -0.392736 0)
(0.16653 -0.388269 0)
(0.467193 -0.366178 0)
(0.264901 -0.714664 0)
(0.858421 -0.937583 0)
(0.978925 -1.07188 0)
(1.07106 -1.10752 0)
(1.20606 -1.1519 0)
(1.24437 -1.10045 0)
(1.07826 -0.539846 0)
(0.761784 0.431592 0)
(0.301903 0.867558 0)
(0.00481319 0.995625 0)
(0.0244416 0.946203 0)
(0.162882 0.439046 0)
(0.307156 0.481302 0)
(0.341866 0.236283 0)
(0.473158 -0.0583254 0)
(0.408888 -0.128974 0)
(0.510588 -0.0115279 0)
(0.724209 -0.0351047 0)
(1.1109 -0.0315662 0)
(0.951148 -0.366683 0)
(0.950704 -0.911305 0)
(1.05128 -1.09177 0)
(1.12392 -1.13564 0)
(1.21269 -1.24657 0)
(1.23929 -1.24371 0)
(0.650061 -0.195522 0)
(0.379138 0.739548 0)
(0.112308 1.00185 0)
(-0.0133214 1.02981 0)
(0.0171604 0.909477 0)
(0.377386 0.532729 0)
(0.257058 0.408799 0)
(0.332736 0.300245 0)
(0.641056 0.384674 0)
(0.845999 0.303322 0)
(0.785765 0.180019 0)
(0.571639 0.0263697 0)
(0.328535 -0.141018 0)
(0.360658 0.40731 0)
(0.070876 0.227292 0)
(0.0179797 -0.108183 0)
(0.0946761 -0.220526 0)
(0.361193 0.264296 0)
(0.371758 0.229345 0)
(0.391188 0.178294 0)
(0.320345 0.0672549 0)
(0.364547 0.23926 0)
(0.376606 0.174982 0)
(0.391875 0.134926 0)
(0.373437 0.0655855 0)
(0.599098 0.298941 0)
(0.577832 0.208362 0)
(0.555062 0.124993 0)
(0.546783 0.0730295 0)
(0.897214 0.270524 0)
(0.939359 0.235453 0)
(0.943389 0.173067 0)
(0.915779 0.116282 0)
(0.861289 0.161294 0)
(0.926889 0.154599 0)
(0.976251 0.112191 0)
(1.02087 0.0812774 0)
(0.642651 -0.015994 0)
(0.732657 -0.0051123 0)
(0.808114 -0.0331308 0)
(0.872122 -0.0551063 0)
(0.404529 -0.246041 0)
(0.451168 -0.239679 0)
(0.528021 -0.24184 0)
(0.598526 -0.325039 0)
(0.214621 -0.421228 0)
(0.248884 -0.488796 0)
(0.298578 -0.4896 0)
(0.361059 -0.544812 0)
(0.215624 -0.610005 0)
(0.240982 -0.635068 0)
(0.25443 -0.62613 0)
(0.301273 -0.628054 0)
(0.763861 0.286036 0)
(0.729588 0.169617 0)
(0.70191 0.0351133 0)
(0.688501 -0.0272687 0)
(0.497411 -0.631637 0)
(0.569132 -0.665141 0)
(0.616797 -0.657031 0)
(0.645159 -0.656632 0)
(-0.00826286 -0.180938 0)
(-0.03332 -0.240623 0)
(-0.0679018 -0.294244 0)
(-0.101289 -0.357023 0)
(-0.0481723 -0.270846 0)
(-0.070793 -0.295434 0)
(-0.10655 -0.285201 0)
(-0.146438 -0.295535 0)
(-0.153307 -0.246858 0)
(-0.171471 -0.25999 0)
(-0.182093 -0.279038 0)
(-0.204831 -0.299539 0)
(-0.181669 -0.167106 0)
(-0.194846 -0.176924 0)
(-0.204349 -0.17887 0)
(-0.222177 -0.181258 0)
(-0.178379 -0.206265 0)
(-0.187657 -0.205541 0)
(-0.193388 -0.203887 0)
(-0.207286 -0.200455 0)
(0.251507 -0.000963223 0)
(0.500109 0.194583 0)
(0.712291 0.192971 0)
(0.699347 -0.00494847 0)
(0.696506 -0.108308 0)
(0.794994 -0.186524 0)
(0.866141 -0.346347 0)
(0.906179 -0.411941 0)
(0.912974 -0.537327 0)
(1.0394 -0.885022 0)
(1.10724 -1.0743 0)
(1.15178 -1.18543 0)
(1.2068 -1.30095 0)
(1.14036 -1.24143 0)
(0.143937 0.219337 0)
(0.00404419 0.790429 0)
(-0.0590079 1.05909 0)
(-0.0541059 1.06119 0)
(-0.0305397 0.904637 0)
(0.319037 -0.0184575 0)
(0.444358 0.027711 0)
(0.682247 -0.0116011 0)
(0.81166 -0.120391 0)
(0.84816 -0.15743 0)
(0.856904 -0.213995 0)
(0.857088 -0.371001 0)
(0.87858 -0.455471 0)
(0.967322 -0.602245 0)
(1.08294 -0.868472 0)
(1.14202 -1.08524 0)
(1.15824 -1.22153 0)
(1.18829 -1.31181 0)
(0.989417 -0.979392 0)
(-0.108496 0.342594 0)
(-0.199213 0.798966 0)
(-0.123686 1.01304 0)
(-0.0895914 1.03249 0)
(-0.0405002 0.8692 0)
(0.3797 -0.0471281 0)
(0.422833 -0.0821986 0)
(0.542622 -0.117048 0)
(0.677944 -0.160099 0)
(0.758909 -0.192831 0)
(0.809924 -0.256547 0)
(0.861084 -0.377231 0)
(0.902268 -0.465044 0)
(1.00298 -0.637284 0)
(1.08957 -0.88691 0)
(1.12622 -1.09316 0)
(1.15656 -1.21863 0)
(1.17796 -1.2518 0)
(0.609283 -0.253941 0)
(-0.177345 0.374838 0)
(-0.222521 0.768733 0)
(-0.16176 0.932919 0)
(-0.0947673 0.984755 0)
(-0.0231899 0.826302 0)
(0.50038 -0.0345357 0)
(0.466688 -0.1445 0)
(0.499512 -0.196646 0)
(0.581226 -0.219742 0)
(0.663213 -0.225786 0)
(0.745693 -0.298667 0)
(0.824054 -0.391736 0)
(0.895241 -0.498021 0)
(0.990574 -0.694821 0)
(1.07657 -0.928184 0)
(1.11625 -1.08788 0)
(1.14447 -1.15413 0)
(1.13819 -1.11963 0)
(0.0349041 1.00114 0)
(-0.162466 0.347177 0)
(-0.212471 0.577889 0)
(-0.208553 0.853283 0)
(-0.071133 0.915124 0)
(0.0133505 0.778622 0)
(0.899226 -0.0178242 0)
(0.818299 -0.116816 0)
(0.730212 -0.192765 0)
(0.693392 -0.245426 0)
(0.712267 -0.280709 0)
(0.774766 -0.357514 0)
(0.836493 -0.438653 0)
(0.91587 -0.575437 0)
(1.01812 -0.771727 0)
(1.08587 -0.96156 0)
(1.14885 -1.07292 0)
(1.19352 -1.11442 0)
(0.981039 -0.677495 0)
(0.015668 2.0739 0)
(-0.188296 0.42652 0)
(-0.212581 0.477556 0)
(-0.183343 0.782366 0)
(-0.0793597 0.8321 0)
(0.0280363 0.756113 0)
(1.10265 0.0156334 0)
(1.10824 -0.0382927 0)
(1.04972 -0.109008 0)
(0.956143 -0.186043 0)
(0.897658 -0.265568 0)
(0.898556 -0.366741 0)
(0.930949 -0.479545 0)
(1.00603 -0.64626 0)
(1.06352 -0.819817 0)
(1.12376 -0.953114 0)
(1.19716 -1.00861 0)
(1.2437 -1.02708 0)
(0.236404 0.687887 0)
(0.310544 3.08559 0)
(-0.206351 0.457146 0)
(-0.168133 0.310903 0)
(-0.0936756 0.603779 0)
(-0.077318 0.744004 0)
(0.0431949 0.740866 0)
(1.03179 -0.0682676 0)
(1.11407 -0.0690657 0)
(1.1221 -0.0862258 0)
(1.08929 -0.114727 0)
(1.03172 -0.214521 0)
(1.01439 -0.354185 0)
(1.03227 -0.497743 0)
(1.06837 -0.669749 0)
(1.10243 -0.822138 0)
(1.16027 -0.871345 0)
(1.20586 -0.900428 0)
(0.854259 -0.532098 0)
(-0.281311 1.33226 0)
(0.422068 3.16509 0)
(-0.0594575 0.953956 0)
(-0.0533611 0.188929 0)
(0.0468782 0.219966 0)
(-0.0904032 0.718878 0)
(0.0459026 0.718886 0)
(0.786727 -0.260619 0)
(0.998348 -0.116422 0)
(1.0372 -0.0890391 0)
(1.04198 -0.102051 0)
(1.04685 -0.173918 0)
(1.04749 -0.332446 0)
(1.05886 -0.501578 0)
(1.08208 -0.692912 0)
(1.12458 -0.757545 0)
(1.14507 -0.757956 0)
(0.985329 -0.655242 0)
(-0.233675 0.523488 0)
(-0.354602 1.1885 0)
(0.391666 2.99168 0)
(0.313488 1.67378 0)
(-0.0253965 0.372208 0)
(0.0532126 0.26667 0)
(-0.0619956 0.692911 0)
(0.0221167 0.705498 0)
(0.417127 -0.548794 0)
(0.675467 -0.313148 0)
(0.827304 -0.171109 0)
(0.913711 -0.148898 0)
(0.97022 -0.212291 0)
(1.01382 -0.336117 0)
(1.03315 -0.543037 0)
(1.06417 -0.631953 0)
(1.08532 -0.629074 0)
(0.923584 -0.541658 0)
(-0.397491 0.288439 0)
(-0.458513 0.487099 0)
(-0.496293 0.923879 0)
(0.223363 2.54819 0)
(0.443768 1.75859 0)
(0.312139 0.705276 0)
(-0.0139804 0.415951 0)
(-0.0262212 0.609061 0)
(-0.00333304 0.681108 0)
(0.317413 -0.601451 0)
(0.435183 -0.441372 0)
(0.569425 -0.301676 0)
(0.709999 -0.233697 0)
(0.806657 -0.260858 0)
(0.834198 -0.416018 0)
(0.791822 -0.527748 0)
(0.673492 -0.528292 0)
(0.26293 -0.305507 0)
(-0.455095 0.270729 0)
(-0.523114 0.353457 0)
(-0.541533 0.448081 0)
(-0.571248 0.680755 0)
(-0.00681022 1.80772 0)
(0.507325 1.64509 0)
(0.48117 1.02096 0)
(-0.104224 0.495247 0)
(0.0393837 0.540152 0)
(-0.0176999 0.675231 0)
(0.483256 -0.720214 0)
(0.489002 -0.613363 0)
(0.616592 -0.508689 0)
(0.67848 -0.510636 0)
(0.739295 -0.543981 0)
(0.715062 -0.637354 0)
(0.471984 -0.793438 0)
(-0.336971 0.00597497 0)
(-0.490916 0.213433 0)
(-0.52547 0.290955 0)
(-0.520192 0.355551 0)
(-0.517108 0.434583 0)
(-0.499251 0.565799 0)
(-0.139243 1.20853 0)
(0.437976 1.51997 0)
(0.434849 1.23176 0)
(-0.00697147 0.723521 0)
(0.101323 0.543344 0)
(-0.0143185 0.681541 0)
(0.714315 -0.610703 0)
(0.70829 -0.37997 0)
(0.596826 -0.329465 0)
(0.434709 -0.364791 0)
(-0.0309576 -0.0315628 0)
(-0.586592 0.124403 0)
(-0.636834 -0.0324462 0)
(-0.550313 0.107199 0)
(-0.515981 0.210082 0)
(-0.502633 0.275267 0)
(-0.460864 0.331036 0)
(-0.452494 0.408788 0)
(-0.40689 0.495246 0)
(-0.21403 0.85052 0)
(0.138672 1.31116 0)
(0.353436 1.27728 0)
(0.19661 0.895269 0)
(0.146681 0.593299 0)
(0.00252364 0.716635 0)
(-0.157831 -0.423849 0)
(-0.198306 -0.486643 0)
(-0.370632 -0.403602 0)
(-0.449375 -0.281631 0)
(-0.35318 -0.128056 0)
(-0.300498 -0.144375 0)
(-0.334425 0.00690517 0)
(-0.438848 0.106756 0)
(-0.438265 0.187694 0)
(-0.433824 0.243501 0)
(-0.386812 0.308377 0)
(-0.39213 0.379016 0)
(-0.338957 0.43579 0)
(-0.22698 0.6646 0)
(-0.101221 1.03817 0)
(0.30641 1.22726 0)
(0.156129 0.943471 0)
(0.151925 0.666149 0)
(0.0242906 0.771778 0)
(-0.22468 -0.25935 0)
(-0.319767 -0.173112 0)
(-0.387634 -0.0829129 0)
(-0.421762 0.0581212 0)
(-0.433519 0.116831 0)
(-0.443511 0.10584 0)
(-0.449212 0.083805 0)
(-0.423511 0.125625 0)
(-0.385603 0.177167 0)
(-0.378871 0.228921 0)
(-0.325677 0.287791 0)
(-0.33005 0.349504 0)
(-0.274746 0.386625 0)
(-0.187357 0.577452 0)
(-0.163813 0.819021 0)
(0.263607 1.05626 0)
(0.100763 1.0651 0)
(0.116163 0.720912 0)
(0.0381634 0.810058 0)
(-0.254868 -0.307127 0)
(-0.318097 -0.268185 0)
(-0.369872 -0.210261 0)
(-0.377093 -0.153512 0)
(-0.349774 -0.0837632 0)
(-0.323963 -0.0388926 0)
(-0.333355 0.0385482 0)
(-0.346748 0.102985 0)
(-0.329843 0.159049 0)
(-0.327284 0.210757 0)
(-0.27239 0.261578 0)
(-0.273948 0.317604 0)
(-0.208738 0.341308 0)
(-0.132929 0.51732 0)
(-0.123126 0.643466 0)
(0.283399 0.929699 0)
(0.0179493 1.21796 0)
(0.0996928 0.720433 0)
(0.0362013 0.832276 0)
(-0.254969 -0.17067 0)
(-0.293707 -0.138587 0)
(-0.314386 -0.086817 0)
(-0.320793 -0.0293851 0)
(-0.32544 0.0134792 0)
(-0.329035 0.0368139 0)
(-0.322765 0.06207 0)
(-0.310162 0.0994093 0)
(-0.285737 0.141776 0)
(-0.280588 0.190742 0)
(-0.22528 0.231603 0)
(-0.228531 0.281091 0)
(-0.1491 0.298923 0)
(-0.0894334 0.455001 0)
(-0.0519108 0.485782 0)
(0.311187 0.873733 0)
(-0.116964 1.37968 0)
(0.103277 0.683308 0)
(0.0208279 0.85902 0)
(-0.233309 -0.187561 0)
(-0.258121 -0.159903 0)
(-0.28046 -0.123966 0)
(-0.284073 -0.0913321 0)
(-0.284359 -0.0434369 0)
(-0.275415 -0.00270266 0)
(-0.272636 0.0442272 0)
(-0.268293 0.0888504 0)
(-0.245947 0.124935 0)
(-0.24115 0.169284 0)
(-0.183689 0.201708 0)
(-0.193391 0.243298 0)
(-0.0999668 0.253565 0)
(-0.0676441 0.387759 0)
(0.0248641 0.339589 0)
(0.301569 0.871686 0)
(-0.131961 1.47812 0)
(0.11493 0.659847 0)
(0.00728629 0.896467 0)
)
;

boundaryField
{
    leftWall
    {
        type            fixedValue;
        value           nonuniform 0();
    }
    rightWall
    {
        type            fixedValue;
        value           uniform (0 0 0);
    }
    lowerWall
    {
        type            fixedValue;
        value           uniform (0 0 0);
    }
    atmosphere
    {
        type            fluxCorrectedVelocity;
        value           nonuniform 0();
    }
    defaultFaces
    {
        type            empty;
    }
    procBoundary1to0
    {
        type            processor;
        value           nonuniform List<vector> 
26
(
(0.137767 0.0288165 0)
(0.17472 0.087913 0)
(0.179026 0.126569 0)
(0.127754 0.173611 0)
(0.127341 0.215485 0)
(0.143004 0.282689 0)
(0.196235 0.353043 0)
(0.194796 0.52592 0)
(0.221396 0.50797 0)
(0.198221 0.392833 0)
(0.355016 0.373057 0)
(0.668887 0.422869 0)
(0.754171 0.295836 0)
(0.667298 0.165077 0)
(0.46485 0.0442356 0)
(0.224073 -0.118623 0)
(0.161746 -0.298247 0)
(0.161746 -0.298247 0)
(0.185711 -0.595167 0)
(0.837171 0.372517 0)
(0.406231 -0.603133 0)
(0.061062 -0.115914 0)
(-0.0331527 -0.248469 0)
(-0.147312 -0.222633 0)
(-0.167292 -0.16983 0)
(-0.178348 -0.213839 0)
)
;
    }
    procBoundary1to3
    {
        type            processor;
        value           nonuniform List<vector> 
23
(
(-0.173753 -0.169604 0)
(-0.180013 -0.166526 0)
(-0.187122 -0.157321 0)
(-0.195296 -0.153181 0)
(-0.212636 -0.143135 0)
(-0.228176 -0.125954 0)
(-0.236259 -0.098003 0)
(-0.244925 -0.0625884 0)
(-0.252494 -0.0232135 0)
(-0.246589 0.00625387 0)
(-0.241255 0.0396648 0)
(-0.234076 0.0783551 0)
(-0.210757 0.108293 0)
(-0.209128 0.147324 0)
(-0.147329 0.174016 0)
(-0.170236 0.208064 0)
(-0.0572401 0.213822 0)
(-0.0780822 0.312406 0)
(0.0819169 0.219212 0)
(0.197257 0.920839 0)
(-0.031187 1.53278 0)
(0.125025 0.655422 0)
(0.00191842 0.940679 0)
)
;
    }
}


// ************************************************************************* //
