/*--------------------------------*- C++ -*----------------------------------*\
| =========                 |                                                 |
| \\      /  F ield         | OpenFOAM: The Open Source CFD Toolbox           |
|  \\    /   O peration     | Version:  2.4.0                                 |
|   \\  /    A nd           | Web:      www.OpenFOAM.org                      |
|    \\/     M anipulation  |                                                 |
\*---------------------------------------------------------------------------*/
FoamFile
{
    version     2.0;
    format      ascii;
    class       volScalarField;
    location    "0.5";
    object      alpha.water;
}
// * * * * * * * * * * * * * * * * * * * * * * * * * * * * * * * * * * * * * //

dimensions      [0 0 0 0 0 0 0];

internalField   nonuniform List<scalar> 
575
(
5.00866e-17
5.55829e-17
6.01602e-17
6.47189e-17
1.20745e-17
1.34911e-17
1.4699e-17
1.57558e-17
2.50983e-18
2.93005e-18
3.32825e-18
3.70534e-18
4.81812e-19
5.89208e-19
6.96676e-19
8.01975e-19
8.21169e-20
1.0588e-19
1.30477e-19
1.5557e-19
1.29585e-20
1.73523e-20
2.21243e-20
2.7249e-20
1.78147e-21
2.49178e-21
3.32309e-21
4.29274e-21
2.17093e-22
3.1861e-22
4.48655e-22
6.21604e-22
2.36686e-23
3.67589e-23
5.52733e-23
8.50575e-23
2.28665e-24
3.81329e-24
6.34458e-24
1.17683e-23
2.00378e-25
3.68971e-25
7.26104e-25
1.82412e-24
1.6075e-26
3.45409e-26
9.0374e-26
3.39953e-25
1.22578e-27
3.41986e-27
1.35178e-26
7.50023e-26
9.52944e-29
3.97509e-28
2.42653e-27
1.80101e-26
8.36613e-30
5.54803e-29
4.74588e-28
4.33886e-27
8.72677e-31
8.52652e-30
9.25078e-29
1.00107e-27
9.94281e-32
1.27944e-30
1.67247e-29
2.11417e-28
1.09914e-32
1.7448e-31
2.69851e-30
3.97664e-29
1.06671e-33
2.03813e-32
3.72132e-31
6.41871e-30
8.75104e-35
2.00897e-33
4.35808e-32
8.87012e-31
5.60045e-36
1.5634e-34
4.09092e-33
9.98002e-32
3.37616e-37
1.17302e-35
3.79302e-34
1.13748e-32
1.35565e-38
6.16346e-37
2.62994e-35
1.0427e-33
1.57435e-39
8.58504e-38
4.54714e-36
2.30791e-34
7.8564e-42
4.74717e-40
2.8289e-38
1.64544e-36
7.38661e-17
1.38508e-16
5.70395e-16
3.95074e-15
3.63069e-14
3.58305e-13
3.14019e-12
2.2419e-11
1.24677e-10
5.24604e-10
1.73075e-09
5.20545e-09
7.33971e-09
4.49852e-09
2.65014e-09
8.63953e-10
5.20459e-11
2.96635e-11
1.31513e-10
1.67155e-17
2.05149e-17
5.0473e-17
4.12069e-16
5.37563e-15
6.96303e-14
7.77575e-13
7.07295e-12
5.01557e-11
2.64146e-10
1.00572e-09
2.94783e-09
5.88153e-09
4.09291e-09
2.3658e-09
6.60039e-10
3.83152e-11
1.52698e-11
1.05624e-10
4.0066e-18
4.6026e-18
7.10463e-18
4.17023e-17
5.94648e-16
8.99743e-15
1.20349e-13
1.34991e-12
1.20774e-11
8.21984e-11
4.07105e-10
1.49028e-09
3.72428e-09
2.99305e-09
1.65559e-09
4.09869e-10
2.44729e-11
6.95006e-12
8.26053e-11
8.91958e-19
1.07143e-18
1.51752e-18
5.20556e-18
5.1943e-17
7.80047e-16
1.18702e-14
1.58712e-13
1.74662e-12
1.53549e-11
1.03593e-10
5.07276e-10
1.63558e-09
1.70691e-09
8.33194e-10
1.94443e-10
1.39699e-11
4.06989e-12
6.40726e-11
1.79623e-19
2.37823e-19
4.00646e-19
1.30864e-18
7.2751e-18
6.40358e-17
8.5619e-16
1.27038e-14
1.70058e-13
1.92268e-12
1.69455e-11
1.07957e-10
4.58997e-10
6.99774e-10
2.88782e-10
6.93925e-11
7.17861e-12
3.05334e-12
5.27559e-11
3.29135e-20
5.05618e-20
1.15914e-19
4.73023e-19
2.37897e-18
1.25425e-17
8.16856e-17
8.42126e-16
1.17338e-14
1.665e-13
1.7879e-12
1.43399e-11
7.75583e-11
1.8244e-10
6.06091e-11
1.94284e-11
4.00333e-12
2.35023e-12
4.28219e-11
5.57077e-21
1.08825e-20
3.6247e-20
1.83832e-19
9.9355e-19
5.05518e-18
2.40292e-17
1.1957e-16
8.77684e-16
1.06345e-14
1.25981e-13
1.21225e-12
7.83773e-12
2.64439e-11
6.29282e-12
2.76443e-12
2.18601e-12
1.88203e-12
3.1222e-11
9.1005e-22
2.51334e-21
1.19839e-20
7.19593e-20
4.23872e-19
2.29915e-18
1.12804e-17
5.03588e-17
2.15629e-16
1.07629e-15
7.81608e-15
7.14395e-14
5.07276e-13
1.97477e-12
4.52295e-13
9.02509e-13
1.24411e-12
1.55012e-12
2.12759e-11
1.52538e-22
6.45079e-22
4.10501e-21
2.81713e-20
1.81893e-19
1.07393e-18
5.73904e-18
2.76746e-17
1.20525e-16
4.73175e-16
1.76109e-15
7.13017e-15
3.45237e-14
1.06245e-13
1.36716e-13
3.96682e-13
7.93576e-13
1.32194e-12
1.48803e-11
2.89699e-23
1.8581e-22
1.46729e-21
1.13958e-20
8.19435e-20
5.37972e-19
3.19555e-18
1.70794e-17
8.17366e-17
3.45612e-16
1.30441e-15
4.37125e-15
1.40498e-14
4.25905e-14
1.30942e-13
2.98251e-13
5.82923e-13
1.15895e-12
1.02966e-11
6.52644e-24
5.81523e-23
5.45462e-22
4.82823e-21
3.93354e-20
2.91926e-19
1.95594e-18
1.17581e-17
6.29728e-17
2.97006e-16
1.24161e-15
4.55791e-15
1.48357e-14
5.31916e-14
1.50086e-13
3.05553e-13
4.8301e-13
1.02049e-12
7.47368e-12
1.70396e-24
1.92131e-23
2.10314e-22
2.13539e-21
1.98634e-20
1.67787e-19
1.27678e-18
8.70617e-18
5.28546e-17
2.82737e-16
1.33187e-15
5.52119e-15
1.89969e-14
7.13838e-14
1.92116e-13
3.7633e-13
4.61072e-13
9.20839e-13
5.77317e-12
4.81088e-25
6.5077e-24
8.25096e-23
9.61196e-22
1.02111e-20
9.82393e-20
8.50768e-19
6.60085e-18
4.56367e-17
2.78082e-16
1.48422e-15
6.94266e-15
2.66302e-14
9.6941e-14
2.65318e-13
5.29828e-13
5.30456e-13
9.02521e-13
5.18744e-12
1.39032e-25
2.20248e-24
3.21795e-23
4.29073e-22
5.19327e-21
5.67514e-20
5.56972e-19
4.88451e-18
3.81739e-17
2.62646e-16
1.57396e-15
8.15738e-15
3.47366e-14
1.3086e-13
3.61985e-13
7.36195e-13
7.17775e-13
1.00519e-12
5.70038e-12
3.9142e-26
7.18555e-25
1.20537e-23
1.83541e-22
2.52637e-21
3.13132e-20
3.47334e-19
3.42957e-18
2.99949e-17
2.29869e-16
1.52193e-15
8.59608e-15
4.00491e-14
1.57224e-13
4.61362e-13
9.42814e-13
1.07062e-12
1.28245e-12
6.4058e-12
1.04363e-26
2.2092e-25
4.24327e-24
7.36125e-23
1.14901e-21
1.60694e-20
2.00114e-19
2.20448e-18
2.12855e-17
1.78039e-16
1.26513e-15
7.55535e-15
3.71261e-14
1.51715e-13
4.79539e-13
1.09807e-12
1.56522e-12
1.9291e-12
6.91438e-12
2.54397e-27
6.21233e-26
1.36803e-24
2.70598e-23
4.79057e-22
7.54845e-21
1.05191e-19
1.2848e-18
1.35829e-17
1.22159e-16
9.15149e-16
5.61108e-15
2.77145e-14
1.13778e-13
3.82372e-13
1.02904e-12
1.8695e-12
2.89888e-12
7.13016e-12
5.53519e-28
1.56343e-26
3.95859e-25
8.95299e-24
1.80101e-22
3.20418e-21
5.00336e-20
6.78032e-19
7.86856e-18
7.67516e-17
6.09967e-16
3.86006e-15
1.88779e-14
7.48719e-14
2.51634e-13
7.5929e-13
1.63072e-12
2.89599e-12
6.97077e-12
1.0396e-28
3.41444e-27
9.98831e-26
2.59373e-24
5.95077e-23
1.19868e-21
2.10256e-20
3.17456e-19
4.07059e-18
4.31992e-17
3.68767e-16
2.4678e-15
1.2433e-14
4.76719e-14
1.46079e-13
4.51337e-13
1.10419e-12
2.43041e-12
6.49464e-12
1.68586e-29
6.48516e-28
2.20583e-26
6.6151e-25
1.74143e-23
3.99821e-22
7.93386e-21
1.34896e-19
1.92345e-18
2.24733e-17
2.09862e-16
1.51931e-15
8.28501e-15
3.23165e-14
9.56888e-14
2.51333e-13
6.06335e-13
1.91483e-12
5.81746e-12
2.26053e-30
1.0322e-28
4.13334e-27
1.4479e-25
4.42287e-24
1.17163e-22
2.67118e-21
5.16975e-20
8.29628e-19
1.08222e-17
1.12408e-16
8.95879e-16
5.50375e-15
2.25663e-14
7.71071e-14
1.7386e-13
3.31665e-13
1.44551e-12
4.99532e-12
3.152e-31
1.75068e-29
8.44555e-28
3.53735e-26
1.2803e-24
3.9815e-23
1.05675e-21
2.34782e-20
4.28577e-19
6.31085e-18
7.34484e-17
6.51661e-16
4.52545e-15
2.01457e-14
8.34e-14
1.65265e-13
2.44696e-13
1.11346e-12
4.04212e-12
3.81354e-32
2.77841e-30
1.74108e-28
9.38591e-27
4.35183e-25
1.73025e-23
5.8205e-22
1.62451e-20
3.68928e-19
6.64434e-18
9.20041e-17
9.46001e-16
6.96251e-15
3.50788e-14
1.10216e-13
2.08649e-13
2.427e-13
9.63072e-13
3.00957e-12
1.10516e-32
1.07757e-30
8.96487e-29
6.28062e-27
3.66741e-25
1.76718e-23
6.9955e-22
2.2459e-20
5.72719e-19
1.12526e-17
1.62983e-16
1.65661e-15
1.05021e-14
4.32439e-14
1.02769e-13
1.08507e-13
2.67222e-13
7.56992e-13
2.01987e-12
9.24773e-35
1.1467e-32
1.29182e-30
1.29686e-28
1.15974e-26
8.81048e-25
5.19415e-23
2.39894e-21
8.6158e-20
2.32364e-18
4.43218e-17
5.51884e-16
4.22684e-15
1.49202e-14
4.47828e-14
2.43656e-14
2.59952e-13
6.10581e-13
1.46256e-12
)
;

boundaryField
{
    leftWall
    {
        type            zeroGradient;
    }
    rightWall
    {
        type            zeroGradient;
    }
    lowerWall
    {
        type            zeroGradient;
    }
    atmosphere
    {
        type            inletOutlet;
        inletValue      uniform 0;
        value           nonuniform List<scalar> 
23
(
0
0
0
0
0
0
0
0
1.15974e-26
8.81048e-25
5.19415e-23
2.39894e-21
8.6158e-20
2.32364e-18
4.43218e-17
5.51884e-16
4.22684e-15
0
4.47828e-14
0
2.59952e-13
6.10581e-13
1.46256e-12
)
;
    }
    defaultFaces
    {
        type            empty;
    }
    procBoundary3to1
    {
        type            processor;
        value           nonuniform List<scalar> 
23
(
1.92254e-16
2.16195e-16
2.50049e-16
3.20079e-16
5.13489e-16
1.72973e-15
7.36256e-15
3.31996e-14
1.79725e-13
1.2211e-12
8.32717e-12
4.79212e-11
2.18547e-10
7.94673e-10
2.55364e-09
8.76808e-09
8.17762e-09
2.721e-09
2.20116e-09
8.42768e-10
5.07545e-11
4.65422e-11
1.58135e-10
)
;
    }
    procBoundary3to2
    {
        type            processor;
        value           nonuniform List<scalar> 
25
(
3.90481e-17
8.81504e-18
1.69094e-18
3.03046e-19
4.68055e-20
6.81828e-21
8.699e-22
9.82982e-23
9.81035e-24
8.66264e-25
6.80019e-26
4.80034e-27
3.07298e-28
1.82696e-29
1.06024e-30
6.5576e-32
4.62825e-33
3.59414e-34
2.69282e-35
1.77231e-36
9.13714e-38
4.35681e-39
1.35465e-40
1.35245e-41
6.15924e-44
)
;
    }
}


// ************************************************************************* //
