/*--------------------------------*- C++ -*----------------------------------*\
| =========                 |                                                 |
| \\      /  F ield         | OpenFOAM: The Open Source CFD Toolbox           |
|  \\    /   O peration     | Version:  2.4.0                                 |
|   \\  /    A nd           | Web:      www.OpenFOAM.org                      |
|    \\/     M anipulation  |                                                 |
\*---------------------------------------------------------------------------*/
FoamFile
{
    version     2.0;
    format      ascii;
    class       volScalarField;
    location    "0.5";
    object      alpha.oil;
}
// * * * * * * * * * * * * * * * * * * * * * * * * * * * * * * * * * * * * * //

dimensions      [0 0 0 0 0 0 0];

internalField   nonuniform List<scalar> 
575
(
4.14346e-10
3.74254e-10
3.24552e-10
3.51035e-10
1.58034e-10
1.25715e-10
1.12652e-10
9.96175e-11
8.72426e-11
6.75831e-11
5.09689e-11
4.03507e-11
5.20249e-11
3.73515e-11
2.59329e-11
1.868e-11
2.31083e-11
1.6547e-11
1.13588e-11
7.81554e-12
7.91199e-12
5.73068e-12
4.00042e-12
2.75634e-12
2.29451e-12
1.7172e-12
1.23214e-12
8.59988e-13
5.59465e-13
4.364e-13
3.25109e-13
2.32749e-13
1.14689e-13
9.34701e-14
7.2342e-14
5.34435e-14
1.97142e-14
1.69239e-14
1.37119e-14
1.05229e-14
2.86118e-15
2.59677e-15
2.21531e-15
1.77733e-15
3.52599e-16
3.40921e-16
3.08706e-16
2.60875e-16
3.71974e-17
3.86213e-17
3.74232e-17
3.35588e-17
3.38189e-18
3.80815e-18
3.98488e-18
3.82673e-18
2.67026e-19
3.29478e-19
3.75905e-19
3.91701e-19
1.84474e-20
2.52099e-20
3.16902e-20
3.65622e-20
1.12197e-21
1.71709e-21
2.41559e-21
3.30118e-21
6.03391e-23
1.04696e-22
1.68861e-22
3.09238e-22
2.8718e-24
5.72329e-24
1.08837e-23
2.94155e-23
1.2051e-25
2.80598e-25
6.60537e-25
2.96959e-24
4.40572e-27
1.22437e-26
3.7735e-26
2.87394e-25
1.37065e-28
4.7217e-28
2.1657e-27
3.02236e-26
3.48072e-30
1.52392e-29
1.0744e-28
2.46427e-27
7.38072e-32
5.03664e-31
9.36581e-30
3.94822e-28
1.21842e-33
7.27368e-33
5.45229e-32
1.10424e-30
4.18434e-10
6.45177e-10
1.15463e-09
1.85994e-09
3.51427e-09
8.98269e-09
2.78916e-08
8.52983e-08
2.36498e-07
5.41731e-07
9.93154e-07
1.51443e-06
1.7931e-06
1.81081e-06
1.8796e-06
2.1346e-06
0.000305356
0.54328
0.955116
9.45154e-11
1.56679e-10
3.21815e-10
5.52525e-10
1.36136e-09
4.03252e-09
1.36529e-08
4.61523e-08
1.43206e-07
3.76376e-07
7.85625e-07
1.29317e-06
1.67615e-06
1.70856e-06
1.8058e-06
2.05565e-06
3.73695e-06
0.506504
0.966466
3.48866e-11
2.86455e-11
7.36295e-11
1.87509e-10
5.10311e-10
1.72801e-09
6.17627e-09
2.17271e-08
7.1116e-08
2.06468e-07
4.99494e-07
9.80814e-07
1.45717e-06
1.57848e-06
1.73189e-06
1.98694e-06
2.75312e-06
0.209478
0.929893
1.43799e-11
1.04588e-11
1.73528e-11
4.5629e-11
1.67826e-10
6.79558e-10
2.57656e-09
9.27979e-09
3.08426e-08
9.32734e-08
2.53292e-07
5.85351e-07
1.04898e-06
1.31135e-06
1.50987e-06
1.82904e-06
2.46694e-06
0.0390078
0.839294
5.52973e-12
2.79138e-12
5.0248e-12
1.44629e-11
5.28711e-11
2.29141e-10
9.66684e-10
3.62267e-09
1.23145e-08
3.86458e-08
1.09624e-07
2.7532e-07
5.74435e-07
9.02922e-07
1.13156e-06
1.5804e-06
2.24901e-06
0.00560599
0.778681
1.90628e-12
7.28249e-13
1.13102e-12
3.58782e-12
1.45093e-11
6.56491e-11
2.98696e-10
1.22368e-09
4.41077e-09
1.46216e-08
4.23328e-08
1.0995e-07
2.46392e-07
4.84423e-07
7.9238e-07
1.40948e-06
2.14187e-06
0.00084677
0.771895
5.92355e-13
1.90861e-13
2.25046e-13
7.19916e-13
3.21342e-12
1.5967e-11
7.70388e-11
3.52891e-10
1.43641e-09
5.11753e-09
1.52852e-08
4.0379e-08
9.11284e-08
1.88841e-07
5.97774e-07
1.50435e-06
2.1987e-06
0.000152147
0.733102
1.61879e-13
4.84024e-14
3.82782e-14
1.08972e-13
5.06689e-13
2.79083e-12
1.53756e-11
8.02692e-11
3.89105e-10
1.61165e-09
5.33386e-09
1.53915e-08
3.80796e-08
6.38944e-08
4.45345e-07
1.73428e-06
2.32096e-06
3.56296e-05
0.661907
3.80765e-14
1.19825e-14
8.11767e-15
2.66389e-14
1.48189e-13
8.94282e-13
5.10018e-12
2.64809e-11
1.24933e-10
5.13289e-10
2.01013e-09
6.31251e-09
1.68039e-08
4.45568e-08
4.24956e-07
1.78634e-06
2.42913e-06
1.78352e-05
0.642219
7.73924e-15
2.74335e-15
2.19984e-15
1.09165e-14
7.87083e-14
5.5198e-13
3.51834e-12
2.00021e-11
1.00575e-10
4.40657e-10
1.70972e-09
5.71354e-09
1.67464e-08
6.41505e-08
5.37633e-07
1.65706e-06
2.66577e-06
1.8564e-05
0.619681
1.36049e-15
5.88975e-16
8.71267e-16
6.65011e-15
5.71447e-14
4.52174e-13
3.21183e-12
2.02855e-11
1.12915e-10
5.49366e-10
2.36271e-09
8.88187e-09
2.86915e-08
1.53082e-07
5.93238e-07
4.70183e-06
4.61432e-06
4.47036e-05
0.565849
2.09631e-16
1.1829e-16
3.33932e-16
3.27517e-15
3.22437e-14
2.8785e-13
2.29669e-12
1.62582e-11
1.01321e-10
5.49753e-10
2.60471e-09
1.08318e-08
3.85258e-08
2.05402e-07
6.83464e-07
1.67976e-05
1.20089e-05
0.000380319
0.350694
2.84649e-17
2.04827e-17
8.83759e-17
1.07534e-15
1.26175e-14
1.3334e-13
1.2569e-12
1.04982e-11
7.70953e-11
4.9137e-10
2.69392e-09
1.27584e-08
5.13347e-08
2.758e-07
2.5103e-06
4.49696e-05
1.65368e-05
0.00151345
0.089906
3.47711e-18
3.70776e-18
2.83881e-17
4.17713e-16
5.69047e-15
6.92862e-14
7.48607e-13
7.12739e-12
5.94392e-11
4.26918e-10
2.59402e-09
1.3116e-08
6.04088e-08
4.04609e-07
7.80467e-06
0.000157425
1.96892e-05
0.000854633
0.00658198
4.011e-19
9.41457e-19
1.26025e-17
2.05681e-16
3.03126e-15
4.00345e-14
4.74654e-13
5.0594e-12
4.80795e-11
3.93023e-10
2.60765e-09
1.36288e-08
5.76104e-08
3.57791e-07
8.56e-06
0.000232466
0.000339975
0.000482332
0.000494654
4.70283e-20
2.73716e-19
4.9144e-18
8.70697e-17
1.35424e-15
1.82715e-14
2.15138e-13
2.37256e-12
2.74977e-11
2.96897e-10
2.06527e-09
1.10971e-08
4.50757e-08
2.23341e-07
1.73542e-06
0.000190821
0.00184539
0.00232221
0.00406985
7.53999e-21
1.11225e-19
2.44389e-18
4.89838e-17
8.63734e-16
1.31773e-14
1.70892e-13
1.9003e-12
1.98241e-11
1.99247e-10
1.38798e-09
7.50057e-09
3.09276e-08
1.50499e-07
1.14395e-06
0.000140269
0.00416329
0.0400237
0.238253
1.46366e-21
3.43086e-20
8.66332e-19
1.96356e-17
3.94361e-16
6.97461e-15
1.07706e-13
1.43327e-12
1.61607e-11
1.50913e-10
1.10429e-09
5.96253e-09
2.21732e-08
9.66912e-08
1.3708e-06
0.000352252
0.0179978
0.210205
0.825199
2.46798e-22
7.51373e-21
2.20342e-19
5.74215e-18
1.31999e-16
2.66257e-15
4.67894e-14
7.08042e-13
9.07783e-12
9.55143e-11
7.89248e-10
4.78433e-09
1.87278e-08
6.76497e-08
6.36656e-07
0.000531821
0.0474426
0.517114
0.983964
3.96694e-23
1.49493e-21
5.14498e-20
1.55897e-18
4.13539e-17
9.54431e-16
1.89987e-14
3.23244e-13
4.59556e-12
5.30217e-11
4.76271e-10
3.16294e-09
1.40027e-08
5.61935e-08
2.43581e-07
0.000166482
0.032334
0.603881
0.985829
5.39934e-24
2.47095e-22
1.00643e-20
3.57884e-19
1.10617e-17
2.95252e-16
6.74308e-15
1.29696e-13
2.04455e-12
2.56782e-11
2.47421e-10
1.70711e-09
8.00509e-09
2.25397e-08
1.4478e-07
5.49276e-06
0.00458491
0.509882
0.985829
7.74065e-25
4.34738e-23
2.12709e-21
8.99164e-20
3.2636e-18
1.00957e-16
2.63817e-15
5.6948e-14
9.91296e-13
1.35411e-11
1.40232e-10
1.04142e-09
5.66324e-09
3.01745e-08
4.07934e-07
9.71772e-07
8.32831e-05
0.250244
0.985285
8.57043e-26
6.24759e-24
3.92098e-22
2.1118e-20
9.75945e-19
3.86014e-17
1.29018e-15
3.57599e-14
8.08924e-13
1.46607e-11
2.0941e-10
2.34239e-09
2.08325e-08
1.8851e-07
1.02829e-06
1.32489e-06
2.15919e-06
0.0545897
0.954054
1.85755e-26
1.82693e-24
1.55592e-22
1.13098e-20
6.9346e-19
3.54365e-17
1.49751e-15
5.15454e-14
1.41283e-12
2.9857e-11
4.64202e-10
5.02721e-09
3.31225e-08
1.41832e-07
5.22824e-07
6.6367e-07
1.03793e-06
0.00552408
0.797288
5.42334e-29
7.13135e-27
8.92226e-25
1.03281e-22
1.10502e-20
9.82334e-19
6.3283e-17
3.08356e-15
1.14397e-13
3.13605e-12
5.96877e-11
7.18332e-10
5.08513e-09
9.36266e-09
4.66113e-08
7.13926e-08
7.39364e-07
0.000130971
0.393302
)
;

boundaryField
{
    leftWall
    {
        type            zeroGradient;
    }
    rightWall
    {
        type            zeroGradient;
    }
    lowerWall
    {
        type            zeroGradient;
    }
    atmosphere
    {
        type            inletOutlet;
        inletValue      uniform 0;
        value           nonuniform List<scalar> 
23
(
0
0
0
0
0
0
0
0
1.10502e-20
9.82334e-19
6.3283e-17
3.08356e-15
1.14397e-13
3.13605e-12
5.96877e-11
7.18332e-10
5.08513e-09
0
4.66113e-08
0
7.39364e-07
0.000130971
0.393302
)
;
    }
    defaultFaces
    {
        type            empty;
    }
    procBoundary3to1
    {
        type            processor;
        value           nonuniform List<scalar> 
23
(
1.0806e-09
9.86842e-10
1.00199e-09
1.16015e-09
1.34259e-09
2.35425e-09
3.4643e-09
5.17778e-09
8.4848e-09
1.8886e-08
4.99248e-08
1.35559e-07
3.29028e-07
6.66055e-07
1.13224e-06
1.74537e-06
1.90144e-06
1.97446e-06
2.07497e-06
2.60457e-06
0.00250009
0.280639
0.907668
)
;
    }
    procBoundary3to2
    {
        type            processor;
        value           nonuniform List<scalar> 
25
(
8.98211e-10
4.37402e-10
3.11568e-10
1.83087e-10
6.74672e-11
1.90482e-11
4.26674e-12
1.11563e-12
2.10686e-13
3.18452e-14
4.00387e-15
4.19151e-16
3.67958e-17
2.74964e-18
1.77395e-19
1.00028e-20
4.97104e-22
2.18652e-23
8.5081e-25
2.90812e-26
8.58966e-28
2.1215e-29
4.27072e-31
7.03585e-33
1.04251e-34
)
;
    }
}


// ************************************************************************* //
