/*--------------------------------*- C++ -*----------------------------------*\
| =========                 |                                                 |
| \\      /  F ield         | OpenFOAM: The Open Source CFD Toolbox           |
|  \\    /   O peration     | Version:  2.4.0                                 |
|   \\  /    A nd           | Web:      www.OpenFOAM.org                      |
|    \\/     M anipulation  |                                                 |
\*---------------------------------------------------------------------------*/
FoamFile
{
    version     2.0;
    format      ascii;
    class       surfaceScalarField;
    location    "0.5";
    object      phi.oil;
}
// * * * * * * * * * * * * * * * * * * * * * * * * * * * * * * * * * * * * * //

dimensions      [0 3 -1 0 0 0 0];

internalField   nonuniform List<scalar> 
1102
(
-2.05489e-05
-1.45927e-05
-2.10861e-05
-1.47e-05
-2.17575e-05
-1.48543e-05
-1.50853e-05
-2.26105e-05
-2.08703e-05
-1.39788e-05
-2.14618e-05
-1.41082e-05
-2.21062e-05
-1.42096e-05
-1.40812e-05
-2.31099e-05
-1.94664e-05
-1.32823e-05
-2.03373e-05
-1.32371e-05
-2.12991e-05
-1.32476e-05
-1.29337e-05
-2.24464e-05
-2.01885e-05
-1.25536e-05
-2.11449e-05
-1.22804e-05
-2.21751e-05
-1.22172e-05
-1.18783e-05
-2.32304e-05
-1.94584e-05
-1.1607e-05
-2.04836e-05
-1.1255e-05
-2.14868e-05
-1.12138e-05
-1.09341e-05
-2.24309e-05
-1.95383e-05
-1.07346e-05
-2.03612e-05
-1.04319e-05
-2.12172e-05
-1.03577e-05
-1.01413e-05
-2.20099e-05
-1.86091e-05
-1.00192e-05
-1.93219e-05
-9.71895e-06
-2.01547e-05
-9.52486e-06
-9.31027e-06
-2.09857e-05
-1.79611e-05
-9.32109e-06
-1.86051e-05
-9.07478e-06
-1.93133e-05
-8.81668e-06
-8.56444e-06
-2.00591e-05
-1.71979e-05
-8.62235e-06
-1.78578e-05
-8.41475e-06
-1.84935e-05
-8.18098e-06
-7.94703e-06
-1.91109e-05
-1.6289e-05
-8.0312e-06
-1.68712e-05
-7.83252e-06
-1.74407e-05
-7.61149e-06
-7.37203e-06
-1.80157e-05
-1.54272e-05
-7.44709e-06
-1.59842e-05
-7.27542e-06
-1.65325e-05
-7.06314e-06
-6.82603e-06
-1.70786e-05
-1.45209e-05
-6.94003e-06
-1.50342e-05
-6.76202e-06
-1.55343e-05
-6.56307e-06
-6.33911e-06
-1.60213e-05
-1.36237e-05
-6.47136e-06
-1.4095e-05
-6.29065e-06
-1.45613e-05
-6.09677e-06
-5.8833e-06
-1.50172e-05
-1.27209e-05
-6.05047e-06
-1.31505e-05
-5.861e-06
-1.35798e-05
-5.66753e-06
-5.462e-06
-1.40012e-05
-1.18242e-05
-5.66466e-06
-1.22158e-05
-5.46931e-06
-1.26101e-05
-5.27336e-06
-5.07105e-06
-1.30011e-05
-1.09244e-05
-5.3099e-06
-1.12838e-05
-5.10989e-06
-1.16471e-05
-4.91007e-06
-4.70683e-06
-1.20114e-05
-1.00214e-05
-4.98141e-06
-1.03526e-05
-4.77867e-06
-1.06888e-05
-4.57394e-06
-4.36969e-06
-1.1026e-05
-9.10947e-06
-4.67663e-06
-9.41772e-06
-4.47044e-06
-9.72979e-06
-4.2619e-06
-4.05414e-06
-1.00454e-05
-8.18703e-06
-4.39266e-06
-8.47337e-06
-4.1841e-06
-8.7634e-06
-3.97193e-06
-3.75891e-06
-9.05867e-06
-7.24544e-06
-4.12761e-06
-7.51377e-06
-3.91579e-06
-7.78585e-06
-3.69989e-06
-3.48208e-06
-8.06272e-06
-6.2715e-06
-3.87581e-06
-6.52641e-06
-3.6609e-06
-6.78524e-06
-3.44113e-06
-3.21969e-06
-7.04766e-06
-5.25827e-06
-3.63486e-06
-5.50291e-06
-3.41629e-06
-5.74792e-06
-3.19616e-06
-2.97134e-06
-5.99632e-06
-4.27979e-06
-3.51059e-06
-4.44797e-06
-3.24812e-06
-4.64801e-06
-2.99618e-06
-2.7511e-06
-4.86827e-06
-3.62199e-06
-3.54336e-06
-3.62542e-06
-3.24472e-06
-3.66703e-06
-2.95458e-06
-2.66744e-06
-3.7507e-06
-3.37784e-06
-3.27677e-06
-3.20214e-06
-3.1532e-06
-2.51438e-05
-3.591e-05
-2.86338e-05
-3.66106e-05
-3.2765e-05
-3.64995e-05
-3.74472e-05
-3.63845e-05
-4.20787e-05
-3.70668e-05
-4.73254e-05
-3.67469e-05
-5.31533e-05
-3.70516e-05
-6.02999e-05
-4.04784e-05
-6.952e-05
-4.47605e-05
-7.86817e-05
-4.66134e-05
-6.96582e-05
-1.39834e-05
1.8279e-06
0.000151283
4.60036e-05
0.000400895
4.95523e-05
0.000330638
4.53443e-05
0.000190029
2.17457e-05
8.44585e-05
1.10882e-05
-4.2999e-05
6.39693e-06
-6.14274e-05
-3.38799e-05
-2.60126e-05
-3.30065e-05
-2.94423e-05
-3.31796e-05
-3.27666e-05
-3.31727e-05
-3.64e-05
-3.27489e-05
-4.12804e-05
-3.21885e-05
-4.69093e-05
-3.11263e-05
-5.38974e-05
-3.00918e-05
-6.35282e-05
-3.08367e-05
-7.70278e-05
-3.11039e-05
-9.46667e-05
-2.96222e-05
-9.93941e-05
-7.17649e-06
-4.14308e-05
0.000105107
3.63307e-05
0.000318393
6.42924e-05
0.000290013
7.16725e-05
0.000187558
4.55276e-05
0.000112498
1.23704e-05
3.30001e-05
7.9952e-06
-6.20277e-05
-2.75058e-05
-2.54145e-05
-3.0038e-05
-2.88242e-05
-2.97692e-05
-3.22427e-05
-2.97531e-05
-3.60714e-05
-2.89192e-05
-4.10156e-05
-2.72428e-05
-4.64181e-05
-2.57258e-05
-5.29466e-05
-2.35739e-05
-6.2559e-05
-2.13e-05
-7.60941e-05
-1.73543e-05
-9.45217e-05
-1.06655e-05
-0.00010951
8.38015e-06
-8.29189e-05
7.8635e-05
-5.39692e-07
0.000219618
4.96432e-05
0.000230027
7.49097e-05
0.000159851
5.71526e-05
0.000127246
1.5286e-05
9.24586e-05
1.03003e-05
-5.77373e-05
-1.96508e-05
-2.58679e-05
-2.74003e-05
-2.84413e-05
-2.71956e-05
-3.13843e-05
-2.68098e-05
-3.50856e-05
-2.52177e-05
-3.94612e-05
-2.28671e-05
-4.42341e-05
-2.09532e-05
-5.00591e-05
-1.77535e-05
-5.81714e-05
-1.32041e-05
-6.8411e-05
-7.00722e-06
-8.18764e-05
3.57626e-06
-9.36157e-05
2.17667e-05
-7.74341e-05
6.42636e-05
-1.50556e-05
0.000146109
3.23193e-05
0.000174692
6.93626e-05
0.000119853
7.22266e-05
0.000121735
2.86514e-05
0.000138741
1.15679e-05
-4.70144e-05
-9.86318e-06
-2.4786e-05
-2.5045e-05
-2.73498e-05
-2.46317e-05
-3.02483e-05
-2.39112e-05
-3.37124e-05
-2.17536e-05
-3.73793e-05
-1.92001e-05
-4.12604e-05
-1.70718e-05
-4.61671e-05
-1.28476e-05
-5.20999e-05
-7.2619e-06
-5.83888e-05
-6.80015e-07
-6.56582e-05
1.12461e-05
-6.95193e-05
2.67625e-05
-5.58453e-05
5.46038e-05
-1.01572e-05
9.631e-05
3.70224e-05
0.000124708
7.17615e-05
8.4155e-05
8.18382e-05
0.000109734
3.87359e-05
0.000169087
1.23728e-05
-3.15258e-05
-8.6548e-07
-2.40137e-05
-2.30411e-05
-2.62297e-05
-2.24158e-05
-2.8956e-05
-2.1185e-05
-3.18695e-05
-1.88403e-05
-3.48185e-05
-1.62511e-05
-3.80642e-05
-1.3826e-05
-4.17011e-05
-9.20984e-06
-4.54002e-05
-3.55683e-06
-4.88098e-05
2.74708e-06
-5.11989e-05
1.3795e-05
-4.97977e-05
2.56946e-05
-3.72125e-05
4.42208e-05
-4.79109e-06
6.3804e-05
3.96164e-05
8.07483e-05
6.59431e-05
5.28476e-05
7.61789e-05
0.000101882
3.86597e-05
0.000201034
9.98722e-06
-3.89946e-06
4.65129e-06
-2.28864e-05
-2.11404e-05
-2.50321e-05
-2.02702e-05
-2.74756e-05
-1.87416e-05
-2.98434e-05
-1.64728e-05
-3.21825e-05
-1.39122e-05
-3.47975e-05
-1.12111e-05
-3.71766e-05
-6.83028e-06
-3.91805e-05
-1.55089e-06
-4.04982e-05
4.07256e-06
-3.99806e-05
1.33311e-05
-3.59232e-05
2.16967e-05
-2.49011e-05
3.39279e-05
-4.97474e-06
4.35808e-05
3.14554e-05
4.80152e-05
3.94573e-05
3.2967e-05
5.27628e-05
9.97828e-05
2.71342e-05
0.000219024
5.15362e-07
3.1413e-05
1.02449e-05
-2.18201e-05
-1.93794e-05
-2.37598e-05
-1.83306e-05
-2.57843e-05
-1.67173e-05
-2.77424e-05
-1.45149e-05
-2.95945e-05
-1.20603e-05
-3.15197e-05
-9.286e-06
-3.29997e-05
-5.35015e-06
-3.37933e-05
-7.56737e-07
-3.37657e-05
4.04769e-06
-3.18116e-05
1.13944e-05
-2.73213e-05
1.72104e-05
-1.78017e-05
2.46988e-05
-6.26401e-06
3.16405e-05
1.92804e-05
2.69443e-05
1.08071e-05
2.80287e-05
2.9959e-05
9.25596e-05
2.20241e-05
0.000218
-1.63269e-06
6.38165e-05
1.75019e-05
-2.06309e-05
-1.78594e-05
-2.23654e-05
-1.65962e-05
-2.4076e-05
-1.5007e-05
-2.57113e-05
-1.28799e-05
-2.71876e-05
-1.05842e-05
-2.84973e-05
-7.97633e-06
-2.93015e-05
-4.546e-06
-2.93815e-05
-6.76714e-07
-2.85119e-05
3.17867e-06
-2.58631e-05
8.75089e-06
-2.16338e-05
1.29726e-05
-1.3435e-05
1.66221e-05
-5.94237e-06
2.37652e-05
1.13287e-05
1.41629e-05
1.16804e-06
2.78966e-05
2.34366e-05
7.92118e-05
2.21599e-05
0.000209243
-1.51744e-06
8.85786e-05
2.55504e-05
-1.94976e-05
-1.63776e-05
-2.099e-05
-1.5104e-05
-2.24579e-05
-1.35393e-05
-2.37878e-05
-1.15502e-05
-2.49369e-05
-9.43521e-06
-2.5836e-05
-7.07717e-06
-2.62082e-05
-4.1739e-06
-2.58752e-05
-1.00974e-06
-2.46296e-05
1.93316e-06
-2.16852e-05
5.81011e-06
-1.76523e-05
8.92673e-06
-1.04869e-05
9.58046e-06
-4.15356e-06
1.68834e-05
8.62658e-06
5.44543e-06
2.29272e-06
2.59472e-05
2.08161e-05
5.57658e-05
1.93526e-05
0.000183617
-1.01142e-06
9.98604e-05
4.13293e-05
-1.83165e-05
-1.51399e-05
-1.96401e-05
-1.37805e-05
-2.09021e-05
-1.22775e-05
-2.20049e-05
-1.04476e-05
-2.29289e-05
-8.51118e-06
-2.35709e-05
-6.43523e-06
-2.37078e-05
-4.037e-06
-2.32091e-05
-1.50858e-06
-2.18754e-05
5.99672e-07
-1.90778e-05
3.01775e-06
-1.52409e-05
5.07462e-06
-8.90839e-06
3.46937e-06
-2.85742e-06
9.96533e-06
8.23448e-06
-2.04159e-06
5.48175e-06
1.91905e-05
2.07932e-05
2.84842e-05
2.09156e-05
0.000137157
3.25871e-06
0.00010503
6.63788e-05
-1.71845e-05
-1.39768e-05
-1.83431e-05
-1.2622e-05
-1.94437e-05
-1.11771e-05
-2.03941e-05
-9.49722e-06
-2.11706e-05
-7.73467e-06
-2.16811e-05
-5.92475e-06
-2.17486e-05
-3.96955e-06
-2.12662e-05
-1.99114e-06
-2.01153e-05
-5.51014e-07
-1.7758e-05
6.65227e-07
-1.42385e-05
1.54329e-06
-9.02213e-06
-1.49576e-06
-2.42088e-06
2.57366e-06
8.2741e-06
-9.89842e-06
8.0017e-06
1.89734e-06
2.26854e-05
-1.02526e-05
2.02489e-05
9.67706e-05
5.52988e-06
0.00010632
9.07521e-05
-1.60616e-05
-1.29325e-05
-1.70985e-05
-1.15853e-05
-1.80841e-05
-1.01915e-05
-1.89375e-05
-8.64385e-06
-1.96361e-05
-7.036e-06
-2.01103e-05
-5.45056e-06
-2.02437e-05
-3.83632e-06
-1.99373e-05
-2.29774e-06
-1.91365e-05
-1.3519e-06
-1.75003e-05
-9.67496e-07
-1.47249e-05
-1.23675e-06
-1.11609e-05
-4.8079e-06
-4.98249e-06
-4.20695e-06
3.98583e-06
-1.73237e-05
8.44978e-07
-1.65712e-05
7.93174e-06
-3.12614e-05
1.23774e-05
7.14212e-05
4.99785e-06
0.000104672
0.000103661
-1.49701e-05
-1.19636e-05
-1.59132e-05
-1.06423e-05
-1.68141e-05
-9.29052e-06
-1.76114e-05
-7.84656e-06
-1.8286e-05
-6.36136e-06
-1.88006e-05
-4.936e-06
-1.90914e-05
-3.54573e-06
-1.90468e-05
-2.34266e-06
-1.87533e-05
-1.64568e-06
-1.80329e-05
-1.6861e-06
-1.66725e-05
-2.60058e-06
-1.52817e-05
-6.01798e-06
-1.08421e-05
-8.70106e-06
-7.07769e-06
-1.95942e-05
-1.26898e-05
-2.32192e-05
-4.43826e-06
-2.65402e-05
7.51236e-06
2.90061e-05
4.8885e-06
0.000112192
0.000134592
-1.39002e-05
-1.10646e-05
-1.47732e-05
-9.76932e-06
-1.56156e-05
-8.44807e-06
-1.63872e-05
-7.07486e-06
-1.70648e-05
-5.6838e-06
-1.76619e-05
-4.33894e-06
-1.81312e-05
-3.07678e-06
-1.84324e-05
-2.04185e-06
-1.8675e-05
-1.40345e-06
-1.8922e-05
-1.43868e-06
-1.92504e-05
-2.28091e-06
-2.01449e-05
-5.04168e-06
-1.97695e-05
-8.85712e-06
-1.50817e-05
-1.56965e-05
-1.897e-05
-1.63789e-05
-1.08818e-05
-1.8703e-05
1.82696e-06
-3.78252e-06
5.32606e-06
0.000135218
0.000198106
-1.28529e-05
-1.02232e-05
-1.36735e-05
-8.94868e-06
-1.44729e-05
-7.64869e-06
-1.52326e-05
-6.31504e-06
-1.59434e-05
-4.973e-06
-1.66193e-05
-3.66321e-06
-1.72486e-05
-2.44783e-06
-1.78734e-05
-1.41756e-06
-1.85874e-05
-6.8994e-07
-1.96455e-05
-3.80949e-07
-2.12207e-05
-7.17124e-07
-2.40991e-05
-2.1461e-06
-2.81347e-05
-4.87758e-06
-2.85372e-05
-7.28672e-06
-2.27544e-05
-4.25383e-06
-1.91968e-05
-7.94131e-06
-2.13895e-07
-5.49244e-06
8.58154e-06
0.000145933
0.000181726
-1.1819e-05
-9.43024e-06
-1.25964e-05
-8.17129e-06
-1.33671e-05
-6.87794e-06
-1.41172e-05
-5.56484e-06
-1.48626e-05
-4.2277e-06
-1.56034e-05
-2.92268e-06
-1.63713e-05
-1.68032e-06
-1.72271e-05
-5.62214e-07
-1.83083e-05
3.90769e-07
-1.98283e-05
1.13854e-06
-2.20422e-05
1.48717e-06
-2.58437e-05
1.66386e-06
-3.1849e-05
9.04132e-07
-3.39769e-05
3.16983e-06
-2.23503e-05
8.10988e-06
-1.94904e-05
9.26607e-06
-3.312e-06
1.7879e-05
6.43078e-06
0.000123877
0.000116269
-1.07918e-05
-8.68383e-06
-1.15316e-05
-7.43148e-06
-1.22752e-05
-6.13426e-06
-1.3023e-05
-4.81707e-06
-1.37819e-05
-3.46892e-06
-1.45683e-05
-2.13659e-06
-1.5425e-05
-8.24079e-07
-1.63981e-05
4.10437e-07
-1.76142e-05
1.6065e-06
-1.92977e-05
2.82141e-06
-2.15837e-05
3.76374e-06
-2.53318e-05
5.4298e-06
-3.0725e-05
6.02402e-06
-2.81607e-05
1.26415e-05
-1.71889e-05
1.65808e-05
-1.53403e-05
2.77511e-05
-9.44609e-06
4.62447e-05
2.24746e-06
9.69809e-05
0.000101742
-9.76221e-06
-7.98031e-06
-1.04689e-05
-6.72471e-06
-1.11862e-05
-5.41697e-06
-1.19206e-05
-4.08266e-06
-1.26803e-05
-2.70945e-06
-1.34792e-05
-1.33801e-06
-1.43493e-05
4.55929e-08
-1.53492e-05
1.40997e-06
-1.65597e-05
2.81669e-06
-1.81001e-05
4.36157e-06
-1.99967e-05
5.65162e-06
-2.27019e-05
8.17877e-06
-2.6207e-05
9.24995e-06
-2.57968e-05
1.82305e-05
-1.17557e-05
2.21926e-05
-1.41375e-05
3.6564e-05
-1.26939e-05
5.61111e-05
-8.0417e-07
8.09695e-05
9.69817e-05
-8.72508e-06
-7.31798e-06
-9.40079e-06
-6.04899e-06
-1.00907e-05
-4.72705e-06
-1.08021e-05
-3.37132e-06
-1.15466e-05
-1.96515e-06
-1.23417e-05
-5.43184e-07
-1.31963e-05
8.99822e-07
-1.41641e-05
2.37743e-06
-1.52743e-05
3.92665e-06
-1.65422e-05
5.62936e-06
-1.8003e-05
7.10602e-06
-1.93316e-05
9.56683e-06
-2.12943e-05
1.09146e-05
-1.88761e-05
1.85471e-05
-8.51388e-06
2.15162e-05
-1.35639e-05
3.5697e-05
-1.22944e-05
5.72555e-05
4.64454e-08
7.69996e-05
9.38093e-05
-7.67567e-06
-6.69002e-06
-8.31929e-06
-5.40538e-06
-8.98096e-06
-4.06541e-06
-9.65965e-06
-2.69275e-06
-1.03693e-05
-1.25566e-06
-1.11327e-05
2.19961e-07
-1.19537e-05
1.72052e-06
-1.28548e-05
3.2782e-06
-1.38284e-05
4.90011e-06
-1.48029e-05
6.60375e-06
-1.59029e-05
8.20209e-06
-1.58174e-05
9.52928e-06
-1.68085e-05
1.17421e-05
-8.01277e-06
1.21874e-05
-1.16637e-05
1.42934e-05
-1.00172e-05
4.32324e-05
-9.29623e-06
5.59017e-05
3.26591e-06
8.1665e-05
9.11626e-05
-6.59735e-06
-6.08902e-06
-7.21907e-06
-4.78368e-06
-7.85131e-06
-3.43321e-06
-8.51821e-06
-2.02593e-06
-9.21973e-06
-5.54263e-07
-9.96259e-06
9.62661e-07
-1.07869e-05
2.54467e-06
-1.16896e-05
4.18078e-06
-1.2642e-05
5.85249e-06
-1.35782e-05
7.53993e-06
-1.45424e-05
9.16375e-06
-1.3928e-05
8.94697e-06
-1.46415e-05
1.21428e-05
2.02528e-07
1.91043e-06
1.61523e-06
3.80169e-06
3.56206e-07
3.09542e-05
-3.26032e-06
5.1822e-05
1.31486e-05
9.60367e-05
8.82216e-05
-5.42924e-06
-5.52807e-06
-6.01396e-06
-4.19894e-06
-6.6173e-06
-2.82987e-06
-7.23356e-06
-1.40964e-06
-7.87664e-06
8.88015e-08
-8.56591e-06
1.65199e-06
-9.33877e-06
3.31756e-06
-1.02296e-05
5.0718e-06
-1.12711e-05
6.89417e-06
-1.24531e-05
8.72209e-06
-1.37009e-05
1.04064e-05
-1.44928e-05
9.82012e-06
-1.62734e-05
1.30103e-05
-7.21201e-06
6.23229e-07
-1.1789e-05
7.09246e-07
1.79057e-05
1.05179e-06
1.42854e-05
8.07687e-05
2.49013e-05
0.000118213
8.85658e-05
-4.10001e-06
-5.17873e-06
-4.56644e-06
-3.73249e-06
-5.10618e-06
-2.29007e-06
-5.70342e-06
-8.12351e-07
-6.3488e-06
7.34277e-07
-7.03509e-06
2.33837e-06
-7.79495e-06
4.0776e-06
-8.66945e-06
5.9465e-06
-9.72486e-06
7.94986e-06
-1.10823e-05
1.00795e-05
-1.27918e-05
1.21066e-05
-1.572e-05
1.27923e-05
-1.79633e-05
1.48469e-05
-1.49888e-05
1.81881e-06
-2.35168e-05
4.30832e-06
1.83891e-05
-2.70918e-05
1.70531e-05
7.55108e-05
3.85058e-05
0.000130992
0.000112587
-3.15474e-06
-3.29414e-06
-3.52284e-06
-3.8025e-06
-4.07763e-06
-4.3646e-06
-4.67057e-06
-5.04446e-06
-5.55608e-06
-6.25733e-06
-7.12948e-06
-7.61165e-06
-9.37909e-06
-3.96757e-06
-1.0894e-05
2.42563e-05
1.27513e-05
6.18071e-05
)
;

boundaryField
{
    leftWall
    {
        type            fixedValue;
        value           nonuniform 0();
    }
    rightWall
    {
        type            fixedValue;
        value           uniform 0;
    }
    lowerWall
    {
        type            fixedValue;
        value           nonuniform 0();
    }
    atmosphere
    {
        type            calculated;
        value           nonuniform List<scalar> 
23
(
-3.66649e-06
-3.34579e-06
-3.02921e-06
-2.71638e-06
-5.17718e-06
-3.59307e-06
-2.06135e-06
-5.32662e-07
1.00945e-06
2.6254e-06
4.38363e-06
6.32049e-06
8.46159e-06
1.07809e-05
1.29792e-05
1.32981e-05
1.66848e-05
-3.04494e-06
1.25743e-05
-5.1644e-05
6.27755e-05
0.000194259
0.0001419
)
;
    }
    defaultFaces
    {
        type            empty;
        value           nonuniform 0();
    }
    procBoundary3to1
    {
        type            processor;
        value           nonuniform List<scalar> 
23
(
1.51478e-05
1.52384e-05
1.55266e-05
1.59401e-05
3.84469e-05
4.01092e-05
4.06422e-05
4.10842e-05
4.1709e-05
4.20064e-05
4.29384e-05
4.78655e-05
5.38889e-05
5.43102e-05
1.03851e-05
-0.000213926
-0.000428306
-0.000334667
-0.000173632
-5.44868e-05
6.01719e-05
5.82183e-05
3.84199e-05
)
;
    }
    procBoundary3to2
    {
        type            processor;
        value           nonuniform List<scalar> 
25
(
1.99944e-05
2.02568e-05
1.87701e-05
1.94601e-05
1.8512e-05
1.86662e-05
1.78939e-05
1.72632e-05
1.64994e-05
1.56981e-05
1.48433e-05
1.4014e-05
1.31552e-05
1.23002e-05
1.14385e-05
1.05697e-05
9.69304e-06
8.80474e-06
7.90312e-06
6.98038e-06
6.01973e-06
5.01728e-06
4.15552e-06
3.65472e-06
3.50093e-06
)
;
    }
}


// ************************************************************************* //
