/*--------------------------------*- C++ -*----------------------------------*\
| =========                 |                                                 |
| \\      /  F ield         | OpenFOAM: The Open Source CFD Toolbox           |
|  \\    /   O peration     | Version:  2.4.0                                 |
|   \\  /    A nd           | Web:      www.OpenFOAM.org                      |
|    \\/     M anipulation  |                                                 |
\*---------------------------------------------------------------------------*/
FoamFile
{
    version     2.0;
    format      ascii;
    class       surfaceScalarField;
    location    "0.5";
    object      phi.water;
}
// * * * * * * * * * * * * * * * * * * * * * * * * * * * * * * * * * * * * * //

dimensions      [0 3 -1 0 0 0 0];

internalField   nonuniform List<scalar> 
1102
(
-2.05489e-05
-1.45922e-05
-2.1086e-05
-1.46996e-05
-2.17574e-05
-1.48539e-05
-1.50849e-05
-2.26104e-05
-2.08703e-05
-1.39786e-05
-2.14617e-05
-1.4108e-05
-2.21062e-05
-1.42095e-05
-1.4081e-05
-2.31099e-05
-1.94664e-05
-1.32822e-05
-2.03373e-05
-1.3237e-05
-2.12991e-05
-1.32475e-05
-1.29336e-05
-2.24464e-05
-2.01885e-05
-1.25535e-05
-2.11449e-05
-1.22804e-05
-2.21751e-05
-1.22171e-05
-1.18782e-05
-2.32304e-05
-1.94584e-05
-1.16069e-05
-2.04836e-05
-1.1255e-05
-2.14868e-05
-1.12138e-05
-1.09341e-05
-2.24309e-05
-1.95383e-05
-1.07346e-05
-2.03612e-05
-1.04319e-05
-2.12172e-05
-1.03577e-05
-1.01413e-05
-2.20099e-05
-1.86091e-05
-1.00192e-05
-1.93219e-05
-9.71895e-06
-2.01547e-05
-9.52486e-06
-9.31027e-06
-2.09857e-05
-1.79611e-05
-9.32109e-06
-1.86051e-05
-9.07478e-06
-1.93133e-05
-8.81668e-06
-8.56444e-06
-2.00591e-05
-1.71979e-05
-8.62235e-06
-1.78578e-05
-8.41475e-06
-1.84935e-05
-8.18098e-06
-7.94703e-06
-1.91109e-05
-1.6289e-05
-8.0312e-06
-1.68712e-05
-7.83252e-06
-1.74407e-05
-7.61149e-06
-7.37203e-06
-1.80157e-05
-1.54272e-05
-7.44709e-06
-1.59842e-05
-7.27542e-06
-1.65325e-05
-7.06314e-06
-6.82603e-06
-1.70786e-05
-1.45209e-05
-6.94003e-06
-1.50342e-05
-6.76202e-06
-1.55343e-05
-6.56307e-06
-6.33911e-06
-1.60213e-05
-1.36237e-05
-6.47136e-06
-1.4095e-05
-6.29065e-06
-1.45613e-05
-6.09677e-06
-5.8833e-06
-1.50172e-05
-1.27209e-05
-6.05047e-06
-1.31505e-05
-5.861e-06
-1.35798e-05
-5.66753e-06
-5.462e-06
-1.40012e-05
-1.18242e-05
-5.66466e-06
-1.22158e-05
-5.46931e-06
-1.26101e-05
-5.27336e-06
-5.07105e-06
-1.30011e-05
-1.09244e-05
-5.3099e-06
-1.12838e-05
-5.10989e-06
-1.16471e-05
-4.91007e-06
-4.70683e-06
-1.20114e-05
-1.00214e-05
-4.98141e-06
-1.03526e-05
-4.77867e-06
-1.06888e-05
-4.57394e-06
-4.36969e-06
-1.1026e-05
-9.10947e-06
-4.67663e-06
-9.41772e-06
-4.47044e-06
-9.72979e-06
-4.2619e-06
-4.05414e-06
-1.00454e-05
-8.18703e-06
-4.39266e-06
-8.47337e-06
-4.1841e-06
-8.7634e-06
-3.97193e-06
-3.75891e-06
-9.05867e-06
-7.24544e-06
-4.12761e-06
-7.51377e-06
-3.91579e-06
-7.78585e-06
-3.69989e-06
-3.48208e-06
-8.06272e-06
-6.2715e-06
-3.87581e-06
-6.52641e-06
-3.6609e-06
-6.78524e-06
-3.44113e-06
-3.21969e-06
-7.04766e-06
-5.25827e-06
-3.63486e-06
-5.50291e-06
-3.41629e-06
-5.74792e-06
-3.19616e-06
-2.97134e-06
-5.99632e-06
-4.27979e-06
-3.51059e-06
-4.44797e-06
-3.24812e-06
-4.64801e-06
-2.99618e-06
-2.7511e-06
-4.86827e-06
-3.62199e-06
-3.54336e-06
-3.62542e-06
-3.24472e-06
-3.66703e-06
-2.95458e-06
-2.66744e-06
-3.7507e-06
-3.37784e-06
-3.27677e-06
-3.20214e-06
-3.1532e-06
-2.51433e-05
-3.59088e-05
-2.86325e-05
-3.66087e-05
-3.27624e-05
-3.64959e-05
-3.74419e-05
-3.63788e-05
-4.20576e-05
-3.70552e-05
-4.72663e-05
-3.67129e-05
-5.30653e-05
-3.69447e-05
-6.03177e-05
-4.01751e-05
-6.92068e-05
-4.41407e-05
-7.60281e-05
-4.63956e-05
-7.04408e-05
-1.78048e-05
3.283e-07
0.000144044
4.2235e-05
0.000389983
5.20457e-05
0.000321481
3.94505e-05
0.000181992
1.80183e-05
8.17819e-05
9.77045e-06
6.69842e-05
6.30849e-06
-6.13351e-05
-3.38759e-05
-2.60124e-05
-3.30062e-05
-2.94419e-05
-3.31789e-05
-3.2766e-05
-3.31715e-05
-3.63978e-05
-3.27466e-05
-4.12702e-05
-3.21824e-05
-4.68737e-05
-3.11094e-05
-5.37817e-05
-3.00366e-05
-6.33098e-05
-3.0648e-05
-7.68319e-05
-3.06224e-05
-9.40139e-05
-2.92326e-05
-0.000101351
-1.0441e-05
-5.14774e-05
9.46144e-05
3.1169e-05
0.000307007
6.86046e-05
0.000284044
6.93247e-05
0.000181301
3.9984e-05
0.000111216
1.18405e-05
0.000105809
7.92339e-06
-6.17973e-05
-2.74995e-05
-2.54145e-05
-3.00379e-05
-2.88241e-05
-2.97691e-05
-3.22425e-05
-2.97529e-05
-3.60703e-05
-2.89186e-05
-4.10115e-05
-2.7241e-05
-4.64015e-05
-2.57193e-05
-5.2888e-05
-2.35501e-05
-6.23252e-05
-2.12111e-05
-7.58782e-05
-1.70699e-05
-9.50328e-05
-1.00838e-05
-0.000113536
8.05874e-06
-9.36317e-05
7.48361e-05
-2.45393e-06
0.000215348
5.34969e-05
0.000228063
7.68758e-05
0.000157927
5.97401e-05
0.000128427
1.83811e-05
0.00013306
1.01554e-05
-5.3743e-05
-1.9643e-05
-2.58679e-05
-2.74002e-05
-2.84413e-05
-2.71956e-05
-3.13843e-05
-2.68098e-05
-3.50852e-05
-2.52175e-05
-3.94597e-05
-2.28665e-05
-4.42282e-05
-2.09508e-05
-5.00341e-05
-1.7744e-05
-5.80771e-05
-1.31681e-05
-6.82511e-05
-6.89616e-06
-8.22234e-05
3.888e-06
-9.64768e-05
2.23092e-05
-8.63866e-05
6.47815e-05
-1.69404e-05
0.000145704
3.52329e-05
0.000175811
7.18797e-05
0.000121263
7.70452e-05
0.000123295
3.92128e-05
0.000154221
1.13886e-05
-2.4334e-05
-9.8672e-06
-2.4786e-05
-2.5045e-05
-2.73498e-05
-2.46317e-05
-3.02483e-05
-2.39112e-05
-3.37123e-05
-2.17536e-05
-3.73789e-05
-1.91999e-05
-4.12586e-05
-1.70711e-05
-4.61584e-05
-1.28443e-05
-5.2077e-05
-7.24969e-06
-5.83303e-05
-6.43109e-07
-6.57986e-05
1.13561e-05
-7.04967e-05
2.70069e-05
-6.08514e-05
5.51433e-05
-1.18811e-05
9.66678e-05
3.81982e-05
0.000125675
7.35709e-05
8.58926e-05
8.39106e-05
0.000112961
5.39945e-05
0.000176712
1.209e-05
3.16681e-05
-8.44488e-07
-2.40137e-05
-2.30411e-05
-2.62297e-05
-2.24158e-05
-2.8956e-05
-2.1185e-05
-3.18695e-05
-1.88403e-05
-3.48184e-05
-1.62511e-05
-3.80637e-05
-1.38258e-05
-4.16991e-05
-9.20894e-06
-4.53957e-05
-3.55327e-06
-4.87973e-05
2.75808e-06
-5.12681e-05
1.38265e-05
-5.00156e-05
2.5754e-05
-3.92047e-05
4.43331e-05
-6.39213e-06
6.38416e-05
3.84196e-05
8.08317e-05
6.93317e-05
5.49792e-05
7.59025e-05
0.000106389
4.38357e-05
0.00020814
9.59349e-06
8.95775e-05
4.67999e-06
-2.28864e-05
-2.11404e-05
-2.50321e-05
-2.02702e-05
-2.74756e-05
-1.87416e-05
-2.98434e-05
-1.64728e-05
-3.21825e-05
-1.39122e-05
-3.47974e-05
-1.1211e-05
-3.71763e-05
-6.83007e-06
-3.91797e-05
-1.55004e-06
-4.04976e-05
4.07563e-06
-4.00111e-05
1.33397e-05
-3.59698e-05
2.17124e-05
-2.55695e-05
3.39326e-05
-5.32635e-06
4.35966e-05
2.77478e-05
4.77502e-05
4.78585e-05
3.48671e-05
5.08277e-05
0.00010342
3.27185e-05
0.000226102
8.49081e-07
0.0001275
1.02385e-05
-2.18201e-05
-1.93794e-05
-2.37598e-05
-1.83306e-05
-2.57843e-05
-1.67173e-05
-2.77424e-05
-1.45149e-05
-2.95945e-05
-1.20603e-05
-3.15196e-05
-9.28599e-06
-3.29997e-05
-5.35011e-06
-3.37933e-05
-7.56551e-07
-3.37664e-05
4.04846e-06
-3.18237e-05
1.13968e-05
-2.73279e-05
1.72163e-05
-1.80993e-05
2.47039e-05
-6.17401e-06
3.1671e-05
1.4535e-05
2.70404e-05
1.99029e-05
2.94983e-05
2.72204e-05
9.61028e-05
2.96109e-05
0.000223666
-8.97412e-07
0.000151732
1.7511e-05
-2.06309e-05
-1.78594e-05
-2.23654e-05
-1.65962e-05
-2.4076e-05
-1.5007e-05
-2.57113e-05
-1.28799e-05
-2.71876e-05
-1.05842e-05
-2.84973e-05
-7.97633e-06
-2.93015e-05
-4.54599e-06
-2.93815e-05
-6.76634e-07
-2.85123e-05
3.17905e-06
-2.58682e-05
8.75248e-06
-2.1631e-05
1.29789e-05
-1.35709e-05
1.66437e-05
-5.73396e-06
2.3834e-05
6.82317e-06
1.44832e-05
6.77627e-06
2.95445e-05
1.98442e-05
8.30357e-05
2.94324e-05
0.000214054
-7.23714e-07
0.000173104
2.55734e-05
-1.94976e-05
-1.63776e-05
-2.099e-05
-1.5104e-05
-2.24579e-05
-1.35393e-05
-2.37878e-05
-1.15502e-05
-2.49369e-05
-9.43521e-06
-2.5836e-05
-7.07717e-06
-2.62082e-05
-4.17389e-06
-2.58753e-05
-1.00966e-06
-2.463e-05
1.93355e-06
-2.16898e-05
5.81209e-06
-1.7647e-05
8.93603e-06
-1.06235e-05
9.6201e-06
-3.80991e-06
1.70204e-05
4.47594e-06
6.19749e-06
6.13105e-06
2.78889e-05
1.65144e-05
7.2648e-05
2.96639e-05
0.000200864
3.22926e-07
0.000187562
4.13105e-05
-1.83165e-05
-1.51399e-05
-1.96401e-05
-1.37805e-05
-2.09021e-05
-1.22775e-05
-2.20049e-05
-1.04476e-05
-2.29289e-05
-8.51117e-06
-2.35709e-05
-6.43523e-06
-2.37078e-05
-4.03699e-06
-2.32091e-05
-1.50851e-06
-2.18758e-05
6.00057e-07
-1.90838e-05
3.01979e-06
-1.52328e-05
5.08491e-06
-9.12566e-06
3.51291e-06
-2.24475e-06
1.01396e-05
5.12346e-06
-1.1705e-06
1.12873e-05
2.17238e-05
2.07403e-05
6.31242e-05
3.28217e-05
0.000188601
4.73791e-06
0.000196443
6.59729e-05
-1.71845e-05
-1.39768e-05
-1.83431e-05
-1.2622e-05
-1.94437e-05
-1.11771e-05
-2.03941e-05
-9.49722e-06
-2.11706e-05
-7.73467e-06
-2.16811e-05
-5.92475e-06
-2.17486e-05
-3.96954e-06
-2.12662e-05
-1.99109e-06
-2.01157e-05
-5.50695e-07
-1.77633e-05
6.6712e-07
-1.42326e-05
1.55401e-06
-9.27252e-06
-1.44718e-06
-1.9418e-06
2.80899e-06
5.66985e-06
-8.78158e-06
1.69922e-05
1.03828e-05
2.82769e-05
5.13787e-05
3.88453e-05
0.00017668
8.62979e-06
0.000196239
9.01345e-05
-1.60616e-05
-1.29325e-05
-1.70985e-05
-1.15853e-05
-1.80841e-05
-1.01915e-05
-1.89375e-05
-8.64385e-06
-1.96361e-05
-7.036e-06
-2.01103e-05
-5.45056e-06
-2.02437e-05
-3.83632e-06
-1.99374e-05
-2.29771e-06
-1.91367e-05
-1.35165e-06
-1.75041e-05
-9.65804e-07
-1.47239e-05
-1.22639e-06
-1.14118e-05
-4.75935e-06
-4.66124e-06
-3.94134e-06
2.50916e-06
-1.59513e-05
1.46176e-05
-1.82895e-06
2.61914e-05
3.83572e-05
3.23819e-05
0.000166418
1.30851e-05
0.000196907
0.000107283
-1.49701e-05
-1.19636e-05
-1.59132e-05
-1.06423e-05
-1.68141e-05
-9.29052e-06
-1.76114e-05
-7.84656e-06
-1.8286e-05
-6.36136e-06
-1.88006e-05
-4.936e-06
-1.90914e-05
-3.54573e-06
-1.90468e-05
-2.34264e-06
-1.87534e-05
-1.64547e-06
-1.80349e-05
-1.68456e-06
-1.66709e-05
-2.5906e-06
-1.54616e-05
-5.96862e-06
-1.09476e-05
-8.45521e-06
-8.5878e-06
-1.831e-05
-1.60708e-06
-9.0568e-06
4.64507e-06
3.12769e-05
1.63883e-05
0.000146562
1.28984e-05
0.000206848
0.000133517
-1.39002e-05
-1.10646e-05
-1.47732e-05
-9.76932e-06
-1.56156e-05
-8.44807e-06
-1.63872e-05
-7.07486e-06
-1.70648e-05
-5.6838e-06
-1.76619e-05
-4.33894e-06
-1.81312e-05
-3.07678e-06
-1.84324e-05
-2.04184e-06
-1.8675e-05
-1.40331e-06
-1.89225e-05
-1.43736e-06
-1.92413e-05
-2.2719e-06
-2.0216e-05
-4.99404e-06
-2.00229e-05
-8.64849e-06
-2.36585e-05
-1.467e-05
-2.43778e-05
-8.17366e-06
-2.85484e-05
3.66653e-05
-1.48124e-05
0.000110579
-2.7789e-06
0.000196566
0.000151016
-1.28529e-05
-1.02232e-05
-1.36735e-05
-8.94868e-06
-1.44729e-05
-7.64869e-06
-1.52326e-05
-6.31504e-06
-1.59434e-05
-4.973e-06
-1.66193e-05
-3.66321e-06
-1.72486e-05
-2.44783e-06
-1.78734e-05
-1.41755e-06
-1.85872e-05
-6.89849e-07
-1.96449e-05
-3.79962e-07
-2.12069e-05
-7.10068e-07
-2.40951e-05
-2.10612e-06
-2.8034e-05
-4.70982e-06
-3.61376e-05
-6.56659e-06
-4.39639e-05
2.13759e-07
-4.80119e-05
4.81174e-05
-2.80967e-05
7.86949e-05
2.99566e-06
0.000155242
0.000171037
-1.1819e-05
-9.43024e-06
-1.25964e-05
-8.17129e-06
-1.33671e-05
-6.87794e-06
-1.41172e-05
-5.56484e-06
-1.48626e-05
-4.2277e-06
-1.56034e-05
-2.92268e-06
-1.63713e-05
-1.68032e-06
-1.72271e-05
-5.62208e-07
-1.83082e-05
3.90837e-07
-1.98276e-05
1.13923e-06
-2.20299e-05
1.49203e-06
-2.58274e-05
1.69111e-06
-3.15545e-05
1.01645e-06
-4.18958e-05
3.77423e-06
-5.2521e-05
1.14466e-05
-5.22179e-05
6.11114e-05
-2.29121e-05
6.15109e-05
2.12393e-06
0.000125939
0.000115797
-1.07918e-05
-8.68383e-06
-1.15316e-05
-7.43148e-06
-1.22752e-05
-6.13426e-06
-1.3023e-05
-4.81707e-06
-1.37819e-05
-3.46892e-06
-1.45683e-05
-2.13659e-06
-1.5425e-05
-8.24079e-07
-1.6398e-05
4.10442e-07
-1.76141e-05
1.60655e-06
-1.9297e-05
2.82191e-06
-2.15727e-05
3.76749e-06
-2.53334e-05
5.45132e-06
-3.04176e-05
6.09976e-06
-3.96754e-05
1.30316e-05
-4.83174e-05
2.14666e-05
-3.5404e-05
6.82767e-05
-1.52732e-05
6.14754e-05
1.5222e-06
9.75275e-05
0.000101735
-9.76221e-06
-7.98031e-06
-1.04689e-05
-6.72471e-06
-1.11862e-05
-5.41697e-06
-1.19206e-05
-4.08266e-06
-1.26803e-05
-2.70945e-06
-1.34792e-05
-1.33801e-06
-1.43493e-05
4.55931e-08
-1.53492e-05
1.40998e-06
-1.65596e-05
2.81672e-06
-1.80998e-05
4.36188e-06
-1.99868e-05
5.65417e-06
-2.27314e-05
8.19541e-06
-2.59455e-05
9.3131e-06
-3.13882e-05
1.84728e-05
-3.32618e-05
2.44776e-05
-2.20071e-05
7.17329e-05
-1.40118e-05
6.38949e-05
-9.86217e-07
8.11212e-05
9.69824e-05
-8.72508e-06
-7.31798e-06
-9.40079e-06
-6.04899e-06
-1.00907e-05
-4.72705e-06
-1.08021e-05
-3.37132e-06
-1.15466e-05
-1.96515e-06
-1.23417e-05
-5.43184e-07
-1.31963e-05
8.99822e-07
-1.41641e-05
2.37743e-06
-1.52743e-05
3.92666e-06
-1.65421e-05
5.62952e-06
-1.79958e-05
7.10748e-06
-1.93775e-05
9.57658e-06
-2.10233e-05
1.0958e-05
-2.1227e-05
1.86756e-05
-1.88283e-05
2.22342e-05
-1.46813e-05
7.05599e-05
-1.20489e-05
6.60244e-05
-9.96954e-08
7.69948e-05
9.38085e-05
-7.67567e-06
-6.69002e-06
-8.31929e-06
-5.40538e-06
-8.98096e-06
-4.06541e-06
-9.65965e-06
-2.69275e-06
-1.03693e-05
-1.25566e-06
-1.11327e-05
2.19961e-07
-1.19537e-05
1.72052e-06
-1.28548e-05
3.2782e-06
-1.38284e-05
4.90011e-06
-1.48029e-05
6.60383e-06
-1.58987e-05
8.20289e-06
-1.5857e-05
9.53443e-06
-1.66694e-05
1.17697e-05
-1.03306e-05
1.23359e-05
-4.80661e-06
1.67075e-05
2.36958e-06
5.95704e-05
-7.47949e-06
7.21937e-05
2.9797e-06
8.20018e-05
9.11645e-05
-6.59735e-06
-6.08902e-06
-7.21907e-06
-4.78368e-06
-7.85131e-06
-3.43321e-06
-8.51821e-06
-2.02593e-06
-9.21973e-06
-5.54263e-07
-9.96259e-06
9.62661e-07
-1.07869e-05
2.54467e-06
-1.16896e-05
4.18078e-06
-1.2642e-05
5.85249e-06
-1.35782e-05
7.53998e-06
-1.45399e-05
9.16442e-06
-1.39594e-05
8.95378e-06
-1.44055e-05
1.22156e-05
-5.05136e-06
2.98187e-06
4.44618e-06
7.20894e-06
2.69252e-05
3.67617e-05
1.58528e-06
7.57431e-05
1.21419e-05
9.92137e-05
8.82307e-05
-5.42924e-06
-5.52807e-06
-6.01396e-06
-4.19894e-06
-6.6173e-06
-2.82987e-06
-7.23356e-06
-1.40964e-06
-7.87664e-06
8.88015e-08
-8.56591e-06
1.65199e-06
-9.33877e-06
3.31756e-06
-1.02296e-05
5.0718e-06
-1.12711e-05
6.89417e-06
-1.2453e-05
8.72216e-06
-1.36958e-05
1.04075e-05
-1.45723e-05
9.83053e-06
-1.54832e-05
1.3127e-05
-1.37591e-05
1.25839e-06
-1.03074e-05
3.75749e-06
2.32151e-05
3.23859e-06
1.35453e-05
8.74435e-05
2.26589e-05
0.000121656
8.85578e-05
-4.10001e-06
-5.17873e-06
-4.56644e-06
-3.73249e-06
-5.10618e-06
-2.29007e-06
-5.70342e-06
-8.12351e-07
-6.3488e-06
7.34277e-07
-7.03509e-06
2.33837e-06
-7.79495e-06
4.0776e-06
-8.66945e-06
5.9465e-06
-9.72484e-06
7.94986e-06
-1.1082e-05
1.00796e-05
-1.27822e-05
1.21081e-05
-1.57597e-05
1.28085e-05
-1.76155e-05
1.49834e-05
-1.81649e-05
1.80834e-06
-2.18766e-05
7.46975e-06
1.42217e-05
-3.28588e-05
2.12494e-05
7.88312e-05
3.70155e-05
0.000131357
0.000112407
-3.15474e-06
-3.29414e-06
-3.52284e-06
-3.8025e-06
-4.07763e-06
-4.3646e-06
-4.67057e-06
-5.04446e-06
-5.55608e-06
-6.2573e-06
-7.12857e-06
-7.62076e-06
-9.34613e-06
-4.48725e-06
-1.01887e-05
9.35932e-06
1.45752e-05
5.77313e-05
)
;

boundaryField
{
    leftWall
    {
        type            fixedValue;
        value           nonuniform 0();
    }
    rightWall
    {
        type            fixedValue;
        value           uniform 0;
    }
    lowerWall
    {
        type            fixedValue;
        value           nonuniform 0();
    }
    atmosphere
    {
        type            calculated;
        value           nonuniform List<scalar> 
23
(
-3.66649e-06
-3.34579e-06
-3.02921e-06
-2.71638e-06
-5.17718e-06
-3.59307e-06
-2.06135e-06
-5.32662e-07
1.00945e-06
2.6254e-06
4.38363e-06
6.32049e-06
8.46159e-06
1.07809e-05
1.29795e-05
1.33009e-05
1.67089e-05
-3.05035e-06
1.31715e-05
-5.24061e-05
7.35855e-05
0.000116792
0.000133183
)
;
    }
    defaultFaces
    {
        type            empty;
        value           nonuniform 0();
    }
    procBoundary3to1
    {
        type            processor;
        value           nonuniform List<scalar> 
23
(
1.51462e-05
1.52369e-05
1.5525e-05
1.59382e-05
3.84414e-05
4.00985e-05
4.06258e-05
4.10592e-05
4.1671e-05
4.19203e-05
4.2743e-05
4.74212e-05
5.30229e-05
5.31855e-05
1.23572e-05
-0.000214608
-0.000431855
-0.00033147
-0.000169347
-6.00903e-05
-2.65258e-05
5.79265e-05
3.84126e-05
)
;
    }
    procBoundary3to2
    {
        type            processor;
        value           nonuniform List<scalar> 
25
(
1.99944e-05
2.02569e-05
1.87702e-05
1.94602e-05
1.85121e-05
1.86662e-05
1.78939e-05
1.72632e-05
1.64994e-05
1.56981e-05
1.48433e-05
1.4014e-05
1.31552e-05
1.23002e-05
1.14385e-05
1.05697e-05
9.69304e-06
8.80474e-06
7.90312e-06
6.98038e-06
6.01973e-06
5.01728e-06
4.15552e-06
3.65472e-06
3.50093e-06
)
;
    }
}


// ************************************************************************* //
