/*--------------------------------*- C++ -*----------------------------------*\
| =========                 |                                                 |
| \\      /  F ield         | OpenFOAM: The Open Source CFD Toolbox           |
|  \\    /   O peration     | Version:  2.4.0                                 |
|   \\  /    A nd           | Web:      www.OpenFOAM.org                      |
|    \\/     M anipulation  |                                                 |
\*---------------------------------------------------------------------------*/
FoamFile
{
    version     2.0;
    format      ascii;
    class       volScalarField;
    location    "0.5";
    object      rho;
}
// * * * * * * * * * * * * * * * * * * * * * * * * * * * * * * * * * * * * * //

dimensions      [1 -3 0 0 0 0 0];

internalField   nonuniform List<scalar> 
575
(
1
1
1
0.999999
1
1
0.999999
0.999999
1
1
1
1
1
1
1
1
1
1
1
1
1
1
1
1
1
1
1
1
0.999999
1
1
0.999999
0.999999
0.999999
0.999999
0.999999
0.999998
0.999999
0.999999
0.999998
0.999999
0.999998
0.999998
0.999998
0.999998
0.999998
0.999998
0.999998
0.999999
0.999999
0.999998
0.999998
0.999998
0.999999
0.999999
0.999998
0.999999
0.999999
0.999999
0.999998
0.999999
0.999999
0.999999
0.999998
1
1
0.999999
0.999999
1
1
1
0.999999
1
1
1
0.999999
1
1
1
0.999999
1
1
1
1
1
1
1
1
1
1
1
1
1
1
1
1
1
1
1
1
0.999999
0.999999
0.999999
0.999999
1
1
1.00002
1.00005
1.00015
1.00035
1.00067
1.00109
1.00116
1.00101
1.00108
1.00134
1.15256
272.097
477.603
0.999999
0.999999
0.999998
0.999998
0.999999
1
1.00001
1.00003
1.00008
1.00023
1.0005
1.00086
1.00108
1.00099
1.00112
1.00128
1.00203
253.745
483.266
0.999999
0.999999
0.999998
0.999998
0.999999
1
1
1.00001
1.00004
1.00012
1.00031
1.00063
1.00094
1.00097
1.00108
1.00123
1.00152
105.53
465.017
1
0.999999
0.999999
0.999998
0.999998
0.999999
1
1
1.00002
1.00005
1.00015
1.00036
1.00066
1.00081
1.00092
1.00109
1.00136
20.4649
419.808
1
1
0.999999
0.999999
0.999999
0.999999
0.999999
1
1.00001
1.00002
1.00006
1.00016
1.00034
1.00054
1.00065
1.0009
1.00122
3.79742
389.562
1
1
0.999999
0.999999
0.999999
0.999999
0.999999
1
1
1.00001
1.00002
1.00006
1.00014
1.00027
1.00042
1.00077
1.00114
1.42256
386.176
1
0.999999
0.999999
0.999999
0.999999
0.999999
0.999999
0.999999
1
1
1.00001
1.00002
1.00005
1.0001
1.0003
1.00077
1.00114
1.07594
366.818
0.999999
0.999999
0.999999
0.999999
0.999999
0.999999
0.999999
0.999999
1
1
1
1.00001
1.00002
1.00003
1.00022
1.00087
1.00119
1.01779
331.292
0.999999
0.999999
0.999999
0.999998
0.999998
0.999999
0.999999
0.999999
1
1
1
1
1.00001
1.00002
1.00021
1.00089
1.00123
1.00891
321.467
0.999998
0.999998
0.999998
0.999998
0.999998
0.999998
0.999999
0.999999
1
1
1
1
1.00001
1.00003
1.00027
1.00083
1.00134
1.00927
310.221
0.999998
0.999998
0.999998
0.999998
0.999998
0.999998
0.999999
0.999999
1
1
1
1
1.00001
1.00008
1.0003
1.00235
1.00231
1.02231
283.359
0.999997
0.999997
0.999997
0.999997
0.999998
0.999998
0.999999
0.999999
1
1
1
1.00001
1.00002
1.0001
1.00034
1.00838
1.006
1.18978
175.996
0.999997
0.999997
0.999997
0.999997
0.999997
0.999998
0.999999
0.999999
1
1
1
1.00001
1.00003
1.00014
1.00125
1.02244
1.00825
1.75522
45.8631
0.999997
0.999997
0.999997
0.999997
0.999997
0.999998
0.999999
0.999999
1
1
1
1.00001
1.00003
1.0002
1.0039
1.07856
1.00983
1.42646
4.28441
0.999997
0.999997
0.999997
0.999997
0.999998
0.999998
0.999999
0.999999
1
1
1
1.00001
1.00003
1.00018
1.00427
1.116
1.16965
1.24069
1.24684
0.999998
0.999997
0.999997
0.999997
0.999998
0.999998
0.999999
0.999999
0.999999
1
1
1.00001
1.00002
1.00011
1.00087
1.09522
1.92085
2.15878
3.03086
0.999998
0.999997
0.999997
0.999997
0.999998
0.999999
0.999999
0.999999
0.999999
1
1
1
1.00002
1.00008
1.00057
1.07
3.07748
20.9718
119.888
0.999998
0.999998
0.999998
0.999998
0.999998
0.999999
0.999999
0.999999
0.999999
0.999999
1
1
1.00001
1.00005
1.00068
1.17577
9.9809
105.892
412.774
0.999999
0.999998
0.999998
0.999998
0.999999
0.999999
0.999999
0.999999
0.999999
0.999999
1
1
1.00001
1.00003
1.00032
1.26538
24.6739
259.04
491.998
0.999999
0.999999
0.999998
0.999999
0.999999
0.999999
0.999999
0.999999
0.999999
0.999999
1
1
1.00001
1.00003
1.00012
1.08308
17.1347
302.337
492.929
0.999999
0.999999
0.999999
0.999999
0.999999
0.999999
0.999999
0.999999
0.999999
0.999999
0.999999
1
1
1.00001
1.00007
1.00274
3.28787
255.431
492.929
0.999999
0.999999
0.999999
0.999999
0.999999
0.999999
0.999999
0.999999
0.999999
0.999999
0.999999
1
1
1.00001
1.0002
1.00049
1.04156
125.872
492.657
0.999999
0.999999
0.999999
0.999999
0.999999
0.999999
0.999998
0.999998
0.999998
0.999999
0.999999
1
1.00001
1.00009
1.00051
1.00066
1.00108
28.2403
477.073
0.999999
0.999999
0.999999
0.999999
0.999999
0.999999
0.999999
0.999999
0.999999
0.999999
0.999999
1
1.00002
1.00007
1.00026
1.00033
1.00052
3.75652
398.847
1
1
1
1
1
0.999999
0.999999
0.999999
0.999999
0.999999
1
1
1
1
1.00002
1.00004
1.00037
1.06536
197.258
)
;

boundaryField
{
    leftWall
    {
        type            calculated;
        value           nonuniform 0();
    }
    rightWall
    {
        type            calculated;
        value           nonuniform List<scalar> 
25
(
477.603
483.266
465.017
419.808
389.562
386.176
366.818
331.292
321.467
310.221
283.359
175.996
45.8631
4.28441
1.24684
3.03086
119.888
412.774
491.998
492.929
492.929
492.657
477.073
398.847
197.258
)
;
    }
    lowerWall
    {
        type            calculated;
        value           nonuniform 0();
    }
    atmosphere
    {
        type            calculated;
        value           nonuniform List<scalar> 
23
(
1
1
1
1
1
1
1
1
1
0.999999
0.999999
0.999999
0.999999
0.999999
1
1
1
1
1.00002
1
1.00037
1.06536
197.258
)
;
    }
    defaultFaces
    {
        type            empty;
    }
    procBoundary3to1
    {
        type            processor;
        value           nonuniform List<scalar> 
23
(
1
1
1
1
1
1
1
1
1
1.00001
1.00003
1.00008
1.00021
1.00044
1.00079
1.00132
1.00124
1.00109
1.00117
1.0016
2.24773
141.039
453.927
)
;
    }
    procBoundary3to2
    {
        type            processor;
        value           nonuniform List<scalar> 
25
(
1
1
1
1
1
0.999999
0.999999
0.999998
0.999998
0.999997
0.999997
0.999998
0.999998
0.999998
0.999999
0.999999
0.999999
1
1
1
1
1
1
1
1
)
;
    }
}


// ************************************************************************* //
