/*--------------------------------*- C++ -*----------------------------------*\
| =========                 |                                                 |
| \\      /  F ield         | OpenFOAM: The Open Source CFD Toolbox           |
|  \\    /   O peration     | Version:  2.4.0                                 |
|   \\  /    A nd           | Web:      www.OpenFOAM.org                      |
|    \\/     M anipulation  |                                                 |
\*---------------------------------------------------------------------------*/
FoamFile
{
    version     2.0;
    format      ascii;
    class       volVectorField;
    location    "0.5";
    object      U.mercury;
}
// * * * * * * * * * * * * * * * * * * * * * * * * * * * * * * * * * * * * * //

dimensions      [0 1 -1 0 0 0 0];

internalField   nonuniform List<vector> 
575
(
(-0.108307 -0.166357 0)
(-0.112178 -0.167207 0)
(-0.114138 -0.16947 0)
(-0.119692 -0.17279 0)
(-0.110162 -0.165366 0)
(-0.114097 -0.166457 0)
(-0.11631 -0.167377 0)
(-0.1224 -0.167668 0)
(-0.102684 -0.155264 0)
(-0.106872 -0.157487 0)
(-0.110806 -0.158529 0)
(-0.118735 -0.155673 0)
(-0.106599 -0.146054 0)
(-0.110932 -0.143096 0)
(-0.115026 -0.142699 0)
(-0.121963 -0.139288 0)
(-0.101928 -0.140273 0)
(-0.107932 -0.136289 0)
(-0.112337 -0.135329 0)
(-0.117877 -0.130832 0)
(-0.102335 -0.125448 0)
(-0.107954 -0.121949 0)
(-0.111787 -0.12191 0)
(-0.115097 -0.120126 0)
(-0.0977357 -0.118594 0)
(-0.102209 -0.115082 0)
(-0.106348 -0.113554 0)
(-0.110178 -0.111557 0)
(-0.0941362 -0.111152 0)
(-0.098332 -0.107916 0)
(-0.102262 -0.104812 0)
(-0.105388 -0.102023 0)
(-0.0901814 -0.101691 0)
(-0.0941126 -0.0996214 0)
(-0.0978605 -0.0968631 0)
(-0.101278 -0.0943297 0)
(-0.0856696 -0.0956235 0)
(-0.0887157 -0.09306 0)
(-0.0924165 -0.0905347 0)
(-0.0954178 -0.0879706 0)
(-0.0810941 -0.088108 0)
(-0.0841463 -0.0863134 0)
(-0.0872436 -0.0837734 0)
(-0.0907182 -0.0810182 0)
(-0.0765402 -0.0822432 0)
(-0.0790933 -0.0802262 0)
(-0.0819719 -0.0779203 0)
(-0.0850569 -0.0754001 0)
(-0.0718486 -0.0765143 0)
(-0.0742582 -0.0745395 0)
(-0.0767056 -0.0723171 0)
(-0.0796971 -0.0698492 0)
(-0.0671665 -0.0715052 0)
(-0.0693349 -0.0694016 0)
(-0.071522 -0.0672038 0)
(-0.0742338 -0.0648465 0)
(-0.0624533 -0.0668795 0)
(-0.0644724 -0.0647017 0)
(-0.0664201 -0.062489 0)
(-0.0688615 -0.0601801 0)
(-0.0577067 -0.0626557 0)
(-0.0595888 -0.0604048 0)
(-0.0613739 -0.0581461 0)
(-0.063544 -0.0558452 0)
(-0.0529265 -0.0587556 0)
(-0.0546876 -0.056459 0)
(-0.0563492 -0.054148 0)
(-0.0582737 -0.051825 0)
(-0.0480905 -0.0551362 0)
(-0.0497382 -0.0528047 0)
(-0.0513107 -0.0504416 0)
(-0.0530392 -0.0480776 0)
(-0.043193 -0.0517733 0)
(-0.0447248 -0.0494098 0)
(-0.0462177 -0.0470015 0)
(-0.0477906 -0.0445879 0)
(-0.0381848 -0.0486574 0)
(-0.0396181 -0.0462487 0)
(-0.0410451 -0.0437927 0)
(-0.0425005 -0.0413265 0)
(-0.0329884 -0.0456924 0)
(-0.0343543 -0.0432529 0)
(-0.0357244 -0.0407665 0)
(-0.0371049 -0.0382574 0)
(-0.0275886 -0.042764 0)
(-0.0288947 -0.0403624 0)
(-0.0301977 -0.0378883 0)
(-0.0315105 -0.0353583 0)
(-0.0225386 -0.040391 0)
(-0.023363 -0.0377323 0)
(-0.0243859 -0.0351538 0)
(-0.0255368 -0.0326021 0)
(-0.0195218 -0.0400615 0)
(-0.0194024 -0.0367707 0)
(-0.0195251 -0.0335895 0)
(-0.019832 -0.0304677 0)
(-0.0184527 -0.0418449 0)
(-0.0178044 -0.0381856 0)
(-0.0173548 -0.0345737 0)
(-0.0170083 -0.0310046 0)
(-0.12873 -0.175783 0)
(-0.143044 -0.180741 0)
(-0.163066 -0.180794 0)
(-0.190077 -0.180653 0)
(-0.212066 -0.184913 0)
(-0.238737 -0.185248 0)
(-0.268299 -0.191184 0)
(-0.298374 -0.211476 0)
(-0.339387 -0.236686 0)
(-0.40078 -0.24502 0)
(-0.491839 -0.0702226 0)
(-0.326389 0.876097 0)
(0.332259 2.0899 0)
(0.202882 1.6582 0)
(0.243435 0.898726 0)
(0.281569 0.340138 0)
(-0.115522 0.242298 0)
(0.0568931 -0.296013 0)
(0.00973803 -0.179861 0)
(-0.131711 -0.169445 0)
(-0.148962 -0.171588 0)
(-0.167741 -0.171714 0)
(-0.185493 -0.170975 0)
(-0.205795 -0.172255 0)
(-0.236972 -0.166535 0)
(-0.269211 -0.161192 0)
(-0.309552 -0.169859 0)
(-0.370242 -0.178359 0)
(-0.462648 -0.180711 0)
(-0.598804 -0.0704359 0)
(-0.569123 0.607432 0)
(0.105977 1.79914 0)
(0.284577 1.51658 0)
(0.349553 0.913389 0)
(0.45008 0.465662 0)
(-0.0428277 0.428901 0)
(0.0770212 -0.302396 0)
(0.00776549 -0.149606 0)
(-0.12883 -0.152177 0)
(-0.144421 -0.151151 0)
(-0.166666 -0.151248 0)
(-0.180521 -0.147871 0)
(-0.206882 -0.141079 0)
(-0.234919 -0.135972 0)
(-0.267277 -0.128727 0)
(-0.303679 -0.123402 0)
(-0.370394 -0.110974 0)
(-0.457193 -0.0876982 0)
(-0.590647 -0.00293215 0)
(-0.662109 0.388176 0)
(-0.230852 1.21203 0)
(0.200329 1.21772 0)
(0.315201 0.844105 0)
(0.497312 0.599455 0)
(0.220748 0.591271 0)
(0.0924098 -0.293501 0)
(0.0104438 -0.117582 0)
(-0.132196 -0.139382 0)
(-0.145838 -0.138342 0)
(-0.160237 -0.137329 0)
(-0.177611 -0.132201 0)
(-0.199852 -0.122462 0)
(-0.225498 -0.112706 0)
(-0.252932 -0.099372 0)
(-0.288067 -0.081537 0)
(-0.339866 -0.0530124 0)
(-0.40399 -0.00824116 0)
(-0.48283 0.078614 0)
(-0.565646 0.319696 0)
(-0.279912 0.82776 0)
(0.0828434 0.953419 0)
(0.256923 0.658134 0)
(0.481925 0.631092 0)
(0.436394 0.703152 0)
(0.0889241 -0.214944 0)
(0.00311584 -0.0720135 0)
(-0.126453 -0.127024 0)
(-0.141142 -0.126044 0)
(-0.153324 -0.123947 0)
(-0.171228 -0.113842 0)
(-0.191986 -0.101011 0)
(-0.211571 -0.0918956 0)
(-0.233472 -0.0737685 0)
(-0.265538 -0.0472767 0)
(-0.295446 -0.0142452 0)
(-0.337182 0.0409268 0)
(-0.363763 0.1216 0)
(-0.400417 0.280187 0)
(-0.199689 0.54984 0)
(0.0657225 0.72458 0)
(0.307213 0.494332 0)
(0.445293 0.574675 0)
(0.535834 0.813268 0)
(0.0498779 0.0325004 0)
(-0.00582412 -0.0226104 0)
(-0.123585 -0.116701 0)
(-0.136166 -0.11419 0)
(-0.146612 -0.109228 0)
(-0.163803 -0.098356 0)
(-0.179513 -0.0862735 0)
(-0.195541 -0.0750348 0)
(-0.214405 -0.0524478 0)
(-0.235433 -0.0246224 0)
(-0.251991 0.00752546 0)
(-0.274227 0.0627341 0)
(-0.267711 0.127806 0)
(-0.277022 0.235046 0)
(-0.11194 0.367112 0)
(0.0475266 0.480666 0)
(0.336778 0.321726 0)
(0.357625 0.486918 0)
(0.523472 0.909076 0)
(-0.0845949 0.309409 0)
(-0.0114905 0.016107 0)
(-0.117017 -0.108308 0)
(-0.129645 -0.103962 0)
(-0.140311 -0.0971609 0)
(-0.154114 -0.0856272 0)
(-0.167465 -0.0728721 0)
(-0.178368 -0.0606606 0)
(-0.195687 -0.0385243 0)
(-0.204996 -0.0109645 0)
(-0.214073 0.0173971 0)
(-0.221449 0.0661508 0)
(-0.199103 0.11391 0)
(-0.196383 0.186794 0)
(-0.0562455 0.249227 0)
(-0.00122851 0.291291 0)
(0.29372 0.198049 0)
(0.172438 0.523509 0)
(0.423475 1.06338 0)
(-0.0867708 0.539629 0)
(-0.0144334 0.0344604 0)
(-0.111805 -0.0976645 0)
(-0.123187 -0.0938903 0)
(-0.132939 -0.0859652 0)
(-0.143356 -0.0754622 0)
(-0.155051 -0.0632988 0)
(-0.162497 -0.0495547 0)
(-0.176004 -0.0292087 0)
(-0.17891 -0.00483046 0)
(-0.182102 0.0201046 0)
(-0.18058 0.0598882 0)
(-0.151383 0.0935787 0)
(-0.15411 0.1395 0)
(-0.0213625 0.177855 0)
(-0.0526717 0.172541 0)
(0.216301 0.148732 0)
(-0.0290689 0.514698 0)
(0.342931 1.11277 0)
(-0.0105368 0.689253 0)
(-0.0150067 0.0726183 0)
(-0.10555 -0.0914511 0)
(-0.115966 -0.0847745 0)
(-0.125081 -0.0771704 0)
(-0.132983 -0.0665174 0)
(-0.143193 -0.0550036 0)
(-0.148304 -0.0418749 0)
(-0.157294 -0.0239232 0)
(-0.157468 -0.00302966 0)
(-0.156343 0.0175964 0)
(-0.149866 0.0488552 0)
(-0.117753 0.0723828 0)
(-0.128719 0.0985473 0)
(0.000859917 0.133086 0)
(-0.073712 0.0962459 0)
(0.156623 0.145402 0)
(-0.0973011 0.435485 0)
(0.322329 1.08705 0)
(-0.00271269 0.786342 0)
(-0.0108472 0.104466 0)
(-0.100284 -0.0827441 0)
(-0.108829 -0.0771592 0)
(-0.11724 -0.0694191 0)
(-0.123503 -0.0594332 0)
(-0.131749 -0.0487402 0)
(-0.135608 -0.0366384 0)
(-0.141161 -0.0212272 0)
(-0.139989 -0.00403466 0)
(-0.136172 0.0122489 0)
(-0.128501 0.034727 0)
(-0.0942731 0.0525119 0)
(-0.110199 0.0623829 0)
(0.0129801 0.0991584 0)
(-0.0647958 0.0495271 0)
(0.123477 0.144952 0)
(-0.0720145 0.370588 0)
(0.268255 1.00888 0)
(0.0378355 0.868895 0)
(-0.0027773 0.152618 0)
(-0.0946421 -0.076882 0)
(-0.101729 -0.0701539 0)
(-0.10954 -0.0627594 0)
(-0.114632 -0.0535287 0)
(-0.121319 -0.0437124 0)
(-0.12454 -0.0329386 0)
(-0.127867 -0.0201103 0)
(-0.126156 -0.00629933 0)
(-0.121331 0.00586165 0)
(-0.113591 0.0206236 0)
(-0.0818495 0.0332524 0)
(-0.0963689 0.030231 0)
(0.0145107 0.0662443 0)
(-0.0477597 0.0132565 0)
(0.116235 0.126807 0)
(-0.0177844 0.32778 0)
(0.272004 0.944972 0)
(0.0461625 0.928691 0)
(0.00695067 0.261483 0)
(-0.0890679 -0.0707085 0)
(-0.0951032 -0.0641978 0)
(-0.102048 -0.0570548 0)
(-0.106562 -0.0485531 0)
(-0.112088 -0.0395885 0)
(-0.114989 -0.0301801 0)
(-0.117253 -0.0196495 0)
(-0.115587 -0.00876507 0)
(-0.111111 -0.000304427 0)
(-0.10417 0.00803369 0)
(-0.0786409 0.015008 0)
(-0.0876555 0.00317698 0)
(0.00445513 0.0312868 0)
(-0.0342129 -0.0262371 0)
(0.110172 0.0767984 0)
(0.042369 0.27069 0)
(0.297822 0.850903 0)
(0.116909 0.965285 0)
(0.016418 0.389916 0)
(-0.0835227 -0.0654538 0)
(-0.0887 -0.0588276 0)
(-0.0949699 -0.0519751 0)
(-0.0991516 -0.0441735 0)
(-0.103949 -0.0360009 0)
(-0.106841 -0.0277791 0)
(-0.108829 -0.0191332 0)
(-0.107812 -0.0106547 0)
(-0.104731 -0.00513557 0)
(-0.0998889 -0.00179353 0)
(-0.0826179 -0.000736835 0)
(-0.0860175 -0.0171064 0)
(-0.0197191 -0.00539326 0)
(-0.0434588 -0.0646987 0)
(0.0800297 0.0159786 0)
(0.0487941 0.201871 0)
(0.248769 0.811264 0)
(0.143444 0.928857 0)
(0.0310088 0.498641 0)
(-0.0779891 -0.0605023 0)
(-0.0826342 -0.0540192 0)
(-0.0882781 -0.0473738 0)
(-0.0923228 -0.0401349 0)
(-0.0967257 -0.032648 0)
(-0.0998128 -0.0253619 0)
(-0.102121 -0.0180792 0)
(-0.102292 -0.0114476 0)
(-0.101234 -0.00785315 0)
(-0.0997226 -0.00749274 0)
(-0.0904536 -0.0110748 0)
(-0.0939594 -0.0283218 0)
(-0.0568469 -0.0348511 0)
(-0.0773288 -0.0880274 0)
(0.00495288 -0.0372428 0)
(-0.0338916 0.156853 0)
(0.0841088 0.792253 0)
(0.116473 0.985288 0)
(0.0224753 0.594998 0)
(-0.0724915 -0.0559696 0)
(-0.076772 -0.0496073 0)
(-0.0819114 -0.0431254 0)
(-0.0859437 -0.0363066 0)
(-0.0902054 -0.0293656 0)
(-0.0935511 -0.0226611 0)
(-0.0964621 -0.0162325 0)
(-0.0982089 -0.0109119 0)
(-0.0995168 -0.00776413 0)
(-0.101403 -0.0083552 0)
(-0.0990181 -0.0130673 0)
(-0.109464 -0.0284881 0)
(-0.0971063 -0.0459293 0)
(-0.130537 -0.0837483 0)
(-0.102377 -0.0496541 0)
(-0.193596 0.16403 0)
(-0.133653 0.67715 0)
(6.66801e-05 1.01462 0)
(-0.022795 0.700114 0)
(-0.0670266 -0.0517085 0)
(-0.0710873 -0.0454749 0)
(-0.0758275 -0.0391097 0)
(-0.0798977 -0.032588 0)
(-0.084097 -0.0259796 0)
(-0.0877329 -0.0195478 0)
(-0.0913 -0.0135519 0)
(-0.0944224 -0.00856679 0)
(-0.0978476 -0.00537365 0)
(-0.102875 -0.0050236 0)
(-0.105869 -0.00814961 0)
(-0.123502 -0.018397 0)
(-0.129183 -0.0346899 0)
(-0.181935 -0.053473 0)
(-0.188823 -0.0243921 0)
(-0.315984 0.211942 0)
(-0.236094 0.456704 0)
(-0.0267834 0.85591 0)
(0.0432963 0.671739 0)
(-0.0615775 -0.0477311 0)
(-0.0654876 -0.0415825 0)
(-0.0699226 -0.0352794 0)
(-0.0740262 -0.0288966 0)
(-0.0781949 -0.0224085 0)
(-0.0820923 -0.0160846 0)
(-0.0861997 -0.0101326 0)
(-0.0904515 -0.00489397 0)
(-0.0955796 -0.000933799 0)
(-0.102415 0.00165448 0)
(-0.108565 0.00169621 0)
(-0.131245 -0.000996358 0)
(-0.141074 -0.00850415 0)
(-0.210909 -0.00589472 0)
(-0.219217 0.0286599 0)
(-0.352465 0.279602 0)
(-0.273008 0.333007 0)
(-0.05225 0.650294 0)
(0.0324341 0.60628 0)
(-0.0561372 -0.0439821 0)
(-0.0599271 -0.0378741 0)
(-0.0641018 -0.0315922 0)
(-0.068187 -0.0252265 0)
(-0.0723407 -0.0187197 0)
(-0.0764076 -0.0123421 0)
(-0.0808625 -0.0061581 0)
(-0.0857152 -0.000398956 0)
(-0.0916855 0.00491221 0)
(-0.0991008 0.00994381 0)
(-0.105644 0.0135189 0)
(-0.131331 0.0185113 0)
(-0.133173 0.0197336 0)
(-0.20959 0.0440567 0)
(-0.194787 0.0839783 0)
(-0.302096 0.316035 0)
(-0.189016 0.300721 0)
(-0.0453218 0.530377 0)
(0.0504734 0.517483 0)
(-0.0506716 -0.040451 0)
(-0.0543468 -0.0343391 0)
(-0.0582985 -0.0280266 0)
(-0.0623082 -0.0215997 0)
(-0.0664001 -0.014996 0)
(-0.0705298 -0.00846398 0)
(-0.075109 -0.00193746 0)
(-0.0800569 0.00441626 0)
(-0.0861509 0.0108761 0)
(-0.0936725 0.0177863 0)
(-0.0970101 0.0236815 0)
(-0.125151 0.03447 0)
(-0.1082 0.0400352 0)
(-0.187714 0.0814848 0)
(-0.128235 0.117711 0)
(-0.208333 0.339264 0)
(-0.11494 0.316079 0)
(-0.0754058 0.417677 0)
(0.0624858 0.481119 0)
(-0.0451677 -0.0371341 0)
(-0.0487124 -0.0309921 0)
(-0.0524549 -0.0245938 0)
(-0.0563432 -0.0180569 0)
(-0.0603282 -0.0112992 0)
(-0.0644352 -0.00453101 0)
(-0.0689638 0.00236733 0)
(-0.0738203 0.0092983 0)
(-0.0796801 0.0165086 0)
(-0.0866199 0.0246017 0)
(-0.0860532 0.0316948 0)
(-0.116852 0.0444825 0)
(-0.0772639 0.0515544 0)
(-0.167731 0.0948717 0)
(-0.0388408 0.121211 0)
(-0.159408 0.349305 0)
(-0.0528193 0.328395 0)
(-0.0844127 0.37983 0)
(0.083559 0.477575 0)
(-0.0395895 -0.0340077 0)
(-0.0429918 -0.0278046 0)
(-0.046535 -0.0213303 0)
(-0.0502521 -0.0147132 0)
(-0.0540617 -0.00781353 0)
(-0.0580285 -0.000863925 0)
(-0.0623459 0.00632143 0)
(-0.0669693 0.0136812 0)
(-0.0723697 0.0213544 0)
(-0.0785707 0.0296293 0)
(-0.0745038 0.0371439 0)
(-0.107511 0.0469422 0)
(-0.0462945 0.0564644 0)
(-0.154449 0.0814861 0)
(0.0623482 0.099105 0)
(-0.121794 0.32908 0)
(0.108527 0.351662 0)
(-0.083775 0.381865 0)
(0.114657 0.450859 0)
(-0.033843 -0.0310447 0)
(-0.0371425 -0.0247732 0)
(-0.0405233 -0.018165 0)
(-0.0440443 -0.0113748 0)
(-0.0478148 -0.00426965 0)
(-0.051756 0.00304495 0)
(-0.0559959 0.0104688 0)
(-0.0606525 0.0181569 0)
(-0.0660018 0.0260508 0)
(-0.0720017 0.0340458 0)
(-0.0678095 0.0419093 0)
(-0.100038 0.0443264 0)
(-0.032434 0.0587358 0)
(-0.144975 0.0342067 0)
(0.106278 0.0539091 0)
(-0.0737948 0.229649 0)
(0.41312 0.355992 0)
(-0.0934129 0.421141 0)
(0.211797 0.44648 0)
(-0.0277112 -0.0283036 0)
(-0.0306987 -0.0219387 0)
(-0.0339758 -0.0153838 0)
(-0.0372557 -0.0085327 0)
(-0.0406318 -0.00135637 0)
(-0.0442955 0.00615258 0)
(-0.0482693 0.014001 0)
(-0.0526938 0.0220972 0)
(-0.0580629 0.0302941 0)
(-0.0643822 0.0385458 0)
(-0.064615 0.0454942 0)
(-0.0927351 0.0420704 0)
(-0.0465728 0.0563685 0)
(-0.144506 -0.00846372 0)
(0.0268107 0.0223973 0)
(-0.166088 0.138013 0)
(0.475069 0.406572 0)
(-0.171086 0.547968 0)
(0.356291 0.433613 0)
(-0.0208699 -0.025383 0)
(-0.0232096 -0.0186502 0)
(-0.0259508 -0.0119217 0)
(-0.0290036 -0.00497872 0)
(-0.0323478 0.00227428 0)
(-0.0359053 0.00998164 0)
(-0.0397544 0.0182929 0)
(-0.0440965 0.0271093 0)
(-0.0491971 0.0363544 0)
(-0.055302 0.0457229 0)
(-0.0609437 0.0546346 0)
(-0.0838948 0.0548446 0)
(-0.072619 0.0682795 0)
(-0.136071 0.0242353 0)
(-0.0282037 0.0129701 0)
(-0.250106 -0.102558 0)
(0.447619 0.425926 0)
(-0.206805 0.659766 0)
(0.509267 0.462015 0)
(-0.0168074 -0.0251384 0)
(-0.017216 -0.0174494 0)
(-0.0182472 -0.0100156 0)
(-0.0196781 -0.00259895 0)
(-0.0211599 0.00489685 0)
(-0.0226467 0.0127377 0)
(-0.0241883 0.021272 0)
(-0.0259095 0.0306732 0)
(-0.028142 0.041066 0)
(-0.031052 0.0523265 0)
(-0.0342188 0.0630074 0)
(-0.0474449 0.0647871 0)
(-0.023837 0.0809208 0)
(-0.0941575 -0.0130171 0)
(0.0633448 0.0633918 0)
(-0.206119 -0.251507 0)
(0.341302 0.356312 0)
(-0.232101 0.573975 0)
(0.67896 0.677071 0)
)
;

boundaryField
{
    leftWall
    {
        type            fixedValue;
        value           nonuniform 0();
    }
    rightWall
    {
        type            fixedValue;
        value           uniform (0 0 0);
    }
    lowerWall
    {
        type            fixedValue;
        value           nonuniform 0();
    }
    atmosphere
    {
        type            fluxCorrectedVelocity;
        value           nonuniform List<vector> 
23
(
(-0.0184527 -0.0418445 0)
(-0.0178044 -0.038183 0)
(-0.0173548 -0.0345685 0)
(-0.0170083 -0.0309969 0)
(-0.0168074 -0.025126 0)
(-0.017216 -0.0174325 0)
(-0.0182472 -0.00999315 0)
(-0.0196781 -0.00256846 0)
(-0.0211599 0.00492145 0)
(-0.0226467 0.0127699 0)
(-0.0241883 0.0213092 0)
(-0.0259095 0.030716 0)
(-0.028142 0.0411145 0)
(-0.031052 0.0523787 0)
(-0.0342188 0.0630565 0)
(-0.0474449 0.0646193 0)
(-0.023837 0.0811704 0)
(-0.0941575 -0.0147757 0)
(0.0633448 0.0639979 0)
(-0.206119 -0.254437 0)
(0.341302 0.357371 0)
(-0.232101 0.567542 0)
(0.67896 0.672223 0)
)
;
    }
    defaultFaces
    {
        type            empty;
    }
    procBoundary3to1
    {
        type            processor;
        value           nonuniform List<vector> 
23
(
(-0.104288 -0.179034 0)
(-0.109743 -0.180441 0)
(-0.112514 -0.184543 0)
(-0.12035 -0.191557 0)
(-0.130476 -0.196996 0)
(-0.145088 -0.207871 0)
(-0.164574 -0.211653 0)
(-0.182969 -0.214135 0)
(-0.200172 -0.215544 0)
(-0.220546 -0.219414 0)
(-0.251848 -0.221891 0)
(-0.271599 -0.241604 0)
(-0.287451 -0.266408 0)
(-0.286103 -0.251455 0)
(-0.339835 -0.0244663 0)
(0.0640535 1.19661 0)
(0.36008 2.11026 0)
(0.0765739 1.63762 0)
(-0.0659138 0.85414 0)
(0.0179322 0.279425 0)
(-0.122323 0.100199 0)
(0.0334716 -0.268409 0)
(0.0203131 -0.190136 0)
)
;
    }
    procBoundary3to2
    {
        type            processor;
        value           nonuniform List<vector> 
25
(
(-0.105019 -0.167902 0)
(-0.105055 -0.166807 0)
(-0.0970816 -0.157953 0)
(-0.100149 -0.151028 0)
(-0.0932473 -0.145292 0)
(-0.0944991 -0.129191 0)
(-0.0911207 -0.122316 0)
(-0.0890004 -0.112297 0)
(-0.0844161 -0.105868 0)
(-0.0812018 -0.0970161 0)
(-0.0767645 -0.0915322 0)
(-0.0726508 -0.085034 0)
(-0.0682891 -0.0798809 0)
(-0.0638781 -0.0748674 0)
(-0.0594103 -0.0703606 0)
(-0.0548698 -0.0661651 0)
(-0.0502786 -0.0622922 0)
(-0.0456153 -0.0586991 0)
(-0.0408757 -0.0553807 0)
(-0.0360138 -0.0523403 0)
(-0.0309401 -0.049422 0)
(-0.0256326 -0.0463537 0)
(-0.0217422 -0.0446369 0)
(-0.019702 -0.0451759 0)
(-0.0193447 -0.0474602 0)
)
;
    }
}


// ************************************************************************* //
