/*--------------------------------*- C++ -*----------------------------------*\
| =========                 |                                                 |
| \\      /  F ield         | OpenFOAM: The Open Source CFD Toolbox           |
|  \\    /   O peration     | Version:  2.4.0                                 |
|   \\  /    A nd           | Web:      www.OpenFOAM.org                      |
|    \\/     M anipulation  |                                                 |
\*---------------------------------------------------------------------------*/
FoamFile
{
    version     2.0;
    format      ascii;
    class       volVectorField;
    location    "0.5";
    object      U.oil;
}
// * * * * * * * * * * * * * * * * * * * * * * * * * * * * * * * * * * * * * //

dimensions      [0 1 -1 0 0 0 0];

internalField   nonuniform List<vector> 
575
(
(-0.108307 -0.166366 0)
(-0.112178 -0.167216 0)
(-0.114138 -0.169478 0)
(-0.119692 -0.172799 0)
(-0.110162 -0.16537 0)
(-0.114097 -0.16646 0)
(-0.11631 -0.167379 0)
(-0.1224 -0.167671 0)
(-0.102684 -0.155265 0)
(-0.106872 -0.157488 0)
(-0.110806 -0.15853 0)
(-0.118735 -0.155674 0)
(-0.106599 -0.146055 0)
(-0.110932 -0.143097 0)
(-0.115026 -0.142699 0)
(-0.121963 -0.139289 0)
(-0.101928 -0.140273 0)
(-0.107932 -0.136289 0)
(-0.112337 -0.13533 0)
(-0.117877 -0.130833 0)
(-0.102335 -0.125448 0)
(-0.107954 -0.121949 0)
(-0.111787 -0.12191 0)
(-0.115097 -0.120126 0)
(-0.0977357 -0.118594 0)
(-0.102209 -0.115082 0)
(-0.106348 -0.113554 0)
(-0.110178 -0.111557 0)
(-0.0941362 -0.111152 0)
(-0.098332 -0.107916 0)
(-0.102262 -0.104812 0)
(-0.105388 -0.102023 0)
(-0.0901814 -0.101691 0)
(-0.0941126 -0.0996214 0)
(-0.0978605 -0.0968631 0)
(-0.101278 -0.0943297 0)
(-0.0856696 -0.0956235 0)
(-0.0887157 -0.09306 0)
(-0.0924165 -0.0905347 0)
(-0.0954178 -0.0879706 0)
(-0.0810941 -0.088108 0)
(-0.0841463 -0.0863134 0)
(-0.0872436 -0.0837734 0)
(-0.0907182 -0.0810182 0)
(-0.0765402 -0.0822432 0)
(-0.0790933 -0.0802262 0)
(-0.0819719 -0.0779203 0)
(-0.0850569 -0.0754001 0)
(-0.0718486 -0.0765143 0)
(-0.0742582 -0.0745395 0)
(-0.0767056 -0.0723171 0)
(-0.0796971 -0.0698492 0)
(-0.0671665 -0.0715052 0)
(-0.0693349 -0.0694016 0)
(-0.071522 -0.0672038 0)
(-0.0742338 -0.0648465 0)
(-0.0624533 -0.0668795 0)
(-0.0644724 -0.0647017 0)
(-0.0664201 -0.062489 0)
(-0.0688615 -0.0601801 0)
(-0.0577067 -0.0626557 0)
(-0.0595888 -0.0604048 0)
(-0.0613739 -0.0581461 0)
(-0.063544 -0.0558452 0)
(-0.0529265 -0.0587556 0)
(-0.0546876 -0.056459 0)
(-0.0563492 -0.054148 0)
(-0.0582737 -0.051825 0)
(-0.0480905 -0.0551362 0)
(-0.0497382 -0.0528047 0)
(-0.0513107 -0.0504416 0)
(-0.0530392 -0.0480776 0)
(-0.043193 -0.0517733 0)
(-0.0447248 -0.0494098 0)
(-0.0462177 -0.0470015 0)
(-0.0477906 -0.0445879 0)
(-0.0381848 -0.0486574 0)
(-0.0396181 -0.0462487 0)
(-0.0410451 -0.0437927 0)
(-0.0425005 -0.0413265 0)
(-0.0329884 -0.0456924 0)
(-0.0343543 -0.0432529 0)
(-0.0357244 -0.0407665 0)
(-0.0371049 -0.0382574 0)
(-0.0275886 -0.042764 0)
(-0.0288947 -0.0403624 0)
(-0.0301977 -0.0378883 0)
(-0.0315105 -0.0353583 0)
(-0.0225386 -0.040391 0)
(-0.023363 -0.0377323 0)
(-0.0243859 -0.0351538 0)
(-0.0255368 -0.0326021 0)
(-0.0195218 -0.0400615 0)
(-0.0194024 -0.0367707 0)
(-0.0195251 -0.0335895 0)
(-0.019832 -0.0304677 0)
(-0.0184527 -0.0418449 0)
(-0.0178044 -0.0381856 0)
(-0.0173548 -0.0345737 0)
(-0.0170083 -0.0310046 0)
(-0.12873 -0.175793 0)
(-0.143045 -0.180759 0)
(-0.163069 -0.180822 0)
(-0.190083 -0.180695 0)
(-0.212081 -0.184986 0)
(-0.23881 -0.185433 0)
(-0.268463 -0.191624 0)
(-0.299138 -0.212631 0)
(-0.342351 -0.238942 0)
(-0.410094 -0.246542 0)
(-0.503706 -0.0629921 0)
(-0.33193 0.878675 0)
(0.33538 2.09099 0)
(0.204666 1.68144 0)
(0.24764 0.927053 0)
(0.302551 0.348993 0)
(0.0463658 -0.2733 0)
(0.0585111 -0.296456 0)
(0.00979601 -0.179876 0)
(-0.131712 -0.169448 0)
(-0.148963 -0.171593 0)
(-0.167742 -0.171722 0)
(-0.185495 -0.170989 0)
(-0.205801 -0.172284 0)
(-0.236992 -0.16661 0)
(-0.2693 -0.161418 0)
(-0.309959 -0.170459 0)
(-0.371962 -0.179481 0)
(-0.468288 -0.179966 0)
(-0.605275 -0.057376 0)
(-0.557747 0.636025 0)
(0.128862 1.83388 0)
(0.281924 1.54719 0)
(0.34008 0.94092 0)
(0.460375 0.476575 0)
(0.0199235 0.0199252 0)
(0.0786064 -0.303124 0)
(0.00780838 -0.149623 0)
(-0.128831 -0.152178 0)
(-0.144421 -0.151152 0)
(-0.166667 -0.151251 0)
(-0.180522 -0.147875 0)
(-0.206884 -0.14109 0)
(-0.234926 -0.136005 0)
(-0.267309 -0.128831 0)
(-0.303835 -0.123692 0)
(-0.371009 -0.111538 0)
(-0.459151 -0.0872968 0)
(-0.591442 0.00574373 0)
(-0.648868 0.413504 0)
(-0.215125 1.23581 0)
(0.19512 1.23523 0)
(0.300413 0.859511 0)
(0.489992 0.598782 0)
(0.15651 0.308658 0)
(0.0992928 -0.29811 0)
(0.0105474 -0.117623 0)
(-0.132196 -0.139382 0)
(-0.145838 -0.138342 0)
(-0.160237 -0.13733 0)
(-0.177611 -0.132203 0)
(-0.199852 -0.122466 0)
(-0.2255 -0.11272 0)
(-0.252941 -0.0994164 0)
(-0.288108 -0.0816713 0)
(-0.339996 -0.0533296 0)
(-0.404242 -0.008537 0)
(-0.482354 0.0804702 0)
(-0.557469 0.32537 0)
(-0.272438 0.833433 0)
(0.0762431 0.952468 0)
(0.241475 0.655273 0)
(0.473269 0.624746 0)
(0.366382 0.588462 0)
(0.115512 -0.264619 0)
(0.00329084 -0.0720711 0)
(-0.126453 -0.127025 0)
(-0.141142 -0.126044 0)
(-0.153325 -0.123948 0)
(-0.171228 -0.113843 0)
(-0.191986 -0.101013 0)
(-0.211572 -0.0919003 0)
(-0.233475 -0.0737862 0)
(-0.265545 -0.0473362 0)
(-0.29546 -0.0144113 0)
(-0.337125 0.0405389 0)
(-0.363376 0.12099 0)
(-0.397873 0.279141 0)
(-0.198057 0.547508 0)
(0.0605022 0.718148 0)
(0.296815 0.483743 0)
(0.441122 0.564017 0)
(0.502117 0.770711 0)
(0.131027 -0.195895 0)
(-0.00559622 -0.0226795 0)
(-0.123585 -0.116701 0)
(-0.136166 -0.11419 0)
(-0.146612 -0.109228 0)
(-0.163803 -0.0983561 0)
(-0.179514 -0.0862738 0)
(-0.195541 -0.0750363 0)
(-0.214406 -0.0524541 0)
(-0.235433 -0.0246461 0)
(-0.251989 0.00744971 0)
(-0.274186 0.0625005 0)
(-0.267574 0.127188 0)
(-0.276363 0.233466 0)
(-0.11178 0.363933 0)
(0.0452449 0.475626 0)
(0.330521 0.309277 0)
(0.353515 0.469084 0)
(0.515706 0.881191 0)
(0.10958 -0.110072 0)
(-0.0113472 0.0159581 0)
(-0.117017 -0.108308 0)
(-0.129645 -0.103962 0)
(-0.140311 -0.0971609 0)
(-0.154114 -0.0856273 0)
(-0.167465 -0.0728722 0)
(-0.178368 -0.060661 0)
(-0.195687 -0.0385262 0)
(-0.204996 -0.0109724 0)
(-0.214071 0.017368 0)
(-0.221435 0.0660485 0)
(-0.199066 0.113606 0)
(-0.19622 0.185964 0)
(-0.0562439 0.247425 0)
(-0.001885 0.2884 0)
(0.289271 0.186676 0)
(0.1627 0.506811 0)
(0.428007 1.03219 0)
(0.0167968 0.078531 0)
(-0.0144148 0.0342914 0)
(-0.111805 -0.0976645 0)
(-0.123187 -0.0938903 0)
(-0.132939 -0.0859652 0)
(-0.143356 -0.0754622 0)
(-0.155051 -0.0632989 0)
(-0.162497 -0.0495548 0)
(-0.176004 -0.0292092 0)
(-0.17891 -0.00483271 0)
(-0.182101 0.020095 0)
(-0.180576 0.059851 0)
(-0.151376 0.0934586 0)
(-0.154045 0.139152 0)
(-0.0213844 0.176992 0)
(-0.0528829 0.171036 0)
(0.213555 0.140685 0)
(-0.0411589 0.497546 0)
(0.350508 1.08295 0)
(-0.0063397 0.279311 0)
(-0.0150058 0.0724725 0)
(-0.10555 -0.0914511 0)
(-0.115966 -0.0847745 0)
(-0.125081 -0.0771704 0)
(-0.132983 -0.0665174 0)
(-0.143193 -0.0550036 0)
(-0.148304 -0.041875 0)
(-0.157294 -0.0239233 0)
(-0.157468 -0.00303031 0)
(-0.156343 0.0175933 0)
(-0.149865 0.0488419 0)
(-0.117752 0.0723338 0)
(-0.128699 0.0983901 0)
(0.000843827 0.132664 0)
(-0.0738638 0.0951668 0)
(0.154927 0.138366 0)
(-0.103774 0.415373 0)
(0.329767 1.06104 0)
(-0.00882411 0.383448 0)
(-0.010823 0.104298 0)
(-0.100284 -0.0827441 0)
(-0.108829 -0.0771592 0)
(-0.11724 -0.0694191 0)
(-0.123503 -0.0594332 0)
(-0.131749 -0.0487402 0)
(-0.135608 -0.0366384 0)
(-0.141161 -0.0212272 0)
(-0.139989 -0.00403504 0)
(-0.136172 0.012247 0)
(-0.1285 0.0347184 0)
(-0.0942733 0.0524759 0)
(-0.110183 0.0622563 0)
(0.0129619 0.0987711 0)
(-0.0649254 0.0479985 0)
(0.1224 0.136556 0)
(-0.0765166 0.351559 0)
(0.275482 0.988591 0)
(-0.00429112 0.463007 0)
(-0.00278215 0.152356 0)
(-0.0946421 -0.076882 0)
(-0.101729 -0.0701539 0)
(-0.10954 -0.0627594 0)
(-0.114632 -0.0535287 0)
(-0.121319 -0.0437124 0)
(-0.12454 -0.0329386 0)
(-0.127867 -0.0201104 0)
(-0.126156 -0.00629967 0)
(-0.121331 0.00585975 0)
(-0.11359 0.0206143 0)
(-0.0818507 0.0332093 0)
(-0.0963483 0.0300688 0)
(0.0144711 0.0656791 0)
(-0.0479263 0.010399 0)
(0.115765 0.116645 0)
(-0.0162616 0.26847 0)
(0.264881 0.864911 0)
(0.0272068 0.573205 0)
(0.00696861 0.261088 0)
(-0.0890679 -0.0707085 0)
(-0.0951032 -0.0641978 0)
(-0.102048 -0.0570548 0)
(-0.106562 -0.0485531 0)
(-0.112088 -0.0395885 0)
(-0.114989 -0.0301801 0)
(-0.117253 -0.0196495 0)
(-0.115587 -0.00876535 0)
(-0.111111 -0.000306189 0)
(-0.104169 0.00802398 0)
(-0.0786427 0.0149585 0)
(-0.0876339 0.00297728 0)
(0.00439014 0.0305051 0)
(-0.03448 -0.0302983 0)
(0.109145 0.0627459 0)
(0.0307154 0.0509322 0)
(0.244247 0.55303 0)
(0.0376037 0.544239 0)
(0.0163812 0.388193 0)
(-0.0835227 -0.0654538 0)
(-0.0887 -0.0588276 0)
(-0.0949699 -0.0519751 0)
(-0.0991516 -0.0441735 0)
(-0.103949 -0.0360009 0)
(-0.106841 -0.0277791 0)
(-0.108829 -0.0191332 0)
(-0.107812 -0.0106549 0)
(-0.104731 -0.005137 0)
(-0.0998883 -0.0018025 0)
(-0.0826196 -0.000788033 0)
(-0.0859956 -0.0173307 0)
(-0.0198498 -0.00642756 0)
(-0.0441357 -0.0700023 0)
(0.0609218 -0.0316644 0)
(-0.0400841 -0.135643 0)
(0.148107 0.370149 0)
(0.0285377 0.506483 0)
(0.0229231 0.477329 0)
(-0.0779891 -0.0605023 0)
(-0.0826342 -0.0540192 0)
(-0.0882781 -0.0473738 0)
(-0.0923228 -0.0401349 0)
(-0.0967257 -0.032648 0)
(-0.0998128 -0.0253619 0)
(-0.102121 -0.0180792 0)
(-0.102292 -0.0114477 0)
(-0.101234 -0.00785426 0)
(-0.0997224 -0.00750071 0)
(-0.0904551 -0.0111247 0)
(-0.093953 -0.028559 0)
(-0.0570522 -0.0360767 0)
(-0.0780772 -0.0946866 0)
(-0.0447467 -0.117185 0)
(-0.101254 -0.152914 0)
(0.0645403 0.356101 0)
(0.0291913 0.5154 0)
(0.0253004 0.523783 0)
(-0.0724915 -0.0559696 0)
(-0.076772 -0.0496073 0)
(-0.0819114 -0.0431254 0)
(-0.0859437 -0.0363066 0)
(-0.0902054 -0.0293656 0)
(-0.0935511 -0.0226611 0)
(-0.0964621 -0.0162325 0)
(-0.0982089 -0.010912 0)
(-0.0995168 -0.00776496 0)
(-0.101403 -0.00836206 0)
(-0.0990195 -0.0131126 0)
(-0.109467 -0.0287179 0)
(-0.097313 -0.0470202 0)
(-0.13133 -0.0891515 0)
(-0.12175 -0.105183 0)
(-0.1207 -0.101649 0)
(-0.00136906 0.0127482 0)
(0.0208985 0.574412 0)
(0.0364491 0.783544 0)
(-0.0670266 -0.0517085 0)
(-0.0710873 -0.0454749 0)
(-0.0758275 -0.0391097 0)
(-0.0798977 -0.032588 0)
(-0.084097 -0.0259796 0)
(-0.0877329 -0.0195478 0)
(-0.0913 -0.0135519 0)
(-0.0944224 -0.00856684 0)
(-0.0978476 -0.00537421 0)
(-0.102875 -0.00502895 0)
(-0.10587 -0.00818613 0)
(-0.123506 -0.0185873 0)
(-0.129334 -0.0354717 0)
(-0.182193 -0.0565333 0)
(-0.189508 -0.0491848 0)
(-0.162159 -0.0734792 0)
(-0.0601093 -0.0453485 0)
(0.057433 0.736975 0)
(0.0350589 1.12754 0)
(-0.0615775 -0.0477311 0)
(-0.0654876 -0.0415825 0)
(-0.0699226 -0.0352794 0)
(-0.0740262 -0.0288966 0)
(-0.0781949 -0.0224085 0)
(-0.0820923 -0.0160846 0)
(-0.0861997 -0.0101326 0)
(-0.0904515 -0.004894 0)
(-0.0955796 -0.000934173 0)
(-0.102415 0.00165069 0)
(-0.108566 0.00166981 0)
(-0.131244 -0.00113595 0)
(-0.141171 -0.00902746 0)
(-0.210698 -0.00798112 0)
(-0.213493 0.0119014 0)
(-0.151458 -0.00129304 0)
(-0.0735664 -0.00746763 0)
(0.0364427 0.659143 0)
(0.0354781 0.619268 0)
(-0.0561372 -0.0439821 0)
(-0.0599271 -0.0378741 0)
(-0.0641018 -0.0315922 0)
(-0.068187 -0.0252265 0)
(-0.0723407 -0.0187197 0)
(-0.0764076 -0.0123421 0)
(-0.0808625 -0.0061581 0)
(-0.0857152 -0.00039898 0)
(-0.0916855 0.00491194 0)
(-0.0991008 0.00994114 0)
(-0.105645 0.0134997 0)
(-0.131325 0.018405 0)
(-0.133209 0.0193594 0)
(-0.209272 0.0424384 0)
(-0.184314 0.0661348 0)
(-0.099511 0.100164 0)
(-0.0732829 0.187379 0)
(-0.0297902 0.531059 0)
(0.0509207 0.517962 0)
(-0.0506716 -0.040451 0)
(-0.0543468 -0.0343391 0)
(-0.0582985 -0.0280266 0)
(-0.0623082 -0.0215997 0)
(-0.0664001 -0.014996 0)
(-0.0705298 -0.00846398 0)
(-0.075109 -0.00193746 0)
(-0.0800569 0.00441624 0)
(-0.0861509 0.0108759 0)
(-0.0936724 0.0177846 0)
(-0.097011 0.0236678 0)
(-0.12514 0.0343862 0)
(-0.1082 0.0397284 0)
(-0.18743 0.0802416 0)
(-0.124246 0.109692 0)
(-0.0890594 0.184989 0)
(-0.070824 0.279021 0)
(-0.0726642 0.417363 0)
(0.0625184 0.481123 0)
(-0.0451677 -0.0371341 0)
(-0.0487124 -0.0309921 0)
(-0.0524549 -0.0245938 0)
(-0.0563432 -0.0180569 0)
(-0.0603282 -0.0112992 0)
(-0.0644352 -0.00453101 0)
(-0.0689638 0.00236733 0)
(-0.0738203 0.00929829 0)
(-0.0796801 0.0165085 0)
(-0.0866199 0.0246007 0)
(-0.0860538 0.031686 0)
(-0.116841 0.0444235 0)
(-0.0772717 0.05132 0)
(-0.167213 0.0939411 0)
(-0.0380222 0.116051 0)
(-0.102235 0.203756 0)
(-0.058141 0.291724 0)
(-0.0829141 0.379537 0)
(0.0835853 0.477575 0)
(-0.0395895 -0.0340077 0)
(-0.0429918 -0.0278046 0)
(-0.046535 -0.0213303 0)
(-0.0502521 -0.0147132 0)
(-0.0540617 -0.00781353 0)
(-0.0580285 -0.000863925 0)
(-0.0623459 0.00632143 0)
(-0.0669693 0.0136812 0)
(-0.0723697 0.0213543 0)
(-0.0785707 0.0296288 0)
(-0.0745042 0.0371389 0)
(-0.107503 0.0469066 0)
(-0.046304 0.0563016 0)
(-0.154284 0.080867 0)
(0.0626661 0.0953439 0)
(-0.117847 0.259472 0)
(-0.029262 0.300913 0)
(-0.0809774 0.381438 0)
(0.114692 0.450857 0)
(-0.033843 -0.0310447 0)
(-0.0371425 -0.0247732 0)
(-0.0405233 -0.018165 0)
(-0.0440443 -0.0113748 0)
(-0.0478148 -0.00426965 0)
(-0.051756 0.00304495 0)
(-0.0559959 0.0104688 0)
(-0.0606525 0.0181569 0)
(-0.0660018 0.0260508 0)
(-0.0720017 0.0340455 0)
(-0.0678098 0.0419059 0)
(-0.100034 0.044298 0)
(-0.0324499 0.0585433 0)
(-0.144708 0.0330576 0)
(0.106798 0.0457865 0)
(-0.0759581 0.208585 0)
(0.0540892 0.321772 0)
(-0.0807377 0.41931 0)
(0.211852 0.446461 0)
(-0.0277112 -0.0283036 0)
(-0.0306987 -0.0219387 0)
(-0.0339758 -0.0153838 0)
(-0.0372557 -0.0085327 0)
(-0.0406318 -0.00135637 0)
(-0.0442955 0.00615258 0)
(-0.0482693 0.014001 0)
(-0.0526938 0.0220972 0)
(-0.0580629 0.0302941 0)
(-0.0643822 0.0385454 0)
(-0.0646155 0.0454892 0)
(-0.0927238 0.0420213 0)
(-0.0467117 0.0558631 0)
(-0.142752 -0.0112864 0)
(0.0275886 0.00473804 0)
(-0.166662 0.111626 0)
(0.36424 0.395258 0)
(-0.0977559 0.531205 0)
(0.356372 0.433552 0)
(-0.0208699 -0.025383 0)
(-0.0232096 -0.0186502 0)
(-0.0259508 -0.0119217 0)
(-0.0290036 -0.00497872 0)
(-0.0323478 0.00227428 0)
(-0.0359053 0.00998164 0)
(-0.0397544 0.0182929 0)
(-0.0440965 0.0271093 0)
(-0.0491971 0.0363543 0)
(-0.055302 0.0457225 0)
(-0.0609446 0.0546285 0)
(-0.0838877 0.0547813 0)
(-0.0726928 0.0677184 0)
(-0.135515 0.0216402 0)
(-0.0289848 0.00285325 0)
(-0.250316 -0.115673 0)
(0.422887 0.408822 0)
(-0.0848329 0.671349 0)
(0.509503 0.461851 0)
(-0.0168074 -0.0251384 0)
(-0.017216 -0.0174494 0)
(-0.0182472 -0.0100156 0)
(-0.0196781 -0.00259895 0)
(-0.0211599 0.00489685 0)
(-0.0226467 0.0127377 0)
(-0.0241883 0.021272 0)
(-0.0259095 0.0306732 0)
(-0.028142 0.041066 0)
(-0.031052 0.0523264 0)
(-0.0342189 0.0630044 0)
(-0.0474451 0.0647541 0)
(-0.0238582 0.0806883 0)
(-0.094135 -0.0136045 0)
(0.062926 0.0608344 0)
(-0.206092 -0.253688 0)
(0.34409 0.34145 0)
(-0.0514277 0.718377 0)
(0.680475 0.675162 0)
)
;

boundaryField
{
    leftWall
    {
        type            fixedValue;
        value           nonuniform 0();
    }
    rightWall
    {
        type            fixedValue;
        value           uniform (0 0 0);
    }
    lowerWall
    {
        type            fixedValue;
        value           nonuniform 0();
    }
    atmosphere
    {
        type            fluxCorrectedVelocity;
        value           nonuniform List<vector> 
23
(
(-0.0184527 -0.0418445 0)
(-0.0178044 -0.038183 0)
(-0.0173548 -0.0345685 0)
(-0.0170083 -0.0309969 0)
(-0.0168074 -0.025126 0)
(-0.017216 -0.0174325 0)
(-0.0182472 -0.00999315 0)
(-0.0196781 -0.00256846 0)
(-0.0211599 0.00492145 0)
(-0.0226467 0.0127699 0)
(-0.0241883 0.0213092 0)
(-0.0259095 0.030716 0)
(-0.028142 0.0411145 0)
(-0.031052 0.0523787 0)
(-0.0342189 0.0630565 0)
(-0.0474451 0.0646193 0)
(-0.0238582 0.0811704 0)
(-0.094135 -0.0147757 0)
(0.062926 0.0639979 0)
(-0.206092 -0.254437 0)
(0.34409 0.357371 0)
(-0.0514277 0.567542 0)
(0.680475 0.672223 0)
)
;
    }
    defaultFaces
    {
        type            empty;
    }
    procBoundary3to1
    {
        type            processor;
        value           nonuniform List<vector> 
23
(
(-0.104289 -0.179055 0)
(-0.109744 -0.180463 0)
(-0.112515 -0.184567 0)
(-0.120351 -0.191587 0)
(-0.130478 -0.197034 0)
(-0.145093 -0.20793 0)
(-0.164582 -0.21174 0)
(-0.182984 -0.214257 0)
(-0.200203 -0.215731 0)
(-0.22064 -0.219771 0)
(-0.252163 -0.222731 0)
(-0.272733 -0.243644 0)
(-0.291003 -0.270372 0)
(-0.298126 -0.258156 0)
(-0.353077 -0.0274475 0)
(0.0696724 1.19382 0)
(0.351349 2.09065 0)
(0.0470588 1.62969 0)
(-0.0583134 0.846126 0)
(0.0583749 0.219101 0)
(0.0418916 -0.270029 0)
(0.0421957 -0.271187 0)
(0.0205039 -0.190277 0)
)
;
    }
    procBoundary3to2
    {
        type            processor;
        value           nonuniform List<vector> 
25
(
(-0.10502 -0.167918 0)
(-0.105056 -0.166816 0)
(-0.0970819 -0.157959 0)
(-0.100149 -0.151032 0)
(-0.0932473 -0.145294 0)
(-0.0944991 -0.129191 0)
(-0.0911207 -0.122316 0)
(-0.0890004 -0.112297 0)
(-0.0844161 -0.105868 0)
(-0.0812018 -0.0970161 0)
(-0.0767645 -0.0915322 0)
(-0.0726508 -0.085034 0)
(-0.0682891 -0.0798809 0)
(-0.0638781 -0.0748674 0)
(-0.0594103 -0.0703606 0)
(-0.0548698 -0.0661651 0)
(-0.0502786 -0.0622922 0)
(-0.0456153 -0.0586991 0)
(-0.0408757 -0.0553807 0)
(-0.0360138 -0.0523403 0)
(-0.0309401 -0.049422 0)
(-0.0256326 -0.0463537 0)
(-0.0217422 -0.0446369 0)
(-0.019702 -0.0451759 0)
(-0.0193447 -0.0474602 0)
)
;
    }
}


// ************************************************************************* //
