/*--------------------------------*- C++ -*----------------------------------*\
| =========                 |                                                 |
| \\      /  F ield         | OpenFOAM: The Open Source CFD Toolbox           |
|  \\    /   O peration     | Version:  2.4.0                                 |
|   \\  /    A nd           | Web:      www.OpenFOAM.org                      |
|    \\/     M anipulation  |                                                 |
\*---------------------------------------------------------------------------*/
FoamFile
{
    version     2.0;
    format      ascii;
    class       volVectorField;
    location    "0.5";
    object      U.water;
}
// * * * * * * * * * * * * * * * * * * * * * * * * * * * * * * * * * * * * * //

dimensions      [0 1 -1 0 0 0 0];

internalField   nonuniform List<vector> 
575
(
(-0.108307 -0.166357 0)
(-0.112178 -0.167207 0)
(-0.114138 -0.16947 0)
(-0.119692 -0.17279 0)
(-0.110162 -0.165366 0)
(-0.114097 -0.166457 0)
(-0.11631 -0.167377 0)
(-0.1224 -0.167668 0)
(-0.102684 -0.155264 0)
(-0.106872 -0.157487 0)
(-0.110806 -0.158529 0)
(-0.118735 -0.155673 0)
(-0.106599 -0.146054 0)
(-0.110932 -0.143096 0)
(-0.115026 -0.142699 0)
(-0.121963 -0.139288 0)
(-0.101928 -0.140273 0)
(-0.107932 -0.136289 0)
(-0.112337 -0.135329 0)
(-0.117877 -0.130832 0)
(-0.102335 -0.125448 0)
(-0.107954 -0.121949 0)
(-0.111787 -0.12191 0)
(-0.115097 -0.120126 0)
(-0.0977357 -0.118594 0)
(-0.102209 -0.115082 0)
(-0.106348 -0.113554 0)
(-0.110178 -0.111557 0)
(-0.0941362 -0.111152 0)
(-0.098332 -0.107916 0)
(-0.102262 -0.104812 0)
(-0.105388 -0.102023 0)
(-0.0901814 -0.101691 0)
(-0.0941126 -0.0996214 0)
(-0.0978605 -0.0968631 0)
(-0.101278 -0.0943297 0)
(-0.0856696 -0.0956235 0)
(-0.0887157 -0.09306 0)
(-0.0924165 -0.0905347 0)
(-0.0954178 -0.0879706 0)
(-0.0810941 -0.088108 0)
(-0.0841463 -0.0863134 0)
(-0.0872436 -0.0837734 0)
(-0.0907182 -0.0810182 0)
(-0.0765402 -0.0822432 0)
(-0.0790933 -0.0802262 0)
(-0.0819719 -0.0779203 0)
(-0.0850569 -0.0754001 0)
(-0.0718486 -0.0765143 0)
(-0.0742582 -0.0745395 0)
(-0.0767056 -0.0723171 0)
(-0.0796971 -0.0698492 0)
(-0.0671665 -0.0715052 0)
(-0.0693349 -0.0694016 0)
(-0.071522 -0.0672038 0)
(-0.0742338 -0.0648465 0)
(-0.0624533 -0.0668795 0)
(-0.0644724 -0.0647017 0)
(-0.0664201 -0.062489 0)
(-0.0688615 -0.0601801 0)
(-0.0577067 -0.0626557 0)
(-0.0595888 -0.0604048 0)
(-0.0613739 -0.0581461 0)
(-0.063544 -0.0558452 0)
(-0.0529265 -0.0587556 0)
(-0.0546876 -0.056459 0)
(-0.0563492 -0.054148 0)
(-0.0582737 -0.051825 0)
(-0.0480905 -0.0551362 0)
(-0.0497382 -0.0528047 0)
(-0.0513107 -0.0504416 0)
(-0.0530392 -0.0480776 0)
(-0.043193 -0.0517733 0)
(-0.0447248 -0.0494098 0)
(-0.0462177 -0.0470015 0)
(-0.0477906 -0.0445879 0)
(-0.0381848 -0.0486574 0)
(-0.0396181 -0.0462487 0)
(-0.0410451 -0.0437927 0)
(-0.0425005 -0.0413265 0)
(-0.0329884 -0.0456924 0)
(-0.0343543 -0.0432529 0)
(-0.0357244 -0.0407665 0)
(-0.0371049 -0.0382574 0)
(-0.0275886 -0.042764 0)
(-0.0288947 -0.0403624 0)
(-0.0301977 -0.0378883 0)
(-0.0315105 -0.0353583 0)
(-0.0225386 -0.040391 0)
(-0.023363 -0.0377323 0)
(-0.0243859 -0.0351538 0)
(-0.0255368 -0.0326021 0)
(-0.0195218 -0.0400615 0)
(-0.0194024 -0.0367707 0)
(-0.0195251 -0.0335895 0)
(-0.019832 -0.0304677 0)
(-0.0184527 -0.0418449 0)
(-0.0178044 -0.0381856 0)
(-0.0173548 -0.0345737 0)
(-0.0170083 -0.0310046 0)
(-0.12873 -0.175783 0)
(-0.143044 -0.180741 0)
(-0.163066 -0.180794 0)
(-0.190077 -0.180653 0)
(-0.212066 -0.184911 0)
(-0.238732 -0.185234 0)
(-0.268278 -0.191125 0)
(-0.298221 -0.211223 0)
(-0.338501 -0.235949 0)
(-0.396714 -0.244436 0)
(-0.486002 -0.0782127 0)
(-0.327901 0.870633 0)
(0.327506 2.08534 0)
(0.201953 1.65158 0)
(0.242262 0.894027 0)
(0.272391 0.34283 0)
(-0.1182 0.237991 0)
(0.0568987 -0.29603 0)
(0.00973667 -0.179857 0)
(-0.131711 -0.169445 0)
(-0.148962 -0.171588 0)
(-0.167741 -0.171714 0)
(-0.185493 -0.170975 0)
(-0.205795 -0.172254 0)
(-0.236971 -0.166532 0)
(-0.269204 -0.161174 0)
(-0.309494 -0.169769 0)
(-0.369847 -0.178071 0)
(-0.460671 -0.180911 0)
(-0.595587 -0.0775452 0)
(-0.574367 0.59419 0)
(0.0949135 1.78095 0)
(0.284599 1.508 0)
(0.352685 0.906051 0)
(0.447588 0.46519 0)
(-0.044563 0.42826 0)
(0.0770263 -0.302438 0)
(0.00776497 -0.149604 0)
(-0.12883 -0.152177 0)
(-0.144421 -0.151151 0)
(-0.166666 -0.151248 0)
(-0.180521 -0.147871 0)
(-0.206882 -0.141079 0)
(-0.234919 -0.135972 0)
(-0.267276 -0.128723 0)
(-0.303665 -0.123378 0)
(-0.370293 -0.110877 0)
(-0.456634 -0.0877247 0)
(-0.589984 -0.00628599 0)
(-0.668429 0.376235 0)
(-0.237809 1.20061 0)
(0.203522 1.21517 0)
(0.321241 0.838799 0)
(0.499771 0.599691 0)
(0.226156 0.591329 0)
(0.0923517 -0.293728 0)
(0.010443 -0.117579 0)
(-0.132196 -0.139382 0)
(-0.145838 -0.138342 0)
(-0.160237 -0.137329 0)
(-0.177611 -0.132201 0)
(-0.199852 -0.122462 0)
(-0.225498 -0.112706 0)
(-0.252932 -0.0993714 0)
(-0.288065 -0.081532 0)
(-0.339851 -0.052986 0)
(-0.403915 -0.00818378 0)
(-0.482697 0.0781202 0)
(-0.567889 0.317033 0)
(-0.28254 0.82447 0)
(0.0851503 0.953973 0)
(0.261637 0.657805 0)
(0.484191 0.632454 0)
(0.441388 0.703989 0)
(0.0884472 -0.215733 0)
(0.00311438 -0.0720109 0)
(-0.126453 -0.127024 0)
(-0.141142 -0.126044 0)
(-0.153324 -0.123947 0)
(-0.171228 -0.113842 0)
(-0.191986 -0.101011 0)
(-0.211571 -0.0918956 0)
(-0.233472 -0.0737684 0)
(-0.265538 -0.0472759 0)
(-0.295445 -0.0142401 0)
(-0.337177 0.0409532 0)
(-0.363742 0.121672 0)
(-0.400725 0.28028 0)
(-0.1997 0.549486 0)
(0.0670723 0.725556 0)
(0.309686 0.495189 0)
(0.445637 0.576035 0)
(0.538081 0.815479 0)
(0.0486602 0.0312848 0)
(-0.00582469 -0.0226106 0)
(-0.123585 -0.116701 0)
(-0.136166 -0.11419 0)
(-0.146612 -0.109228 0)
(-0.163803 -0.098356 0)
(-0.179513 -0.0862735 0)
(-0.195541 -0.0750348 0)
(-0.214405 -0.0524478 0)
(-0.235433 -0.0246223 0)
(-0.251991 0.00752614 0)
(-0.274227 0.0627397 0)
(-0.267707 0.127839 0)
(-0.277027 0.235195 0)
(-0.111792 0.367361 0)
(0.047828 0.480939 0)
(0.337462 0.322165 0)
(0.357997 0.488246 0)
(0.523608 0.911715 0)
(-0.0860005 0.30856 0)
(-0.0114904 0.0161068 0)
(-0.117017 -0.108308 0)
(-0.129645 -0.103962 0)
(-0.140311 -0.0971609 0)
(-0.154114 -0.0856272 0)
(-0.167465 -0.0728721 0)
(-0.178368 -0.0606606 0)
(-0.195687 -0.0385243 0)
(-0.204996 -0.0109645 0)
(-0.214073 0.0173971 0)
(-0.221449 0.0661515 0)
(-0.199103 0.113915 0)
(-0.196381 0.186824 0)
(-0.0562237 0.249327 0)
(-0.00123127 0.291454 0)
(0.293778 0.19822 0)
(0.172474 0.524191 0)
(0.422531 1.06522 0)
(-0.0874657 0.539367 0)
(-0.0144335 0.0344613 0)
(-0.111805 -0.0976645 0)
(-0.123187 -0.0938903 0)
(-0.132939 -0.0859652 0)
(-0.143356 -0.0754622 0)
(-0.155051 -0.0632988 0)
(-0.162497 -0.0495547 0)
(-0.176004 -0.0292087 0)
(-0.17891 -0.00483046 0)
(-0.182102 0.0201046 0)
(-0.18058 0.0598883 0)
(-0.151383 0.0935791 0)
(-0.15411 0.139504 0)
(-0.0213607 0.177871 0)
(-0.052675 0.172588 0)
(0.216301 0.148763 0)
(-0.0290832 0.514833 0)
(0.342233 1.11347 0)
(-0.0109277 0.689151 0)
(-0.0150067 0.0726192 0)
(-0.10555 -0.0914511 0)
(-0.115966 -0.0847745 0)
(-0.125081 -0.0771704 0)
(-0.132983 -0.0665174 0)
(-0.143193 -0.0550036 0)
(-0.148304 -0.0418749 0)
(-0.157294 -0.0239232 0)
(-0.157468 -0.00302966 0)
(-0.156343 0.0175964 0)
(-0.149866 0.0488552 0)
(-0.117753 0.0723828 0)
(-0.128719 0.0985475 0)
(0.000860007 0.133087 0)
(-0.0737119 0.0962511 0)
(0.156623 0.145405 0)
(-0.0972995 0.435498 0)
(0.322037 1.08732 0)
(-0.0029442 0.786388 0)
(-0.0108472 0.104466 0)
(-0.100284 -0.0827441 0)
(-0.108829 -0.0771592 0)
(-0.11724 -0.0694191 0)
(-0.123503 -0.0594332 0)
(-0.131749 -0.0487402 0)
(-0.135608 -0.0366384 0)
(-0.141161 -0.0212272 0)
(-0.139989 -0.00403466 0)
(-0.136172 0.0122489 0)
(-0.128501 0.034727 0)
(-0.0942731 0.0525119 0)
(-0.110199 0.0623829 0)
(0.0129801 0.0991585 0)
(-0.0647958 0.0495274 0)
(0.123477 0.144952 0)
(-0.072014 0.370591 0)
(0.268114 1.00899 0)
(0.0377844 0.868999 0)
(-0.00277734 0.152618 0)
(-0.0946421 -0.076882 0)
(-0.101729 -0.0701539 0)
(-0.10954 -0.0627594 0)
(-0.114632 -0.0535287 0)
(-0.121319 -0.0437124 0)
(-0.12454 -0.0329386 0)
(-0.127867 -0.0201103 0)
(-0.126156 -0.00629933 0)
(-0.121331 0.00586165 0)
(-0.113591 0.0206236 0)
(-0.0818495 0.0332524 0)
(-0.0963689 0.030231 0)
(0.0145107 0.0662443 0)
(-0.0477597 0.0132565 0)
(0.116235 0.126807 0)
(-0.0177843 0.327781 0)
(0.271972 0.945037 0)
(0.0461459 0.928748 0)
(0.00695062 0.261482 0)
(-0.0890679 -0.0707085 0)
(-0.0951032 -0.0641978 0)
(-0.102048 -0.0570548 0)
(-0.106562 -0.0485531 0)
(-0.112088 -0.0395885 0)
(-0.114989 -0.0301801 0)
(-0.117253 -0.0196495 0)
(-0.115587 -0.00876507 0)
(-0.111111 -0.000304427 0)
(-0.10417 0.00803369 0)
(-0.0786409 0.015008 0)
(-0.0876555 0.00317699 0)
(0.00445513 0.0312868 0)
(-0.0342129 -0.0262371 0)
(0.110172 0.0767985 0)
(0.042369 0.27069 0)
(0.297813 0.850933 0)
(0.116905 0.965299 0)
(0.0164179 0.389916 0)
(-0.0835227 -0.0654538 0)
(-0.0887 -0.0588276 0)
(-0.0949699 -0.0519751 0)
(-0.0991516 -0.0441735 0)
(-0.103949 -0.0360009 0)
(-0.106841 -0.0277791 0)
(-0.108829 -0.0191332 0)
(-0.107812 -0.0106547 0)
(-0.104731 -0.00513557 0)
(-0.0998889 -0.00179353 0)
(-0.0826179 -0.000736834 0)
(-0.0860175 -0.0171064 0)
(-0.0197191 -0.00539324 0)
(-0.0434588 -0.0646986 0)
(0.0800297 0.0159788 0)
(0.0487942 0.201872 0)
(0.248764 0.811275 0)
(0.143445 0.928859 0)
(0.0310087 0.498641 0)
(-0.0779891 -0.0605023 0)
(-0.0826342 -0.0540192 0)
(-0.0882781 -0.0473738 0)
(-0.0923228 -0.0401349 0)
(-0.0967257 -0.032648 0)
(-0.0998128 -0.0253619 0)
(-0.102121 -0.0180792 0)
(-0.102292 -0.0114476 0)
(-0.101234 -0.00785315 0)
(-0.0997226 -0.00749274 0)
(-0.0904536 -0.0110748 0)
(-0.0939594 -0.0283218 0)
(-0.0568469 -0.034851 0)
(-0.0773288 -0.0880273 0)
(0.00495297 -0.0372426 0)
(-0.0338914 0.156853 0)
(0.0841065 0.792256 0)
(0.116472 0.98529 0)
(0.0224752 0.594998 0)
(-0.0724915 -0.0559696 0)
(-0.076772 -0.0496073 0)
(-0.0819114 -0.0431254 0)
(-0.0859437 -0.0363066 0)
(-0.0902054 -0.0293656 0)
(-0.0935511 -0.0226611 0)
(-0.0964621 -0.0162325 0)
(-0.0982089 -0.0109119 0)
(-0.0995168 -0.00776413 0)
(-0.101403 -0.0083552 0)
(-0.0990181 -0.0130673 0)
(-0.109464 -0.0284881 0)
(-0.0971063 -0.0459292 0)
(-0.130537 -0.0837482 0)
(-0.102377 -0.0496539 0)
(-0.193596 0.16403 0)
(-0.133654 0.677151 0)
(6.4957e-05 1.01462 0)
(-0.0227966 0.700114 0)
(-0.0670266 -0.0517085 0)
(-0.0710873 -0.0454749 0)
(-0.0758275 -0.0391097 0)
(-0.0798977 -0.032588 0)
(-0.084097 -0.0259796 0)
(-0.0877329 -0.0195478 0)
(-0.0913 -0.0135519 0)
(-0.0944224 -0.00856679 0)
(-0.0978476 -0.00537365 0)
(-0.102875 -0.0050236 0)
(-0.105869 -0.00814961 0)
(-0.123502 -0.018397 0)
(-0.129183 -0.0346898 0)
(-0.181935 -0.0534729 0)
(-0.188823 -0.024392 0)
(-0.315984 0.211942 0)
(-0.236095 0.456704 0)
(-0.0267837 0.855909 0)
(0.0432966 0.671737 0)
(-0.0615775 -0.0477311 0)
(-0.0654876 -0.0415825 0)
(-0.0699226 -0.0352794 0)
(-0.0740262 -0.0288966 0)
(-0.0781949 -0.0224085 0)
(-0.0820923 -0.0160846 0)
(-0.0861997 -0.0101326 0)
(-0.0904515 -0.00489397 0)
(-0.0955796 -0.000933799 0)
(-0.102415 0.00165448 0)
(-0.108565 0.00169621 0)
(-0.131245 -0.000996354 0)
(-0.141074 -0.00850414 0)
(-0.210909 -0.00589466 0)
(-0.219217 0.0286598 0)
(-0.352466 0.279603 0)
(-0.273009 0.333007 0)
(-0.05225 0.650294 0)
(0.032434 0.60628 0)
(-0.0561372 -0.0439821 0)
(-0.0599271 -0.0378741 0)
(-0.0641018 -0.0315922 0)
(-0.068187 -0.0252265 0)
(-0.0723407 -0.0187197 0)
(-0.0764076 -0.0123421 0)
(-0.0808625 -0.0061581 0)
(-0.0857152 -0.000398956 0)
(-0.0916855 0.00491221 0)
(-0.0991008 0.00994381 0)
(-0.105644 0.0135189 0)
(-0.131331 0.0185113 0)
(-0.133173 0.0197336 0)
(-0.209591 0.0440567 0)
(-0.194787 0.0839783 0)
(-0.302096 0.316036 0)
(-0.189016 0.300721 0)
(-0.0453218 0.530377 0)
(0.0504734 0.517483 0)
(-0.0506716 -0.040451 0)
(-0.0543468 -0.0343391 0)
(-0.0582985 -0.0280266 0)
(-0.0623082 -0.0215997 0)
(-0.0664001 -0.014996 0)
(-0.0705298 -0.00846398 0)
(-0.075109 -0.00193746 0)
(-0.0800569 0.00441626 0)
(-0.0861509 0.0108761 0)
(-0.0936725 0.0177863 0)
(-0.0970101 0.0236815 0)
(-0.125151 0.03447 0)
(-0.1082 0.0400352 0)
(-0.187714 0.0814848 0)
(-0.128235 0.117711 0)
(-0.208333 0.339264 0)
(-0.11494 0.316079 0)
(-0.0754058 0.417677 0)
(0.0624858 0.481119 0)
(-0.0451677 -0.0371341 0)
(-0.0487124 -0.0309921 0)
(-0.0524549 -0.0245938 0)
(-0.0563432 -0.0180569 0)
(-0.0603282 -0.0112992 0)
(-0.0644352 -0.00453101 0)
(-0.0689638 0.00236733 0)
(-0.0738203 0.0092983 0)
(-0.0796801 0.0165086 0)
(-0.0866199 0.0246017 0)
(-0.0860532 0.0316948 0)
(-0.116852 0.0444825 0)
(-0.0772639 0.0515544 0)
(-0.167731 0.0948717 0)
(-0.0388408 0.121212 0)
(-0.159408 0.349305 0)
(-0.0528193 0.328395 0)
(-0.0844127 0.37983 0)
(0.083559 0.477575 0)
(-0.0395895 -0.0340077 0)
(-0.0429918 -0.0278046 0)
(-0.046535 -0.0213303 0)
(-0.0502521 -0.0147132 0)
(-0.0540617 -0.00781353 0)
(-0.0580285 -0.000863925 0)
(-0.0623459 0.00632143 0)
(-0.0669693 0.0136812 0)
(-0.0723697 0.0213544 0)
(-0.0785707 0.0296293 0)
(-0.0745038 0.0371439 0)
(-0.107511 0.0469422 0)
(-0.0462945 0.0564644 0)
(-0.154449 0.0814861 0)
(0.0623482 0.0991051 0)
(-0.121794 0.32908 0)
(0.108527 0.351662 0)
(-0.083775 0.381865 0)
(0.114657 0.450859 0)
(-0.033843 -0.0310447 0)
(-0.0371425 -0.0247732 0)
(-0.0405233 -0.018165 0)
(-0.0440443 -0.0113748 0)
(-0.0478148 -0.00426965 0)
(-0.051756 0.00304495 0)
(-0.0559959 0.0104688 0)
(-0.0606525 0.0181569 0)
(-0.0660018 0.0260508 0)
(-0.0720017 0.0340458 0)
(-0.0678095 0.0419093 0)
(-0.100038 0.0443264 0)
(-0.032434 0.0587358 0)
(-0.144975 0.0342068 0)
(0.106278 0.0539092 0)
(-0.0737948 0.229649 0)
(0.413121 0.355993 0)
(-0.0934129 0.421141 0)
(0.211797 0.44648 0)
(-0.0277112 -0.0283036 0)
(-0.0306987 -0.0219387 0)
(-0.0339758 -0.0153838 0)
(-0.0372557 -0.0085327 0)
(-0.0406318 -0.00135637 0)
(-0.0442955 0.00615258 0)
(-0.0482693 0.014001 0)
(-0.0526938 0.0220972 0)
(-0.0580629 0.0302941 0)
(-0.0643822 0.0385458 0)
(-0.064615 0.0454942 0)
(-0.0927351 0.0420704 0)
(-0.0465728 0.0563685 0)
(-0.144506 -0.00846369 0)
(0.0268107 0.0223974 0)
(-0.166088 0.138013 0)
(0.475069 0.406572 0)
(-0.171086 0.547968 0)
(0.356291 0.433613 0)
(-0.0208699 -0.025383 0)
(-0.0232096 -0.0186502 0)
(-0.0259508 -0.0119217 0)
(-0.0290036 -0.00497872 0)
(-0.0323478 0.00227428 0)
(-0.0359053 0.00998164 0)
(-0.0397544 0.0182929 0)
(-0.0440965 0.0271093 0)
(-0.0491971 0.0363544 0)
(-0.055302 0.0457229 0)
(-0.0609437 0.0546346 0)
(-0.0838948 0.0548446 0)
(-0.072619 0.0682795 0)
(-0.136071 0.0242353 0)
(-0.0282037 0.0129702 0)
(-0.250106 -0.102557 0)
(0.447619 0.425926 0)
(-0.206806 0.659766 0)
(0.509267 0.462015 0)
(-0.0168074 -0.0251384 0)
(-0.017216 -0.0174494 0)
(-0.0182472 -0.0100156 0)
(-0.0196781 -0.00259895 0)
(-0.0211599 0.00489685 0)
(-0.0226467 0.0127377 0)
(-0.0241883 0.021272 0)
(-0.0259095 0.0306732 0)
(-0.028142 0.041066 0)
(-0.031052 0.0523265 0)
(-0.0342188 0.0630074 0)
(-0.0474449 0.0647871 0)
(-0.023837 0.0809209 0)
(-0.0941575 -0.0130171 0)
(0.0633448 0.0633918 0)
(-0.206119 -0.251507 0)
(0.341302 0.356312 0)
(-0.232102 0.573975 0)
(0.67896 0.677071 0)
)
;

boundaryField
{
    leftWall
    {
        type            fixedValue;
        value           nonuniform 0();
    }
    rightWall
    {
        type            fixedValue;
        value           uniform (0 0 0);
    }
    lowerWall
    {
        type            fixedValue;
        value           nonuniform 0();
    }
    atmosphere
    {
        type            fluxCorrectedVelocity;
        value           nonuniform List<vector> 
23
(
(-0.0184527 -0.0418445 0)
(-0.0178044 -0.038183 0)
(-0.0173548 -0.0345685 0)
(-0.0170083 -0.0309969 0)
(-0.0168074 -0.025126 0)
(-0.017216 -0.0174325 0)
(-0.0182472 -0.00999315 0)
(-0.0196781 -0.00256846 0)
(-0.0211599 0.00492145 0)
(-0.0226467 0.0127699 0)
(-0.0241883 0.0213092 0)
(-0.0259095 0.030716 0)
(-0.028142 0.0411145 0)
(-0.031052 0.0523787 0)
(-0.0342188 0.0630565 0)
(-0.0474449 0.0646193 0)
(-0.023837 0.0811704 0)
(-0.0941575 -0.0147757 0)
(0.0633448 0.0639979 0)
(-0.206119 -0.254437 0)
(0.341302 0.357371 0)
(-0.232102 0.567542 0)
(0.67896 0.672223 0)
)
;
    }
    defaultFaces
    {
        type            empty;
    }
    procBoundary3to1
    {
        type            processor;
        value           nonuniform List<vector> 
23
(
(-0.104288 -0.179034 0)
(-0.109743 -0.180441 0)
(-0.112514 -0.184543 0)
(-0.12035 -0.191557 0)
(-0.130476 -0.196996 0)
(-0.145088 -0.207871 0)
(-0.164574 -0.211653 0)
(-0.182969 -0.214133 0)
(-0.200171 -0.215534 0)
(-0.220536 -0.219373 0)
(-0.251793 -0.221726 0)
(-0.271289 -0.240988 0)
(-0.28615 -0.26481 0)
(-0.279452 -0.247837 0)
(-0.33105 -0.0239893 0)
(0.0653986 1.20674 0)
(0.360223 2.12153 0)
(0.0779845 1.63603 0)
(-0.0684468 0.856965 0)
(1.00532e-05 0.28705 0)
(-0.124481 0.098415 0)
(0.0334742 -0.268431 0)
(0.0203084 -0.190124 0)
)
;
    }
    procBoundary3to2
    {
        type            processor;
        value           nonuniform List<vector> 
25
(
(-0.105019 -0.167902 0)
(-0.105055 -0.166807 0)
(-0.0970816 -0.157953 0)
(-0.100149 -0.151028 0)
(-0.0932473 -0.145292 0)
(-0.0944991 -0.129191 0)
(-0.0911207 -0.122316 0)
(-0.0890004 -0.112297 0)
(-0.0844161 -0.105868 0)
(-0.0812018 -0.0970161 0)
(-0.0767645 -0.0915322 0)
(-0.0726508 -0.085034 0)
(-0.0682891 -0.0798809 0)
(-0.0638781 -0.0748674 0)
(-0.0594103 -0.0703606 0)
(-0.0548698 -0.0661651 0)
(-0.0502786 -0.0622922 0)
(-0.0456153 -0.0586991 0)
(-0.0408757 -0.0553807 0)
(-0.0360138 -0.0523403 0)
(-0.0309401 -0.049422 0)
(-0.0256326 -0.0463537 0)
(-0.0217422 -0.0446369 0)
(-0.019702 -0.0451759 0)
(-0.0193447 -0.0474602 0)
)
;
    }
}


// ************************************************************************* //
