/*--------------------------------*- C++ -*----------------------------------*\
| =========                 |                                                 |
| \\      /  F ield         | OpenFOAM: The Open Source CFD Toolbox           |
|  \\    /   O peration     | Version:  2.4.0                                 |
|   \\  /    A nd           | Web:      www.OpenFOAM.org                      |
|    \\/     M anipulation  |                                                 |
\*---------------------------------------------------------------------------*/
FoamFile
{
    version     2.0;
    format      ascii;
    class       volScalarField;
    location    "0.85";
    object      alpha.water;
}
// * * * * * * * * * * * * * * * * * * * * * * * * * * * * * * * * * * * * * //

dimensions      [0 0 0 0 0 0 0];

internalField   nonuniform List<scalar> 
559
(
2.97566e-11
1.79357e-10
6.416e-10
2.22771e-09
5.45124e-09
7.23075e-09
7.25059e-09
1.39081e-08
6.18851e-09
3.87225e-10
9.76598e-12
5.98855e-12
4.26949e-12
6.45864e-12
8.43792e-12
1.0173e-11
2.10332e-11
3.2507e-11
6.85288e-11
5.18438e-11
9.969e-12
2.20258e-12
1.89752e-12
9.64745e-12
6.29524e-11
2.49831e-10
1.04222e-09
2.75764e-09
5.78433e-09
6.96696e-09
1.64091e-09
3.2848e-10
9.2473e-12
5.01041e-12
3.0457e-12
2.08447e-12
2.89618e-12
4.14385e-12
5.55821e-12
8.37798e-12
8.35391e-12
1.33735e-11
1.49714e-11
4.80631e-12
1.13542e-12
6.01267e-13
2.90141e-12
8.13183e-12
9.46049e-11
3.79105e-10
1.24129e-09
2.55255e-09
3.69398e-09
6.60994e-11
6.94866e-12
4.08574e-12
2.40873e-12
1.3731e-12
9.30306e-13
1.19838e-12
1.78469e-12
2.47285e-12
3.64934e-12
3.8774e-12
6.64929e-12
5.66144e-12
1.94977e-12
4.78199e-13
1.82478e-13
7.52587e-13
2.85401e-12
1.03865e-11
7.41012e-11
3.73354e-10
9.75316e-10
1.53625e-09
3.80615e-12
3.04327e-12
1.80236e-12
1.00885e-12
5.55384e-13
3.78169e-13
4.60014e-13
6.93909e-13
9.64735e-13
1.46215e-12
1.5352e-12
2.62342e-12
1.90701e-12
6.73974e-13
1.70757e-13
5.31117e-14
1.68523e-13
8.20798e-13
2.85901e-12
7.43182e-12
6.50332e-11
2.41979e-10
4.24664e-10
1.85681e-12
1.21815e-12
6.92032e-13
3.73669e-13
2.02515e-13
1.39642e-13
1.63352e-13
2.45701e-13
3.38937e-13
5.19424e-13
5.41167e-13
8.48926e-13
5.69867e-13
2.06131e-13
5.44823e-14
1.51314e-14
3.27759e-14
1.9014e-13
6.91955e-13
1.63801e-12
7.5006e-12
4.09392e-11
6.41114e-11
7.23378e-13
4.25407e-13
2.34348e-13
1.23679e-13
6.6664e-14
4.67211e-14
5.33996e-14
7.94293e-14
1.08034e-13
1.64495e-13
1.70101e-13
2.37606e-13
1.5267e-13
5.66481e-14
1.57005e-14
4.176e-15
5.71313e-15
3.60128e-14
1.4246e-13
3.22638e-13
1.15992e-12
5.48741e-12
6.58096e-12
2.42694e-13
1.32084e-13
7.09262e-14
3.68271e-14
1.9858e-14
1.4162e-14
1.60034e-14
2.34529e-14
3.13298e-14
4.68294e-14
4.8e-14
5.97032e-14
3.72095e-14
1.41669e-14
4.11784e-15
1.09596e-15
9.30034e-16
5.66667e-15
2.44793e-14
5.46939e-14
1.6326e-13
6.03847e-13
6.58093e-13
7.22224e-14
3.67806e-14
1.93119e-14
9.90895e-15
5.36376e-15
3.89149e-15
4.38386e-15
6.32753e-15
8.29e-15
1.20591e-14
1.22203e-14
1.3711e-14
8.33248e-15
3.24807e-15
9.85696e-16
2.67168e-16
1.48194e-16
7.58229e-16
3.52363e-15
7.98075e-15
2.12974e-14
5.87319e-14
5.81133e-14
1.93007e-14
9.23621e-15
4.7538e-15
2.4192e-15
1.31735e-15
9.71117e-16
1.0961e-15
1.56018e-15
2.00486e-15
2.82024e-15
2.81581e-15
2.89372e-15
1.71762e-15
6.82772e-16
2.14963e-16
5.96172e-17
2.40182e-17
8.77291e-17
4.2611e-16
9.96312e-16
2.50226e-15
5.32407e-15
4.92367e-15
4.66703e-15
2.10186e-15
1.06218e-15
5.37417e-16
2.94643e-16
2.2044e-16
2.50096e-16
3.51682e-16
4.43502e-16
6.01286e-16
5.90071e-16
5.63166e-16
3.26788e-16
1.31887e-16
4.26593e-17
1.20336e-17
3.93895e-18
8.98466e-18
4.38936e-17
1.06619e-16
2.55895e-16
4.48766e-16
3.97387e-16
1.02749e-15
4.35623e-16
2.16386e-16
1.09035e-16
6.0185e-17
4.56327e-17
5.21241e-17
7.25283e-17
8.98269e-17
1.17095e-16
1.12652e-16
1.00855e-16
5.72724e-17
2.33212e-17
7.67198e-18
2.18228e-18
6.31672e-19
8.40691e-19
3.8819e-18
9.75597e-18
2.24052e-17
3.43607e-17
2.90489e-17
2.06973e-16
8.25281e-17
4.03233e-17
2.02588e-17
1.12521e-17
8.63375e-18
9.93902e-18
1.37044e-17
1.66793e-17
2.08913e-17
1.96643e-17
1.66384e-17
9.25255e-18
3.77845e-18
1.25166e-18
3.55006e-19
9.51596e-20
7.45785e-20
2.99237e-19
7.71256e-19
1.68088e-18
2.32563e-18
1.85667e-18
3.83268e-17
1.43515e-17
6.90033e-18
3.45903e-18
1.93145e-18
1.4974e-18
1.73748e-18
2.3761e-18
2.84322e-18
3.42247e-18
3.14428e-18
2.52812e-18
1.37598e-18
5.59802e-19
1.8483e-19
5.17483e-20
1.31203e-20
6.52863e-21
2.04394e-20
5.30764e-20
1.08694e-19
1.37638e-19
1.02613e-19
6.5494e-18
2.29849e-18
1.08772e-18
5.44253e-19
3.05207e-19
2.38779e-19
2.79247e-19
3.78974e-19
4.45945e-19
5.16207e-19
4.62053e-19
3.54423e-19
1.88546e-19
7.5917e-20
2.47487e-20
6.77323e-21
1.63363e-21
5.7411e-22
1.26349e-21
3.22329e-21
6.12845e-21
7.13018e-21
4.91815e-21
1.03673e-18
3.40225e-19
1.58474e-19
7.91605e-20
4.45348e-20
3.51223e-20
4.13865e-20
5.57494e-20
6.45149e-20
7.18743e-20
6.25872e-20
4.59199e-20
2.38323e-20
9.43804e-21
3.01237e-21
7.98885e-22
1.83166e-22
5.02362e-23
7.24852e-23
1.75202e-22
3.05471e-22
3.26518e-22
2.0678e-22
1.52527e-19
4.66968e-20
2.14093e-20
1.06765e-20
6.01966e-21
4.78156e-21
5.6753e-21
7.58886e-21
8.63617e-21
9.26676e-21
7.83949e-21
5.51162e-21
2.78407e-21
1.07789e-21
3.34248e-22
8.52404e-23
1.85134e-23
4.26111e-24
3.97157e-24
8.6817e-24
1.37026e-23
1.34226e-23
7.76171e-24
2.09217e-20
5.96187e-21
2.69023e-21
1.33939e-21
7.5617e-22
6.04584e-22
7.22549e-22
9.5904e-22
1.07313e-21
1.11026e-21
9.11605e-22
6.15092e-22
3.01688e-22
1.13564e-22
3.39709e-23
8.26881e-24
1.69188e-24
3.41463e-25
2.13611e-25
4.01305e-25
5.6554e-25
5.05664e-25
2.67111e-25
2.68362e-21
7.10474e-22
3.1548e-22
1.56803e-22
8.85661e-23
7.12332e-23
8.56842e-23
1.1288e-22
1.2417e-22
1.24034e-22
9.87909e-23
6.40552e-23
3.04491e-23
1.10951e-23
3.18346e-24
7.35056e-25
1.40901e-25
2.54979e-26
1.14685e-26
1.7772e-26
2.20877e-26
1.79403e-26
9.01574e-27
3.22771e-22
7.93073e-23
3.46495e-23
1.71891e-23
9.7051e-24
7.84886e-24
9.49734e-24
1.24153e-23
1.34222e-23
1.29591e-23
1.00078e-23
6.24175e-24
2.87091e-24
1.00888e-24
2.76414e-25
6.02557e-26
1.07753e-26
1.77035e-27
6.20031e-28
7.76974e-28
8.4255e-28
6.25048e-28
4.18758e-28
3.64982e-23
8.32587e-24
3.57829e-24
1.77109e-24
9.98831e-25
8.12122e-25
9.88206e-25
1.28119e-24
1.36043e-24
1.27034e-24
9.50824e-25
5.70953e-25
2.5364e-25
8.56375e-26
2.23093e-26
4.56914e-27
7.58886e-28
1.14046e-28
3.36896e-29
3.46924e-29
3.28085e-29
2.40752e-29
5.50169e-29
3.89231e-24
8.25819e-25
3.49391e-25
1.72378e-25
9.70011e-26
7.93036e-26
9.70223e-26
1.24622e-25
1.29767e-25
1.17132e-25
8.48323e-26
4.90086e-26
2.09666e-26
6.77236e-27
1.67008e-27
3.19977e-28
4.91678e-29
6.79404e-30
1.82315e-30
1.6178e-30
1.37581e-30
1.5198e-30
1.36352e-29
3.93635e-25
7.78944e-26
3.2481e-26
1.59557e-26
8.94759e-27
7.35845e-27
9.05389e-27
1.15116e-26
1.17291e-26
1.02154e-26
7.13649e-27
3.95326e-27
1.61871e-27
4.96334e-28
1.14767e-28
2.03779e-29
2.87515e-30
3.67777e-31
9.73971e-32
7.96249e-32
6.82582e-32
2.17719e-31
3.60192e-30
3.80142e-26
7.05307e-27
2.90616e-27
1.41998e-27
7.9275e-28
6.55329e-28
8.09594e-28
1.01653e-27
1.0111e-27
8.48139e-28
5.69867e-28
3.01627e-28
1.17486e-28
3.39035e-29
7.27046e-30
1.18156e-30
1.5122e-31
1.80102e-32
5.11231e-33
4.13276e-33
4.90639e-33
4.59363e-32
9.13305e-31
3.53344e-27
6.18763e-28
2.52409e-28
1.22465e-28
6.79934e-29
5.64695e-29
6.9863e-29
8.63206e-29
8.35928e-29
6.73748e-29
4.34191e-29
2.19113e-29
8.09329e-30
2.18703e-30
4.31711e-31
6.35457e-32
7.28112e-33
8.15511e-34
2.68606e-34
2.6271e-34
1.27173e-33
2.52259e-32
6.07808e-31
)
;

boundaryField
{
    leftWall
    {
        type            zeroGradient;
    }
    rightWall
    {
        type            zeroGradient;
    }
    lowerWall
    {
        type            zeroGradient;
    }
    atmosphere
    {
        type            inletOutlet;
        inletValue      uniform 0;
        value           nonuniform List<scalar> 
23
(
3.53344e-27
6.18763e-28
2.52409e-28
1.22465e-28
6.79934e-29
5.64695e-29
6.9863e-29
8.63206e-29
8.35928e-29
6.73748e-29
4.34191e-29
2.19113e-29
8.09329e-30
2.18703e-30
4.31711e-31
6.35457e-32
7.28112e-33
8.15511e-34
2.68606e-34
2.6271e-34
1.27173e-33
2.52259e-32
6.07808e-31
)
;
    }
    defaultFaces
    {
        type            empty;
    }
    procBoundary2to0
    {
        type            processor;
        value           nonuniform List<scalar> 
24
(
7.83857e-11
3.42046e-10
1.36139e-09
3.53038e-09
5.68363e-09
5.69813e-09
6.27814e-09
3.3885e-08
1.97695e-08
5.49037e-09
3.08238e-10
1.02091e-11
8.05383e-12
1.27784e-11
1.41645e-11
7.68323e-11
2.98128e-10
4.51101e-10
3.14563e-10
1.51617e-10
1.65321e-11
3.75267e-12
5.65925e-12
5.65925e-12
)
;
    }
    procBoundary2to3
    {
        type            processor;
        value           nonuniform List<scalar> 
25
(
7.14947e-09
7.40617e-09
4.04845e-09
1.58415e-09
4.07853e-10
5.99919e-11
6.55008e-12
5.86287e-13
4.89483e-14
4.03091e-15
3.15697e-16
2.21346e-17
1.3421e-18
6.96862e-20
3.11111e-21
1.20993e-22
4.1914e-24
1.37534e-25
6.47554e-27
1.18151e-27
4.16027e-28
1.46387e-28
4.82026e-29
1.52091e-29
1.67066e-29
)
;
    }
}


// ************************************************************************* //
