/*--------------------------------*- C++ -*----------------------------------*\
| =========                 |                                                 |
| \\      /  F ield         | OpenFOAM: The Open Source CFD Toolbox           |
|  \\    /   O peration     | Version:  2.4.0                                 |
|   \\  /    A nd           | Web:      www.OpenFOAM.org                      |
|    \\/     M anipulation  |                                                 |
\*---------------------------------------------------------------------------*/
FoamFile
{
    version     2.0;
    format      ascii;
    class       volScalarField;
    location    "0.85";
    object      alpha.mercury;
}
// * * * * * * * * * * * * * * * * * * * * * * * * * * * * * * * * * * * * * //

dimensions      [0 0 0 0 0 0 0];

internalField   nonuniform List<scalar> 
559
(
3.72385e-13
1.53655e-12
4.91666e-12
1.10852e-11
1.92782e-11
2.87262e-11
3.69111e-11
1.10372e-13
7.02574e-14
2.57128e-14
6.88532e-15
1.33406e-15
1.81209e-16
5.39501e-17
5.05663e-16
3.51884e-15
5.59616e-15
3.34225e-15
1.11488e-15
2.71834e-16
4.12572e-16
3.42809e-15
2.32677e-14
1.30098e-13
6.05e-13
2.28131e-12
6.06183e-12
1.25364e-11
2.17253e-11
2.84594e-11
3.6941e-14
2.12893e-14
7.27585e-15
1.86115e-15
3.51086e-16
4.79428e-17
1.48025e-17
1.4324e-16
9.7186e-16
1.65805e-15
1.03586e-15
3.5733e-16
8.97297e-17
1.09057e-16
8.96815e-16
6.43817e-15
3.90413e-14
2.0074e-13
8.61447e-13
2.62674e-12
6.31545e-12
1.2312e-11
1.67429e-11
1.09456e-14
5.66339e-15
1.82268e-15
4.47194e-16
8.21688e-17
1.12031e-17
3.6485e-18
3.7001e-17
2.46631e-16
4.43739e-16
2.8811e-16
1.02611e-16
2.63464e-17
2.55713e-17
2.06245e-16
1.57453e-15
1.02793e-14
5.72462e-14
2.71104e-13
9.27988e-13
2.51171e-12
5.15562e-12
7.05269e-12
2.90314e-15
1.34086e-15
4.09031e-16
9.65709e-17
1.72967e-17
2.34412e-18
8.15252e-19
8.72736e-18
5.75777e-17
1.07853e-16
7.24322e-17
2.65635e-17
6.93966e-18
5.38326e-18
4.19745e-17
3.40849e-16
2.37859e-15
1.40938e-14
7.17101e-14
2.69388e-13
7.93057e-13
1.62615e-12
2.16623e-12
6.95354e-16
2.85861e-16
8.29825e-17
1.88919e-17
3.30153e-18
4.43626e-19
1.66059e-19
1.88242e-18
1.23691e-17
2.3943e-17
1.65861e-17
6.25637e-18
1.66432e-18
1.03788e-18
7.61069e-18
6.49872e-17
4.79317e-16
2.99147e-15
1.60549e-14
6.45205e-14
1.99514e-13
3.978e-13
5.06355e-13
1.51351e-16
5.53415e-17
1.53094e-17
3.36295e-18
5.73212e-19
7.61174e-20
3.09015e-20
3.72011e-19
2.44595e-18
4.86901e-18
3.46879e-18
1.34058e-18
3.62215e-19
1.8576e-19
1.24034e-18
1.0998e-17
8.4839e-17
5.51388e-16
3.06129e-15
1.28145e-14
4.04085e-14
7.73243e-14
9.34394e-14
3.01142e-17
9.80458e-18
2.58579e-18
5.48237e-19
9.10822e-20
1.19223e-20
5.27562e-21
6.74459e-20
4.44941e-19
9.08193e-19
6.63916e-19
2.61775e-19
7.16112e-20
3.11123e-20
1.83402e-19
1.6682e-18
1.32795e-17
8.85011e-17
4.99901e-16
2.13569e-15
6.70708e-15
1.22012e-14
1.40565e-14
5.50011e-18
1.59806e-18
4.01713e-19
8.22035e-20
1.32968e-20
1.7109e-21
8.28704e-22
1.12434e-20
7.45674e-20
1.55592e-19
1.16256e-19
4.65282e-20
1.28473e-20
4.8919e-21
2.48562e-20
2.2866e-19
1.85223e-18
1.25186e-17
7.08867e-17
3.03052e-16
9.25682e-16
1.60202e-15
1.78925e-15
9.2563e-19
2.40659e-19
5.76304e-20
1.13835e-20
1.79216e-21
2.26335e-22
1.20154e-22
1.72668e-21
1.15255e-20
2.45092e-20
1.86226e-20
7.52492e-21
2.08551e-21
7.1927e-22
3.1356e-21
2.86558e-20
2.32754e-19
1.57166e-18
8.79468e-18
3.69702e-17
1.08653e-16
1.80683e-16
1.99104e-16
1.44031e-19
3.35986e-20
7.65692e-21
1.45896e-21
2.23322e-22
2.76288e-23
1.61101e-23
2.44802e-22
1.64529e-21
3.55749e-21
2.73622e-21
1.11085e-21
3.07539e-22
9.86907e-23
3.70109e-22
3.30786e-21
2.65997e-20
1.77293e-19
9.71578e-19
3.96632e-18
1.11086e-17
1.78711e-17
1.98771e-17
2.0791e-20
4.36412e-21
9.45702e-22
1.73745e-22
2.58388e-23
3.12742e-24
2.00252e-24
3.21001e-23
2.17206e-22
4.76176e-22
3.68963e-22
1.4963e-22
4.1162e-23
1.25502e-23
4.13104e-23
3.56497e-22
2.79904e-21
1.82088e-20
9.65966e-20
3.79448e-19
1.01114e-18
1.59091e-18
1.80819e-18
2.79146e-21
5.28476e-22
1.08794e-22
1.92581e-23
2.7794e-24
3.28486e-25
2.31193e-25
3.90233e-24
2.65725e-23
5.89257e-23
4.57964e-23
1.84531e-23
5.02097e-24
1.47877e-24
4.38122e-24
3.60159e-23
2.7314e-22
1.71926e-21
8.77797e-21
3.3053e-20
8.3694e-20
1.29391e-19
1.5031e-19
3.49631e-22
5.98425e-23
1.16947e-23
1.99354e-24
2.78994e-25
3.21486e-26
2.48446e-26
4.40611e-25
3.01764e-24
6.75492e-24
5.2404e-24
2.08702e-24
5.58781e-25
1.61145e-25
4.42894e-25
3.43798e-24
2.49667e-23
1.50971e-22
7.37534e-22
2.65223e-21
6.38592e-21
9.69859e-21
1.13534e-20
4.09528e-23
6.34914e-24
1.17698e-24
1.93107e-25
2.61809e-26
2.93685e-27
2.49113e-27
4.63325e-26
3.1893e-25
7.1922e-25
5.54618e-25
2.1724e-25
5.69614e-26
1.62875e-26
4.2764e-26
3.11116e-25
2.14638e-24
1.24076e-23
5.78123e-23
1.98182e-22
4.53104e-22
6.70373e-22
7.72887e-22
4.49853e-24
6.32728e-25
1.11192e-25
1.75498e-26
2.30306e-27
2.51148e-28
2.33648e-28
4.54899e-27
3.145e-26
7.13192e-26
5.4456e-26
2.08761e-26
5.33719e-27
1.53397e-27
3.95335e-27
2.67834e-26
1.74376e-25
9.58852e-25
4.24861e-24
1.38487e-23
2.99697e-23
4.26303e-23
4.72045e-23
4.64596e-25
5.93598e-26
9.88443e-27
1.50021e-27
1.90407e-28
2.01592e-29
2.05562e-29
4.18284e-28
2.90261e-27
6.60689e-27
4.97689e-27
1.85893e-27
4.61521e-28
1.35487e-28
3.50917e-28
2.20203e-27
1.34398e-26
6.99089e-26
2.93601e-25
9.0699e-25
1.84816e-24
2.48938e-24
2.59146e-24
4.52252e-26
5.2542e-27
8.28617e-28
1.20898e-28
1.4829e-29
1.52238e-30
1.70123e-30
3.61272e-29
2.51481e-28
5.73818e-28
4.25105e-28
1.54127e-28
3.70508e-29
1.13317e-29
3.00182e-29
1.73556e-28
9.85794e-28
4.82498e-27
1.91384e-26
5.57721e-26
1.06277e-25
1.33742e-25
1.29968e-25
4.15962e-27
4.39957e-28
6.56758e-29
9.20767e-30
1.09044e-30
1.08388e-31
1.32792e-31
2.93946e-30
2.05145e-29
4.68859e-29
3.40709e-29
1.19526e-29
2.77835e-30
9.07584e-31
2.48837e-30
1.32017e-29
6.92291e-29
3.16381e-28
1.17886e-27
3.22679e-27
5.71645e-27
6.67524e-27
6.47855e-27
3.62305e-28
3.49445e-29
4.93427e-30
6.64244e-31
7.58468e-32
7.28414e-33
9.80494e-33
2.25997e-31
1.58068e-30
3.61561e-30
2.57021e-30
8.69486e-31
1.95366e-31
7.032e-32
2.01112e-31
9.77196e-31
4.69493e-30
1.98732e-29
6.91035e-29
1.76386e-28
2.89062e-28
3.21007e-28
4.71224e-28
2.9951e-29
2.64073e-30
3.52289e-31
4.54635e-32
4.99348e-33
4.61857e-34
6.87488e-34
1.64841e-32
1.15483e-31
2.64091e-31
1.83109e-31
5.95243e-32
1.29415e-32
5.31972e-33
1.58993e-32
7.08002e-32
3.09866e-31
1.20646e-30
3.89072e-30
9.21936e-30
1.40508e-29
1.75479e-29
7.99735e-29
2.35638e-30
1.90349e-31
2.39782e-32
2.95822e-33
3.11229e-34
2.75763e-35
4.59992e-35
1.14612e-33
8.03381e-33
1.83347e-32
1.23364e-32
3.82584e-33
8.05497e-34
3.95496e-34
1.23574e-33
5.0625e-33
2.00919e-32
7.1327e-32
2.1182e-31
4.66158e-31
6.97986e-31
1.68098e-30
2.04754e-29
1.77341e-31
1.315e-32
1.56236e-33
1.83467e-34
1.83661e-35
1.54581e-36
2.95845e-36
7.65558e-35
5.36182e-34
1.21775e-33
7.8917e-34
2.30803e-34
4.70942e-35
2.90077e-35
9.41804e-35
3.57074e-34
1.28491e-33
4.1384e-33
1.12637e-32
2.33134e-32
4.29487e-32
3.04614e-31
5.40329e-30
1.28518e-32
8.7728e-34
9.85067e-35
1.10011e-35
1.04522e-36
8.34073e-38
1.89527e-37
4.96724e-36
3.45258e-35
7.77575e-35
4.82482e-35
1.3171e-35
2.62736e-36
2.11119e-36
7.01893e-36
2.47546e-35
8.08369e-35
2.35092e-34
5.85877e-34
1.22136e-33
4.47468e-33
6.79783e-32
1.36625e-30
9.03769e-34
5.71198e-35
6.08786e-36
6.46043e-37
5.82173e-38
4.44332e-39
1.29617e-38
3.20448e-37
2.16458e-36
4.78435e-36
2.83128e-36
7.2077e-37
1.44899e-37
1.55866e-37
5.20332e-37
1.70989e-36
5.06837e-36
1.33469e-35
3.2886e-35
1.28223e-34
1.74951e-33
3.75184e-32
9.02517e-31
)
;

boundaryField
{
    leftWall
    {
        type            zeroGradient;
    }
    rightWall
    {
        type            zeroGradient;
    }
    lowerWall
    {
        type            zeroGradient;
    }
    atmosphere
    {
        type            inletOutlet;
        inletValue      uniform 0;
        value           nonuniform List<scalar> 
23
(
9.03769e-34
5.71198e-35
6.08786e-36
6.46043e-37
5.82173e-38
4.44332e-39
1.29617e-38
3.20448e-37
2.16458e-36
4.78435e-36
2.83128e-36
7.2077e-37
1.44899e-37
1.55866e-37
5.20332e-37
1.70989e-36
5.06837e-36
1.33469e-35
3.2886e-35
1.28223e-34
1.74951e-33
3.75184e-32
9.02517e-31
)
;
    }
    defaultFaces
    {
        type            empty;
    }
    procBoundary2to0
    {
        type            processor;
        value           nonuniform List<scalar> 
24
(
8.73038e-13
3.12024e-12
8.2477e-12
1.56101e-11
2.31162e-11
3.16505e-11
4.36888e-11
2.87504e-13
2.00573e-13
7.93436e-14
2.23887e-14
4.46773e-15
5.97761e-16
1.75433e-16
1.62945e-15
1.16545e-14
1.69798e-14
9.67764e-15
3.1537e-15
7.52441e-16
1.37775e-15
1.13487e-14
7.26567e-14
7.26567e-14
)
;
    }
    procBoundary2to3
    {
        type            processor;
        value           nonuniform List<scalar> 
25
(
3.98895e-11
3.03295e-11
1.76236e-11
7.28594e-12
2.18209e-12
4.94358e-13
8.82057e-14
1.29232e-14
1.61784e-15
1.79113e-16
1.79542e-17
1.64139e-18
1.36024e-19
1.00994e-20
6.65245e-22
3.87656e-23
2.01948e-24
1.01507e-25
7.80603e-27
1.76794e-27
6.26204e-28
2.19255e-28
7.19742e-29
2.26577e-29
2.47491e-29
)
;
    }
}


// ************************************************************************* //
