/*--------------------------------*- C++ -*----------------------------------*\
| =========                 |                                                 |
| \\      /  F ield         | OpenFOAM: The Open Source CFD Toolbox           |
|  \\    /   O peration     | Version:  2.4.0                                 |
|   \\  /    A nd           | Web:      www.OpenFOAM.org                      |
|    \\/     M anipulation  |                                                 |
\*---------------------------------------------------------------------------*/
FoamFile
{
    version     2.0;
    format      ascii;
    class       volScalarField;
    location    "0.85";
    object      alpha.oil;
}
// * * * * * * * * * * * * * * * * * * * * * * * * * * * * * * * * * * * * * //

dimensions      [0 0 0 0 0 0 0];

internalField   nonuniform List<scalar> 
559
(
5.98107e-08
5.36559e-08
1.07584e-07
3.25057e-07
9.72769e-07
1.58116e-06
1.7955e-06
5.40718e-09
2.15602e-09
7.87001e-11
5.00006e-12
3.95676e-12
5.16207e-12
1.42087e-11
3.25276e-11
6.39189e-11
1.16326e-10
1.69804e-10
1.09255e-09
6.32777e-09
4.1017e-08
9.76367e-08
1.1615e-07
9.48448e-08
4.92889e-08
5.31429e-08
1.39674e-07
3.04023e-07
9.06491e-07
1.12483e-06
4.62492e-10
7.9158e-11
4.26161e-12
2.40365e-12
1.98407e-12
3.04079e-12
8.64913e-12
2.38809e-11
5.33024e-11
8.95501e-11
1.3039e-10
5.40602e-10
5.47476e-09
1.95395e-08
8.11806e-08
1.16334e-07
1.10008e-07
4.93628e-08
4.12583e-08
6.27717e-08
1.2917e-07
2.49674e-07
3.18584e-07
1.60997e-11
3.84516e-12
1.84661e-12
9.52989e-13
9.61753e-13
1.69047e-12
5.04835e-12
1.57473e-11
3.94736e-11
7.46064e-11
1.09997e-10
2.80173e-10
3.01914e-09
1.72921e-08
3.487e-08
6.30661e-08
6.56019e-08
4.778e-08
2.41864e-08
2.22166e-08
4.11718e-08
8.80055e-08
1.28754e-07
4.6058e-12
1.5477e-12
6.3042e-13
3.48544e-13
4.41689e-13
8.73735e-13
2.75548e-12
9.35998e-12
2.54081e-11
5.17521e-11
7.9654e-11
1.58139e-10
1.7562e-09
9.11757e-09
2.25974e-08
2.41657e-08
2.87519e-08
2.92152e-08
1.99739e-08
1.1736e-08
1.22135e-08
2.37756e-08
3.75183e-08
1.25269e-12
4.93457e-13
1.87661e-13
1.20598e-13
1.89009e-13
4.15771e-13
1.3948e-12
5.0254e-12
1.43611e-11
3.18949e-11
3.96018e-11
6.6219e-11
4.63617e-10
5.90226e-09
9.12123e-09
1.44061e-08
1.94232e-08
1.95618e-08
1.47754e-08
7.53102e-09
4.92955e-09
6.32989e-09
6.72205e-09
3.48403e-13
1.36973e-13
5.00651e-14
3.9648e-14
7.44716e-14
1.81107e-13
6.4879e-13
2.43508e-12
7.19108e-12
1.67338e-11
2.32252e-11
2.34099e-11
5.47624e-11
1.62405e-09
5.44144e-09
7.81787e-09
1.28222e-08
1.39189e-08
1.06416e-08
6.04924e-09
3.58825e-09
2.74165e-09
1.89918e-09
9.29356e-14
3.36523e-14
1.21599e-14
1.23444e-14
2.68104e-14
7.18879e-14
2.74582e-13
1.05983e-12
3.19542e-12
7.61153e-12
1.14644e-11
1.32679e-11
1.38718e-11
2.17661e-10
1.49931e-09
4.04487e-09
7.41084e-09
7.91144e-09
6.1931e-09
3.95759e-09
2.45545e-09
1.55737e-09
9.52992e-10
2.26461e-14
7.38378e-15
2.72919e-15
3.60927e-15
8.79264e-15
2.59367e-14
1.05057e-13
4.13414e-13
1.26309e-12
3.03954e-12
4.8157e-12
6.20657e-12
7.83428e-12
1.75352e-11
3.77594e-10
1.07495e-09
2.62753e-09
3.68314e-09
3.02961e-09
2.02236e-09
1.26686e-09
7.60145e-10
4.35251e-10
4.98468e-15
1.46042e-15
5.7377e-16
9.82279e-16
2.6259e-15
8.48941e-15
3.61897e-14
1.4436e-13
4.449e-13
1.07425e-12
1.75851e-12
2.48323e-12
3.61444e-12
8.4999e-12
1.01973e-10
1.70026e-10
3.43177e-10
9.69041e-10
1.17456e-09
8.3126e-10
5.19129e-10
2.97815e-10
1.5872e-10
9.93272e-16
2.62432e-16
1.14124e-16
2.47092e-16
7.14794e-16
2.52093e-15
1.12224e-14
4.52074e-14
1.40172e-13
3.38967e-13
5.70029e-13
8.76216e-13
1.46168e-12
4.55363e-12
1.50056e-11
1.74913e-11
2.30533e-11
5.24679e-11
1.32311e-10
2.14098e-10
1.50361e-10
8.92131e-11
4.50601e-11
1.80061e-16
4.31576e-17
2.16162e-17
5.72249e-17
1.7761e-16
6.79326e-16
3.13526e-15
1.27238e-14
3.96462e-14
9.60506e-14
1.66119e-13
2.76554e-13
5.21235e-13
1.96217e-12
5.93664e-12
8.2256e-12
9.3912e-12
1.10678e-11
1.08438e-11
1.59253e-11
2.06854e-11
1.43993e-11
9.2767e-12
2.9828e-17
6.52984e-18
3.90396e-18
1.21877e-17
4.03865e-17
1.66434e-16
7.91597e-16
3.23227e-15
1.01207e-14
2.46314e-14
4.40338e-14
7.89495e-14
1.64352e-13
6.8374e-13
2.12097e-12
3.20363e-12
3.42187e-12
3.90694e-12
4.20569e-12
4.79327e-12
4.77736e-12
3.35081e-12
1.84477e-12
4.53644e-18
9.14523e-19
6.71272e-19
2.3881e-18
8.42419e-18
3.71493e-17
1.81188e-16
7.44003e-16
2.34352e-15
5.75418e-15
1.06972e-14
2.0535e-14
4.61027e-14
1.9882e-13
6.46044e-13
1.00429e-12
1.05952e-12
1.14103e-12
1.2407e-12
1.23875e-12
1.05715e-12
6.59578e-13
3.17755e-13
6.36008e-19
1.19155e-19
1.09464e-19
4.31227e-19
1.61658e-18
7.5797e-18
3.77696e-17
1.55997e-16
4.95225e-16
1.23297e-15
2.39834e-15
4.89671e-15
1.15906e-14
4.95639e-14
1.65962e-13
2.60313e-13
2.7581e-13
2.87131e-13
2.95777e-13
2.66385e-13
1.97345e-13
1.0919e-13
4.70582e-14
8.25545e-20
1.4523e-20
1.68619e-20
7.19305e-20
2.86251e-19
1.41875e-18
7.20365e-18
2.99485e-17
9.60622e-17
2.43828e-16
4.98624e-16
1.0744e-15
2.62905e-15
1.08204e-14
3.64165e-14
5.73509e-14
6.10337e-14
6.1821e-14
5.95072e-14
4.87482e-14
3.17434e-14
1.56486e-14
6.063e-15
9.96026e-21
1.66462e-21
2.44592e-21
1.11158e-20
4.69249e-20
2.44603e-19
1.2634e-18
5.29407e-18
1.72083e-17
4.47468e-17
9.64134e-17
2.17393e-16
5.41104e-16
2.10219e-15
6.94385e-15
1.09609e-14
1.16609e-14
1.14719e-14
1.03357e-14
7.71583e-15
4.4637e-15
1.96843e-15
6.85861e-16
1.12126e-21
1.80365e-22
3.33454e-22
1.59677e-21
7.14722e-21
3.90135e-20
2.04792e-19
8.66369e-19
2.86258e-18
7.65813e-18
1.73767e-17
4.06479e-17
1.01618e-16
3.68165e-16
1.16911e-15
1.8444e-15
1.95139e-15
1.8599e-15
1.57253e-15
1.06982e-15
5.54066e-16
2.19406e-16
6.8762e-17
1.18209e-22
1.85737e-23
4.27094e-23
2.13992e-22
1.0152e-21
5.78136e-21
3.083e-20
1.31932e-19
4.44401e-19
1.22706e-18
2.92371e-18
7.03625e-18
1.75063e-17
5.8784e-17
1.76565e-16
2.77227e-16
2.90365e-16
2.67241e-16
2.11961e-16
1.31509e-16
6.13532e-17
2.18948e-17
6.17753e-18
1.17104e-23
1.82708e-24
5.14523e-24
2.68643e-23
1.35036e-22
7.99855e-22
4.3326e-21
1.87912e-20
6.46907e-20
1.84637e-19
4.59812e-19
1.13007e-18
2.78192e-18
8.6457e-18
2.42836e-17
3.77454e-17
3.89931e-17
3.45874e-17
2.56942e-17
1.45328e-17
6.12876e-18
1.97702e-18
5.0326e-19
1.09371e-24
1.72547e-25
5.84588e-25
3.17513e-24
1.69077e-23
1.0391e-22
5.71835e-22
2.5177e-21
8.87294e-21
2.61689e-20
6.77233e-20
1.68917e-19
4.09699e-19
1.17958e-18
3.07605e-18
4.70522e-18
4.78118e-18
4.08604e-18
2.84106e-18
1.46886e-18
5.62206e-19
1.64025e-19
3.77592e-20
9.66619e-26
1.57214e-26
6.29812e-26
3.5561e-25
2.0054e-24
1.27627e-23
7.13767e-23
3.1933e-22
1.15249e-21
3.50499e-21
9.36404e-21
2.3573e-20
5.62052e-20
1.50499e-19
3.63414e-19
5.43581e-19
5.4125e-19
4.44729e-19
2.89095e-19
1.37189e-19
4.79585e-20
1.27258e-20
2.67794e-21
8.13342e-27
1.39136e-27
6.48155e-27
3.80684e-26
2.27264e-25
1.49525e-24
8.50176e-24
3.86805e-23
1.42841e-22
4.46137e-22
1.22102e-21
3.08279e-21
7.20195e-21
1.80016e-20
4.01988e-20
5.8395e-20
5.67682e-20
4.48108e-20
2.72212e-20
1.18815e-20
3.80985e-21
9.2655e-22
1.85213e-22
6.56473e-28
1.20897e-28
6.46602e-28
3.96334e-27
2.50866e-26
1.69999e-25
9.7983e-25
4.52081e-24
1.70139e-23
5.4218e-23
1.5065e-22
3.78987e-22
8.64546e-22
2.02211e-21
4.17395e-21
5.84282e-21
5.51471e-21
4.16578e-21
2.35912e-21
9.48919e-22
2.80491e-22
6.3114e-23
1.33139e-23
5.12636e-29
1.04609e-29
6.33666e-29
4.08432e-28
2.75425e-27
1.91691e-26
1.11609e-25
5.20272e-25
1.98521e-24
6.40647e-24
1.79038e-23
4.44977e-23
9.87252e-23
2.15766e-22
4.0988e-22
5.47313e-22
4.98177e-22
3.57805e-22
1.87905e-22
6.93936e-23
1.88224e-23
3.95481e-24
2.03403e-24
)
;

boundaryField
{
    leftWall
    {
        type            zeroGradient;
    }
    rightWall
    {
        type            zeroGradient;
    }
    lowerWall
    {
        type            zeroGradient;
    }
    atmosphere
    {
        type            inletOutlet;
        inletValue      uniform 0;
        value           nonuniform List<scalar> 
23
(
5.12636e-29
1.04609e-29
6.33666e-29
4.08432e-28
2.75425e-27
1.91691e-26
1.11609e-25
5.20272e-25
1.98521e-24
6.40647e-24
1.79038e-23
4.44977e-23
9.87252e-23
2.15766e-22
4.0988e-22
5.47313e-22
4.98177e-22
3.57805e-22
1.87905e-22
6.93936e-23
1.88224e-23
3.95481e-24
2.03403e-24
)
;
    }
    defaultFaces
    {
        type            empty;
    }
    procBoundary2to0
    {
        type            processor;
        value           nonuniform List<scalar> 
24
(
4.37485e-08
7.29366e-08
2.92358e-07
7.24582e-07
1.35324e-06
1.95384e-06
1.89456e-06
1.82413e-08
8.87696e-09
1.96909e-09
6.73295e-11
7.81184e-12
8.44769e-12
2.86221e-11
4.12841e-11
3.57574e-10
7.05261e-10
2.17606e-09
2.63477e-09
1.28777e-08
4.54507e-08
9.9387e-08
9.89559e-08
9.89559e-08
)
;
    }
    procBoundary2to3
    {
        type            processor;
        value           nonuniform List<scalar> 
25
(
1.91471e-06
1.14187e-06
3.18493e-07
1.30203e-07
3.4885e-08
6.11648e-09
1.51057e-09
7.10804e-10
3.324e-10
1.10022e-10
2.96835e-11
6.31244e-12
1.17876e-12
1.88836e-13
2.60144e-14
3.10882e-15
3.25054e-16
3.0042e-17
2.48629e-18
1.87839e-19
1.36129e-20
1.12884e-21
1.5371e-22
3.61511e-23
3.78226e-23
)
;
    }
}


// ************************************************************************* //
