/*--------------------------------*- C++ -*----------------------------------*\
| =========                 |                                                 |
| \\      /  F ield         | OpenFOAM: The Open Source CFD Toolbox           |
|  \\    /   O peration     | Version:  2.4.0                                 |
|   \\  /    A nd           | Web:      www.OpenFOAM.org                      |
|    \\/     M anipulation  |                                                 |
\*---------------------------------------------------------------------------*/
FoamFile
{
    version     2.0;
    format      ascii;
    class       volScalarField;
    location    "0.85";
    object      p;
}
// * * * * * * * * * * * * * * * * * * * * * * * * * * * * * * * * * * * * * //

dimensions      [1 -1 -2 0 0 0 0];

internalField   nonuniform List<scalar> 
559
(
2.92469
2.85299
2.7743
2.68447
2.58167
2.48713
2.43572
3.28474
3.28121
3.27234
3.26261
3.25065
3.23656
3.21932
3.1981
3.17232
3.1416
3.10603
3.06606
3.02205
2.97395
2.92252
2.86772
2.80952
2.74764
2.68237
2.61294
2.54283
2.48104
2.46691
3.12888
3.12566
3.11784
3.1084
3.09658
3.08245
3.06556
3.04526
3.0212
2.99319
2.96117
2.92523
2.88562
2.8426
2.79669
2.74808
2.69733
2.64469
2.59138
2.53839
2.49048
2.45171
2.44678
2.97486
2.97187
2.96505
2.95622
2.94496
2.93143
2.91518
2.89601
2.87367
2.84806
2.8191
2.78687
2.75156
2.71341
2.67284
2.63035
2.58669
2.54235
2.49893
2.45784
2.42265
2.39713
2.39013
2.82303
2.82028
2.81429
2.80613
2.7956
2.78283
2.76757
2.74973
2.72917
2.70585
2.67973
2.6509
2.6195
2.58583
2.55034
2.51358
2.47617
2.43887
2.40318
2.37035
2.34271
2.3232
2.31349
2.67337
2.67086
2.66555
2.6581
2.64837
2.6365
2.62237
2.60594
2.58714
2.56599
2.54248
2.51673
2.48892
2.45937
2.42844
2.39667
2.36469
2.33328
2.30358
2.27661
2.25401
2.23703
2.22601
2.52581
2.52352
2.51879
2.51202
2.50314
2.49223
2.47927
2.46426
2.44718
2.42807
2.40701
2.38411
2.35958
2.33366
2.30676
2.27935
2.25198
2.22535
2.20029
2.17768
2.15849
2.14323
2.13168
2.38018
2.37811
2.37388
2.36774
2.35968
2.34975
2.33797
2.32436
2.30896
2.29183
2.27305
2.25275
2.23112
2.20844
2.18505
2.16135
2.13788
2.11516
2.09386
2.07457
2.05787
2.0439
2.03242
2.23631
2.23445
2.23066
2.22513
2.21785
2.20888
2.19824
2.18599
2.17218
2.15688
2.14018
2.12222
2.10321
2.0834
2.06308
2.04264
2.02245
2.00296
1.98466
1.96792
1.95321
1.94047
1.92946
2.09405
2.09239
2.08901
2.08405
2.07751
2.06945
2.0599
2.04893
2.03659
2.02298
2.0082
1.99239
1.97574
1.95846
1.94082
1.92311
1.90566
1.88886
1.87303
1.85851
1.84547
1.83387
1.8236
1.95325
1.95176
1.94875
1.94433
1.93848
1.93128
1.92276
1.91298
1.90203
1.88998
1.87696
1.86308
1.84851
1.83344
1.81811
1.80277
1.78772
1.7732
1.75947
1.74675
1.73516
1.72472
1.7153
1.81373
1.81241
1.80974
1.8058
1.80061
1.79421
1.78665
1.778
1.76832
1.7577
1.74625
1.73409
1.72138
1.70828
1.69499
1.68173
1.66869
1.6561
1.64416
1.63303
1.6228
1.61345
1.60494
1.67538
1.67421
1.67185
1.66837
1.66378
1.65813
1.65146
1.64383
1.63531
1.626
1.61598
1.60537
1.59431
1.58294
1.57144
1.55996
1.54869
1.53779
1.52743
1.5177
1.50869
1.5004
1.49279
1.53805
1.53703
1.53495
1.53189
1.52786
1.5229
1.51704
1.51036
1.50291
1.49478
1.48606
1.47684
1.46726
1.45743
1.44749
1.43759
1.42786
1.41844
1.40945
1.40098
1.39309
1.38578
1.37905
1.40163
1.40073
1.39892
1.39625
1.39273
1.38839
1.38329
1.37747
1.371
1.36395
1.3564
1.34844
1.34017
1.33171
1.32315
1.31463
1.30627
1.29816
1.2904
1.28307
1.2762
1.26981
1.26391
1.26599
1.26522
1.26365
1.26134
1.25829
1.25454
1.25012
1.2451
1.23952
1.23345
1.22695
1.22012
1.21303
1.20578
1.19846
1.19118
1.18402
1.17708
1.17042
1.16411
1.15818
1.15264
1.14751
1.13105
1.13039
1.12904
1.12705
1.12444
1.12123
1.11745
1.11315
1.10838
1.1032
1.09766
1.09184
1.08582
1.07966
1.07345
1.06727
1.06119
1.05529
1.04962
1.04424
1.03916
1.03441
1.03
0.996702
0.996138
0.994996
0.993314
0.9911
0.988382
0.985186
0.981553
0.977527
0.973154
0.96849
0.963594
0.958525
0.953348
0.948133
0.942944
0.937842
0.93288
0.928108
0.923564
0.919272
0.915246
0.911489
0.86285
0.862381
0.861428
0.860027
0.858186
0.855925
0.853271
0.850256
0.846914
0.843286
0.839416
0.835354
0.831152
0.826866
0.82255
0.818253
0.814022
0.80991
0.805955
0.802179
0.798605
0.795245
0.792095
0.729419
0.729029
0.728252
0.727113
0.725619
0.723789
0.721641
0.719201
0.716494
0.713555
0.710419
0.707126
0.703719
0.700241
0.696735
0.693242
0.689809
0.686469
0.683246
0.680167
0.677252
0.674502
0.671915
0.596344
0.596041
0.595431
0.594537
0.593367
0.591931
0.590246
0.588332
0.58621
0.583907
0.581449
0.578868
0.576196
0.573464
0.570707
0.56796
0.56525
0.562604
0.56005
0.55761
0.555293
0.553104
0.551036
0.463546
0.46332
0.462862
0.462192
0.461317
0.460245
0.458989
0.457563
0.455983
0.454269
0.452442
0.450524
0.448536
0.446501
0.444445
0.442386
0.44035
0.438359
0.436433
0.434581
0.432815
0.43114
0.429554
0.330963
0.330801
0.330491
0.330039
0.329441
0.328705
0.327843
0.326864
0.325781
0.324607
0.323356
0.322042
0.320681
0.319288
0.317878
0.316468
0.315069
0.313696
0.312356
0.31106
0.309818
0.308637
0.307507
0.198538
0.198445
0.19824
0.19795
0.197614
0.197197
0.196705
0.196144
0.195523
0.19485
0.194132
0.19338
0.192604
0.191813
0.191013
0.190211
0.189412
0.188624
0.187852
0.187101
0.186373
0.185672
0.184994
0.0661598
0.0661882
0.0661091
0.065975
0.0658446
0.0657059
0.0655532
0.0653804
0.0651889
0.0649806
0.0647585
0.0645273
0.0642901
0.0640487
0.0638048
0.0635591
0.0633116
0.063066
0.062823
0.0625833
0.0623471
0.0621147
0.0618858
)
;

boundaryField
{
    leftWall
    {
        type            fixedFluxPressure;
        gradient        uniform 0;
        value           nonuniform List<scalar> 
24
(
3.28474
3.12888
2.97486
2.82303
2.67337
2.52581
2.38018
2.23631
2.09405
1.95325
1.81373
1.67538
1.53805
1.40163
1.26599
1.13105
0.996702
0.86285
0.729419
0.596344
0.463546
0.330963
0.198538
0.0661598
)
;
    }
    rightWall
    {
        type            fixedFluxPressure;
        gradient        nonuniform 0();
        value           nonuniform 0();
    }
    lowerWall
    {
        type            fixedFluxPressure;
        gradient        nonuniform 0();
        value           nonuniform 0();
    }
    atmosphere
    {
        type            totalPressure;
        U               U.air;
        phi             phi.air;
        rho             rho;
        psi             none;
        gamma           1;
        p0              uniform 0;
        value           uniform 0;
    }
    defaultFaces
    {
        type            empty;
    }
    procBoundary2to0
    {
        type            processor;
        value           nonuniform List<scalar> 
24
(
3.04429
2.96316
2.86999
2.75773
2.61507
2.46847
2.35323
3.44154
3.43702
3.42709
3.41806
3.407
3.39386
3.37687
3.35518
3.32765
3.29375
3.25413
3.20973
3.16086
3.10793
3.05111
2.99024
2.99024
)
;
    }
    procBoundary2to3
    {
        type            processor;
        value           nonuniform List<scalar> 
25
(
2.43332
2.47309
2.44879
2.38781
2.30856
2.21952
2.12434
2.02489
1.92211
1.81666
1.70891
1.59916
1.48761
1.37446
1.25988
1.144
1.02697
0.908905
0.78992
0.670118
0.549591
0.428437
0.3067
0.1845
0.061703
)
;
    }
}


// ************************************************************************* //
