/*--------------------------------*- C++ -*----------------------------------*\
| =========                 |                                                 |
| \\      /  F ield         | OpenFOAM: The Open Source CFD Toolbox           |
|  \\    /   O peration     | Version:  2.4.0                                 |
|   \\  /    A nd           | Web:      www.OpenFOAM.org                      |
|    \\/     M anipulation  |                                                 |
\*---------------------------------------------------------------------------*/
FoamFile
{
    version     2.0;
    format      ascii;
    class       surfaceScalarField;
    location    "0.85";
    object      phi;
}
// * * * * * * * * * * * * * * * * * * * * * * * * * * * * * * * * * * * * * //

dimensions      [0 3 -1 0 0 0 0];

internalField   nonuniform List<scalar> 
1070
(
4.94764e-05
5.81407e-05
5.57044e-05
5.74912e-05
6.60417e-05
6.06289e-05
7.84666e-05
6.00226e-05
9.21361e-05
5.97448e-05
0.000121198
9.02384e-05
0.000119913
7.81872e-06
7.94321e-05
1.33168e-05
7.56522e-05
1.52065e-05
6.94772e-05
1.52999e-05
6.62196e-05
1.49878e-05
6.43254e-05
1.53657e-05
6.38972e-05
1.61951e-05
6.39278e-05
1.81695e-05
6.49792e-05
2.09894e-05
6.58159e-05
2.47616e-05
6.74386e-05
2.91877e-05
6.86266e-05
3.3713e-05
6.82133e-05
3.7937e-05
6.64097e-05
4.12863e-05
6.38761e-05
4.41787e-05
6.08628e-05
4.6674e-05
5.78159e-05
4.91107e-05
5.5704e-05
5.21585e-05
5.44433e-05
5.71834e-05
5.56041e-05
6.26099e-05
5.45961e-05
6.68037e-05
5.5551e-05
8.35502e-05
7.34918e-05
9.28035e-05
5.58118e-06
7.38509e-05
1.02088e-05
7.10246e-05
1.25374e-05
6.71486e-05
1.37298e-05
6.50272e-05
1.45108e-05
6.35444e-05
1.54979e-05
6.29101e-05
1.68209e-05
6.26048e-05
1.88253e-05
6.29749e-05
2.13998e-05
6.32415e-05
2.48989e-05
6.39394e-05
2.91889e-05
6.43365e-05
3.36036e-05
6.37986e-05
3.7755e-05
6.22583e-05
4.13009e-05
6.03302e-05
4.42212e-05
5.79425e-05
4.62847e-05
5.57524e-05
4.81412e-05
5.38475e-05
5.04114e-05
5.21731e-05
5.3851e-05
5.21645e-05
5.689e-05
5.15571e-05
5.92785e-05
5.31625e-05
7.00762e-05
6.26941e-05
7.05247e-05
4.31432e-06
6.95366e-05
8.17919e-06
6.71597e-05
1.05871e-05
6.47407e-05
1.23172e-05
6.32972e-05
1.37647e-05
6.20969e-05
1.5201e-05
6.14738e-05
1.67682e-05
6.10375e-05
1.87695e-05
6.09735e-05
2.11589e-05
6.08521e-05
2.4248e-05
6.08503e-05
2.79646e-05
6.06199e-05
3.18414e-05
5.99218e-05
3.553e-05
5.85697e-05
3.89122e-05
5.69481e-05
4.18504e-05
5.50043e-05
4.42291e-05
5.33736e-05
4.63021e-05
5.17745e-05
4.85302e-05
4.9945e-05
5.15715e-05
4.91231e-05
5.44615e-05
4.86672e-05
5.76562e-05
4.99678e-05
6.65533e-05
5.3797e-05
5.49527e-05
3.51676e-06
6.60198e-05
6.81511e-06
6.38614e-05
9.26334e-06
6.22925e-05
1.13053e-05
6.12552e-05
1.30708e-05
6.03314e-05
1.48133e-05
5.97313e-05
1.66475e-05
5.92033e-05
1.8723e-05
5.88981e-05
2.10354e-05
5.85397e-05
2.37139e-05
5.81718e-05
2.68198e-05
5.7514e-05
3.01293e-05
5.66123e-05
3.32435e-05
5.54555e-05
3.62185e-05
5.39731e-05
3.89138e-05
5.23091e-05
4.16297e-05
5.06577e-05
4.43682e-05
4.9036e-05
4.69853e-05
4.73279e-05
4.99534e-05
4.6155e-05
5.32067e-05
4.54139e-05
5.73941e-05
4.57804e-05
6.49041e-05
4.62871e-05
4.43375e-05
3.05681e-06
6.2963e-05
5.96526e-06
6.09529e-05
8.38207e-06
5.98757e-05
1.05406e-05
5.90966e-05
1.25006e-05
5.83714e-05
1.44633e-05
5.77686e-05
1.64934e-05
5.71733e-05
1.86794e-05
5.67121e-05
2.10249e-05
5.61942e-05
2.35678e-05
5.56288e-05
2.62992e-05
5.47827e-05
2.91577e-05
5.37537e-05
3.2006e-05
5.26073e-05
3.47636e-05
5.12154e-05
3.74451e-05
4.96276e-05
4.015e-05
4.79527e-05
4.28295e-05
4.63565e-05
4.54477e-05
4.47098e-05
4.84211e-05
4.31816e-05
5.19346e-05
4.19003e-05
5.64271e-05
4.12879e-05
6.27735e-05
3.99407e-05
3.66312e-05
2.68472e-06
6.02783e-05
5.27479e-06
5.83629e-05
7.59294e-06
5.75575e-05
9.75238e-06
5.69372e-05
1.18032e-05
5.63206e-05
1.38437e-05
5.57281e-05
1.59125e-05
5.51045e-05
1.81131e-05
5.45115e-05
2.04577e-05
5.38495e-05
2.29052e-05
5.31814e-05
2.53664e-05
5.23215e-05
2.79088e-05
5.12113e-05
3.05633e-05
4.99527e-05
3.32246e-05
4.85542e-05
3.5868e-05
4.69842e-05
3.84468e-05
4.53739e-05
4.10946e-05
4.37087e-05
4.39054e-05
4.18989e-05
4.70085e-05
4.00786e-05
5.04833e-05
3.84254e-05
5.47231e-05
3.70481e-05
6.0139e-05
3.45247e-05
3.06935e-05
2.46304e-06
5.78153e-05
4.83495e-06
5.5991e-05
7.04382e-06
5.53486e-05
9.15357e-06
5.48274e-05
1.12055e-05
5.42687e-05
1.32489e-05
5.36847e-05
1.53092e-05
5.30441e-05
1.74527e-05
5.23679e-05
1.96821e-05
5.16202e-05
2.20143e-05
5.08492e-05
2.43783e-05
4.99575e-05
2.67862e-05
4.88034e-05
2.92048e-05
4.7534e-05
3.17053e-05
4.60537e-05
3.42775e-05
4.44119e-05
3.68607e-05
4.27906e-05
3.95443e-05
4.10251e-05
4.22286e-05
3.92146e-05
4.51009e-05
3.72063e-05
4.83184e-05
3.52079e-05
5.23179e-05
3.30486e-05
5.68353e-05
3.00074e-05
2.61739e-05
2.27378e-06
5.55415e-05
4.47144e-06
5.37933e-05
6.56982e-06
5.32503e-05
8.59006e-06
5.28072e-05
1.05703e-05
5.22884e-05
1.25576e-05
5.16975e-05
1.45584e-05
5.10433e-05
1.66018e-05
5.03246e-05
1.8697e-05
4.9525e-05
2.08926e-05
4.86536e-05
2.31967e-05
4.76534e-05
2.55322e-05
4.64679e-05
2.79016e-05
4.51646e-05
3.02489e-05
4.37064e-05
3.25071e-05
4.21537e-05
3.48884e-05
4.04094e-05
3.73669e-05
3.85466e-05
4.0019e-05
3.65625e-05
4.28633e-05
3.4362e-05
4.60492e-05
3.2022e-05
4.95686e-05
2.95292e-05
5.31537e-05
2.64223e-05
2.2559e-05
2.11105e-06
5.34305e-05
4.16429e-06
5.17401e-05
6.1652e-06
5.12493e-05
8.12848e-06
5.08439e-05
1.00631e-05
5.03538e-05
1.19854e-05
4.97751e-05
1.39195e-05
4.91092e-05
1.58874e-05
4.83567e-05
1.78963e-05
4.7516e-05
1.9943e-05
4.66069e-05
2.20224e-05
4.55741e-05
2.40999e-05
4.43904e-05
2.62567e-05
4.30077e-05
2.84352e-05
4.15279e-05
3.07346e-05
3.98543e-05
3.30984e-05
3.80455e-05
3.55092e-05
3.61358e-05
3.80169e-05
3.40549e-05
4.05489e-05
3.183e-05
4.32535e-05
2.93175e-05
4.62419e-05
2.65407e-05
4.93761e-05
2.32881e-05
1.95775e-05
1.95251e-06
5.14779e-05
3.85759e-06
4.9835e-05
5.7362e-06
4.93707e-05
7.59483e-06
4.89853e-05
9.43734e-06
4.85113e-05
1.12673e-05
4.79452e-05
1.31043e-05
4.72722e-05
1.49601e-05
4.6501e-05
1.68445e-05
4.56316e-05
1.87936e-05
4.46578e-05
2.07959e-05
4.35718e-05
2.28356e-05
4.23507e-05
2.48863e-05
4.09571e-05
2.69615e-05
3.94526e-05
2.90315e-05
3.77843e-05
3.10986e-05
3.59785e-05
3.32642e-05
3.397e-05
3.55167e-05
3.18024e-05
3.79174e-05
2.94292e-05
4.04438e-05
2.67911e-05
4.30438e-05
2.39407e-05
4.56158e-05
2.07161e-05
1.70761e-05
1.83465e-06
4.96433e-05
3.63439e-06
4.80352e-05
5.41078e-06
4.75944e-05
7.17051e-06
4.72256e-05
8.91832e-06
4.67635e-05
1.06626e-05
4.62009e-05
1.24061e-05
4.55287e-05
1.41561e-05
4.4751e-05
1.59254e-05
4.38622e-05
1.77229e-05
4.28602e-05
1.95358e-05
4.1759e-05
2.1378e-05
4.05084e-05
2.32301e-05
3.9105e-05
2.512e-05
3.75628e-05
2.70405e-05
3.58637e-05
2.90616e-05
3.39574e-05
3.11268e-05
3.19048e-05
3.32431e-05
2.96861e-05
3.53739e-05
2.72984e-05
3.75117e-05
2.46533e-05
3.97146e-05
2.17378e-05
4.1928e-05
1.85027e-05
1.49558e-05
1.696e-06
4.79473e-05
3.36235e-06
4.63689e-05
5.01596e-06
4.59407e-05
6.65964e-06
4.55819e-05
8.29609e-06
4.51271e-05
9.93581e-06
4.45612e-05
1.15786e-05
4.38859e-05
1.32277e-05
4.31019e-05
1.48866e-05
4.22033e-05
1.65605e-05
4.11863e-05
1.82751e-05
4.00444e-05
2.00058e-05
3.87777e-05
2.17482e-05
3.73626e-05
2.35102e-05
3.58008e-05
2.52958e-05
3.40781e-05
2.70855e-05
3.21676e-05
2.88902e-05
3.01001e-05
3.07289e-05
2.78474e-05
3.26214e-05
2.54059e-05
3.45485e-05
2.27263e-05
3.64689e-05
1.98174e-05
3.83429e-05
1.66287e-05
1.31617e-05
1.58438e-06
4.63629e-05
3.14062e-06
4.48127e-05
4.69091e-06
4.43905e-05
6.23068e-06
4.40421e-05
7.76407e-06
4.35937e-05
9.29311e-06
4.30322e-05
1.08185e-05
4.23605e-05
1.2343e-05
4.15773e-05
1.38722e-05
4.06741e-05
1.54104e-05
3.96482e-05
1.69624e-05
3.84924e-05
1.85262e-05
3.72139e-05
2.01064e-05
3.57824e-05
2.17111e-05
3.41961e-05
2.33339e-05
3.24553e-05
2.49705e-05
3.0531e-05
2.66323e-05
2.84383e-05
2.82892e-05
2.61905e-05
2.99501e-05
2.37449e-05
3.15991e-05
2.10773e-05
3.32363e-05
1.81802e-05
3.48321e-05
1.50329e-05
1.16472e-05
1.45655e-06
4.49064e-05
2.8983e-06
4.33709e-05
4.33693e-06
4.29518e-05
5.76662e-06
4.26124e-05
7.18929e-06
4.2171e-05
8.60432e-06
4.16171e-05
1.00135e-05
4.09513e-05
1.14221e-05
4.01688e-05
1.28296e-05
3.92666e-05
1.42407e-05
3.82371e-05
1.56538e-05
3.70793e-05
1.70813e-05
3.57865e-05
1.85171e-05
3.43466e-05
1.99608e-05
3.27524e-05
2.14114e-05
3.10047e-05
2.28668e-05
2.90756e-05
2.432e-05
2.69851e-05
2.57762e-05
2.47343e-05
2.723e-05
2.22911e-05
2.86669e-05
1.96404e-05
3.00669e-05
1.67802e-05
3.14084e-05
1.36914e-05
1.03861e-05
1.34358e-06
4.35628e-05
2.67732e-06
4.20372e-05
4.00563e-06
4.16235e-05
5.32521e-06
4.12928e-05
6.63628e-06
4.08599e-05
7.93549e-06
4.03179e-05
9.22304e-06
3.96638e-05
1.0501e-05
3.88908e-05
1.17718e-05
3.79958e-05
1.30488e-05
3.69601e-05
1.43282e-05
3.57998e-05
1.56152e-05
3.44996e-05
1.69088e-05
3.30529e-05
1.82035e-05
3.14577e-05
1.94942e-05
2.9714e-05
2.07698e-05
2.77999e-05
2.20327e-05
2.57222e-05
2.32977e-05
2.34693e-05
2.45513e-05
2.10374e-05
2.57748e-05
1.84169e-05
2.69517e-05
1.56033e-05
2.80677e-05
1.25754e-05
9.3505e-06
1.23541e-06
4.23274e-05
2.46422e-06
4.08084e-05
3.68818e-06
4.03996e-05
4.89729e-06
4.00837e-05
6.09419e-06
3.9663e-05
7.27797e-06
3.91342e-05
8.4488e-06
3.84929e-05
9.60806e-06
3.77316e-05
1.07562e-05
3.68476e-05
1.18927e-05
3.58236e-05
1.30223e-05
3.46702e-05
1.4145e-05
3.33768e-05
1.52703e-05
3.19276e-05
1.63978e-05
3.03302e-05
1.75297e-05
2.85821e-05
1.86559e-05
2.66737e-05
1.97707e-05
2.46075e-05
2.08552e-05
2.23848e-05
2.19058e-05
1.99869e-05
2.29248e-05
1.73979e-05
2.39002e-05
1.4628e-05
2.48086e-05
1.16669e-05
8.51959e-06
1.13077e-06
4.11966e-05
2.24655e-06
3.96926e-05
3.35828e-06
3.92878e-05
4.45511e-06
3.89869e-05
5.54226e-06
3.85759e-05
6.62128e-06
3.80552e-05
7.6895e-06
3.74247e-05
8.74152e-06
3.66796e-05
9.78027e-06
3.58089e-05
1.07921e-05
3.48118e-05
1.17842e-05
3.36782e-05
1.2761e-05
3.24e-05
1.37248e-05
3.09638e-05
1.46763e-05
2.93787e-05
1.56193e-05
2.76391e-05
1.65503e-05
2.57426e-05
1.7472e-05
2.36858e-05
1.83931e-05
2.14638e-05
1.9293e-05
1.9087e-05
2.01362e-05
1.65546e-05
2.09175e-05
1.38467e-05
2.16337e-05
1.09508e-05
7.87852e-06
1.0378e-06
4.01588e-05
2.03743e-06
3.8693e-05
3.02703e-06
3.82982e-05
4.00694e-06
3.8007e-05
4.97974e-06
3.76031e-05
5.94557e-06
3.70893e-05
6.90907e-06
3.64612e-05
7.8614e-06
3.57272e-05
8.79741e-06
3.48729e-05
9.70925e-06
3.38999e-05
1.05973e-05
3.27901e-05
1.14605e-05
3.15368e-05
1.22882e-05
3.01361e-05
1.30825e-05
2.85844e-05
1.38472e-05
2.68744e-05
1.45863e-05
2.50035e-05
1.53047e-05
2.29675e-05
1.60035e-05
2.07649e-05
1.66833e-05
1.84072e-05
1.73564e-05
1.58814e-05
1.79905e-05
1.32126e-05
1.85407e-05
1.04005e-05
7.41376e-06
9.48686e-07
3.92101e-05
1.80841e-06
3.78332e-05
2.66225e-06
3.74444e-05
3.50724e-06
3.7162e-05
4.34542e-06
3.67649e-05
5.18069e-06
3.6254e-05
6.01593e-06
3.5626e-05
6.84899e-06
3.48942e-05
7.6716e-06
3.40503e-05
8.47744e-06
3.30941e-05
9.25372e-06
3.20139e-05
9.99095e-06
3.07995e-05
1.06999e-05
2.94271e-05
1.13914e-05
2.78929e-05
1.20523e-05
2.62134e-05
1.26828e-05
2.43731e-05
1.32688e-05
2.23815e-05
1.37937e-05
2.024e-05
1.42721e-05
1.79289e-05
1.47082e-05
1.54453e-05
1.51131e-05
1.28077e-05
1.54985e-05
1.00151e-05
7.09697e-06
8.46523e-07
3.83636e-05
1.52078e-06
3.7159e-05
2.17427e-06
3.67909e-05
2.84315e-06
3.64931e-05
3.52043e-06
3.60876e-05
4.20008e-06
3.55744e-05
4.88845e-06
3.49376e-05
5.5949e-06
3.41877e-05
6.31552e-06
3.33297e-05
7.04184e-06
3.23678e-05
7.75958e-06
3.12961e-05
8.45073e-06
3.01084e-05
9.0952e-06
2.87826e-05
9.68785e-06
2.73003e-05
1.02159e-05
2.56853e-05
1.06921e-05
2.38969e-05
1.11356e-05
2.1938e-05
1.15537e-05
1.98219e-05
1.19296e-05
1.7553e-05
1.22284e-05
1.51464e-05
1.24483e-05
1.25878e-05
1.26061e-05
9.85735e-06
6.9807e-06
6.55979e-07
3.77076e-05
1.09493e-06
3.672e-05
1.50698e-06
3.63789e-05
1.93869e-06
3.60614e-05
2.39011e-06
3.56362e-05
2.85533e-06
3.51092e-05
3.32962e-06
3.44633e-05
3.81443e-06
3.37029e-05
4.32312e-06
3.2821e-05
4.86718e-06
3.18237e-05
5.44171e-06
3.07216e-05
6.04544e-06
2.95046e-05
6.66428e-06
2.81638e-05
7.26874e-06
2.66958e-05
7.85381e-06
2.51002e-05
8.38554e-06
2.33652e-05
8.84108e-06
2.14824e-05
9.20463e-06
1.94584e-05
9.48499e-06
1.72727e-05
9.70163e-06
1.49298e-05
9.84049e-06
1.2449e-05
9.86579e-06
9.83205e-06
7.07337e-06
4.19813e-07
3.72878e-05
5.08912e-07
3.66309e-05
5.62683e-07
3.63251e-05
6.59359e-07
3.59648e-05
7.89818e-07
3.55057e-05
9.68279e-07
3.49307e-05
1.18606e-06
3.42455e-05
1.44842e-06
3.34406e-05
1.75549e-06
3.25139e-05
2.10906e-06
3.14701e-05
2.5128e-06
3.03179e-05
2.96478e-06
2.90526e-05
3.45575e-06
2.76728e-05
3.98078e-06
2.61708e-05
4.53116e-06
2.45498e-05
5.08492e-06
2.28114e-05
5.61902e-06
2.09483e-05
6.10677e-06
1.89706e-05
6.51589e-06
1.68636e-05
6.80948e-06
1.46362e-05
6.96311e-06
1.22953e-05
6.97188e-06
9.82328e-06
7.18429e-06
1.3143e-07
3.71564e-05
-4.30113e-08
3.68054e-05
-2.22617e-07
3.65047e-05
-3.46274e-07
3.60884e-05
-4.24114e-07
3.55836e-05
-4.55103e-07
3.49617e-05
-4.34868e-07
3.42253e-05
-3.6283e-07
3.33685e-05
-2.40676e-07
3.23918e-05
-6.59136e-08
3.12954e-05
1.67271e-07
3.00847e-05
4.55158e-07
2.87648e-05
7.92151e-07
2.73358e-05
1.16928e-06
2.57936e-05
1.57791e-06
2.41412e-05
2.00674e-06
2.23826e-05
2.45493e-06
2.05001e-05
2.89985e-06
1.85257e-05
3.31861e-06
1.64449e-05
3.68401e-06
1.42708e-05
3.95836e-06
1.2021e-05
4.08707e-06
9.69458e-06
7.24046e-06
-9.86052e-08
-4.95767e-07
-9.31316e-07
-1.35721e-06
-1.75564e-06
-2.09994e-06
-2.38776e-06
-2.61802e-06
-2.79085e-06
-2.90738e-06
-2.96505e-06
-2.96035e-06
-2.89346e-06
-2.76863e-06
-2.58431e-06
-2.34533e-06
-2.07334e-06
-1.76317e-06
-1.43855e-06
-1.11476e-06
-8.08711e-07
-5.52646e-07
)
;

boundaryField
{
    leftWall
    {
        type            calculated;
        value           uniform 0;
    }
    rightWall
    {
        type            calculated;
        value           nonuniform 0();
    }
    lowerWall
    {
        type            calculated;
        value           nonuniform 0();
    }
    atmosphere
    {
        type            calculated;
        value           nonuniform List<scalar> 
23
(
3.7255e-05
3.72025e-05
3.69402e-05
3.65143e-05
3.5982e-05
3.5306e-05
3.45131e-05
3.35988e-05
3.25646e-05
3.14119e-05
3.01423e-05
2.87601e-05
2.72689e-05
2.56688e-05
2.39569e-05
2.21436e-05
2.02282e-05
1.82156e-05
1.61202e-05
1.3947e-05
1.1715e-05
9.43852e-06
7.09605e-06
)
;
    }
    defaultFaces
    {
        type            empty;
        value           nonuniform 0();
    }
    procBoundary2to0
    {
        type            processor;
        value           nonuniform List<scalar> 
24
(
-6.2458e-05
-6.37192e-05
-7.09662e-05
-7.24475e-05
-7.34144e-05
-0.0001193
-0.000147579
-8.72508e-05
-8.11503e-05
-7.1367e-05
-6.6313e-05
-6.40133e-05
-6.42751e-05
-6.47572e-05
-6.69537e-05
-6.86358e-05
-7.12107e-05
-7.30527e-05
-7.27386e-05
-7.06337e-05
-6.72254e-05
-6.37551e-05
-4.51591e-05
-6.03112e-05
)
;
    }
    procBoundary2to3
    {
        type            processor;
        value           nonuniform List<scalar> 
25
(
0.000148864
0.00011066
9.2355e-05
8.21253e-05
7.55193e-05
7.04798e-05
6.60768e-05
6.13549e-05
5.67686e-05
5.23576e-05
4.81172e-05
4.40484e-05
4.0137e-05
3.63466e-05
3.26696e-05
2.91033e-05
2.56395e-05
2.22747e-05
1.90055e-05
1.58153e-05
1.27224e-05
9.77312e-06
6.86097e-06
4.03091e-06
-4.08229e-07
)
;
    }
}


// ************************************************************************* //
