/*--------------------------------*- C++ -*----------------------------------*\
| =========                 |                                                 |
| \\      /  F ield         | OpenFOAM: The Open Source CFD Toolbox           |
|  \\    /   O peration     | Version:  2.4.0                                 |
|   \\  /    A nd           | Web:      www.OpenFOAM.org                      |
|    \\/     M anipulation  |                                                 |
\*---------------------------------------------------------------------------*/
FoamFile
{
    version     2.0;
    format      ascii;
    class       surfaceScalarField;
    location    "0.85";
    object      phi.mercury;
}
// * * * * * * * * * * * * * * * * * * * * * * * * * * * * * * * * * * * * * //

dimensions      [0 3 -1 0 0 0 0];

internalField   nonuniform List<scalar> 
1070
(
4.94455e-05
5.82165e-05
5.56975e-05
5.75825e-05
6.60481e-05
6.07287e-05
7.85078e-05
6.01337e-05
9.21975e-05
5.98523e-05
0.000121288
9.03438e-05
0.000120007
7.81694e-06
7.94418e-05
1.33129e-05
7.56617e-05
1.52003e-05
6.94869e-05
1.52915e-05
6.62298e-05
1.49771e-05
6.43363e-05
1.53528e-05
6.39083e-05
1.61797e-05
6.39405e-05
1.81515e-05
6.49934e-05
2.09687e-05
6.58321e-05
2.4738e-05
6.74572e-05
2.91611e-05
6.86487e-05
3.36838e-05
6.82398e-05
3.79056e-05
6.64421e-05
4.12597e-05
6.39158e-05
4.41468e-05
6.09059e-05
4.66517e-05
5.7873e-05
4.90958e-05
5.57697e-05
5.216e-05
5.45202e-05
5.72005e-05
5.56889e-05
6.26494e-05
5.46874e-05
6.68612e-05
5.56415e-05
8.36261e-05
7.35782e-05
9.2886e-05
5.5792e-06
7.38604e-05
1.02049e-05
7.10344e-05
1.25316e-05
6.71588e-05
1.3722e-05
6.50378e-05
1.45011e-05
6.35556e-05
1.5486e-05
6.29219e-05
1.68069e-05
6.2618e-05
1.88092e-05
6.29896e-05
2.13816e-05
6.32581e-05
2.48787e-05
6.39585e-05
2.91669e-05
6.43588e-05
3.35803e-05
6.38248e-05
3.77312e-05
6.22892e-05
4.12776e-05
6.03661e-05
4.42035e-05
5.7987e-05
4.6271e-05
5.58008e-05
4.81377e-05
5.39056e-05
5.04213e-05
5.22389e-05
5.38747e-05
5.22363e-05
5.69301e-05
5.16329e-05
5.93317e-05
5.32377e-05
7.01426e-05
6.27666e-05
7.05932e-05
4.31265e-06
6.95471e-05
8.17568e-06
6.71702e-05
1.05818e-05
6.47514e-05
1.231e-05
6.33083e-05
1.37558e-05
6.21086e-05
1.51901e-05
6.14863e-05
1.67557e-05
6.10513e-05
1.87554e-05
6.09887e-05
2.11432e-05
6.08692e-05
2.4231e-05
6.08697e-05
2.79465e-05
6.06422e-05
3.18227e-05
5.99474e-05
3.55111e-05
5.85995e-05
3.88975e-05
5.69833e-05
4.18368e-05
5.50421e-05
4.4225e-05
5.342e-05
4.63066e-05
5.18257e-05
4.8546e-05
5.00016e-05
5.15994e-05
4.91839e-05
5.45017e-05
4.87301e-05
5.77073e-05
5.00303e-05
6.66136e-05
5.38567e-05
5.50086e-05
3.51504e-06
6.60303e-05
6.8118e-06
6.38722e-05
9.25842e-06
6.23036e-05
1.12988e-05
6.12668e-05
1.30628e-05
6.03436e-05
1.48037e-05
5.97444e-05
1.66365e-05
5.92176e-05
1.87107e-05
5.89137e-05
2.10221e-05
5.85571e-05
2.36998e-05
5.81913e-05
2.68052e-05
5.75361e-05
3.01147e-05
5.66374e-05
3.32302e-05
5.5484e-05
3.62064e-05
5.4005e-05
3.89088e-05
5.23472e-05
4.16303e-05
5.06978e-05
4.43781e-05
4.90812e-05
4.70054e-05
4.73769e-05
4.99834e-05
4.62065e-05
5.32467e-05
4.54663e-05
5.74426e-05
4.58319e-05
6.496e-05
4.6336e-05
4.43828e-05
3.05542e-06
6.29746e-05
5.96232e-06
6.09645e-05
8.37763e-06
5.98874e-05
1.05348e-05
5.91088e-05
1.24933e-05
5.83842e-05
1.44548e-05
5.77822e-05
1.64838e-05
5.7188e-05
1.86689e-05
5.67281e-05
2.10137e-05
5.62119e-05
2.35563e-05
5.56485e-05
2.62876e-05
5.48046e-05
2.91466e-05
5.37782e-05
3.19961e-05
5.26347e-05
3.47577e-05
5.12465e-05
3.74422e-05
4.96603e-05
4.01557e-05
4.79907e-05
4.28433e-05
4.63966e-05
4.54703e-05
4.47523e-05
4.84521e-05
4.32254e-05
5.19737e-05
4.19441e-05
5.6473e-05
4.13304e-05
6.28257e-05
3.99807e-05
3.66676e-05
2.68328e-06
6.02899e-05
5.27206e-06
5.83747e-05
7.58893e-06
5.75698e-05
9.74713e-06
5.69499e-05
1.17969e-05
5.63339e-05
1.38363e-05
5.57422e-05
1.59043e-05
5.51196e-05
1.81042e-05
5.45279e-05
2.04485e-05
5.38674e-05
2.28959e-05
5.3201e-05
2.53574e-05
5.23431e-05
2.79006e-05
5.12351e-05
3.0557e-05
4.99789e-05
3.32203e-05
4.85826e-05
3.58706e-05
4.70168e-05
3.84546e-05
4.54069e-05
4.11108e-05
4.37447e-05
4.39293e-05
4.1936e-05
4.70397e-05
4.01161e-05
5.05211e-05
3.84623e-05
5.47664e-05
3.70834e-05
6.01873e-05
3.45573e-05
3.0723e-05
2.46192e-06
5.78279e-05
4.83258e-06
5.60035e-05
7.04028e-06
5.53614e-05
9.14895e-06
5.48406e-05
1.11999e-05
5.42824e-05
1.32425e-05
5.36993e-05
1.53022e-05
5.30596e-05
1.74454e-05
5.23845e-05
1.96746e-05
5.16381e-05
2.2007e-05
5.08686e-05
2.43715e-05
4.99787e-05
2.67804e-05
4.88265e-05
2.92007e-05
4.75591e-05
3.17053e-05
4.60812e-05
3.42805e-05
4.44401e-05
3.68714e-05
4.28222e-05
3.95617e-05
4.10572e-05
4.2253e-05
3.92471e-05
4.51315e-05
3.72386e-05
4.83546e-05
3.52391e-05
5.23585e-05
3.3078e-05
5.68802e-05
3.00343e-05
2.61975e-05
2.27261e-06
5.55541e-05
4.46927e-06
5.38062e-05
6.56669e-06
5.32635e-05
8.58603e-06
5.28208e-05
1.05655e-05
5.23026e-05
1.25522e-05
5.17124e-05
1.45526e-05
5.1059e-05
1.65957e-05
5.03414e-05
1.86911e-05
4.95429e-05
2.0887e-05
4.86728e-05
2.31918e-05
4.76742e-05
2.55285e-05
4.64902e-05
2.79e-05
4.51885e-05
3.02495e-05
4.37316e-05
3.25135e-05
4.21815e-05
3.48996e-05
4.0437e-05
3.73847e-05
3.85753e-05
4.00432e-05
3.65913e-05
4.28928e-05
3.439e-05
4.60835e-05
3.20487e-05
4.96068e-05
2.95538e-05
5.31952e-05
2.64443e-05
2.25782e-05
2.1102e-06
5.3444e-05
4.16247e-06
5.17536e-05
6.1625e-06
5.12631e-05
8.12501e-06
5.0858e-05
1.0059e-05
5.03684e-05
1.19808e-05
4.97903e-05
1.39147e-05
4.91252e-05
1.58825e-05
4.83736e-05
1.78917e-05
4.75339e-05
1.99389e-05
4.66259e-05
2.20191e-05
4.55943e-05
2.40978e-05
4.44119e-05
2.62565e-05
4.30305e-05
2.84384e-05
4.15521e-05
3.07408e-05
3.98787e-05
3.31107e-05
3.80717e-05
3.55271e-05
3.61616e-05
3.80402e-05
3.40803e-05
4.0577e-05
3.18544e-05
4.32858e-05
2.93403e-05
4.62774e-05
2.65615e-05
4.94146e-05
2.33064e-05
1.95928e-05
1.9516e-06
5.14914e-05
3.85595e-06
4.98487e-05
5.73386e-06
4.93848e-05
7.59186e-06
4.89997e-05
9.43389e-06
4.85262e-05
1.12635e-05
4.79606e-05
1.31004e-05
4.72883e-05
1.49563e-05
4.65179e-05
1.6841e-05
4.56493e-05
1.87907e-05
4.46765e-05
2.07938e-05
4.35915e-05
2.28349e-05
4.23714e-05
2.48874e-05
4.09788e-05
2.69648e-05
3.94749e-05
2.90397e-05
3.78082e-05
3.11105e-05
3.60016e-05
3.32817e-05
3.39936e-05
3.55389e-05
3.18252e-05
3.7944e-05
2.94507e-05
4.04739e-05
2.68109e-05
4.30768e-05
2.39584e-05
4.56511e-05
2.07311e-05
1.70885e-05
1.83404e-06
4.96577e-05
3.63305e-06
4.80496e-05
5.40881e-06
4.76088e-05
7.16801e-06
4.72403e-05
8.91544e-06
4.67787e-05
1.06595e-05
4.62166e-05
1.24029e-05
4.55449e-05
1.41531e-05
4.47679e-05
1.59229e-05
4.38799e-05
1.7721e-05
4.28786e-05
1.95347e-05
4.17782e-05
2.13782e-05
4.05284e-05
2.32319e-05
3.91257e-05
2.51249e-05
3.75843e-05
2.70478e-05
3.58849e-05
2.90739e-05
3.39796e-05
3.11435e-05
3.19261e-05
3.32641e-05
2.97065e-05
3.53987e-05
2.73174e-05
3.75397e-05
2.46705e-05
3.9745e-05
2.17528e-05
4.19606e-05
1.85153e-05
1.49656e-05
1.69531e-06
4.79615e-05
3.36115e-06
4.63834e-05
5.01427e-06
4.59555e-05
6.65755e-06
4.55969e-05
8.29372e-06
4.51424e-05
9.93331e-06
4.4577e-05
1.15761e-05
4.39022e-05
1.32255e-05
4.31188e-05
1.48849e-05
4.22208e-05
1.65594e-05
4.12044e-05
1.82749e-05
4.00631e-05
2.00068e-05
3.8797e-05
2.17509e-05
3.73824e-05
2.35147e-05
3.58208e-05
2.53041e-05
3.40989e-05
2.7097e-05
3.21875e-05
2.89059e-05
3.01196e-05
3.07486e-05
2.78659e-05
3.26443e-05
2.54228e-05
3.45742e-05
2.27414e-05
3.64969e-05
1.98303e-05
3.83725e-05
1.66392e-05
1.31696e-05
1.58396e-06
4.6378e-05
3.13967e-06
4.48276e-05
4.68953e-06
4.44055e-05
6.22896e-06
4.40574e-05
7.76214e-06
4.36093e-05
9.29112e-06
4.30481e-05
1.08166e-05
4.23769e-05
1.23414e-05
4.15942e-05
1.38711e-05
4.06914e-05
1.54099e-05
3.9666e-05
1.69627e-05
3.85106e-05
1.85276e-05
3.72325e-05
2.01093e-05
3.58014e-05
2.17164e-05
3.42154e-05
2.33412e-05
3.24739e-05
2.49817e-05
3.055e-05
2.6647e-05
2.84562e-05
2.83073e-05
2.62073e-05
2.99711e-05
2.37602e-05
3.16226e-05
2.10907e-05
3.32617e-05
1.81914e-05
3.48591e-05
1.50418e-05
1.16535e-05
1.45605e-06
4.49212e-05
2.89745e-06
4.3386e-05
4.33576e-06
4.29671e-05
5.76521e-06
4.26279e-05
7.18774e-06
4.21868e-05
8.60276e-06
4.16332e-05
1.00121e-05
4.09678e-05
1.1421e-05
4.01856e-05
1.28289e-05
3.92838e-05
1.42406e-05
3.82546e-05
1.56546e-05
3.70971e-05
1.70831e-05
3.58046e-05
1.85203e-05
3.43648e-05
1.99655e-05
3.27705e-05
2.14191e-05
3.10231e-05
2.28769e-05
2.90928e-05
2.43335e-05
2.70018e-05
2.57927e-05
2.47497e-05
2.72492e-05
2.23049e-05
2.86882e-05
1.96524e-05
3.00899e-05
1.679e-05
3.14328e-05
1.36989e-05
1.03912e-05
1.34331e-06
4.35784e-05
2.67668e-06
4.20527e-05
4.0047e-06
4.16391e-05
5.32407e-06
4.13086e-05
6.63505e-06
4.08759e-05
7.93427e-06
4.03341e-05
9.22198e-06
3.96802e-05
1.05002e-05
3.89076e-05
1.17715e-05
3.80128e-05
1.3049e-05
3.69774e-05
1.43292e-05
3.58173e-05
1.56171e-05
3.45172e-05
1.69119e-05
3.30705e-05
1.82086e-05
3.14753e-05
1.95007e-05
2.97308e-05
2.07795e-05
2.78168e-05
2.20449e-05
2.57379e-05
2.33126e-05
2.34836e-05
2.45685e-05
2.10502e-05
2.5794e-05
1.84278e-05
2.69723e-05
1.56121e-05
2.80895e-05
1.25819e-05
9.35457e-06
1.23504e-06
4.23427e-05
2.46364e-06
4.08239e-05
3.68741e-06
4.04153e-05
4.89637e-06
4.00996e-05
6.09322e-06
3.96791e-05
7.27704e-06
3.91504e-05
8.44804e-06
3.85094e-05
9.60758e-06
3.77483e-05
1.07562e-05
3.68646e-05
1.18932e-05
3.58407e-05
1.30234e-05
3.46874e-05
1.41469e-05
3.3394e-05
1.52734e-05
3.19447e-05
1.6402e-05
3.0347e-05
1.75362e-05
2.85989e-05
1.86643e-05
2.66892e-05
1.97816e-05
2.46222e-05
2.08685e-05
2.23983e-05
2.19211e-05
1.99987e-05
2.29418e-05
1.74079e-05
2.39185e-05
1.4636e-05
2.48279e-05
1.16727e-05
8.523e-06
1.13061e-06
4.12126e-05
2.24614e-06
3.97085e-05
3.35768e-06
3.93038e-05
4.45439e-06
3.9003e-05
5.5415e-06
3.85921e-05
6.62058e-06
3.80715e-05
7.68896e-06
3.74413e-05
8.74123e-06
3.66963e-05
9.78035e-06
3.58257e-05
1.07927e-05
3.48287e-05
1.17853e-05
3.36952e-05
1.27629e-05
3.24169e-05
1.37276e-05
3.09805e-05
1.46805e-05
2.93952e-05
1.56247e-05
2.76547e-05
1.65579e-05
2.5758e-05
1.74817e-05
2.36999e-05
1.84048e-05
2.14766e-05
1.93065e-05
1.90982e-05
2.01512e-05
1.65641e-05
2.09336e-05
1.38541e-05
2.16506e-05
1.0956e-05
7.88146e-06
1.03754e-06
4.01745e-05
2.03704e-06
3.87089e-05
3.02654e-06
3.83143e-05
4.00637e-06
3.80232e-05
4.97915e-06
3.76194e-05
5.94505e-06
3.71058e-05
6.90869e-06
3.64778e-05
7.86125e-06
3.5744e-05
8.79758e-06
3.48897e-05
9.70983e-06
3.39168e-05
1.05984e-05
3.2807e-05
1.14622e-05
3.15534e-05
1.22908e-05
3.01525e-05
1.30859e-05
2.86004e-05
1.38523e-05
2.68902e-05
1.45927e-05
2.50181e-05
1.5313e-05
2.29812e-05
1.60137e-05
2.07773e-05
1.66949e-05
1.84181e-05
1.73694e-05
1.58905e-05
1.80044e-05
1.32197e-05
1.85553e-05
1.04055e-05
7.41645e-06
9.48617e-07
3.92265e-05
1.80816e-06
3.78495e-05
2.66188e-06
3.74607e-05
3.50681e-06
3.71784e-05
4.34498e-06
3.67813e-05
5.18031e-06
3.62706e-05
6.01568e-06
3.56427e-05
6.84893e-06
3.49109e-05
7.6718e-06
3.40671e-05
8.47799e-06
3.31109e-05
9.25468e-06
3.20306e-05
9.99242e-06
3.08161e-05
1.0702e-05
2.94434e-05
1.13945e-05
2.79089e-05
1.20561e-05
2.62285e-05
1.26883e-05
2.43877e-05
1.32758e-05
2.23949e-05
1.38023e-05
2.02522e-05
1.42819e-05
1.79396e-05
1.47191e-05
1.54542e-05
1.51249e-05
1.28146e-05
1.55108e-05
1.002e-05
7.09958e-06
8.46336e-07
3.83796e-05
1.52054e-06
3.71752e-05
2.17398e-06
3.68073e-05
2.84282e-06
3.65096e-05
3.52011e-06
3.61042e-05
4.1998e-06
3.5591e-05
4.88827e-06
3.49543e-05
5.59489e-06
3.42045e-05
6.31572e-06
3.33465e-05
7.04231e-06
3.23845e-05
7.76038e-06
3.13128e-05
8.45193e-06
3.01249e-05
9.09695e-06
2.87989e-05
9.69006e-06
2.7316e-05
1.02193e-05
2.57007e-05
1.06964e-05
2.39112e-05
1.11413e-05
2.19514e-05
1.15607e-05
1.98341e-05
1.19377e-05
1.75637e-05
1.22374e-05
1.51553e-05
1.24579e-05
1.25948e-05
1.26161e-05
9.86219e-06
6.98331e-06
6.55982e-07
3.7724e-05
1.09481e-06
3.67363e-05
1.50679e-06
3.63952e-05
1.93846e-06
3.60779e-05
2.38988e-06
3.56527e-05
2.85513e-06
3.51258e-05
3.3295e-06
3.448e-05
3.81443e-06
3.37196e-05
4.32329e-06
3.28377e-05
4.86756e-06
3.18404e-05
5.44233e-06
3.07382e-05
6.04635e-06
2.9521e-05
6.66553e-06
2.81799e-05
7.2706e-06
2.67116e-05
7.85612e-06
2.51153e-05
8.38893e-06
2.33797e-05
8.84551e-06
2.14959e-05
9.2101e-06
1.94706e-05
9.49132e-06
1.72835e-05
9.70862e-06
1.49388e-05
9.84798e-06
1.2456e-05
9.87353e-06
9.837e-06
7.07611e-06
4.19772e-07
3.73041e-05
5.08842e-07
3.66473e-05
5.62571e-07
3.63415e-05
6.59216e-07
3.59812e-05
7.89668e-07
3.55223e-05
9.68156e-07
3.49473e-05
1.18599e-06
3.42622e-05
1.44844e-06
3.34573e-05
1.75562e-06
3.25306e-05
2.10933e-06
3.14868e-05
2.51324e-06
3.03345e-05
2.96542e-06
2.90691e-05
3.45666e-06
2.7689e-05
3.98191e-06
2.61866e-05
4.53293e-06
2.45653e-05
5.08725e-06
2.28261e-05
5.62221e-06
2.09621e-05
6.11071e-06
1.89831e-05
6.52046e-06
1.68746e-05
6.8145e-06
1.46454e-05
6.96844e-06
1.23026e-05
6.97739e-06
9.82838e-06
7.18714e-06
1.31408e-07
3.7173e-05
-4.30443e-08
3.68221e-05
-2.22669e-07
3.65215e-05
-3.46348e-07
3.61053e-05
-4.24191e-07
3.56005e-05
-4.55165e-07
3.49787e-05
-4.34896e-07
3.42424e-05
-3.62808e-07
3.33856e-05
-2.40585e-07
3.24088e-05
-6.57369e-08
3.13123e-05
1.67543e-07
3.01015e-05
4.55545e-07
2.87814e-05
7.92661e-07
2.73522e-05
1.17003e-06
2.58097e-05
1.57887e-06
2.41567e-05
2.00818e-06
2.23975e-05
2.45685e-06
2.05141e-05
2.90224e-06
1.85384e-05
3.32136e-06
1.64559e-05
3.68703e-06
1.42801e-05
3.96155e-06
1.20283e-05
4.0903e-06
9.69974e-06
7.24347e-06
-9.86151e-08
-4.95781e-07
-9.31336e-07
-1.35724e-06
-1.75567e-06
-2.09996e-06
-2.38777e-06
-2.61801e-06
-2.79082e-06
-2.90732e-06
-2.96496e-06
-2.96023e-06
-2.8933e-06
-2.76842e-06
-2.58399e-06
-2.34486e-06
-2.0727e-06
-1.76238e-06
-1.43764e-06
-1.11377e-06
-8.07659e-07
-5.51592e-07
)
;

boundaryField
{
    leftWall
    {
        type            fixedValue;
        value           uniform 0;
    }
    rightWall
    {
        type            fixedValue;
        value           nonuniform 0();
    }
    lowerWall
    {
        type            fixedValue;
        value           nonuniform 0();
    }
    atmosphere
    {
        type            calculated;
        value           nonuniform List<scalar> 
23
(
3.72718e-05
3.72195e-05
3.69573e-05
3.65315e-05
3.59992e-05
3.53232e-05
3.45304e-05
3.3616e-05
3.25818e-05
3.1429e-05
3.01593e-05
2.87768e-05
2.72854e-05
2.56849e-05
2.39725e-05
2.21586e-05
2.02421e-05
1.82282e-05
1.61313e-05
1.39563e-05
1.17222e-05
9.4437e-06
7.09913e-06
)
;
    }
    defaultFaces
    {
        type            empty;
        value           nonuniform 0();
    }
    procBoundary2to0
    {
        type            processor;
        value           nonuniform List<scalar> 
24
(
-6.25461e-05
-6.38165e-05
-7.10846e-05
-7.25664e-05
-7.35421e-05
-0.000119419
-0.000147696
-8.72596e-05
-8.11595e-05
-7.13767e-05
-6.63235e-05
-6.40245e-05
-6.42868e-05
-6.47702e-05
-6.69682e-05
-6.86524e-05
-7.12299e-05
-7.30756e-05
-7.27665e-05
-7.0668e-05
-6.72668e-05
-6.38119e-05
-4.5121e-05
-6.03714e-05
)
;
    }
    procBoundary2to3
    {
        type            processor;
        value           nonuniform List<scalar> 
25
(
0.000148957
0.00011074
9.24248e-05
8.21897e-05
7.55785e-05
7.05342e-05
6.61271e-05
6.14008e-05
5.68112e-05
5.23965e-05
4.81533e-05
4.40812e-05
4.01671e-05
3.63738e-05
3.26944e-05
2.91253e-05
2.56592e-05
2.22919e-05
1.90203e-05
1.58278e-05
1.27326e-05
9.78106e-06
6.86656e-06
4.03423e-06
-4.07158e-07
)
;
    }
}


// ************************************************************************* //
