/*--------------------------------*- C++ -*----------------------------------*\
| =========                 |                                                 |
| \\      /  F ield         | OpenFOAM: The Open Source CFD Toolbox           |
|  \\    /   O peration     | Version:  2.4.0                                 |
|   \\  /    A nd           | Web:      www.OpenFOAM.org                      |
|    \\/     M anipulation  |                                                 |
\*---------------------------------------------------------------------------*/
FoamFile
{
    version     2.0;
    format      ascii;
    class       volVectorField;
    location    "0.85";
    object      U;
}
// * * * * * * * * * * * * * * * * * * * * * * * * * * * * * * * * * * * * * //

dimensions      [0 1 -1 0 0 0 0];

internalField   nonuniform List<vector> 
559
(
(0.251708 0.321794 0)
(0.27659 0.319806 0)
(0.322685 0.342989 0)
(0.378827 0.341771 0)
(0.443706 0.336064 0)
(0.554685 0.52841 0)
(0.746884 0.69938 0)
(0.0284597 0.445339 0)
(0.0571704 0.420566 0)
(0.0822391 0.379527 0)
(0.0826782 0.358697 0)
(0.0808727 0.347314 0)
(0.0814276 0.346269 0)
(0.0840474 0.347908 0)
(0.090937 0.355989 0)
(0.1047 0.362262 0)
(0.121313 0.373443 0)
(0.144834 0.381855 0)
(0.168948 0.379907 0)
(0.193059 0.369626 0)
(0.213559 0.354289 0)
(0.229159 0.336691 0)
(0.243822 0.318022 0)
(0.255853 0.305708 0)
(0.268706 0.299897 0)
(0.290298 0.309472 0)
(0.315802 0.302022 0)
(0.347916 0.300931 0)
(0.371707 0.421602 0)
(0.539462 0.555082 0)
(0.018301 0.411212 0)
(0.0427771 0.394452 0)
(0.0644138 0.368515 0)
(0.0711338 0.354572 0)
(0.0758072 0.345715 0)
(0.0807358 0.343041 0)
(0.0862923 0.34174 0)
(0.0950079 0.34532 0)
(0.1075 0.348065 0)
(0.122929 0.354132 0)
(0.14473 0.358354 0)
(0.168683 0.355963 0)
(0.191899 0.34757 0)
(0.212885 0.335842 0)
(0.229623 0.321349 0)
(0.243634 0.307031 0)
(0.252126 0.295969 0)
(0.262154 0.287648 0)
(0.277927 0.289625 0)
(0.294886 0.283172 0)
(0.312563 0.288891 0)
(0.327365 0.357319 0)
(0.4398 0.417931 0)
(0.0130717 0.38556 0)
(0.0339973 0.371916 0)
(0.0522424 0.355763 0)
(0.0618703 0.346737 0)
(0.0700517 0.339428 0)
(0.0782323 0.336005 0)
(0.0854717 0.333955 0)
(0.0950922 0.334596 0)
(0.106785 0.334995 0)
(0.120913 0.336507 0)
(0.139525 0.33696 0)
(0.160836 0.333942 0)
(0.180726 0.325921 0)
(0.200142 0.31699 0)
(0.216573 0.305943 0)
(0.231662 0.296788 0)
(0.242076 0.287519 0)
(0.252974 0.276999 0)
(0.267457 0.273149 0)
(0.283378 0.269796 0)
(0.300436 0.277088 0)
(0.322951 0.30761 0)
(0.400831 0.322853 0)
(0.010252 0.365049 0)
(0.027979 0.352934 0)
(0.0441691 0.342728 0)
(0.0555231 0.336171 0)
(0.0655719 0.330815 0)
(0.075098 0.327578 0)
(0.0842818 0.324919 0)
(0.0948412 0.323736 0)
(0.106458 0.322195 0)
(0.119776 0.32091 0)
(0.134956 0.318164 0)
(0.153066 0.313526 0)
(0.170019 0.307169 0)
(0.18641 0.299085 0)
(0.201699 0.289612 0)
(0.215402 0.281001 0)
(0.23046 0.272746 0)
(0.24449 0.262609 0)
(0.259815 0.256339 0)
(0.275109 0.252543 0)
(0.296541 0.256933 0)
(0.322455 0.26516 0)
(0.379112 0.259086 0)
(0.00883119 0.347534 0)
(0.0242575 0.336441 0)
(0.0391233 0.329591 0)
(0.0510065 0.324743 0)
(0.0620062 0.320573 0)
(0.0724281 0.317367 0)
(0.0830251 0.314341 0)
(0.094348 0.312283 0)
(0.106394 0.310003 0)
(0.11957 0.307211 0)
(0.133517 0.302773 0)
(0.148739 0.297857 0)
(0.164108 0.291973 0)
(0.179147 0.284185 0)
(0.193516 0.275289 0)
(0.207882 0.266078 0)
(0.222459 0.256868 0)
(0.236649 0.248243 0)
(0.250962 0.240807 0)
(0.268534 0.23553 0)
(0.289822 0.233993 0)
(0.317067 0.230238 0)
(0.359362 0.214407 0)
(0.00768089 0.332315 0)
(0.0213098 0.321736 0)
(0.0348856 0.316808 0)
(0.0467007 0.313072 0)
(0.0579683 0.309481 0)
(0.0688816 0.306225 0)
(0.0798319 0.302981 0)
(0.0912159 0.300121 0)
(0.103372 0.296968 0)
(0.116326 0.293894 0)
(0.129616 0.289322 0)
(0.142725 0.283216 0)
(0.156695 0.27667 0)
(0.171009 0.269446 0)
(0.185381 0.261171 0)
(0.199166 0.252057 0)
(0.213227 0.243456 0)
(0.227441 0.233811 0)
(0.243711 0.224546 0)
(0.261085 0.215396 0)
(0.281497 0.209908 0)
(0.306604 0.199311 0)
(0.339852 0.178727 0)
(0.00698475 0.318345 0)
(0.0195648 0.308299 0)
(0.0320614 0.304444 0)
(0.0435616 0.301456 0)
(0.0547099 0.298368 0)
(0.0656871 0.295276 0)
(0.0766168 0.291929 0)
(0.0878391 0.288526 0)
(0.099599 0.284685 0)
(0.111822 0.280723 0)
(0.124516 0.275919 0)
(0.137143 0.269793 0)
(0.150211 0.262874 0)
(0.163156 0.255134 0)
(0.176898 0.246135 0)
(0.190718 0.237903 0)
(0.204795 0.228514 0)
(0.219391 0.218517 0)
(0.234077 0.207937 0)
(0.250007 0.198838 0)
(0.26928 0.188697 0)
(0.292406 0.171615 0)
(0.318278 0.151149 0)
(0.00642955 0.305844 0)
(0.0180751 0.296224 0)
(0.0297473 0.293079 0)
(0.040767 0.290559 0)
(0.0514599 0.287623 0)
(0.0620819 0.28435 0)
(0.0727583 0.28083 0)
(0.0835871 0.277048 0)
(0.0947144 0.272807 0)
(0.106086 0.268271 0)
(0.11812 0.26346 0)
(0.13079 0.257261 0)
(0.143209 0.25051 0)
(0.156161 0.242301 0)
(0.168323 0.233823 0)
(0.180625 0.224551 0)
(0.193599 0.214515 0)
(0.207476 0.204635 0)
(0.222014 0.193101 0)
(0.238153 0.180466 0)
(0.256773 0.167475 0)
(0.275235 0.151776 0)
(0.295363 0.130489 0)
(0.00594086 0.293843 0)
(0.0167929 0.284582 0)
(0.0277932 0.281802 0)
(0.0384216 0.279554 0)
(0.0488508 0.2769 0)
(0.0591725 0.273817 0)
(0.0695191 0.270306 0)
(0.0799535 0.266337 0)
(0.0906432 0.261907 0)
(0.101437 0.257192 0)
(0.112685 0.25141 0)
(0.123661 0.244986 0)
(0.134986 0.237743 0)
(0.146727 0.230077 0)
(0.158465 0.221237 0)
(0.171228 0.211412 0)
(0.184003 0.201468 0)
(0.197069 0.189913 0)
(0.211079 0.178031 0)
(0.22441 0.165398 0)
(0.23989 0.150953 0)
(0.256535 0.132895 0)
(0.273561 0.112725 0)
(0.00547818 0.283054 0)
(0.01554 0.274051 0)
(0.0257781 0.271428 0)
(0.0358196 0.269268 0)
(0.0457205 0.26667 0)
(0.0555732 0.263629 0)
(0.0654039 0.260012 0)
(0.0752859 0.25591 0)
(0.0853034 0.251331 0)
(0.0955376 0.246268 0)
(0.106175 0.240649 0)
(0.117043 0.234116 0)
(0.128035 0.226425 0)
(0.139031 0.218278 0)
(0.15022 0.209314 0)
(0.161348 0.199831 0)
(0.172577 0.189072 0)
(0.184377 0.177956 0)
(0.196926 0.165182 0)
(0.210077 0.150584 0)
(0.224245 0.135368 0)
(0.237845 0.118274 0)
(0.251829 0.0983555 0)
(0.00512488 0.272726 0)
(0.0146274 0.263985 0)
(0.024293 0.261583 0)
(0.0338056 0.25957 0)
(0.0431763 0.257056 0)
(0.0525612 0.254018 0)
(0.0619102 0.250372 0)
(0.0712769 0.246156 0)
(0.080681 0.241355 0)
(0.0902681 0.235947 0)
(0.0999499 0.230005 0)
(0.109739 0.223313 0)
(0.119641 0.2159 0)
(0.129729 0.207632 0)
(0.139849 0.198562 0)
(0.150401 0.188321 0)
(0.161472 0.177269 0)
(0.172654 0.165245 0)
(0.184227 0.152586 0)
(0.195534 0.138737 0)
(0.207218 0.122958 0)
(0.219092 0.105239 0)
(0.231024 0.0859458 0)
(0.00473408 0.263306 0)
(0.0135248 0.254707 0)
(0.0224926 0.252376 0)
(0.0313643 0.250419 0)
(0.0401274 0.247953 0)
(0.0489291 0.244902 0)
(0.057727 0.241281 0)
(0.0665593 0.237107 0)
(0.0754226 0.232337 0)
(0.0843683 0.226947 0)
(0.0934079 0.220911 0)
(0.102693 0.214142 0)
(0.112016 0.206462 0)
(0.121435 0.19803 0)
(0.130916 0.188715 0)
(0.140558 0.178415 0)
(0.150201 0.1674 0)
(0.159915 0.155336 0)
(0.16998 0.142056 0)
(0.180229 0.127373 0)
(0.190694 0.111721 0)
(0.200781 0.0944291 0)
(0.210817 0.075522 0)
(0.00440756 0.254367 0)
(0.0126405 0.245925 0)
(0.0210182 0.24363 0)
(0.0293381 0.241717 0)
(0.0375539 0.239257 0)
(0.0457822 0.236184 0)
(0.0539739 0.232519 0)
(0.0621555 0.228262 0)
(0.0703407 0.223368 0)
(0.0785618 0.217848 0)
(0.0868265 0.211655 0)
(0.0952222 0.204832 0)
(0.10364 0.19718 0)
(0.112176 0.188654 0)
(0.120856 0.179272 0)
(0.129596 0.168871 0)
(0.138447 0.157551 0)
(0.1474 0.145447 0)
(0.156309 0.132339 0)
(0.165212 0.117999 0)
(0.174053 0.102274 0)
(0.182724 0.0851018 0)
(0.191186 0.0666516 0)
(0.00403008 0.246247 0)
(0.0116509 0.237973 0)
(0.019413 0.235716 0)
(0.027139 0.233869 0)
(0.0347679 0.231479 0)
(0.0423926 0.22848 0)
(0.0499647 0.224874 0)
(0.0575188 0.220643 0)
(0.0650798 0.215762 0)
(0.072639 0.210215 0)
(0.0802074 0.203965 0)
(0.0878235 0.196952 0)
(0.0955101 0.189134 0)
(0.103234 0.180528 0)
(0.111019 0.171137 0)
(0.118817 0.160762 0)
(0.126634 0.149484 0)
(0.13447 0.137328 0)
(0.142247 0.124044 0)
(0.150061 0.109606 0)
(0.157698 0.0940569 0)
(0.165065 0.0772306 0)
(0.172092 0.0592084 0)
(0.0037167 0.238619 0)
(0.0107614 0.230301 0)
(0.0179262 0.228044 0)
(0.0250687 0.22623 0)
(0.0321021 0.223869 0)
(0.0391209 0.220914 0)
(0.0460638 0.217364 0)
(0.0529411 0.213175 0)
(0.059763 0.208323 0)
(0.0666025 0.202754 0)
(0.0734551 0.1965 0)
(0.0803338 0.189529 0)
(0.0872714 0.181817 0)
(0.0942249 0.173246 0)
(0.101175 0.163789 0)
(0.108067 0.153347 0)
(0.114883 0.142015 0)
(0.121668 0.129823 0)
(0.128434 0.116695 0)
(0.135127 0.102488 0)
(0.141583 0.0871672 0)
(0.147758 0.0706558 0)
(0.153533 0.0530513 0)
(0.00337858 0.23173 0)
(0.00991162 0.223564 0)
(0.0165058 0.221372 0)
(0.0230758 0.21963 0)
(0.0295008 0.217322 0)
(0.0359068 0.214427 0)
(0.042218 0.210885 0)
(0.0484732 0.206698 0)
(0.0546542 0.20186 0)
(0.0607857 0.196314 0)
(0.066882 0.190021 0)
(0.0729093 0.182978 0)
(0.0789264 0.175101 0)
(0.0849794 0.166448 0)
(0.0910448 0.157089 0)
(0.0971171 0.146912 0)
(0.103166 0.135771 0)
(0.109087 0.123639 0)
(0.114793 0.110504 0)
(0.120367 0.0964259 0)
(0.125746 0.0813714 0)
(0.130832 0.0652328 0)
(0.135468 0.0480482 0)
(0.00310099 0.225263 0)
(0.00905502 0.217105 0)
(0.0150271 0.214864 0)
(0.0210063 0.213195 0)
(0.0268291 0.210965 0)
(0.0326536 0.208146 0)
(0.0384124 0.204782 0)
(0.044116 0.200771 0)
(0.0497309 0.196043 0)
(0.0552335 0.190613 0)
(0.0606177 0.184411 0)
(0.0658839 0.177392 0)
(0.0710796 0.169552 0)
(0.0762295 0.160948 0)
(0.0813312 0.151463 0)
(0.0863499 0.141088 0)
(0.0913065 0.129936 0)
(0.0962562 0.118113 0)
(0.101209 0.105394 0)
(0.105909 0.0915623 0)
(0.110255 0.0766843 0)
(0.114308 0.0608462 0)
(0.117907 0.0440856 0)
(0.00286184 0.219477 0)
(0.00828482 0.21146 0)
(0.0135514 0.209356 0)
(0.0189164 0.207761 0)
(0.0241093 0.205564 0)
(0.0293183 0.202795 0)
(0.0345047 0.199419 0)
(0.0396539 0.195418 0)
(0.0447323 0.19074 0)
(0.0496937 0.185423 0)
(0.0545176 0.179394 0)
(0.0592139 0.172587 0)
(0.063793 0.164971 0)
(0.0681369 0.156466 0)
(0.0723042 0.147098 0)
(0.0763172 0.136886 0)
(0.0802463 0.125785 0)
(0.0840791 0.113649 0)
(0.0877278 0.100739 0)
(0.0913601 0.0872701 0)
(0.0949781 0.0729387 0)
(0.0981732 0.0575196 0)
(0.100827 0.041139 0)
(0.0027079 0.214187 0)
(0.00743694 0.206422 0)
(0.0119579 0.204253 0)
(0.0165946 0.202716 0)
(0.0210582 0.20056 0)
(0.0255604 0.197792 0)
(0.0300464 0.194389 0)
(0.03453 0.190425 0)
(0.0389724 0.185924 0)
(0.0433647 0.18076 0)
(0.0476258 0.174871 0)
(0.0516865 0.168182 0)
(0.0555545 0.160673 0)
(0.0593041 0.152379 0)
(0.0629392 0.143267 0)
(0.0664235 0.133307 0)
(0.0697509 0.122442 0)
(0.0726728 0.110722 0)
(0.0753528 0.0980776 0)
(0.0778722 0.0843124 0)
(0.0800103 0.0698354 0)
(0.0822377 0.0548762 0)
(0.0841359 0.0390678 0)
(0.00257425 0.209216 0)
(0.00652095 0.202301 0)
(0.00978789 0.200313 0)
(0.013504 0.198787 0)
(0.0170332 0.196625 0)
(0.0207112 0.193843 0)
(0.0243621 0.19043 0)
(0.0280952 0.186406 0)
(0.0319509 0.181766 0)
(0.0358297 0.176585 0)
(0.0397274 0.170831 0)
(0.0435589 0.164403 0)
(0.0471512 0.157158 0)
(0.05047 0.149052 0)
(0.0534969 0.14009 0)
(0.0561844 0.130204 0)
(0.0585782 0.119481 0)
(0.0609027 0.108014 0)
(0.0631152 0.0956922 0)
(0.0649183 0.0825896 0)
(0.0663451 0.0685416 0)
(0.0673209 0.0533663 0)
(0.0679633 0.0376533 0)
(0.00218777 0.205053 0)
(0.00487682 0.198729 0)
(0.0068498 0.196686 0)
(0.0092865 0.195006 0)
(0.0115358 0.192761 0)
(0.0140823 0.189992 0)
(0.0165603 0.186581 0)
(0.0191562 0.182593 0)
(0.0217756 0.178055 0)
(0.0246058 0.17289 0)
(0.0276115 0.167134 0)
(0.0307852 0.160726 0)
(0.0340968 0.153653 0)
(0.0374035 0.145867 0)
(0.0406331 0.137301 0)
(0.0436586 0.127916 0)
(0.0463406 0.117661 0)
(0.0485698 0.106444 0)
(0.0502282 0.0942951 0)
(0.0515222 0.0813694 0)
(0.0525454 0.0676603 0)
(0.0531134 0.0533047 0)
(0.0528209 0.0379999 0)
(0.00171753 0.201972 0)
(0.00276812 0.197621 0)
(0.00270362 0.196065 0)
(0.003319 0.194367 0)
(0.00377026 0.192098 0)
(0.00468591 0.189188 0)
(0.00571336 0.185616 0)
(0.00699695 0.181374 0)
(0.00853088 0.176465 0)
(0.0103025 0.170879 0)
(0.012326 0.164676 0)
(0.0146309 0.157935 0)
(0.0171768 0.150598 0)
(0.019907 0.142602 0)
(0.0228179 0.133921 0)
(0.02582 0.124579 0)
(0.0287674 0.114508 0)
(0.0315384 0.103734 0)
(0.0339904 0.092215 0)
(0.035927 0.0799495 0)
(0.0371404 0.0669002 0)
(0.0375826 0.0529825 0)
(0.0372124 0.0382863 0)
(0.000898993 0.200423 0)
(0.000523065 0.197323 0)
(-0.000970803 0.195472 0)
(-0.00149605 0.193139 0)
(-0.00215953 0.19038 0)
(-0.00241751 0.18714 0)
(-0.00245711 0.183398 0)
(-0.00222315 0.179073 0)
(-0.00169141 0.174122 0)
(-0.000904634 0.168539 0)
(0.000189296 0.162347 0)
(0.00159342 0.15557 0)
(0.00328608 0.148177 0)
(0.00521487 0.140084 0)
(0.007341 0.131381 0)
(0.00958799 0.122041 0)
(0.0119523 0.112114 0)
(0.0143836 0.10161 0)
(0.0167434 0.090485 0)
(0.0188767 0.0787456 0)
(0.0206406 0.0665052 0)
(0.0218083 0.0536971 0)
(0.022078 0.0398755 0)
(0.000352809 0.200994 0)
(-0.00135 0.200705 0)
(-0.00398661 0.199291 0)
(-0.00609492 0.196997 0)
(-0.00845831 0.194127 0)
(-0.0104111 0.19048 0)
(-0.0121176 0.186201 0)
(-0.0135073 0.181266 0)
(-0.0145879 0.175685 0)
(-0.015373 0.169465 0)
(-0.0158413 0.162614 0)
(-0.0159866 0.155154 0)
(-0.01579 0.147107 0)
(-0.0152638 0.138472 0)
(-0.0144211 0.129234 0)
(-0.0132793 0.119449 0)
(-0.0119046 0.109113 0)
(-0.0103181 0.0982532 0)
(-0.00858912 0.0869475 0)
(-0.0068334 0.075222 0)
(-0.00510282 0.0631792 0)
(-0.00355768 0.0508976 0)
(-0.00231094 0.0382602 0)
)
;

boundaryField
{
    leftWall
    {
        type            calculated;
        value           uniform (0 0 0);
    }
    rightWall
    {
        type            calculated;
        value           nonuniform 0();
    }
    lowerWall
    {
        type            calculated;
        value           nonuniform 0();
    }
    atmosphere
    {
        type            calculated;
        value           nonuniform List<vector> 
23
(
(0.000352809 0.200991 0)
(-0.00135 0.200708 0)
(-0.00398661 0.199293 0)
(-0.00609492 0.196995 0)
(-0.00845831 0.194123 0)
(-0.0104111 0.190476 0)
(-0.0121176 0.186199 0)
(-0.0135073 0.181266 0)
(-0.0145879 0.175686 0)
(-0.015373 0.169467 0)
(-0.0158413 0.162618 0)
(-0.0159866 0.155161 0)
(-0.01579 0.147116 0)
(-0.0152638 0.138483 0)
(-0.0144211 0.129248 0)
(-0.0132793 0.119465 0)
(-0.0119046 0.109131 0)
(-0.0103181 0.098273 0)
(-0.00858912 0.0869688 0)
(-0.0068334 0.0752444 0)
(-0.00510282 0.0632023 0)
(-0.00355768 0.0509209 0)
(-0.00231094 0.0382832 0)
)
;
    }
    defaultFaces
    {
        type            empty;
    }
    procBoundary2to0
    {
        type            processor;
        value           nonuniform List<vector> 
24
(
(0.264264 0.354763 0)
(0.307436 0.370557 0)
(0.39408 0.423092 0)
(0.496524 0.440607 0)
(0.61301 0.459939 0)
(0.864543 0.752344 0)
(1.0365 0.862058 0)
(0.0420022 0.494226 0)
(0.0774886 0.452238 0)
(0.110627 0.387749 0)
(0.0989645 0.353341 0)
(0.0858067 0.34094 0)
(0.079287 0.345753 0)
(0.0756208 0.349673 0)
(0.0783543 0.366111 0)
(0.0953381 0.378142 0)
(0.118513 0.395387 0)
(0.145585 0.407931 0)
(0.165864 0.406734 0)
(0.185007 0.394058 0)
(0.203557 0.372261 0)
(0.216783 0.351857 0)
(0.23231 0.333186 0)
(0.23231 0.333186 0)
)
;
    }
    procBoundary2to3
    {
        type            processor;
        value           nonuniform List<vector> 
25
(
(0.810468 0.677768 0)
(0.610699 0.530397 0)
(0.514304 0.393291 0)
(0.454429 0.298629 0)
(0.414504 0.234194 0)
(0.385074 0.190762 0)
(0.360012 0.156231 0)
(0.333434 0.132009 0)
(0.308259 0.111773 0)
(0.283939 0.0958195 0)
(0.260848 0.0820821 0)
(0.238652 0.0704345 0)
(0.217329 0.060505 0)
(0.196701 0.0520977 0)
(0.176703 0.0450796 0)
(0.157333 0.0393045 0)
(0.138525 0.0346667 0)
(0.120255 0.0310644 0)
(0.102508 0.0284417 0)
(0.0852064 0.0267378 0)
(0.0684079 0.0257049 0)
(0.0522858 0.0260121 0)
(0.0366276 0.0267887 0)
(0.0214409 0.0289465 0)
(-0.0021084 0.0283018 0)
)
;
    }
}


// ************************************************************************* //
