/*--------------------------------*- C++ -*----------------------------------*\
| =========                 |                                                 |
| \\      /  F ield         | OpenFOAM: The Open Source CFD Toolbox           |
|  \\    /   O peration     | Version:  2.4.0                                 |
|   \\  /    A nd           | Web:      www.OpenFOAM.org                      |
|    \\/     M anipulation  |                                                 |
\*---------------------------------------------------------------------------*/
FoamFile
{
    version     2.0;
    format      ascii;
    class       volVectorField;
    location    "0.85";
    object      U.oil;
}
// * * * * * * * * * * * * * * * * * * * * * * * * * * * * * * * * * * * * * //

dimensions      [0 1 -1 0 0 0 0];

internalField   nonuniform List<vector> 
559
(
(0.25093 0.321159 0)
(0.275909 0.319431 0)
(0.321657 0.34219 0)
(0.375071 0.339013 0)
(0.433935 0.334902 0)
(0.549758 0.543314 0)
(0.72854 0.706964 0)
(0.0284557 0.445247 0)
(0.0571557 0.420554 0)
(0.0822118 0.379571 0)
(0.0826389 0.358752 0)
(0.0808212 0.347374 0)
(0.0813647 0.34633 0)
(0.0839716 0.347977 0)
(0.0908475 0.356066 0)
(0.104596 0.362348 0)
(0.121193 0.373541 0)
(0.144699 0.381964 0)
(0.168792 0.380027 0)
(0.192852 0.369663 0)
(0.213124 0.353798 0)
(0.228329 0.3353 0)
(0.242663 0.316259 0)
(0.255016 0.304693 0)
(0.268203 0.299565 0)
(0.289875 0.309162 0)
(0.314698 0.30089 0)
(0.349101 0.301459 0)
(0.370459 0.424465 0)
(0.539018 0.555047 0)
(0.0182959 0.411235 0)
(0.0427616 0.394494 0)
(0.0643879 0.368568 0)
(0.0710974 0.354628 0)
(0.0757602 0.345774 0)
(0.080678 0.343102 0)
(0.0862227 0.34181 0)
(0.0949271 0.345398 0)
(0.107408 0.348153 0)
(0.122826 0.354232 0)
(0.144616 0.358471 0)
(0.168558 0.356093 0)
(0.191742 0.347641 0)
(0.212638 0.335616 0)
(0.228932 0.320204 0)
(0.242888 0.305734 0)
(0.251278 0.294742 0)
(0.261795 0.287295 0)
(0.277701 0.289527 0)
(0.294649 0.282832 0)
(0.312046 0.287986 0)
(0.327374 0.356306 0)
(0.441309 0.41719 0)
(0.0130671 0.385612 0)
(0.0339834 0.371971 0)
(0.0522187 0.355819 0)
(0.0618368 0.346796 0)
(0.0700088 0.33949 0)
(0.0781792 0.336071 0)
(0.085409 0.334028 0)
(0.0950206 0.334677 0)
(0.106705 0.335085 0)
(0.120825 0.336609 0)
(0.139431 0.337078 0)
(0.160736 0.334076 0)
(0.180609 0.326023 0)
(0.19996 0.31689 0)
(0.216305 0.305429 0)
(0.231196 0.295884 0)
(0.241619 0.286694 0)
(0.252821 0.276792 0)
(0.267424 0.273125 0)
(0.283435 0.269771 0)
(0.300441 0.276736 0)
(0.32294 0.306929 0)
(0.401216 0.322057 0)
(0.0102473 0.365106 0)
(0.0279655 0.352991 0)
(0.044147 0.342787 0)
(0.0554924 0.336233 0)
(0.0655328 0.33088 0)
(0.0750504 0.327647 0)
(0.0842263 0.324995 0)
(0.0947786 0.323819 0)
(0.106389 0.322287 0)
(0.119702 0.321014 0)
(0.134879 0.318282 0)
(0.152987 0.31366 0)
(0.169936 0.307294 0)
(0.1863 0.299083 0)
(0.201546 0.28943 0)
(0.215272 0.280717 0)
(0.230338 0.272437 0)
(0.244414 0.262412 0)
(0.259853 0.256369 0)
(0.275236 0.252668 0)
(0.296732 0.257003 0)
(0.322667 0.265048 0)
(0.379418 0.258811 0)
(0.00882745 0.347593 0)
(0.0242458 0.336501 0)
(0.0391034 0.329652 0)
(0.0509788 0.324808 0)
(0.061971 0.32064 0)
(0.0723859 0.317439 0)
(0.0829766 0.314419 0)
(0.0942941 0.312368 0)
(0.106336 0.310097 0)
(0.119509 0.307316 0)
(0.133455 0.302891 0)
(0.148678 0.297989 0)
(0.16405 0.292112 0)
(0.179081 0.284253 0)
(0.193455 0.275282 0)
(0.207829 0.266038 0)
(0.22243 0.256781 0)
(0.236662 0.248174 0)
(0.251047 0.240844 0)
(0.268694 0.235674 0)
(0.290034 0.234157 0)
(0.317318 0.230347 0)
(0.359648 0.214446 0)
(0.00767701 0.332377 0)
(0.0212986 0.321799 0)
(0.0348675 0.316873 0)
(0.0466759 0.313139 0)
(0.0579371 0.309551 0)
(0.0688445 0.3063 0)
(0.0797899 0.303062 0)
(0.09117 0.300208 0)
(0.103324 0.297063 0)
(0.116276 0.293999 0)
(0.129567 0.289439 0)
(0.142679 0.283346 0)
(0.156656 0.276813 0)
(0.170974 0.269565 0)
(0.185356 0.261255 0)
(0.199165 0.252107 0)
(0.213244 0.24345 0)
(0.227498 0.233811 0)
(0.243822 0.224607 0)
(0.26125 0.215529 0)
(0.281705 0.210067 0)
(0.306844 0.19946 0)
(0.340114 0.178863 0)
(0.00698176 0.31841 0)
(0.0195555 0.308365 0)
(0.0320455 0.304511 0)
(0.0435397 0.301526 0)
(0.0546826 0.298441 0)
(0.065655 0.295353 0)
(0.0765809 0.292011 0)
(0.0878006 0.288614 0)
(0.0995592 0.284781 0)
(0.111783 0.280828 0)
(0.124479 0.276035 0)
(0.137109 0.269919 0)
(0.150185 0.263012 0)
(0.163144 0.255275 0)
(0.176901 0.246261 0)
(0.190744 0.238008 0)
(0.204845 0.228572 0)
(0.219477 0.218572 0)
(0.234206 0.208025 0)
(0.250175 0.198962 0)
(0.26948 0.188836 0)
(0.292632 0.171752 0)
(0.31852 0.151277 0)
(0.00642642 0.305912 0)
(0.0180662 0.296293 0)
(0.0297331 0.293149 0)
(0.0407477 0.290632 0)
(0.0514362 0.287699 0)
(0.0620544 0.28443 0)
(0.072728 0.280915 0)
(0.0835553 0.277138 0)
(0.0946823 0.272904 0)
(0.106055 0.268375 0)
(0.118092 0.263573 0)
(0.130767 0.257383 0)
(0.143195 0.250641 0)
(0.156158 0.242442 0)
(0.16834 0.233963 0)
(0.180669 0.224684 0)
(0.193669 0.214625 0)
(0.207579 0.204735 0)
(0.222151 0.193211 0)
(0.238319 0.180588 0)
(0.256965 0.1676 0)
(0.275448 0.151896 0)
(0.295588 0.130597 0)
(0.00593858 0.293914 0)
(0.0167857 0.284653 0)
(0.027781 0.281875 0)
(0.038405 0.279629 0)
(0.0488305 0.276978 0)
(0.0591492 0.273898 0)
(0.0694939 0.270391 0)
(0.0799276 0.266428 0)
(0.0906179 0.262004 0)
(0.101414 0.257295 0)
(0.112666 0.25152 0)
(0.123646 0.245104 0)
(0.134979 0.237869 0)
(0.146735 0.23021 0)
(0.15849 0.221375 0)
(0.171277 0.211551 0)
(0.184083 0.201601 0)
(0.197178 0.190036 0)
(0.211214 0.178151 0)
(0.22457 0.165516 0)
(0.240071 0.151066 0)
(0.256733 0.132998 0)
(0.273769 0.112815 0)
(0.00547574 0.283127 0)
(0.0155332 0.274124 0)
(0.0257674 0.271503 0)
(0.0358053 0.269345 0)
(0.0457033 0.26675 0)
(0.0555538 0.263711 0)
(0.0653833 0.260099 0)
(0.0752652 0.256001 0)
(0.0852839 0.251427 0)
(0.0955205 0.24637 0)
(0.106162 0.240757 0)
(0.117035 0.234229 0)
(0.128037 0.226545 0)
(0.139043 0.218404 0)
(0.150251 0.209443 0)
(0.161402 0.199963 0)
(0.172656 0.189203 0)
(0.184484 0.178081 0)
(0.197057 0.1653 0)
(0.210229 0.150694 0)
(0.224414 0.135468 0)
(0.238028 0.118362 0)
(0.252021 0.0984291 0)
(0.00512323 0.272801 0)
(0.0146221 0.26406 0)
(0.0242841 0.26166 0)
(0.0337936 0.259648 0)
(0.0431619 0.257137 0)
(0.0525452 0.254102 0)
(0.0618935 0.250459 0)
(0.0712607 0.246247 0)
(0.0806663 0.24145 0)
(0.0902562 0.236048 0)
(0.0999421 0.23011 0)
(0.109736 0.223423 0)
(0.119647 0.216014 0)
(0.129747 0.20775 0)
(0.139881 0.198684 0)
(0.150454 0.188443 0)
(0.16155 0.17739 0)
(0.172755 0.165361 0)
(0.18435 0.152695 0)
(0.195675 0.138836 0)
(0.207374 0.123045 0)
(0.21926 0.105313 0)
(0.2312 0.0860053 0)
(0.00473224 0.263383 0)
(0.0135197 0.254785 0)
(0.0224849 0.252455 0)
(0.0313541 0.250499 0)
(0.0401155 0.248035 0)
(0.048916 0.244987 0)
(0.0577137 0.241369 0)
(0.0665468 0.237198 0)
(0.075412 0.232431 0)
(0.0843606 0.227045 0)
(0.0934044 0.221013 0)
(0.102695 0.214248 0)
(0.112026 0.206571 0)
(0.121455 0.198142 0)
(0.13095 0.188828 0)
(0.140611 0.178529 0)
(0.150274 0.167511 0)
(0.16001 0.155441 0)
(0.170094 0.142153 0)
(0.180359 0.127461 0)
(0.190838 0.111796 0)
(0.200936 0.0944912 0)
(0.210978 0.0755698 0)
(0.00440643 0.254446 0)
(0.0126368 0.246004 0)
(0.021012 0.243711 0)
(0.0293297 0.241799 0)
(0.0375441 0.23934 0)
(0.0457716 0.23627 0)
(0.0539635 0.232607 0)
(0.0621461 0.228353 0)
(0.0703333 0.223462 0)
(0.0785574 0.217945 0)
(0.0868261 0.211754 0)
(0.0952271 0.204934 0)
(0.103651 0.197285 0)
(0.112198 0.18876 0)
(0.12089 0.179378 0)
(0.129646 0.168976 0)
(0.138516 0.157652 0)
(0.147488 0.145542 0)
(0.156414 0.132426 0)
(0.165332 0.118076 0)
(0.174184 0.102339 0)
(0.182864 0.085154 0)
(0.191331 0.0666899 0)
(0.00402872 0.246328 0)
(0.0116473 0.238054 0)
(0.0194076 0.235798 0)
(0.027132 0.233952 0)
(0.03476 0.231564 0)
(0.0423842 0.228567 0)
(0.0499567 0.224963 0)
(0.0575119 0.220734 0)
(0.0650749 0.215855 0)
(0.0726371 0.210311 0)
(0.0802092 0.204062 0)
(0.0878303 0.197051 0)
(0.0955235 0.189235 0)
(0.103256 0.180628 0)
(0.111053 0.171238 0)
(0.118865 0.16086 0)
(0.126697 0.149578 0)
(0.13455 0.137415 0)
(0.142343 0.124122 0)
(0.15017 0.109674 0)
(0.157817 0.0941137 0)
(0.165192 0.0772747 0)
(0.172223 0.0592389 0)
(0.00371598 0.238701 0)
(0.0107589 0.230384 0)
(0.0179219 0.228127 0)
(0.0250631 0.226314 0)
(0.0320957 0.223955 0)
(0.0391143 0.221001 0)
(0.0460577 0.217453 0)
(0.0529363 0.213265 0)
(0.0597601 0.208415 0)
(0.0666024 0.202848 0)
(0.0734585 0.196595 0)
(0.0803417 0.189626 0)
(0.0872849 0.181913 0)
(0.0942468 0.173343 0)
(0.101206 0.163884 0)
(0.108111 0.153438 0)
(0.114942 0.142102 0)
(0.121741 0.129903 0)
(0.12852 0.116767 0)
(0.135224 0.102549 0)
(0.14169 0.0872175 0)
(0.147872 0.0706937 0)
(0.153651 0.0530759 0)
(0.00337759 0.231813 0)
(0.00990907 0.223648 0)
(0.0165022 0.221456 0)
(0.0230713 0.219715 0)
(0.0294957 0.217409 0)
(0.0359017 0.214515 0)
(0.0422135 0.210974 0)
(0.0484699 0.206788 0)
(0.0546527 0.201951 0)
(0.0607867 0.196407 0)
(0.0668862 0.190114 0)
(0.0729176 0.183071 0)
(0.07894 0.175195 0)
(0.0849992 0.16654 0)
(0.0910737 0.157179 0)
(0.0971573 0.146999 0)
(0.103218 0.135853 0)
(0.109152 0.123714 0)
(0.11487 0.110571 0)
(0.120454 0.0964823 0)
(0.125841 0.0814166 0)
(0.130933 0.0652659 0)
(0.135573 0.0480684 0)
(0.00310058 0.225348 0)
(0.0090535 0.21719 0)
(0.0150243 0.21495 0)
(0.0210027 0.213281 0)
(0.0268251 0.211052 0)
(0.0326497 0.208234 0)
(0.0384091 0.204872 0)
(0.0441138 0.200861 0)
(0.0497304 0.196134 0)
(0.0552352 0.190705 0)
(0.0606223 0.184503 0)
(0.0658919 0.177484 0)
(0.0710921 0.169644 0)
(0.0762483 0.161038 0)
(0.0813569 0.15155 0)
(0.0863847 0.141171 0)
(0.0913528 0.130014 0)
(0.0963135 0.118184 0)
(0.101276 0.105457 0)
(0.105986 0.0916148 0)
(0.110338 0.0767259 0)
(0.114397 0.0608759 0)
(0.117999 0.0441027 0)
(0.00286113 0.219563 0)
(0.00828307 0.211546 0)
(0.013549 0.209442 0)
(0.0189135 0.207848 0)
(0.0241062 0.205652 0)
(0.0293153 0.202884 0)
(0.0345023 0.199509 0)
(0.0396525 0.195509 0)
(0.0447324 0.190831 0)
(0.0496957 0.185514 0)
(0.0545221 0.179485 0)
(0.0592214 0.172678 0)
(0.0638044 0.165061 0)
(0.0681526 0.156553 0)
(0.0723268 0.147183 0)
(0.0763478 0.136967 0)
(0.0802858 0.12586 0)
(0.0841286 0.113717 0)
(0.0877863 0.100798 0)
(0.0914262 0.0873201 0)
(0.0950501 0.0729779 0)
(0.0982495 0.0575472 0)
(0.100905 0.0411541 0)
(0.00270771 0.214273 0)
(0.0074361 0.206509 0)
(0.0119563 0.204341 0)
(0.0165925 0.202803 0)
(0.0210559 0.200648 0)
(0.0255582 0.197881 0)
(0.0300447 0.194478 0)
(0.0345292 0.190515 0)
(0.0389728 0.186015 0)
(0.0433668 0.180851 0)
(0.0476299 0.174961 0)
(0.051693 0.168272 0)
(0.055564 0.160761 0)
(0.059318 0.152465 0)
(0.0629578 0.14335 0)
(0.0664486 0.133386 0)
(0.0697846 0.122515 0)
(0.0727146 0.110788 0)
(0.0754022 0.0981356 0)
(0.077928 0.0843608 0)
(0.0800712 0.0698732 0)
(0.082302 0.0549026 0)
(0.0842023 0.0390821 0)
(0.00257375 0.209304 0)
(0.00651981 0.202389 0)
(0.00978646 0.200401 0)
(0.0135024 0.198875 0)
(0.0170314 0.196714 0)
(0.0207096 0.193932 0)
(0.0243609 0.19052 0)
(0.0280947 0.186497 0)
(0.0319514 0.181857 0)
(0.0358315 0.176675 0)
(0.0397308 0.170921 0)
(0.0435642 0.164492 0)
(0.047159 0.157246 0)
(0.0504806 0.149138 0)
(0.0535119 0.140172 0)
(0.056205 0.130283 0)
(0.0586052 0.119553 0)
(0.0609369 0.10808 0)
(0.0631557 0.0957497 0)
(0.0649641 0.0826376 0)
(0.066395 0.068579 0)
(0.0673734 0.0533923 0)
(0.0680175 0.0376673 0)
(0.00218778 0.205141 0)
(0.00487652 0.198817 0)
(0.00684898 0.196774 0)
(0.00928537 0.195094 0)
(0.0115345 0.19285 0)
(0.0140811 0.190082 0)
(0.0165594 0.186671 0)
(0.0191559 0.182683 0)
(0.0217761 0.178145 0)
(0.0246073 0.17298 0)
(0.0276141 0.167223 0)
(0.0307892 0.160814 0)
(0.0341026 0.15374 0)
(0.0374119 0.145952 0)
(0.0406443 0.137383 0)
(0.0436739 0.127994 0)
(0.0463616 0.117734 0)
(0.0485964 0.10651 0)
(0.0502599 0.0943529 0)
(0.051558 0.0814177 0)
(0.0525843 0.0676981 0)
(0.0531543 0.0533311 0)
(0.0528629 0.0380143 0)
(0.00171743 0.20206 0)
(0.00276783 0.197709 0)
(0.00270313 0.196154 0)
(0.00331831 0.194456 0)
(0.00376947 0.192187 0)
(0.00468518 0.189277 0)
(0.00571285 0.185706 0)
(0.0069968 0.181464 0)
(0.00853126 0.176556 0)
(0.0103036 0.170969 0)
(0.0123279 0.164765 0)
(0.0146337 0.158024 0)
(0.017181 0.150686 0)
(0.0199125 0.142688 0)
(0.0228257 0.134003 0)
(0.025831 0.124658 0)
(0.0287822 0.114582 0)
(0.0315575 0.103801 0)
(0.0340132 0.0922737 0)
(0.0359527 0.0799987 0)
(0.0371682 0.0669388 0)
(0.0376117 0.0530095 0)
(0.0372421 0.0383014 0)
(0.000898934 0.200512 0)
(0.000522918 0.197412 0)
(-0.000971031 0.195562 0)
(-0.00149638 0.193229 0)
(-0.00215994 0.190471 0)
(-0.00241789 0.187231 0)
(-0.00245736 0.183489 0)
(-0.00222317 0.179164 0)
(-0.0016911 0.174213 0)
(-0.000903916 0.16863 0)
(0.000190501 0.162437 0)
(0.00159519 0.155659 0)
(0.00328849 0.148265 0)
(0.00521824 0.14017 0)
(0.00734559 0.131465 0)
(0.00959443 0.122121 0)
(0.0119613 0.112189 0)
(0.0143952 0.101678 0)
(0.0167572 0.0905445 0)
(0.0188922 0.0787954 0)
(0.0206572 0.0665442 0)
(0.0218255 0.0537248 0)
(0.0220957 0.0398913 0)
(0.000352782 0.201084 0)
(-0.00135006 0.200795 0)
(-0.0039867 0.199382 0)
(-0.00609504 0.197088 0)
(-0.00845844 0.194219 0)
(-0.0104112 0.190572 0)
(-0.0121177 0.186293 0)
(-0.0135073 0.181359 0)
(-0.0145878 0.175777 0)
(-0.0153727 0.169557 0)
(-0.0158409 0.162705 0)
(-0.015986 0.155244 0)
(-0.0157892 0.147196 0)
(-0.0152628 0.138559 0)
(-0.0144197 0.129318 0)
(-0.0132772 0.119529 0)
(-0.0119016 0.109188 0)
(-0.0103143 0.0983216 0)
(-0.00858456 0.0870073 0)
(-0.00682829 0.075272 0)
(-0.00509733 0.0632185 0)
(-0.00355203 0.0509255 0)
(-0.00230524 0.0382767 0)
)
;

boundaryField
{
    leftWall
    {
        type            fixedValue;
        value           uniform (0 0 0);
    }
    rightWall
    {
        type            fixedValue;
        value           nonuniform 0();
    }
    lowerWall
    {
        type            fixedValue;
        value           nonuniform 0();
    }
    atmosphere
    {
        type            fluxCorrectedVelocity;
        value           nonuniform List<vector> 
23
(
(0.000352782 0.200991 0)
(-0.00135006 0.200708 0)
(-0.0039867 0.199293 0)
(-0.00609504 0.196995 0)
(-0.00845844 0.194123 0)
(-0.0104112 0.190476 0)
(-0.0121177 0.186199 0)
(-0.0135073 0.181266 0)
(-0.0145878 0.175686 0)
(-0.0153727 0.169467 0)
(-0.0158409 0.162618 0)
(-0.015986 0.155161 0)
(-0.0157892 0.147116 0)
(-0.0152628 0.138483 0)
(-0.0144197 0.129248 0)
(-0.0132772 0.119465 0)
(-0.0119016 0.109131 0)
(-0.0103143 0.0982731 0)
(-0.00858456 0.0869688 0)
(-0.00682829 0.0752445 0)
(-0.00509733 0.0632023 0)
(-0.00355203 0.0509209 0)
(-0.00230524 0.0382832 0)
)
;
    }
    defaultFaces
    {
        type            empty;
    }
    procBoundary2to0
    {
        type            processor;
        value           nonuniform List<vector> 
24
(
(0.263544 0.354408 0)
(0.306424 0.369653 0)
(0.391198 0.421219 0)
(0.487994 0.437601 0)
(0.595086 0.464198 0)
(0.86319 0.807949 0)
(1.01641 0.898781 0)
(0.0419913 0.493897 0)
(0.0774663 0.45208 0)
(0.110597 0.387723 0)
(0.0989223 0.353388 0)
(0.0857509 0.340998 0)
(0.0792176 0.345816 0)
(0.0755375 0.349739 0)
(0.0782556 0.366184 0)
(0.0952205 0.378209 0)
(0.118375 0.39544 0)
(0.14542 0.407929 0)
(0.165667 0.406795 0)
(0.18472 0.393993 0)
(0.203019 0.371663 0)
(0.215736 0.350366 0)
(0.231284 0.331938 0)
(0.231284 0.331938 0)
)
;
    }
    procBoundary2to3
    {
        type            processor;
        value           nonuniform List<vector> 
25
(
(0.812781 0.703597 0)
(0.615671 0.535936 0)
(0.516035 0.392722 0)
(0.454715 0.297614 0)
(0.414823 0.233882 0)
(0.385395 0.190814 0)
(0.360278 0.156359 0)
(0.333675 0.132127 0)
(0.308482 0.11187 0)
(0.284145 0.0958978 0)
(0.261038 0.0821442 0)
(0.238827 0.0704829 0)
(0.217489 0.0605421 0)
(0.196846 0.0521255 0)
(0.176835 0.0451 0)
(0.157451 0.0393192 0)
(0.13863 0.0346773 0)
(0.120347 0.0310721 0)
(0.102587 0.0284477 0)
(0.0852739 0.026743 0)
(0.0684632 0.0257101 0)
(0.052329 0.0260175 0)
(0.0366582 0.0267948 0)
(0.0214591 0.0289534 0)
(-0.0021025 0.0283096 0)
)
;
    }
}


// ************************************************************************* //
