/*--------------------------------*- C++ -*----------------------------------*\
| =========                 |                                                 |
| \\      /  F ield         | OpenFOAM: The Open Source CFD Toolbox           |
|  \\    /   O peration     | Version:  2.4.0                                 |
|   \\  /    A nd           | Web:      www.OpenFOAM.org                      |
|    \\/     M anipulation  |                                                 |
\*---------------------------------------------------------------------------*/
FoamFile
{
    version     2.0;
    format      ascii;
    class       volScalarField;
    location    "0.75";
    object      alpha.water;
}
// * * * * * * * * * * * * * * * * * * * * * * * * * * * * * * * * * * * * * //

dimensions      [0 0 0 0 0 0 0];

internalField   nonuniform List<scalar> 
575
(
1.33162e-11
1.66895e-11
1.58319e-11
1.65543e-11
2.29955e-12
3.19435e-12
3.77171e-12
4.19014e-12
3.46197e-13
5.48722e-13
7.65916e-13
9.62727e-13
4.73173e-14
8.61263e-14
1.37361e-13
1.95164e-13
5.96658e-15
1.22046e-14
2.15317e-14
3.37281e-14
6.9072e-16
1.53426e-15
2.9018e-15
4.88502e-15
7.15978e-17
1.67593e-16
3.32519e-16
5.94182e-16
6.51532e-18
1.57648e-17
3.2651e-17
6.26253e-17
5.18385e-19
1.28494e-18
2.81445e-18
6.05302e-18
3.66315e-20
9.31764e-20
2.22901e-19
5.75086e-19
2.35941e-21
6.26985e-21
1.73054e-20
5.65389e-20
1.46897e-22
4.21697e-22
1.41303e-21
5.77715e-21
1.00178e-23
3.329e-23
1.3813e-22
6.61418e-22
1.03804e-24
4.64615e-24
2.38958e-23
1.2702e-22
2.33568e-25
1.44011e-24
8.82877e-24
5.25888e-23
8.54766e-26
6.33752e-25
4.43564e-24
2.98189e-23
3.47527e-26
2.91448e-25
2.29221e-24
1.73431e-23
1.36987e-26
1.27709e-25
1.12176e-24
9.52485e-24
4.98639e-27
5.12579e-26
4.99599e-25
4.72194e-24
1.6384e-27
1.84654e-26
1.98226e-25
2.06364e-24
4.81329e-28
5.92395e-27
6.96251e-26
7.90771e-25
1.2705e-28
1.70831e-27
2.19887e-26
2.72109e-25
3.08572e-29
4.54802e-28
6.45785e-27
8.8238e-26
7.55736e-30
1.22724e-28
1.93909e-27
2.97339e-26
5.11116e-30
8.47808e-29
1.36138e-27
2.08231e-26
1.59189e-11
3.89895e-11
8.56447e-11
3.10208e-10
3.64662e-10
6.04347e-09
1.05571e-07
6.49224e-07
7.64646e-07
7.07367e-07
4.37426e-07
3.70639e-07
3.1357e-07
1.83675e-07
2.5933e-07
2.82427e-07
2.11268e-07
9.85823e-08
5.0854e-08
6.10394e-12
1.3035e-11
2.44795e-11
6.62762e-11
9.56784e-11
4.79772e-10
3.6982e-09
8.90459e-09
5.5518e-09
4.46411e-08
2.12767e-07
3.04595e-07
1.48832e-07
2.41219e-08
1.22915e-08
8.04132e-09
2.39973e-09
1.52404e-10
1.26458e-11
1.85275e-12
3.88428e-12
6.44029e-12
1.32541e-11
2.30049e-11
7.16486e-11
1.98472e-10
4.49587e-10
5.94412e-10
2.54992e-09
1.69315e-08
8.80758e-08
4.37035e-08
3.31125e-09
1.04958e-09
7.79895e-10
2.74609e-10
8.92417e-12
5.08778e-12
4.43115e-13
9.12728e-13
1.39212e-12
2.59663e-12
5.21579e-12
1.11262e-11
1.83348e-11
4.52591e-11
9.05941e-11
3.49193e-10
1.70225e-09
3.97733e-09
7.41821e-09
3.80531e-09
1.46605e-09
1.85735e-09
2.46372e-10
6.7101e-12
5.07418e-12
8.40124e-14
1.70642e-13
2.65804e-13
5.5255e-13
1.41782e-12
3.46072e-12
8.7312e-12
2.15655e-11
5.68551e-11
1.52533e-10
3.66987e-10
8.86495e-10
2.60436e-09
3.33923e-09
2.34772e-09
1.98761e-09
3.65408e-11
3.54414e-12
4.72755e-12
1.29768e-14
2.70662e-14
5.1663e-14
1.47773e-13
4.93447e-13
1.52758e-12
4.84251e-12
1.52809e-11
5.17002e-11
1.82748e-10
5.12308e-10
8.98046e-10
1.75359e-09
2.78868e-09
2.66866e-09
9.92585e-10
4.01194e-12
2.45615e-12
4.27414e-12
1.70729e-15
4.05358e-15
1.13133e-14
4.4315e-14
1.75009e-13
6.5399e-13
2.55015e-12
1.13135e-11
5.01983e-11
2.19489e-10
6.86571e-10
1.15754e-09
1.68696e-09
2.60628e-09
2.27204e-09
1.43618e-10
2.53951e-12
1.98938e-12
3.81772e-12
2.07471e-16
6.39933e-16
2.59355e-15
1.21964e-14
5.33981e-14
2.41149e-13
1.30098e-12
7.95637e-12
4.91495e-11
2.87002e-10
9.89351e-10
1.60904e-09
1.90414e-09
2.34638e-09
1.76565e-09
2.8716e-11
2.24955e-12
1.68601e-12
3.2727e-12
2.53689e-17
1.061e-16
5.41698e-16
2.78593e-15
1.3155e-14
7.20007e-14
5.6062e-13
5.02624e-12
4.92409e-11
3.92521e-10
1.46272e-09
2.59887e-09
2.25406e-09
2.01218e-09
1.33175e-09
4.60849e-11
2.7605e-12
1.59073e-12
2.66327e-12
3.19511e-18
1.6792e-17
9.55185e-17
5.12444e-16
2.5677e-15
1.62836e-14
1.90365e-13
2.93097e-12
4.90921e-11
5.10061e-10
2.07867e-09
3.14138e-09
2.27645e-09
1.70597e-09
1.02357e-09
8.38958e-11
4.21829e-12
1.65866e-12
2.05052e-12
3.95484e-19
2.35265e-18
1.39579e-17
7.64169e-17
4.06432e-16
3.10946e-15
5.74934e-14
1.54007e-12
3.19565e-11
4.82702e-10
2.20362e-09
3.29816e-09
2.31804e-09
1.67601e-09
8.89853e-10
1.29996e-10
7.76813e-12
1.88836e-12
1.62144e-12
4.58396e-20
2.89887e-19
1.74719e-18
9.75732e-18
5.64483e-17
5.28737e-16
1.17605e-14
4.42402e-13
1.32826e-11
2.11632e-10
1.39258e-09
3.07212e-09
2.79357e-09
1.96339e-09
9.60183e-10
1.73458e-10
1.09756e-11
2.56437e-12
1.39134e-12
5.42975e-21
3.65806e-20
2.32393e-19
1.40154e-18
9.04187e-18
8.69623e-17
1.59e-15
4.59798e-14
1.52458e-12
3.6388e-11
4.47179e-10
2.20657e-09
2.79005e-09
2.45881e-09
1.33017e-09
3.07768e-10
2.03751e-11
3.37191e-12
1.27095e-12
1.04295e-21
8.54545e-21
6.71225e-20
4.9915e-19
3.56831e-18
2.65889e-17
2.73416e-16
5.84419e-15
2.07163e-13
6.58832e-12
1.25243e-10
1.04344e-09
2.06605e-09
2.15871e-09
1.43431e-09
4.28573e-10
3.15071e-11
5.32174e-12
1.25784e-12
4.59066e-22
4.7403e-21
4.60709e-20
4.09236e-19
3.28573e-18
2.36022e-17
1.55029e-16
1.2327e-15
2.56825e-14
9.57793e-13
2.46879e-11
3.10974e-10
9.86604e-10
1.13549e-09
8.44888e-10
2.62323e-10
1.97775e-11
3.90731e-12
1.13799e-12
2.83342e-22
3.45286e-21
3.91338e-20
4.0181e-19
3.68191e-18
2.94688e-17
2.00384e-16
1.14503e-15
6.53712e-15
9.94774e-14
2.7995e-12
4.84145e-11
2.61626e-10
3.22783e-10
2.07918e-10
9.53831e-11
1.06232e-11
2.67074e-12
9.37487e-13
1.78972e-22
2.52264e-21
3.2991e-20
3.90832e-19
4.11685e-18
3.75231e-17
2.86631e-16
1.78168e-15
8.82524e-15
3.68588e-14
2.24037e-13
2.94544e-12
2.15037e-11
4.33877e-11
2.34767e-11
1.02066e-11
4.01544e-12
1.50489e-12
7.27551e-13
1.0628e-22
1.71892e-21
2.58688e-20
3.55762e-19
4.40045e-18
4.74499e-17
4.29328e-16
3.13223e-15
1.7713e-14
7.45525e-14
2.20044e-13
4.72027e-13
1.37337e-12
4.68961e-12
4.36969e-12
3.00738e-12
1.68048e-12
8.86847e-13
5.64681e-13
5.604e-23
1.01059e-21
1.67754e-20
2.51957e-19
3.36611e-18
3.89496e-17
3.78114e-16
2.97177e-15
1.81332e-14
8.13703e-14
2.50521e-13
5.3209e-13
8.83834e-13
1.64067e-12
1.84117e-12
1.54397e-12
1.0048e-12
5.88299e-13
4.38455e-13
2.55348e-23
4.97081e-22
8.70327e-21
1.34582e-19
1.81454e-18
2.10057e-17
2.0441e-16
1.63241e-15
1.03702e-14
5.0465e-14
1.74333e-13
4.39979e-13
8.15972e-13
1.16925e-12
1.27892e-12
1.00401e-12
6.33259e-13
3.63513e-13
3.27735e-13
1.0051e-23
2.0663e-22
3.71653e-21
5.7348e-20
7.56651e-19
8.46949e-18
7.94338e-17
6.15287e-16
3.85974e-15
1.92786e-14
7.27425e-14
2.2153e-13
5.52995e-13
8.01772e-13
7.74389e-13
5.26554e-13
3.10851e-13
1.73946e-13
2.33278e-13
3.54619e-24
7.69338e-23
1.4243e-21
2.20968e-20
2.88079e-19
3.13358e-18
2.81463e-17
2.07229e-16
1.23688e-15
5.95624e-15
2.26565e-14
7.40229e-14
2.13174e-13
2.96253e-13
2.54706e-13
1.58199e-13
9.49669e-14
6.46868e-14
1.5641e-13
1.2117e-24
2.85996e-23
5.61961e-22
9.0485e-21
1.20397e-19
1.31805e-18
1.17305e-17
8.38354e-17
4.76023e-16
2.12134e-15
7.48034e-15
2.09355e-14
5.26579e-14
6.01867e-14
5.48131e-14
3.40556e-14
2.68584e-14
2.51648e-14
8.9342e-14
4.50762e-25
1.27874e-23
3.08612e-22
6.1442e-21
9.57852e-20
1.13032e-18
1.01344e-17
6.94303e-17
3.64415e-16
1.45118e-15
4.46492e-15
9.66657e-15
1.88548e-14
1.61115e-14
1.60018e-14
9.38406e-15
8.38873e-15
8.63789e-15
3.8896e-14
2.96802e-25
8.33033e-24
1.94234e-22
3.62226e-21
5.31018e-20
6.12898e-19
5.52661e-18
3.81223e-17
1.95516e-16
7.22175e-16
2.02372e-15
3.4971e-15
5.62121e-15
3.32456e-15
2.93863e-15
1.62573e-15
1.54647e-15
1.68318e-15
9.71132e-15
)
;

boundaryField
{
    leftWall
    {
        type            zeroGradient;
    }
    rightWall
    {
        type            zeroGradient;
    }
    lowerWall
    {
        type            zeroGradient;
    }
    atmosphere
    {
        type            inletOutlet;
        inletValue      uniform 0;
        value           nonuniform List<scalar> 
23
(
5.11116e-30
8.47808e-29
1.36138e-27
2.08231e-26
2.96802e-25
8.33033e-24
1.94234e-22
0
0
0
0
0
0
0
0
0
0
0
0
0
0
0
0
)
;
    }
    defaultFaces
    {
        type            empty;
    }
    procBoundary3to1
    {
        type            processor;
        value           nonuniform List<scalar> 
23
(
8.24376e-11
7.62719e-11
7.03879e-11
6.10832e-11
5.97379e-11
8.80046e-11
3.24359e-10
1.09313e-09
2.18286e-09
9.36454e-08
1.32313e-05
7.06818e-05
0.000116241
0.000126998
9.61379e-05
6.11045e-05
5.9323e-05
0.000142323
0.000366005
0.000686071
0.00084445
0.000529059
0.000152742
)
;
    }
    procBoundary3to2
    {
        type            processor;
        value           nonuniform List<scalar> 
25
(
1.11654e-11
1.54789e-12
1.84566e-13
2.08322e-14
2.33536e-15
2.55749e-16
2.60041e-17
2.36768e-18
1.90468e-19
1.37209e-20
9.13917e-22
5.92776e-23
4.0719e-24
3.37562e-25
4.29225e-26
9.65546e-27
2.99629e-27
9.86205e-28
3.08705e-28
8.83623e-29
2.27719e-29
5.29274e-30
1.13272e-30
2.41562e-31
1.48862e-31
)
;
    }
}


// ************************************************************************* //
