/*--------------------------------*- C++ -*----------------------------------*\
| =========                 |                                                 |
| \\      /  F ield         | OpenFOAM: The Open Source CFD Toolbox           |
|  \\    /   O peration     | Version:  2.4.0                                 |
|   \\  /    A nd           | Web:      www.OpenFOAM.org                      |
|    \\/     M anipulation  |                                                 |
\*---------------------------------------------------------------------------*/
FoamFile
{
    version     2.0;
    format      ascii;
    class       volScalarField;
    location    "0.75";
    object      alpha.mercury;
}
// * * * * * * * * * * * * * * * * * * * * * * * * * * * * * * * * * * * * * //

dimensions      [0 0 0 0 0 0 0];

internalField   nonuniform List<scalar> 
575
(
7.90611e-13
1.47925e-12
2.75608e-12
4.68554e-12
3.0086e-13
6.22832e-13
1.23473e-12
2.2557e-12
9.30342e-14
2.05511e-13
4.25475e-13
8.24866e-13
2.31829e-14
5.38529e-14
1.15919e-13
2.36966e-13
4.66419e-15
1.13604e-14
2.54926e-14
5.50193e-14
7.74246e-16
1.97829e-15
4.64651e-15
1.06463e-14
1.07522e-16
2.88881e-16
7.16573e-16
1.76607e-15
1.26555e-17
3.60236e-17
9.61866e-17
2.60441e-16
1.28348e-18
3.92163e-18
1.15412e-17
3.50473e-17
1.1493e-19
3.83002e-19
1.26226e-18
4.32505e-18
9.26403e-21
3.42378e-20
1.27106e-19
4.88141e-19
6.89467e-22
2.84832e-21
1.18224e-20
5.00301e-20
4.90463e-23
2.26571e-22
1.03584e-21
4.74403e-21
3.80093e-24
1.98345e-23
1.00018e-22
4.96586e-22
4.95393e-25
3.07856e-24
1.80825e-23
1.02972e-22
1.40164e-25
1.03153e-24
7.09811e-24
4.69691e-23
5.38225e-26
4.48399e-25
3.49773e-24
2.62587e-23
2.08588e-26
1.93366e-25
1.68876e-24
1.42629e-23
7.52562e-27
7.70064e-26
7.47311e-25
7.03638e-24
2.45885e-27
2.76123e-26
2.95444e-25
3.0674e-24
7.19689e-28
8.83262e-27
1.03553e-25
1.17379e-24
1.89485e-28
2.54217e-27
3.26598e-26
4.03562e-25
4.59334e-29
6.75804e-28
9.58156e-27
1.30765e-25
1.12285e-29
1.82076e-28
2.8733e-27
4.40132e-26
7.56576e-30
1.254e-28
2.01222e-27
3.07587e-26
1.39657e-11
4.91689e-11
9.04745e-11
1.58879e-10
1.88173e-10
2.47871e-10
2.68982e-10
9.07935e-10
8.76922e-09
2.92945e-08
4.81579e-08
9.60627e-08
2.07753e-07
4.99407e-07
1.9645e-06
2.55601e-06
1.08418e-06
1.97671e-07
6.08079e-08
6.97461e-12
1.62235e-11
4.022e-11
7.87037e-11
1.19115e-10
1.82414e-10
2.46645e-10
2.91371e-10
2.94743e-10
1.12e-09
1.50757e-08
7.56719e-08
1.45742e-07
1.2034e-07
5.74899e-08
1.89424e-08
3.38145e-09
2.47075e-10
3.97877e-11
2.64121e-12
6.38201e-12
1.56476e-11
3.23829e-11
6.14973e-11
1.12705e-10
1.91846e-10
3.00676e-10
3.86699e-10
5.2154e-10
1.45039e-09
8.76018e-09
9.22451e-09
5.90436e-09
5.09813e-09
3.51223e-09
1.48119e-09
3.8977e-11
7.77282e-12
7.92979e-13
2.03321e-12
5.14785e-12
1.17096e-11
2.4425e-11
5.02808e-11
1.00232e-10
1.87733e-10
3.55757e-10
7.05209e-10
1.29208e-09
1.94801e-09
2.22706e-09
2.8662e-09
3.71043e-09
6.41756e-09
1.06123e-09
3.16991e-11
7.73072e-12
1.95337e-13
5.42295e-13
1.49185e-12
3.86225e-12
9.13224e-12
1.77214e-11
4.32282e-11
1.0251e-10
2.4993e-10
6.1668e-10
1.41888e-09
2.32418e-09
2.75012e-09
3.63713e-09
7.9537e-09
7.87479e-09
1.3446e-10
9.18261e-12
7.5348e-12
4.1147e-14
1.26789e-13
3.9371e-13
1.18875e-12
3.30658e-12
8.11376e-12
2.25026e-11
6.43077e-11
2.03186e-10
6.75116e-10
1.93642e-09
3.4061e-09
3.49361e-09
3.84336e-09
7.92407e-09
5.85132e-09
1.56779e-11
5.97671e-12
6.76829e-12
7.65518e-15
2.67006e-14
9.51005e-14
3.31476e-13
1.05459e-12
3.17491e-12
1.06745e-11
4.43791e-11
1.87796e-10
7.96276e-10
2.48009e-09
4.36934e-09
5.35495e-09
4.54188e-09
7.96288e-09
6.73084e-10
1.20465e-11
5.08575e-12
6.03431e-12
1.29076e-15
5.09869e-15
2.05659e-14
8.00313e-14
2.82927e-13
1.06367e-12
5.18306e-12
2.99987e-11
1.79092e-10
1.03143e-09
3.58251e-09
6.17228e-09
6.7938e-09
5.86891e-09
7.65452e-09
1.1359e-10
1.06437e-11
4.41843e-12
5.51173e-12
1.97808e-16
8.69554e-16
3.8584e-15
1.62486e-14
6.33525e-14
3.02503e-13
2.19234e-12
1.8697e-11
1.76838e-10
1.4095e-09
5.35055e-09
9.90635e-09
8.48209e-09
6.33638e-09
5.6107e-09
2.20977e-10
6.81878e-12
4.24361e-12
5.55461e-12
2.71838e-17
1.29861e-16
6.14786e-16
2.73457e-15
1.16414e-14
6.60861e-14
7.24384e-13
1.06467e-11
1.73814e-10
1.83463e-09
7.71321e-09
1.22091e-08
8.47389e-09
5.92799e-09
3.7988e-09
2.9352e-10
9.86294e-12
4.64187e-12
6.75104e-12
3.31293e-18
1.67452e-17
8.25108e-17
3.81259e-16
1.76202e-15
1.22088e-14
2.11663e-13
5.43137e-12
1.05238e-10
1.71089e-09
8.25112e-09
1.27767e-08
9.70191e-09
5.99202e-09
2.82358e-09
3.69055e-10
3.10918e-11
1.18631e-11
6.82519e-12
3.54748e-19
1.86646e-18
9.42587e-18
4.50274e-17
2.28905e-16
1.9609e-15
4.13046e-14
1.36491e-12
3.33693e-11
7.2718e-10
5.00439e-09
1.18882e-08
1.18936e-08
8.2135e-09
3.2154e-09
4.58184e-10
6.72215e-11
2.49653e-11
6.78111e-12
3.43446e-20
1.88702e-19
9.91707e-19
5.06589e-18
2.92264e-17
2.80661e-16
5.16985e-15
1.3927e-13
4.30158e-12
1.2138e-10
1.53303e-09
8.33301e-09
1.17801e-08
1.11772e-08
5.13e-09
9.06293e-10
1.17708e-10
4.23355e-11
8.65078e-12
3.6918e-21
2.38848e-20
1.5441e-19
1.00502e-18
6.82707e-18
5.51128e-17
6.89214e-16
1.62655e-14
5.84831e-13
2.08681e-11
4.27735e-10
3.82552e-09
8.34193e-09
8.83561e-09
5.03819e-09
1.19427e-09
1.55031e-10
5.86688e-11
1.22295e-11
8.52797e-22
7.98861e-21
7.32648e-20
6.3023e-19
4.98066e-18
3.5886e-17
2.49772e-16
2.50753e-15
6.7833e-14
2.86504e-12
8.35957e-11
1.105e-09
3.77638e-09
3.81394e-09
2.66662e-09
8.6357e-10
1.57505e-10
5.74955e-11
1.35839e-11
4.38833e-22
5.23531e-21
5.85022e-20
5.94873e-19
5.42455e-18
4.36091e-17
3.03571e-16
1.85296e-15
1.29968e-14
2.71618e-13
9.26291e-12
1.7252e-10
9.51595e-10
1.06663e-09
7.01705e-10
4.37777e-10
1.52905e-10
4.10098e-11
1.14203e-11
2.6878e-22
3.75822e-21
4.8938e-20
5.81415e-19
6.22588e-18
5.90475e-17
4.8576e-16
3.40291e-15
2.00794e-14
1.0612e-13
7.89907e-13
3.96293e-12
6.96942e-11
1.52083e-10
1.26263e-10
1.10667e-10
7.61261e-11
2.7898e-11
8.04397e-12
1.58393e-22
2.55699e-21
3.87425e-20
5.4577e-19
7.10875e-18
8.35055e-17
8.51872e-16
7.24369e-15
4.94579e-14
2.62992e-13
1.04346e-12
2.9708e-12
7.97577e-12
2.06755e-11
4.38965e-11
7.32893e-11
4.4987e-11
1.77591e-11
5.14913e-12
8.3293e-23
1.50417e-21
2.52392e-20
3.89525e-19
5.47035e-18
6.82425e-17
7.32692e-16
6.54518e-15
4.70151e-14
2.61679e-13
1.07293e-12
3.39297e-12
8.99891e-12
2.00184e-11
4.78035e-11
4.73149e-11
2.42005e-11
9.8313e-12
2.86216e-12
3.79006e-23
7.39272e-22
1.30626e-20
2.0625e-19
2.88523e-18
3.53235e-17
3.71302e-16
3.28129e-15
2.38153e-14
1.39112e-13
6.18921e-13
2.27278e-12
7.91683e-12
2.5805e-11
3.40925e-11
2.13176e-11
9.85476e-12
3.87087e-12
1.236e-12
1.49048e-23
3.06838e-22
5.5518e-21
8.67965e-20
1.17221e-18
1.36143e-17
1.34722e-16
1.1231e-15
7.76845e-15
4.42323e-14
1.99304e-13
8.13149e-13
3.71638e-12
1.19674e-11
1.03448e-11
5.84939e-12
2.72091e-12
1.00486e-12
4.68071e-13
5.25514e-24
1.14078e-22
2.11856e-21
3.30935e-20
4.36851e-19
4.85142e-18
4.4997e-17
3.47154e-16
2.21027e-15
1.16116e-14
4.96252e-14
1.97726e-13
8.64753e-13
1.65957e-12
1.22393e-12
6.4586e-13
3.00513e-13
1.38227e-13
2.19663e-13
1.79435e-24
4.23514e-23
8.33141e-22
1.34512e-20
1.79862e-19
1.98532e-18
1.79002e-17
1.3048e-16
7.62569e-16
3.5331e-15
1.31512e-14
4.00235e-14
1.18702e-13
1.30633e-13
1.05966e-13
6.08946e-14
4.31528e-14
3.66213e-14
1.20601e-13
6.66663e-25
1.89001e-23
4.56038e-22
9.08154e-21
1.41701e-19
1.67501e-18
1.50606e-17
1.0362e-16
5.4703e-16
2.19356e-15
6.79847e-15
1.47537e-14
2.8997e-14
2.40504e-14
2.35138e-14
1.37261e-14
1.21495e-14
1.21271e-14
5.23329e-14
4.38167e-25
1.22913e-23
2.86465e-22
5.34026e-21
7.82638e-20
9.03149e-19
8.14342e-18
5.61777e-17
2.88165e-16
1.06452e-15
2.98215e-15
5.14431e-15
8.24711e-15
4.86261e-15
4.28488e-15
2.36836e-15
2.23509e-15
2.36163e-15
1.30602e-14
)
;

boundaryField
{
    leftWall
    {
        type            zeroGradient;
    }
    rightWall
    {
        type            zeroGradient;
    }
    lowerWall
    {
        type            zeroGradient;
    }
    atmosphere
    {
        type            inletOutlet;
        inletValue      uniform 0;
        value           nonuniform List<scalar> 
23
(
7.56576e-30
1.254e-28
2.01222e-27
3.07587e-26
4.38167e-25
1.22913e-23
2.86465e-22
0
0
0
0
0
0
0
0
0
0
0
0
0
0
0
0
)
;
    }
    defaultFaces
    {
        type            empty;
    }
    procBoundary3to1
    {
        type            processor;
        value           nonuniform List<scalar> 
23
(
1.80334e-12
2.8871e-12
4.81005e-12
7.56095e-12
2.95079e-11
8.82922e-11
1.84753e-10
2.67841e-10
2.71349e-10
2.48146e-10
1.09319e-08
2.209e-07
8.74541e-07
1.88322e-06
2.60612e-06
2.61712e-06
2.38945e-06
6.08488e-06
6.39983e-05
0.000453519
0.00113274
0.0014063
0.00204061
)
;
    }
    procBoundary3to2
    {
        type            processor;
        value           nonuniform List<scalar> 
25
(
4.48194e-13
1.48654e-13
4.17264e-14
9.64773e-15
1.82255e-15
2.85954e-16
3.77705e-17
4.24485e-18
4.0923e-19
3.44109e-20
2.57032e-21
1.73772e-22
1.10353e-23
7.2969e-25
7.12406e-26
1.47321e-26
4.5821e-27
1.50522e-27
4.68155e-28
1.33203e-28
3.41737e-29
7.91707e-30
1.69021e-30
3.5961e-31
2.20566e-31
)
;
    }
}


// ************************************************************************* //
