/*--------------------------------*- C++ -*----------------------------------*\
| =========                 |                                                 |
| \\      /  F ield         | OpenFOAM: The Open Source CFD Toolbox           |
|  \\    /   O peration     | Version:  2.4.0                                 |
|   \\  /    A nd           | Web:      www.OpenFOAM.org                      |
|    \\/     M anipulation  |                                                 |
\*---------------------------------------------------------------------------*/
FoamFile
{
    version     2.0;
    format      ascii;
    class       volScalarField;
    location    "0.75";
    object      p;
}
// * * * * * * * * * * * * * * * * * * * * * * * * * * * * * * * * * * * * * //

dimensions      [1 -1 -2 0 0 0 0];

internalField   nonuniform List<scalar> 
575
(
2.78236
2.74026
2.69946
2.66039
2.68872
2.65568
2.62328
2.59191
2.58857
2.5621
2.53603
2.51071
2.48396
2.46243
2.44124
2.42063
2.37625
2.35851
2.34101
2.32396
2.26623
2.25133
2.23659
2.22217
2.15436
2.14161
2.12897
2.11655
2.04101
2.02988
2.01883
2.0079
1.9265
1.91666
1.90685
1.89711
1.81118
1.80237
1.79358
1.78478
1.6953
1.68737
1.67942
1.67143
1.57907
1.57192
1.56471
1.55745
1.46264
1.4562
1.44969
1.4431
1.34611
1.34034
1.33448
1.32856
1.22955
1.22441
1.21919
1.2139
1.11296
1.10843
1.10383
1.09917
0.996355
0.992408
0.988404
0.984349
0.879697
0.876312
0.872882
0.869413
0.762959
0.760111
0.757228
0.754318
0.646105
0.643765
0.641402
0.63902
0.529099
0.527239
0.525365
0.523478
0.411925
0.410514
0.409094
0.40767
0.294535
0.293549
0.29256
0.29157
0.176964
0.176381
0.175796
0.175211
0.0591033
0.058912
0.0587205
0.0585285
2.59931
2.53249
2.48418
2.4478
2.41899
2.39762
2.42521
2.55102
2.85315
3.26743
3.44124
3.52868
3.71162
3.97048
4.30072
4.63776
5.17354
6.32019
7.44674
2.54216
2.48516
2.44237
2.41465
2.4016
2.41166
2.4575
2.5442
2.68156
2.80901
2.96379
3.15249
3.25599
3.30955
3.41784
3.68322
4.2989
5.54327
7.0104
2.47026
2.42284
2.38675
2.3647
2.35794
2.37058
2.40708
2.4711
2.56608
2.67941
2.8116
2.95144
3.05951
3.08071
3.05923
3.08979
3.51218
3.75391
1.76748
2.38756
2.34812
2.3176
2.29882
2.29284
2.30201
2.3271
2.3767
2.4415
2.52403
2.6177
2.7107
2.7756
2.78496
2.72778
2.66195
2.98153
0.107343
-3.07425
2.29651
2.26323
2.23671
2.21924
2.21172
2.21523
2.23199
2.25789
2.29801
2.3466
2.39813
2.44363
2.47591
2.46548
2.32074
2.42227
1.99647
-0.536164
-0.148534
2.19893
2.17014
2.14617
2.12885
2.11849
2.11555
2.12082
2.12945
2.14707
2.16462
2.17987
2.18445
2.16846
2.12025
1.93143
1.97186
1.80389
1.10098
5.31089
2.09634
2.07072
2.04838
2.03056
2.01696
2.00749
2.00204
1.99578
1.99374
1.98535
1.96541
1.93153
1.86982
1.78063
1.57906
1.33041
1.69501
1.19476
2.9639
1.99001
1.96669
1.94539
1.92686
1.91043
1.89578
1.88082
1.863
1.8425
1.81101
1.75825
1.68645
1.58745
1.46628
1.24231
0.669305
0.840014
0.175018
2.11182
1.88099
1.85942
1.83893
1.81978
1.8013
1.78263
1.76164
1.73568
1.70087
1.64789
1.5611
1.43976
1.33037
1.20071
0.970754
0.485032
0.968578
0.259701
7.47864
1.77011
1.75
1.73025
1.71084
1.69108
1.66995
1.64527
1.61495
1.57469
1.51251
1.41522
1.27978
1.15385
1.00771
0.78332
0.465905
0.747242
0.837471
7.64846
1.65802
1.63925
1.62035
1.60112
1.58092
1.55876
1.53289
1.50143
1.46031
1.40185
1.31846
1.21004
1.08614
0.912913
0.657423
0.327676
0.358949
0.272021
-0.879917
1.5452
1.52776
1.50989
1.49133
1.47153
1.44959
1.42445
1.39444
1.35697
1.30837
1.24455
1.16552
1.06909
0.905501
0.65788
0.352175
0.354178
0.43584
0.663001
1.43195
1.41591
1.39929
1.38185
1.36316
1.34263
1.31946
1.29269
1.26122
1.22405
1.18163
1.12944
1.0658
0.934835
0.759031
0.527426
0.476493
0.537972
0.629242
1.31849
1.30391
1.28874
1.27279
1.25578
1.23734
1.21705
1.19451
1.1696
1.1426
1.11595
1.08682
1.05112
0.965884
0.874434
0.759407
0.702047
0.772903
0.848107
1.20491
1.19185
1.17828
1.16406
1.14906
1.13313
1.11614
1.0981
1.07955
1.06126
1.04535
1.0289
1.01395
0.973541
0.939585
0.911353
0.907954
0.990689
1.04631
1.09124
1.07974
1.06782
1.05546
1.04263
1.02933
1.01569
1.00199
0.989006
0.977627
0.969617
0.964103
0.960438
0.952844
0.957261
0.981035
1.02575
1.09345
1.1426
0.977461
0.967495
0.957246
0.94673
0.936058
0.92531
0.914753
0.904837
0.896389
0.890088
0.887109
0.886172
0.885809
0.898033
0.927666
0.982811
1.04825
1.10273
1.14732
0.863529
0.855055
0.846407
0.837638
0.828992
0.820533
0.812611
0.805729
0.800642
0.797906
0.797773
0.797899
0.792869
0.808755
0.857069
0.9297
1.00253
1.04729
1.08786
0.749391
0.74234
0.735195
0.727953
0.721165
0.714622
0.708749
0.704018
0.701094
0.700396
0.701828
0.703503
0.698326
0.71269
0.771635
0.843843
0.911677
0.944029
0.978611
0.635
0.629291
0.623605
0.618129
0.612506
0.607408
0.603013
0.599634
0.59783
0.597638
0.5992
0.60229
0.604677
0.625297
0.675909
0.738053
0.78908
0.81376
0.837265
0.5203
0.515812
0.511358
0.507024
0.502771
0.498865
0.495505
0.492905
0.491489
0.491104
0.492858
0.496289
0.502347
0.526435
0.564194
0.613687
0.646194
0.662589
0.676669
0.405278
0.401914
0.398582
0.395298
0.392112
0.389123
0.386461
0.384223
0.382796
0.381669
0.382838
0.384727
0.39044
0.407868
0.435569
0.466075
0.485114
0.498651
0.51034
0.289905
0.287568
0.285245
0.282935
0.28064
0.278359
0.276129
0.273915
0.27216
0.269393
0.269149
0.268713
0.272754
0.283004
0.2974
0.316394
0.328171
0.337314
0.351148
0.17423
0.172854
0.171462
0.170017
0.168522
0.166778
0.164724
0.16217
0.159834
0.154517
0.152393
0.146669
0.145961
0.148897
0.157538
0.171066
0.182829
0.189848
0.20148
0.0582064
0.05775
0.0572711
0.0566789
0.0558897
0.0547329
0.0530118
0.0503961
0.0472525
0.0401291
0.0343784
0.02166
0.0146526
0.00912383
0.0119726
0.0223853
0.0370913
0.0472271
0.0602711
)
;

boundaryField
{
    leftWall
    {
        type            fixedFluxPressure;
        gradient        nonuniform 0();
        value           nonuniform 0();
    }
    rightWall
    {
        type            fixedFluxPressure;
        gradient        uniform 0;
        value           nonuniform List<scalar> 
25
(
7.44674
7.0104
1.76748
-3.07425
-0.148534
5.31089
2.9639
2.11182
7.47864
7.64846
-0.879917
0.663001
0.629242
0.848107
1.04631
1.1426
1.14732
1.08786
0.978611
0.837265
0.676669
0.51034
0.351148
0.20148
0.0602711
)
;
    }
    lowerWall
    {
        type            fixedFluxPressure;
        gradient        nonuniform 0();
        value           nonuniform 0();
    }
    atmosphere
    {
        type            totalPressure;
        U               U.air;
        phi             phi.air;
        rho             rho;
        psi             none;
        gamma           1;
        p0              uniform 0;
        value           nonuniform List<scalar> 
23
(
0
0
0
0
0
0
0
-6.71621e-05
-0.000297153
-0.000971078
-0.00222062
-0.0042494
-0.00722309
-0.0125016
-0.0179895
-0.0318025
-0.040443
-0.0548722
-0.0582986
-0.0564324
-0.052768
-0.0476721
-0.0360539
)
;
    }
    defaultFaces
    {
        type            empty;
    }
    procBoundary3to1
    {
        type            processor;
        value           nonuniform List<scalar> 
23
(
2.86413
2.80939
2.75765
2.70948
2.63594
2.56189
2.51468
2.47575
2.42996
2.36545
2.26932
2.32679
2.51228
2.68166
2.83136
2.94745
2.98662
2.84921
2.6663
2.69643
2.94875
3.30201
2.82667
)
;
    }
    procBoundary3to2
    {
        type            processor;
        value           nonuniform List<scalar> 
25
(
2.84766
2.73997
2.62958
2.51741
2.40394
2.28953
2.17432
2.05839
1.94184
1.82486
1.70757
1.5901
1.47255
1.35499
1.23744
1.11992
1.00241
0.884897
0.767342
0.649712
0.531974
0.414109
0.296067
0.177868
0.0593992
)
;
    }
}


// ************************************************************************* //
