/*--------------------------------*- C++ -*----------------------------------*\
| =========                 |                                                 |
| \\      /  F ield         | OpenFOAM: The Open Source CFD Toolbox           |
|  \\    /   O peration     | Version:  2.4.0                                 |
|   \\  /    A nd           | Web:      www.OpenFOAM.org                      |
|    \\/     M anipulation  |                                                 |
\*---------------------------------------------------------------------------*/
FoamFile
{
    version     2.0;
    format      ascii;
    class       surfaceScalarField;
    location    "0.75";
    object      phi.oil;
}
// * * * * * * * * * * * * * * * * * * * * * * * * * * * * * * * * * * * * * //

dimensions      [0 3 -1 0 0 0 0];

internalField   nonuniform List<scalar> 
1102
(
6.38287e-05
3.49967e-05
6.88035e-05
3.33587e-05
7.30811e-05
3.16402e-05
2.95541e-05
7.63712e-05
5.67506e-05
3.03101e-05
6.10408e-05
2.90687e-05
6.49034e-05
2.77784e-05
2.63072e-05
6.81511e-05
5.28419e-05
2.6448e-05
5.6385e-05
2.5527e-05
5.96505e-05
2.45156e-05
2.35024e-05
6.24584e-05
4.8584e-05
2.3237e-05
5.15409e-05
2.25724e-05
5.43024e-05
2.17578e-05
2.10302e-05
5.67781e-05
4.53295e-05
2.06891e-05
4.77287e-05
2.01756e-05
5.0059e-05
1.94312e-05
1.87572e-05
5.23355e-05
4.19109e-05
1.8561e-05
4.39895e-05
1.80993e-05
4.60337e-05
1.73906e-05
1.6703e-05
4.80911e-05
3.92016e-05
1.66758e-05
4.1084e-05
1.62192e-05
4.28796e-05
1.55982e-05
1.49339e-05
4.46516e-05
3.65232e-05
1.50271e-05
3.81946e-05
1.45497e-05
3.97885e-05
1.40072e-05
1.34013e-05
4.13237e-05
3.39919e-05
1.36577e-05
3.53933e-05
1.31502e-05
3.67931e-05
1.261e-05
1.20151e-05
3.81817e-05
3.16308e-05
1.24259e-05
3.28657e-05
1.19166e-05
3.40936e-05
1.13845e-05
1.08182e-05
3.52924e-05
2.92791e-05
1.13759e-05
3.03396e-05
1.08578e-05
3.13918e-05
1.03341e-05
9.78668e-06
3.2425e-05
2.70143e-05
1.04425e-05
2.79373e-05
9.93573e-06
2.88564e-05
9.41664e-06
8.87856e-06
2.9766e-05
2.47898e-05
9.62913e-06
2.55952e-05
9.13159e-06
2.63969e-05
8.61621e-06
8.08893e-06
2.71876e-05
2.26051e-05
8.91103e-06
2.33142e-05
8.42285e-06
2.40158e-05
7.91594e-06
7.39472e-06
2.47108e-05
2.04436e-05
8.28205e-06
2.10642e-05
7.80315e-06
2.16795e-05
7.30138e-06
6.78765e-06
2.22872e-05
1.83055e-05
7.73435e-06
1.88474e-05
7.26147e-06
1.93837e-05
6.76569e-06
6.25479e-06
1.99169e-05
1.61774e-05
7.26477e-06
1.66437e-05
6.79567e-06
1.71048e-05
6.30491e-06
5.79664e-06
1.75632e-05
1.40561e-05
6.87252e-06
1.44477e-05
6.40408e-06
1.48353e-05
5.91761e-06
5.41108e-06
1.52208e-05
1.19386e-05
6.55669e-06
1.22515e-05
6.09146e-06
1.25652e-05
5.60386e-06
5.10105e-06
1.28752e-05
9.82342e-06
6.31688e-06
1.00603e-05
5.8545e-06
1.02933e-05
5.37074e-06
4.86783e-06
1.05264e-05
7.71795e-06
6.15935e-06
7.87724e-06
5.69518e-06
8.03298e-06
5.21493e-06
4.71518e-06
8.18542e-06
5.64488e-06
6.10139e-06
5.70642e-06
5.63355e-06
5.77203e-06
5.1491e-06
4.6464e-06
5.84065e-06
3.64593e-06
6.0773e-06
3.64015e-06
5.63912e-06
3.61436e-06
5.17484e-06
4.68703e-06
3.57362e-06
1.56043e-06
6.00953e-06
1.58608e-06
5.61367e-06
1.5725e-06
5.18849e-06
4.73749e-06
1.52211e-06
-1.50427e-06
-1.40986e-06
-1.34774e-06
-1.31987e-06
8.14099e-05
6.24817e-05
8.42388e-05
5.27322e-05
8.85854e-05
4.57677e-05
9.6434e-05
4.10423e-05
0.00010238
3.31215e-05
0.000115675
2.08371e-05
0.000110676
4.48154e-06
9.97337e-05
-2.69533e-05
3.63113e-05
-6.85037e-05
-4.52086e-05
-8.26398e-05
-0.00011358
-9.89536e-05
-0.000152338
-0.000117462
-0.000167354
-0.000136161
-0.000187122
-0.000135688
-0.000205611
-0.000138334
-0.000188128
-0.000175266
-9.69491e-05
-0.000546039
-1.33532e-05
-0.000923018
-0.000677775
7.40286e-05
5.66095e-05
7.83443e-05
4.84276e-05
8.29053e-05
4.12134e-05
8.97809e-05
3.41479e-05
9.73344e-05
2.54883e-05
0.000103099
1.50204e-05
0.000105514
1.71303e-06
9.85899e-05
-1.6382e-05
6.42439e-05
-3.36215e-05
3.8487e-05
-4.67697e-05
-7.16857e-06
-5.32231e-05
-7.94189e-05
-5.54189e-05
-0.000141994
-7.31123e-05
-0.00017499
-9.50979e-05
-0.000192003
-0.000115998
-0.000148696
-0.000266343
-1.67023e-05
-0.000588846
2.86276e-05
-0.000755423
-0.000570297
6.81758e-05
5.08961e-05
7.26751e-05
4.39346e-05
7.7282e-05
3.66345e-05
8.2384e-05
2.90402e-05
8.64913e-05
2.14336e-05
9.03348e-05
1.1157e-05
9.12974e-05
4.70293e-07
8.65687e-05
-1.1358e-05
7.55211e-05
-2.36304e-05
6.01053e-05
-3.26341e-05
4.27702e-05
-2.91796e-05
6.90387e-06
-1.71391e-05
-6.40456e-05
-5.89788e-06
-0.000127994
-3.39171e-05
-0.00012442
-0.00018002
-4.31039e-05
-0.000349895
-1.68344e-05
-0.000565571
9.07633e-06
-0.000510917
-0.00043847
6.20776e-05
4.56017e-05
6.68148e-05
3.92033e-05
7.12558e-05
3.22064e-05
7.53168e-05
2.49771e-05
7.84143e-05
1.83573e-05
8.11205e-05
8.44385e-06
8.00791e-05
1.70097e-06
7.83651e-05
-9.73624e-06
6.87385e-05
-1.46657e-05
5.77338e-05
-2.10309e-05
4.96746e-05
-2.0013e-05
4.34312e-05
-9.7693e-06
1.62197e-05
2.28844e-05
-3.18631e-05
1.98502e-05
-4.16443e-05
-0.000271227
-2.75772e-05
-0.000391593
-1.00707e-05
-0.000425055
3.92289e-06
-0.000404651
-0.00039393
5.71971e-05
4.07447e-05
6.16361e-05
3.477e-05
6.56113e-05
2.82383e-05
6.8825e-05
2.177e-05
7.14213e-05
1.57745e-05
7.27079e-05
7.17226e-06
7.42344e-05
2.18129e-07
7.1701e-05
-7.16384e-06
6.75637e-05
-1.03507e-05
6.45731e-05
-1.80195e-05
5.79639e-05
-1.38091e-05
4.93309e-05
5.11159e-07
3.24843e-05
4.0623e-05
-1.86517e-05
6.39919e-05
-3.30945e-05
-0.000282906
-1.84041e-05
-0.00034122
-9.30302e-06
-0.000374907
2.58993e-06
-0.000378807
-0.000389463
5.26272e-05
3.62129e-05
5.67322e-05
3.06703e-05
6.01731e-05
2.48036e-05
6.28639e-05
1.9086e-05
6.5497e-05
1.315e-05
6.66352e-05
6.03895e-06
6.79995e-05
-1.11659e-06
6.75587e-05
-6.76029e-06
6.71449e-05
-9.94935e-06
6.74984e-05
-1.89097e-05
6.65707e-05
-1.37604e-05
6.0782e-05
4.81578e-06
4.20509e-05
5.9153e-05
-8.69056e-06
9.89331e-05
-3.0071e-05
-0.000285051
-1.69437e-05
-0.000327409
-1.0766e-05
-0.000368562
2.27826e-06
-0.000383047
-0.000388944
4.8608e-05
3.22604e-05
5.21315e-05
2.71512e-05
5.51061e-05
2.18343e-05
5.75791e-05
1.66185e-05
6.00726e-05
1.06633e-05
6.15692e-05
4.54658e-06
6.29231e-05
-2.44844e-06
6.39998e-05
-7.87696e-06
6.61755e-05
-1.21954e-05
6.85279e-05
-2.25128e-05
7.14122e-05
-1.73828e-05
6.6548e-05
7.30551e-06
4.46714e-05
7.82422e-05
-4.24381e-06
0.000119402
-2.90907e-05
-0.000274349
-1.72013e-05
-0.000335353
-1.16423e-05
-0.000434703
5.32403e-06
-0.000419687
-0.000386114
4.48031e-05
2.87844e-05
4.78483e-05
2.41098e-05
5.04777e-05
1.92092e-05
5.27507e-05
1.43501e-05
5.48381e-05
8.58056e-06
5.6416e-05
2.97245e-06
5.78983e-05
-3.91681e-06
5.94414e-05
-9.45636e-06
6.32741e-05
-1.62135e-05
6.72878e-05
-2.89366e-05
7.46645e-05
-2.46205e-05
7.03652e-05
8.74429e-06
4.19548e-05
9.64101e-05
-2.06881e-06
9.12012e-05
-2.70005e-05
-0.000262684
-2.12665e-05
-0.000473385
-1.32055e-05
-0.000595122
1.31987e-05
-0.000422312
-0.000383377
4.12716e-05
2.56973e-05
4.39267e-05
2.1458e-05
4.62341e-05
1.69053e-05
4.82722e-05
1.23155e-05
4.98548e-05
7.00125e-06
5.12766e-05
1.55345e-06
5.2096e-05
-4.73112e-06
5.36058e-05
-1.09735e-05
5.65897e-05
-1.98988e-05
5.80068e-05
-3.43309e-05
6.54638e-05
-3.04741e-05
5.50799e-05
2.06387e-05
1.76192e-05
0.000115664
-1.33354e-05
2.67215e-05
-3.12207e-05
-0.000248886
-1.83532e-05
-0.000412791
1.20645e-05
-0.000515723
3.43493e-05
-0.000367447
-0.00041378
3.79073e-05
2.30848e-05
4.02446e-05
1.91233e-05
4.22713e-05
1.48812e-05
4.40318e-05
1.05575e-05
4.53335e-05
5.70173e-06
4.62942e-05
5.94526e-07
4.64888e-05
-4.92359e-06
4.63812e-05
-1.08921e-05
4.38209e-05
-1.88462e-05
3.44328e-05
-3.0293e-05
3.4411e-05
-2.85504e-05
2.54435e-05
2.99757e-05
3.91142e-06
0.000121175
-1.14812e-05
-6.03032e-06
-9.71511e-06
-0.000149129
1.52557e-05
-0.000193831
3.61318e-05
-0.000331867
5.18519e-05
-0.000358762
-0.000877387
3.47812e-05
2.07306e-05
3.68344e-05
1.70721e-05
3.86097e-05
1.31078e-05
4.01219e-05
9.04687e-06
4.12025e-05
4.62213e-06
4.17871e-05
1.10845e-08
4.15962e-05
-4.73167e-06
4.03691e-05
-9.67888e-06
3.57851e-05
-1.55342e-05
2.1036e-05
-2.13613e-05
1.63222e-05
-2.04106e-05
1.64081e-05
2.98648e-05
4.87759e-06
0.000114953
1.49621e-05
2.29545e-05
3.63372e-05
1.45143e-05
2.58827e-05
-7.3135e-05
3.71877e-05
-0.000316506
0.000155639
-0.000613776
-0.00103004
3.18042e-05
1.86939e-05
3.36299e-05
1.52479e-05
3.52235e-05
1.15154e-05
3.65672e-05
7.70383e-06
3.75069e-05
3.68288e-06
3.79572e-05
-4.38851e-07
3.76288e-05
-4.40224e-06
3.61221e-05
-8.17507e-06
3.19866e-05
-1.17254e-05
2.03521e-05
-1.36237e-05
1.25285e-05
-1.08989e-05
1.78909e-05
2.49989e-05
1.53973e-05
9.66444e-05
2.83143e-05
4.9092e-05
6.88713e-05
6.05747e-05
4.75685e-05
-3.31604e-05
7.57602e-05
-0.000235858
0.000104121
-0.000529182
-0.000649355
2.89944e-05
1.68882e-05
3.06289e-05
1.36143e-05
3.20848e-05
1.00599e-05
3.33294e-05
6.45922e-06
3.4297e-05
2.7151e-06
3.48733e-05
-1.01496e-06
3.49102e-05
-4.43781e-06
3.40718e-05
-7.33532e-06
3.16333e-05
-9.31835e-06
2.61468e-05
-8.74811e-06
1.59364e-05
-4.2831e-06
2.71522e-05
1.78544e-05
3.91091e-05
6.70292e-05
6.72499e-05
6.07709e-05
0.000101834
4.74624e-05
0.000109668
-2.83998e-05
8.66564e-05
-0.000163449
2.8069e-05
-0.000354386
-0.000398374
2.63056e-05
1.52941e-05
2.77925e-05
1.21278e-05
2.91302e-05
8.72212e-06
3.03542e-05
5.23476e-06
3.13817e-05
1.68709e-06
3.22032e-05
-1.83623e-06
3.27793e-05
-5.01245e-06
3.30179e-05
-7.5719e-06
3.29239e-05
-9.22657e-06
3.26438e-05
-8.51246e-06
3.0161e-05
-4.45027e-06
4.04441e-05
9.94833e-06
5.65651e-05
3.70861e-05
9.25472e-05
4.75041e-05
0.000117501
2.79574e-05
0.000118355
-2.5016e-05
0.000105164
-0.000136404
4.5058e-05
-0.000301778
-0.000350789
2.37035e-05
1.38782e-05
2.50472e-05
1.0784e-05
2.63196e-05
7.44925e-06
2.75257e-05
4.02782e-06
2.86741e-05
5.38131e-07
2.97745e-05
-2.93617e-06
3.09566e-05
-6.19248e-06
3.23732e-05
-8.98564e-06
3.42214e-05
-1.10721e-05
3.7063e-05
-1.13397e-05
4.22168e-05
-9.95989e-06
5.1914e-05
-1.32658e-06
6.60321e-05
1.11316e-05
9.53062e-05
2.74644e-05
0.000116172
1.06189e-05
0.000102887
-2.51548e-05
0.000103254
-0.000103212
5.50627e-05
-0.000258241
-0.000303311
2.11599e-05
1.26353e-05
2.23747e-05
9.56883e-06
2.3556e-05
6.26721e-06
2.47396e-05
2.84332e-06
2.59464e-05
-6.69206e-07
2.72725e-05
-4.26149e-06
2.88569e-05
-7.7745e-06
3.09822e-05
-1.11065e-05
3.40494e-05
-1.41387e-05
3.91677e-05
-1.64574e-05
4.72731e-05
-1.82359e-05
6.02425e-05
-1.57231e-05
7.64365e-05
-1.23634e-05
8.48007e-05
9.45937e-06
0.000112786
-4.87068e-06
0.000104932
-2.78443e-05
8.36391e-05
-9.93794e-05
5.32882e-05
-0.000221098
-0.000252136
1.86362e-05
1.15621e-05
1.97155e-05
8.48893e-06
2.07886e-05
5.19323e-06
2.1911e-05
1.72002e-06
2.31234e-05
-1.88197e-06
2.45466e-05
-5.68358e-06
2.63775e-05
-9.60294e-06
2.89782e-05
-1.36984e-05
3.28298e-05
-1.7985e-05
3.92653e-05
-2.28872e-05
4.96555e-05
-2.88758e-05
6.59796e-05
-3.26275e-05
8.17194e-05
-3.17622e-05
7.92136e-05
-4.60874e-06
0.000102339
-1.25323e-05
9.2406e-05
-2.8974e-05
7.09357e-05
-8.30102e-05
4.73729e-05
-0.000189509
-0.000208455
1.61252e-05
1.06575e-05
1.70428e-05
7.57063e-06
1.79766e-05
4.25857e-06
1.8959e-05
7.36829e-07
2.00631e-05
-2.98617e-06
2.13623e-05
-6.98155e-06
2.3024e-05
-1.12615e-05
2.53115e-05
-1.5974e-05
2.87904e-05
-2.14365e-05
3.4277e-05
-2.83515e-05
4.27791e-05
-3.84286e-05
5.72544e-05
-4.63822e-05
6.93909e-05
-4.4206e-05
6.68719e-05
-1.24182e-05
8.15155e-05
-1.45605e-05
6.78171e-05
-2.74054e-05
6.67583e-05
-8.49668e-05
4.25519e-05
-0.000162397
-0.000168498
1.36039e-05
9.92831e-06
1.43482e-05
6.8256e-06
1.51171e-05
3.4889e-06
1.59246e-05
-7.13561e-08
1.68247e-05
-3.88611e-06
1.78707e-05
-8.02636e-06
1.91337e-05
-1.25215e-05
2.0663e-05
-1.74938e-05
2.25855e-05
-2.33489e-05
2.43374e-05
-3.02628e-05
2.52857e-05
-4.06389e-05
2.94335e-05
-4.95751e-05
3.57834e-05
-5.00232e-05
4.43009e-05
-2.21141e-05
5.44226e-05
-1.8217e-05
5.13392e-05
-3.05558e-05
6.10179e-05
-9.36244e-05
3.61027e-05
-0.0001339
-0.000132109
1.10693e-05
9.38497e-06
1.16209e-05
6.27329e-06
1.2185e-05
2.92415e-06
1.27749e-05
-6.61648e-07
1.34316e-05
-4.54275e-06
1.41529e-05
-8.74658e-06
1.49223e-05
-1.32888e-05
1.56736e-05
-1.82399e-05
1.62229e-05
-2.39056e-05
1.58307e-05
-2.98932e-05
1.24681e-05
-3.8334e-05
9.537e-06
-4.44477e-05
9.19054e-06
-4.72928e-05
2.27237e-05
-3.07993e-05
3.28408e-05
-2.56401e-05
4.80006e-05
-4.56989e-05
5.07108e-05
-8.93515e-05
2.72223e-05
-0.000111741
-0.00010533
8.53446e-06
9.03553e-06
8.88692e-06
5.92024e-06
9.25113e-06
2.55937e-06
9.62626e-06
-1.03705e-06
1.00484e-05
-4.9647e-06
1.04973e-05
-9.19468e-06
1.09781e-05
-1.37682e-05
1.14093e-05
-1.86679e-05
1.15808e-05
-2.40746e-05
1.11017e-05
-2.93721e-05
8.37106e-06
-3.58513e-05
4.26434e-06
-4.08789e-05
2.32688e-06
-4.13826e-05
1.32203e-05
-3.70057e-05
2.79537e-05
-3.55593e-05
3.75581e-05
-5.35047e-05
3.20463e-05
-8.33143e-05
1.483e-05
-9.54347e-05
-9.03541e-05
5.99059e-06
8.88526e-06
6.1233e-06
5.78713e-06
6.24687e-06
2.43542e-06
6.37938e-06
-1.16971e-06
6.51575e-06
-5.10091e-06
6.65774e-06
-9.33605e-06
6.81229e-06
-1.3922e-05
6.92026e-06
-1.87742e-05
6.86489e-06
-2.40181e-05
6.59123e-06
-2.90681e-05
5.32949e-06
-3.46488e-05
4.52889e-06
-3.98999e-05
3.41077e-06
-4.10918e-05
1.15908e-05
-4.52019e-05
2.13571e-05
-4.8208e-05
2.47978e-05
-6.23501e-05
1.85354e-05
-7.85356e-05
8.97849e-06
-8.59709e-05
-8.12976e-05
3.46639e-06
8.9924e-06
3.37077e-06
5.88252e-06
3.28231e-06
2.52374e-06
3.203e-06
-1.09053e-06
3.11999e-06
-5.0177e-06
3.03185e-06
-9.24789e-06
2.88754e-06
-1.37774e-05
2.72712e-06
-1.86142e-05
2.35889e-06
-2.3652e-05
2.23916e-06
-2.89373e-05
1.93512e-06
-3.43716e-05
3.3973e-06
-4.11818e-05
4.86779e-06
-4.28857e-05
1.21288e-05
-5.52079e-05
1.9329e-05
-5.68847e-05
2.27906e-05
-6.62211e-05
1.72462e-05
-7.28499e-05
9.94346e-06
-7.87183e-05
-7.12983e-05
1.26451e-06
9.24997e-06
8.742e-07
6.27281e-06
4.23741e-07
2.97409e-06
-5.84294e-08
-6.08337e-07
-5.48713e-07
-4.52757e-06
-1.00573e-06
-8.79084e-06
-1.35617e-06
-1.34275e-05
-1.4998e-06
-1.84708e-05
-1.36829e-06
-2.37856e-05
-1.58719e-07
-3.01261e-05
1.16051e-06
-3.56771e-05
5.77361e-06
-4.56497e-05
1.15313e-05
-4.85855e-05
1.78569e-05
-6.16232e-05
2.18567e-05
-6.0855e-05
2.24104e-05
-6.67778e-05
1.68476e-05
-6.72684e-05
9.06533e-06
-7.093e-05
-6.22186e-05
-1.39441e-06
-1.62398e-06
-1.97368e-06
-2.35429e-06
-2.70631e-06
-2.97958e-06
-3.1004e-06
-2.89547e-06
-2.06578e-06
2.88331e-07
3.54067e-06
9.61988e-06
1.66033e-05
2.10127e-05
2.37942e-05
2.22052e-05
1.6141e-05
8.43845e-06
)
;

boundaryField
{
    leftWall
    {
        type            fixedValue;
        value           nonuniform 0();
    }
    rightWall
    {
        type            fixedValue;
        value           uniform 0;
    }
    lowerWall
    {
        type            fixedValue;
        value           nonuniform 0();
    }
    atmosphere
    {
        type            calculated;
        value           nonuniform List<scalar> 
23
(
5.88542e-06
5.51935e-06
5.1265e-06
4.70964e-06
9.32452e-06
6.50236e-06
3.32379e-06
-2.27768e-07
-4.17557e-06
-8.51769e-06
-1.33067e-05
-1.86756e-05
-2.46137e-05
-3.24727e-05
-3.89306e-05
-5.17936e-05
-5.56558e-05
-6.60695e-05
-6.36412e-05
-6.51706e-05
-6.11591e-05
-6.31906e-05
-5.3759e-05
)
;
    }
    defaultFaces
    {
        type            empty;
        value           nonuniform 0();
    }
    procBoundary3to1
    {
        type            processor;
        value           nonuniform List<scalar> 
23
(
-4.08585e-05
-3.83389e-05
-3.5918e-05
-3.28455e-05
-6.75025e-05
-5.55462e-05
-4.99836e-05
-4.85604e-05
-4.2017e-05
-2.07419e-05
8.07978e-05
0.00015837
0.000195072
0.000194531
0.000192415
0.000226156
0.000250217
0.000238053
0.000220541
0.000208795
0.000326886
0.000623784
0.000800476
)
;
    }
    procBoundary3to2
    {
        type            processor;
        value           nonuniform List<scalar> 
25
(
-5.79788e-05
-5.20633e-05
-4.89769e-05
-4.53698e-05
-4.27788e-05
-3.97799e-05
-3.73141e-05
-3.48723e-05
-3.26206e-05
-3.03972e-05
-2.82277e-05
-2.60797e-05
-2.39753e-05
-2.18861e-05
-1.98139e-05
-1.77572e-05
-1.57074e-05
-1.36637e-05
-1.16228e-05
-9.58359e-06
-7.56066e-06
-5.58712e-06
-3.62217e-06
-1.49261e-06
1.62876e-06
)
;
    }
}


// ************************************************************************* //
