/*--------------------------------*- C++ -*----------------------------------*\
| =========                 |                                                 |
| \\      /  F ield         | OpenFOAM: The Open Source CFD Toolbox           |
|  \\    /   O peration     | Version:  2.4.0                                 |
|   \\  /    A nd           | Web:      www.OpenFOAM.org                      |
|    \\/     M anipulation  |                                                 |
\*---------------------------------------------------------------------------*/
FoamFile
{
    version     2.0;
    format      ascii;
    class       surfaceScalarField;
    location    "0.75";
    object      phi.air;
}
// * * * * * * * * * * * * * * * * * * * * * * * * * * * * * * * * * * * * * //

dimensions      [0 3 -1 0 0 0 0];

internalField   nonuniform List<scalar> 
1102
(
6.38494e-05
3.50142e-05
6.8826e-05
3.33765e-05
7.31015e-05
3.16574e-05
2.95711e-05
7.63978e-05
5.67711e-05
3.03284e-05
6.10603e-05
2.90873e-05
6.49203e-05
2.77975e-05
2.63262e-05
6.81652e-05
5.28601e-05
2.64653e-05
5.64034e-05
2.55439e-05
5.96677e-05
2.45331e-05
2.35199e-05
6.2474e-05
4.86035e-05
2.3252e-05
5.156e-05
2.25874e-05
5.43202e-05
2.17729e-05
2.10453e-05
5.67949e-05
4.53491e-05
2.0702e-05
4.77481e-05
2.01884e-05
5.0077e-05
1.94439e-05
1.87698e-05
5.23525e-05
4.19303e-05
1.85718e-05
4.40087e-05
1.811e-05
4.60515e-05
1.74012e-05
1.67134e-05
4.8108e-05
3.92206e-05
1.66849e-05
4.11026e-05
1.6228e-05
4.28969e-05
1.56068e-05
1.49424e-05
4.4668e-05
3.65414e-05
1.50346e-05
3.82125e-05
1.45569e-05
3.98051e-05
1.40142e-05
1.34081e-05
4.13394e-05
3.40093e-05
1.36638e-05
3.54102e-05
1.3156e-05
3.68089e-05
1.26155e-05
1.20204e-05
3.81966e-05
3.1647e-05
1.24308e-05
3.28818e-05
1.19213e-05
3.41085e-05
1.13889e-05
1.08223e-05
3.53066e-05
2.92945e-05
1.13797e-05
3.03543e-05
1.08614e-05
3.14058e-05
1.03375e-05
9.78983e-06
3.24383e-05
2.70283e-05
1.04456e-05
2.79512e-05
9.93856e-06
2.88695e-05
9.41918e-06
8.88087e-06
2.97784e-05
2.48028e-05
9.63143e-06
2.56078e-05
9.13361e-06
2.64089e-05
8.61805e-06
8.09054e-06
2.71993e-05
2.26168e-05
8.91282e-06
2.3326e-05
8.42441e-06
2.40269e-05
7.91722e-06
7.39579e-06
2.47216e-05
2.04544e-05
8.28333e-06
2.10747e-05
7.80416e-06
2.16897e-05
7.3022e-06
6.78827e-06
2.22972e-05
1.8315e-05
7.7353e-06
1.8857e-05
7.26221e-06
1.9393e-05
6.76618e-06
6.25508e-06
1.99262e-05
1.6186e-05
7.2654e-06
1.66522e-05
6.79605e-06
1.71133e-05
6.30512e-06
5.79665e-06
1.75717e-05
1.40636e-05
6.87298e-06
1.44554e-05
6.40433e-06
1.48429e-05
5.91763e-06
5.41091e-06
1.52286e-05
1.19453e-05
6.55701e-06
1.22581e-05
6.09154e-06
1.2572e-05
5.60374e-06
5.10074e-06
1.28822e-05
9.82898e-06
6.3171e-06
1.0066e-05
5.85453e-06
1.02992e-05
5.37055e-06
4.86743e-06
1.05325e-05
7.72263e-06
6.15955e-06
7.88201e-06
5.69516e-06
8.03789e-06
5.21468e-06
4.71473e-06
8.1906e-06
5.64855e-06
6.10158e-06
5.71018e-06
5.63352e-06
5.77601e-06
5.14887e-06
4.64593e-06
5.84481e-06
3.64859e-06
6.07757e-06
3.64298e-06
5.63916e-06
3.61725e-06
5.1746e-06
4.68653e-06
3.57665e-06
1.56204e-06
6.00964e-06
1.58767e-06
5.61352e-06
1.57417e-06
5.1881e-06
4.73684e-06
1.52385e-06
-1.50383e-06
-1.40936e-06
-1.34725e-06
-1.31932e-06
8.14324e-05
6.25359e-05
8.42881e-05
5.27899e-05
8.87456e-05
4.58355e-05
9.64553e-05
4.10636e-05
0.00010591
3.30632e-05
0.000115612
2.07916e-05
0.000118605
4.0324e-06
8.21192e-05
-2.31925e-05
2.0385e-05
-6.02983e-05
-5.24561e-05
-7.69009e-05
-0.000118847
-9.68245e-05
-0.000158208
-0.000119189
-0.000172277
-0.000130176
-0.000184796
-0.000122288
-0.000205867
-0.000112229
-0.000224891
-0.000109835
-0.000219014
-0.000136139
-0.000146188
-0.000228041
-0.00032355
7.4046e-05
5.66551e-05
7.83587e-05
4.84771e-05
8.29317e-05
4.12625e-05
8.97942e-05
3.42011e-05
9.73151e-05
2.55423e-05
0.000103043
1.50636e-05
0.000105317
1.75881e-06
9.81603e-05
-1.60363e-05
7.12655e-05
-3.34036e-05
3.87415e-05
-4.4377e-05
-1.02129e-05
-4.78703e-05
-8.13414e-05
-4.80608e-05
-0.00014574
-6.57778e-05
-0.000181674
-8.63548e-05
-0.000205137
-8.87658e-05
-0.000215366
-9.96049e-05
-0.000194729
-0.000156699
-0.000114388
-0.000303502
-0.000424198
6.81918e-05
5.09374e-05
7.26919e-05
4.39771e-05
7.72789e-05
3.66755e-05
8.24026e-05
2.90773e-05
8.64651e-05
2.14798e-05
9.03257e-05
1.1203e-05
9.13609e-05
7.23479e-07
8.65563e-05
-1.12317e-05
7.60866e-05
-2.29341e-05
6.28992e-05
-3.11896e-05
4.17166e-05
-2.66878e-05
5.12055e-06
-1.14648e-05
-6.66716e-05
6.01437e-06
-0.000132948
-2.00782e-05
-0.000164463
-5.72489e-05
-0.000162302
-0.000101617
-8.64122e-05
-0.000230357
2.87897e-05
-0.000407828
-0.000389435
6.2095e-05
4.56373e-05
6.68335e-05
3.92387e-05
7.12677e-05
3.22412e-05
7.53342e-05
2.50108e-05
7.84204e-05
1.83936e-05
8.1135e-05
8.48827e-06
8.0103e-05
1.75542e-06
7.84276e-05
-9.55638e-06
6.98014e-05
-1.43079e-05
5.88903e-05
-2.02786e-05
5.01343e-05
-1.79319e-05
4.34506e-05
-4.7812e-06
1.70552e-05
3.24098e-05
-4.39561e-05
4.09329e-05
-8.73697e-05
-1.38107e-05
-5.29079e-05
-0.000134467
5.22372e-05
-0.000323216
3.35173e-05
-0.000389723
-0.000388263
5.72155e-05
4.07743e-05
6.16552e-05
3.47991e-05
6.563e-05
2.82664e-05
6.8844e-05
2.17968e-05
7.14374e-05
1.58001e-05
7.27264e-05
7.19924e-06
7.4231e-05
2.50772e-07
7.17755e-05
-7.10095e-06
6.76707e-05
-1.02031e-05
6.50102e-05
-1.76181e-05
5.98162e-05
-1.27379e-05
5.1734e-05
3.30097e-06
3.64262e-05
4.77175e-05
-6.75394e-06
8.41157e-05
-5.38079e-05
3.32884e-05
-1.08923e-05
-0.000175023
3.65072e-05
-0.000357571
6.37241e-06
-0.000385648
-0.00040673
5.26453e-05
3.62371e-05
5.67508e-05
3.06936e-05
6.01915e-05
2.48258e-05
6.28816e-05
1.91066e-05
6.55121e-05
1.31695e-05
6.6653e-05
6.05837e-06
6.79971e-05
-1.09348e-06
6.76146e-05
-6.71845e-06
6.72442e-05
-9.83272e-06
6.80904e-05
-1.84643e-05
6.78226e-05
-1.24702e-05
6.36171e-05
7.50641e-06
4.64997e-05
6.4835e-05
1.80544e-05
0.000112577
-2.08901e-05
7.26515e-05
-6.99398e-06
-0.000186827
6.08705e-06
-0.00036599
-8.93241e-06
-0.000386037
-0.000382578
4.86253e-05
3.22798e-05
5.21493e-05
2.71696e-05
5.51236e-05
2.18514e-05
5.75959e-05
1.66344e-05
6.00873e-05
1.0678e-05
6.15845e-05
4.56108e-06
6.29226e-05
-2.4316e-06
6.40499e-05
-7.84584e-06
6.63052e-05
-1.20881e-05
6.97576e-05
-2.19167e-05
7.27414e-05
-1.54539e-05
6.94791e-05
1.07687e-05
5.03447e-05
8.39694e-05
2.29098e-05
0.000140038
-7.50422e-06
0.000103675
-1.13707e-05
-0.000183379
-6.39143e-06
-0.000362246
-4.08006e-06
-0.000385665
-0.000388713
4.48196e-05
2.87997e-05
4.7865e-05
2.41241e-05
5.04942e-05
1.92223e-05
5.27665e-05
1.43621e-05
5.48526e-05
8.5918e-06
5.643e-05
2.98368e-06
5.79018e-05
-3.90349e-06
5.94881e-05
-9.43219e-06
6.35129e-05
-1.61128e-05
6.97811e-05
-2.81849e-05
7.62759e-05
-2.19488e-05
7.33011e-05
1.37436e-05
5.44711e-05
0.000102799
2.54618e-05
0.000169079
3.18851e-06
0.000126203
-7.33617e-06
-0.000174302
-1.07797e-05
-0.000364736
-1.56694e-05
-0.000404319
-0.000405263
4.12872e-05
2.57092e-05
4.39424e-05
2.14688e-05
4.62497e-05
1.6915e-05
4.82873e-05
1.23244e-05
4.98693e-05
7.00975e-06
5.12905e-05
1.56245e-06
5.21071e-05
-4.72013e-06
5.36291e-05
-1.09542e-05
5.73242e-05
-1.9808e-05
6.27669e-05
-3.36276e-05
6.90009e-05
-2.81829e-05
5.87466e-05
2.39978e-05
3.93871e-05
0.000122159
2.67533e-05
0.000181754
2.33618e-05
0.000129201
2.60871e-06
-0.000156003
-3.14554e-05
-0.00033423
-6.47439e-05
-0.00041319
-0.000409264
3.79219e-05
2.30939e-05
4.02594e-05
1.91313e-05
4.22862e-05
1.48883e-05
4.40466e-05
1.05639e-05
4.53483e-05
5.70808e-06
4.6309e-05
6.0171e-07
4.65032e-05
-4.91439e-06
4.64255e-05
-1.08764e-05
4.5387e-05
-1.87695e-05
4.13339e-05
-2.95745e-05
3.92801e-05
-2.61291e-05
3.05889e-05
3.26889e-05
2.77877e-05
0.000124961
3.49393e-05
0.000174612
3.54795e-05
0.00012831
2.06542e-06
-0.000122652
-4.58594e-05
-0.000288089
-9.32698e-05
-0.000378783
-0.00044826
3.47949e-05
2.07373e-05
3.68484e-05
1.70778e-05
3.8624e-05
1.31126e-05
4.01366e-05
9.05127e-06
4.12179e-05
4.62674e-06
4.1803e-05
1.6586e-08
4.16128e-05
-4.72418e-06
4.04034e-05
-9.66704e-06
3.71254e-05
-1.54916e-05
2.83283e-05
-2.07774e-05
2.05646e-05
-1.83654e-05
2.15127e-05
3.17409e-05
3.03171e-05
0.000116157
5.01928e-05
0.000154734
6.4687e-05
0.000113787
2.43288e-05
-8.22954e-05
-3.40036e-06
-0.000260517
4.45711e-05
-0.000425926
-0.000442681
3.18171e-05
1.86986e-05
3.36433e-05
1.52517e-05
3.52375e-05
1.15184e-05
3.65821e-05
7.70658e-06
3.75229e-05
3.6859e-06
3.79744e-05
-4.34939e-07
3.76469e-05
-4.39672e-06
3.61469e-05
-8.16703e-06
3.23607e-05
-1.17053e-05
2.4944e-05
-1.33607e-05
1.64084e-05
-9.82987e-06
2.18272e-05
2.6322e-05
4.20096e-05
9.59756e-05
7.33911e-05
0.000123348
0.000101809
8.53675e-05
6.91184e-05
-4.9604e-05
3.10632e-05
-0.000222489
1.9095e-05
-0.000414615
-0.000424063
2.90066e-05
1.68913e-05
3.06417e-05
1.36165e-05
3.20985e-05
1.00615e-05
3.33445e-05
6.46058e-06
3.43138e-05
2.71662e-06
3.48916e-05
-1.01278e-06
3.49294e-05
-4.43456e-06
3.40928e-05
-7.33045e-06
3.16972e-05
-9.30974e-06
2.70383e-05
-8.70183e-06
2.11624e-05
-3.95392e-06
2.86131e-05
1.88713e-05
5.88292e-05
6.57596e-05
9.44638e-05
8.77117e-05
0.000126054
5.37772e-05
0.000112339
-3.58893e-05
7.12197e-05
-0.000181371
2.46682e-05
-0.000368067
-0.000399395
2.6317e-05
1.52959e-05
2.78047e-05
1.21288e-05
2.91437e-05
8.7225e-06
3.03694e-05
5.23484e-06
3.13989e-05
1.68717e-06
3.2222e-05
-1.83596e-06
3.27991e-05
-5.01163e-06
3.30385e-05
-7.56991e-06
3.29506e-05
-9.22179e-06
3.27445e-05
-8.49578e-06
3.32184e-05
-4.42777e-06
4.21897e-05
9.89999e-06
7.18995e-05
3.60497e-05
0.000105474
5.41366e-05
0.000132726
2.65253e-05
0.00012902
-3.21833e-05
9.89003e-05
-0.000151251
4.26427e-05
-0.000311809
-0.000356753
2.37142e-05
1.3879e-05
2.50589e-05
1.0784e-05
2.63328e-05
7.4486e-06
2.75409e-05
4.02671e-06
2.86914e-05
5.3669e-07
2.97933e-05
-2.93791e-06
3.0976e-05
-6.19433e-06
3.23926e-05
-8.98652e-06
3.42396e-05
-1.10688e-05
3.70562e-05
-1.13124e-05
4.25272e-05
-9.89878e-06
5.3889e-05
-1.46181e-06
7.96524e-05
1.02863e-05
0.000105417
2.83724e-05
0.000123825
8.11662e-06
0.00012374
-3.20983e-05
9.95313e-05
-0.000127042
5.18161e-05
-0.000264094
-0.000304937
2.11699e-05
1.26353e-05
2.23859e-05
9.568e-06
2.35689e-05
6.26563e-06
2.47545e-05
2.84107e-06
2.59633e-05
-6.72189e-07
2.72907e-05
-4.2653e-06
2.88754e-05
-7.779e-06
3.09992e-05
-1.11104e-05
3.40576e-05
-1.41271e-05
3.91365e-05
-1.63913e-05
4.71992e-05
-1.79615e-05
6.06966e-05
-1.49593e-05
8.28141e-05
-1.18313e-05
0.000102161
9.02597e-06
0.000113618
-3.34078e-06
0.00011139
-2.98702e-05
9.06065e-05
-0.000106259
5.07075e-05
-0.000224195
-0.000254229
1.86455e-05
1.15615e-05
1.97261e-05
8.48741e-06
2.08009e-05
5.19082e-06
2.19253e-05
1.71665e-06
2.31395e-05
-1.88647e-06
2.45637e-05
-5.68949e-06
2.63945e-05
-9.60984e-06
2.8988e-05
-1.37039e-05
3.28223e-05
-1.79614e-05
3.91638e-05
-2.27328e-05
4.95566e-05
-2.83543e-05
6.5849e-05
-3.12517e-05
8.42911e-05
-3.02734e-05
9.6109e-05
-2.79192e-06
9.90575e-05
-6.2894e-06
9.2805e-05
-2.36176e-05
7.93238e-05
-9.27776e-05
4.58171e-05
-0.000190688
-0.000208412
1.61338e-05
1.06563e-05
1.70527e-05
7.56852e-06
1.79881e-05
4.25538e-06
1.89724e-05
7.32389e-07
2.0078e-05
-2.99215e-06
2.13779e-05
-6.98937e-06
2.3039e-05
-1.12709e-05
2.53161e-05
-1.5981e-05
2.87684e-05
-2.14137e-05
3.42366e-05
-2.8201e-05
4.38091e-05
-3.79268e-05
5.74366e-05
-4.48792e-05
6.92665e-05
-4.21034e-05
7.58143e-05
-9.33969e-06
7.55374e-05
-6.01253e-06
7.29455e-05
-2.10257e-05
7.00958e-05
-8.99279e-05
4.15665e-05
-0.000162159
-0.000166846
1.36117e-05
9.92683e-06
1.43572e-05
6.82298e-06
1.51276e-05
3.485e-06
1.59367e-05
-7.67869e-08
1.6838e-05
-3.89347e-06
1.78845e-05
-8.03588e-06
1.91467e-05
-1.25331e-05
2.06699e-05
-1.75042e-05
2.25939e-05
-2.33378e-05
2.45378e-05
-3.01449e-05
2.68733e-05
-4.02622e-05
3.00667e-05
-4.80726e-05
3.53022e-05
-4.73389e-05
4.41341e-05
-1.81716e-05
4.92369e-05
-1.11154e-05
5.72319e-05
-2.90207e-05
6.13047e-05
-9.40007e-05
3.54089e-05
-0.000136263
-0.000131437
1.10761e-05
9.38321e-06
1.16288e-05
6.27027e-06
1.21942e-05
2.91963e-06
1.27854e-05
-6.67973e-07
1.34431e-05
-4.55124e-06
1.41648e-05
-8.75752e-06
1.49339e-05
-1.33022e-05
1.56834e-05
-1.82537e-05
1.62537e-05
-2.3908e-05
1.59433e-05
-2.98346e-05
1.38031e-05
-3.8122e-05
1.03606e-05
-4.46301e-05
8.45315e-06
-4.54315e-05
1.93604e-05
-2.90788e-05
3.25058e-05
-2.42609e-05
5.10664e-05
-4.75812e-05
5.11502e-05
-9.40846e-05
2.64752e-05
-0.000111588
-0.000104962
8.54023e-06
9.03357e-06
8.89361e-06
5.91689e-06
9.25889e-06
2.55434e-06
9.635e-06
-1.0441e-06
1.00579e-05
-4.9741e-06
1.0507e-05
-9.20671e-06
1.09877e-05
-1.37829e-05
1.14185e-05
-1.86844e-05
1.15985e-05
-2.4088e-05
1.11259e-05
-2.9362e-05
8.77007e-06
-3.57662e-05
4.94842e-06
-4.08085e-05
1.90825e-06
-4.23914e-05
1.21978e-05
-3.93684e-05
2.84456e-05
-4.05086e-05
3.98343e-05
-5.897e-05
3.09683e-05
-8.52186e-05
1.4675e-05
-9.52951e-05
-9.02867e-05
5.9952e-06
8.88317e-06
6.12861e-06
5.78347e-06
6.25298e-06
2.42996e-06
6.38619e-06
-1.17732e-06
6.52304e-06
-5.11095e-06
6.66517e-06
-9.34884e-06
6.81977e-06
-1.39375e-05
6.92758e-06
-1.87922e-05
6.87577e-06
-2.40362e-05
6.59201e-06
-2.90782e-05
5.44923e-06
-3.46235e-05
4.45502e-06
-3.98143e-05
3.45433e-06
-4.13907e-05
1.20376e-05
-4.79517e-05
2.14094e-05
-4.98805e-05
2.51636e-05
-6.27242e-05
1.83439e-05
-7.83989e-05
8.98833e-06
-8.59395e-05
-8.12983e-05
3.46972e-06
8.99009e-06
3.37461e-06
5.87858e-06
3.28665e-06
2.51791e-06
3.20782e-06
-1.0985e-06
3.12501e-06
-5.02814e-06
3.03702e-06
-9.26085e-06
2.89256e-06
-1.3793e-05
2.73231e-06
-1.86319e-05
2.36649e-06
-2.36704e-05
2.23749e-06
-2.89492e-05
1.97313e-06
-3.43591e-05
3.30719e-06
-4.11484e-05
4.85057e-06
-4.29341e-05
1.2211e-05
-5.53121e-05
1.93023e-05
-5.69718e-05
2.28125e-05
-6.62344e-05
1.72329e-05
-7.28194e-05
9.97693e-06
-7.86836e-05
-7.13214e-05
1.26652e-06
9.24741e-06
8.76479e-07
6.26861e-06
4.26337e-07
2.96804e-06
-5.56396e-08
-6.16524e-07
-5.45748e-07
-4.53803e-06
-1.00284e-06
-8.80375e-06
-1.35321e-06
-1.34427e-05
-1.49702e-06
-1.84881e-05
-1.36379e-06
-2.38036e-05
-1.68888e-07
-3.01441e-05
1.17256e-06
-3.57005e-05
5.76238e-06
-4.57382e-05
1.15356e-05
-4.87073e-05
1.79278e-05
-6.17044e-05
2.18393e-05
-6.08833e-05
2.24007e-05
-6.67959e-05
1.68397e-05
-6.72583e-05
9.07884e-06
-7.09227e-05
-6.22425e-05
-1.39375e-06
-1.62322e-06
-1.97283e-06
-2.35337e-06
-2.70535e-06
-2.97861e-06
-3.09944e-06
-2.89455e-06
-2.06458e-06
2.86858e-07
3.54299e-06
9.62615e-06
1.66046e-05
2.10017e-05
2.3793e-05
2.22028e-05
1.61381e-05
8.44265e-06
)
;

boundaryField
{
    leftWall
    {
        type            fixedValue;
        value           nonuniform 0();
    }
    rightWall
    {
        type            fixedValue;
        value           uniform 0;
    }
    lowerWall
    {
        type            fixedValue;
        value           nonuniform 0();
    }
    atmosphere
    {
        type            calculated;
        value           nonuniform List<scalar> 
23
(
5.88531e-06
5.51905e-06
5.12598e-06
4.7089e-06
9.32184e-06
6.49807e-06
3.31765e-06
-2.35988e-07
-4.18605e-06
-8.53048e-06
-1.33218e-05
-1.8693e-05
-2.46336e-05
-3.24955e-05
-3.89567e-05
-5.18213e-05
-5.56858e-05
-6.61015e-05
-6.36746e-05
-6.52057e-05
-6.11937e-05
-6.32272e-05
-5.37999e-05
)
;
    }
    defaultFaces
    {
        type            empty;
        value           nonuniform 0();
    }
    procBoundary3to1
    {
        type            processor;
        value           nonuniform List<scalar> 
23
(
-4.08645e-05
-3.83531e-05
-3.59329e-05
-3.28675e-05
-6.75706e-05
-5.56456e-05
-5.0293e-05
-4.87734e-05
-4.25184e-05
-3.04931e-05
-7.03224e-06
5.96193e-05
0.000121946
0.000149682
0.00016319
0.000158527
0.000144215
0.000134741
0.00013307
0.000128287
0.000128365
0.000152933
0.000178429
)
;
    }
    procBoundary3to2
    {
        type            processor;
        value           nonuniform List<scalar> 
25
(
-5.79992e-05
-5.20854e-05
-4.8997e-05
-4.53903e-05
-4.27991e-05
-3.98e-05
-3.73337e-05
-3.48911e-05
-3.26385e-05
-3.0414e-05
-2.82434e-05
-2.60942e-05
-2.39886e-05
-2.18982e-05
-1.98249e-05
-1.7767e-05
-1.57161e-05
-1.36712e-05
-1.16293e-05
-9.58905e-06
-7.56505e-06
-5.59056e-06
-3.62456e-06
-1.4941e-06
1.62814e-06
)
;
    }
}


// ************************************************************************* //
