/*--------------------------------*- C++ -*----------------------------------*\
| =========                 |                                                 |
| \\      /  F ield         | OpenFOAM: The Open Source CFD Toolbox           |
|  \\    /   O peration     | Version:  2.4.0                                 |
|   \\  /    A nd           | Web:      www.OpenFOAM.org                      |
|    \\/     M anipulation  |                                                 |
\*---------------------------------------------------------------------------*/
FoamFile
{
    version     2.0;
    format      ascii;
    class       surfaceScalarField;
    location    "0.75";
    object      phi.water;
}
// * * * * * * * * * * * * * * * * * * * * * * * * * * * * * * * * * * * * * //

dimensions      [0 3 -1 0 0 0 0];

internalField   nonuniform List<scalar> 
1102
(
6.38354e-05
3.49925e-05
6.88119e-05
3.33542e-05
7.3089e-05
3.16348e-05
2.95481e-05
7.63859e-05
5.67542e-05
3.03092e-05
6.10444e-05
2.90678e-05
6.49053e-05
2.77774e-05
2.63059e-05
6.81511e-05
5.28419e-05
2.6448e-05
5.6385e-05
2.55265e-05
5.9651e-05
2.45156e-05
2.35023e-05
6.24582e-05
4.85843e-05
2.32371e-05
5.15411e-05
2.25725e-05
5.43026e-05
2.17578e-05
2.10303e-05
5.67782e-05
4.53296e-05
2.06892e-05
4.77288e-05
2.01756e-05
5.0059e-05
1.94312e-05
1.87572e-05
5.23355e-05
4.19109e-05
1.8561e-05
4.39896e-05
1.80993e-05
4.60337e-05
1.73906e-05
1.6703e-05
4.80911e-05
3.92016e-05
1.66758e-05
4.1084e-05
1.62192e-05
4.28796e-05
1.55982e-05
1.49339e-05
4.46516e-05
3.65232e-05
1.50271e-05
3.81946e-05
1.45497e-05
3.97885e-05
1.40072e-05
1.34013e-05
4.13237e-05
3.39919e-05
1.36577e-05
3.53933e-05
1.31502e-05
3.67931e-05
1.261e-05
1.20151e-05
3.81817e-05
3.16308e-05
1.24259e-05
3.28657e-05
1.19166e-05
3.40936e-05
1.13845e-05
1.08182e-05
3.52924e-05
2.92791e-05
1.13759e-05
3.03396e-05
1.08578e-05
3.13918e-05
1.03341e-05
9.78668e-06
3.2425e-05
2.70143e-05
1.04425e-05
2.79373e-05
9.93573e-06
2.88564e-05
9.41664e-06
8.87856e-06
2.9766e-05
2.47898e-05
9.62913e-06
2.55952e-05
9.13159e-06
2.63969e-05
8.61621e-06
8.08893e-06
2.71876e-05
2.26051e-05
8.91103e-06
2.33142e-05
8.42285e-06
2.40158e-05
7.91594e-06
7.39472e-06
2.47108e-05
2.04436e-05
8.28205e-06
2.10642e-05
7.80315e-06
2.16795e-05
7.30138e-06
6.78765e-06
2.22872e-05
1.83055e-05
7.73435e-06
1.88474e-05
7.26147e-06
1.93837e-05
6.76569e-06
6.25479e-06
1.99169e-05
1.61774e-05
7.26477e-06
1.66437e-05
6.79567e-06
1.71048e-05
6.30491e-06
5.79664e-06
1.75632e-05
1.40561e-05
6.87252e-06
1.44477e-05
6.40408e-06
1.48353e-05
5.91761e-06
5.41108e-06
1.52208e-05
1.19386e-05
6.55669e-06
1.22515e-05
6.09146e-06
1.25652e-05
5.60386e-06
5.10105e-06
1.28752e-05
9.82342e-06
6.31688e-06
1.00603e-05
5.8545e-06
1.02933e-05
5.37074e-06
4.86783e-06
1.05264e-05
7.71795e-06
6.15935e-06
7.87724e-06
5.69518e-06
8.03298e-06
5.21493e-06
4.71518e-06
8.18542e-06
5.64488e-06
6.10139e-06
5.70642e-06
5.63355e-06
5.77203e-06
5.1491e-06
4.6464e-06
5.84065e-06
3.64593e-06
6.0773e-06
3.64015e-06
5.63912e-06
3.61436e-06
5.17484e-06
4.68703e-06
3.57362e-06
1.56043e-06
6.00953e-06
1.58608e-06
5.61367e-06
1.5725e-06
5.18849e-06
4.73749e-06
1.52211e-06
-1.50427e-06
-1.40986e-06
-1.34774e-06
-1.31987e-06
8.14187e-05
6.24795e-05
8.42715e-05
5.27301e-05
8.87272e-05
4.57735e-05
9.64321e-05
4.10015e-05
0.000105921
3.30024e-05
0.000112706
2.079e-05
9.83144e-05
4.16719e-06
9.80142e-05
-1.75525e-05
4.1827e-05
-5.75725e-05
-3.36588e-05
-7.20493e-05
-0.000113906
-9.99969e-05
-0.00015501
-0.000122258
-0.000168248
-0.000132604
-0.000182702
-0.000120448
-0.000202547
-0.00010705
-0.00021777
-0.00010165
-0.000210679
-0.000123471
-0.00014142
-0.000394299
-0.000535931
7.40297e-05
5.66057e-05
7.83402e-05
4.84257e-05
8.29109e-05
4.12096e-05
8.97709e-05
3.41481e-05
9.7293e-05
2.54903e-05
0.000103023
1.50171e-05
0.0001053
1.72923e-06
9.82273e-05
-1.62166e-05
6.97537e-05
-3.35259e-05
3.42155e-05
-4.50488e-05
-1.06361e-05
-5.19781e-05
-7.3906e-05
-5.74612e-05
-0.000135903
-7.30702e-05
-0.000181386
-8.77744e-05
-0.000205004
-8.94519e-05
-0.000215223
-0.00010045
-0.000152138
-0.000245307
-4.21622e-05
-0.00058523
-0.000543709
6.8174e-05
5.0895e-05
7.26721e-05
4.39337e-05
7.72576e-05
3.66318e-05
8.23799e-05
2.90342e-05
8.64417e-05
2.14385e-05
9.03025e-05
1.11652e-05
9.134e-05
6.8923e-07
8.65408e-05
-1.12591e-05
7.60578e-05
-2.29622e-05
6.26544e-05
-3.1245e-05
3.99742e-05
-2.67789e-05
7.4095e-06
-1.14409e-05
-6.18485e-05
4.61058e-06
-0.000132837
-2.00896e-05
-0.000164334
-5.87692e-05
-0.000138119
-0.000164871
-4.24544e-05
-0.000419398
1.23129e-05
-0.000494886
-0.000436131
6.20766e-05
4.56016e-05
6.68135e-05
3.92028e-05
7.12468e-05
3.22059e-05
7.5313e-05
2.49765e-05
7.83994e-05
1.83614e-05
8.11154e-05
8.45902e-06
8.00863e-05
1.7299e-06
7.84157e-05
-9.57763e-06
6.97935e-05
-1.43255e-05
5.88819e-05
-2.0295e-05
5.01462e-05
-1.797e-05
4.34565e-05
-4.87247e-06
1.7272e-05
3.22406e-05
-4.35744e-05
4.08367e-05
-7.58894e-05
-4.226e-05
-3.81468e-05
-0.000270721
-4.60393e-07
-0.000404249
5.09251e-06
-0.00040394
-0.00039388
5.7197e-05
4.07447e-05
6.16356e-05
3.477e-05
6.561e-05
2.82382e-05
6.88244e-05
2.17701e-05
7.14188e-05
1.57753e-05
7.27098e-05
7.17677e-06
7.42175e-05
2.30873e-07
7.17661e-05
-7.11788e-06
6.76678e-05
-1.02183e-05
6.50154e-05
-1.7633e-05
5.98281e-05
-1.27563e-05
5.1751e-05
3.27297e-06
3.64321e-05
4.76483e-05
-7.85423e-06
8.40038e-05
-4.28905e-05
-3.77836e-05
-1.68073e-05
-0.000288318
-6.60717e-06
-0.000373024
2.61805e-06
-0.000378874
-0.000389483
5.26272e-05
3.6213e-05
5.67321e-05
3.06703e-05
6.01727e-05
2.48036e-05
6.28635e-05
1.9086e-05
6.54954e-05
1.31504e-05
6.66383e-05
6.04091e-06
6.79854e-05
-1.10943e-06
6.76068e-05
-6.73308e-06
6.72426e-05
-9.84752e-06
6.80964e-05
-1.84816e-05
6.7835e-05
-1.24954e-05
6.36319e-05
7.46996e-06
4.64909e-05
6.47737e-05
1.26245e-05
0.00011247
-2.64519e-05
-3.50777e-05
-1.53293e-05
-0.000289817
-1.02309e-05
-0.000368303
2.22457e-06
-0.000383124
-0.000388947
4.8608e-05
3.22604e-05
5.21315e-05
2.71512e-05
5.51061e-05
2.18343e-05
5.75791e-05
1.66186e-05
6.00718e-05
1.06634e-05
6.15709e-05
4.54739e-06
6.29114e-05
-2.44484e-06
6.40423e-05
-7.85935e-06
6.63036e-05
-1.21034e-05
6.97621e-05
-2.19374e-05
7.27496e-05
-1.5488e-05
6.9483e-05
1.07206e-05
5.03249e-05
8.39041e-05
1.59326e-05
0.000139927
-2.0825e-05
-2.6215e-05
-1.62204e-05
-0.000288413
-1.13379e-05
-0.000420948
5.20182e-06
-0.000416893
-0.000386091
4.48031e-05
2.87844e-05
4.78483e-05
2.41098e-05
5.04777e-05
1.92092e-05
5.27507e-05
1.43501e-05
5.48379e-05
8.58064e-06
5.64166e-05
2.97278e-06
5.78904e-05
-3.91496e-06
5.94795e-05
-9.44508e-06
6.351e-05
-1.61286e-05
6.97826e-05
-2.82081e-05
7.6278e-05
-2.19914e-05
7.32944e-05
1.36839e-05
5.44463e-05
0.000102734
1.75158e-05
0.00016871
-1.23422e-05
-5.89141e-06
-1.61673e-05
-0.00031839
-1.26272e-05
-0.000481383
1.2147e-05
-0.000418921
-0.000383451
4.12716e-05
2.56973e-05
4.39267e-05
2.1458e-05
4.62341e-05
1.69053e-05
4.82722e-05
1.23155e-05
4.98548e-05
7.00128e-06
5.12767e-05
1.55362e-06
5.20946e-05
-4.73008e-06
5.36184e-05
-1.09663e-05
5.73175e-05
-1.98235e-05
6.27611e-05
-3.36506e-05
6.89879e-05
-2.82212e-05
5.87352e-05
2.39553e-05
3.93042e-05
0.000122092
1.64786e-05
0.000178918
9.66776e-06
3.61131e-05
-7.17208e-07
-0.000183456
-1.99708e-06
-0.000360986
2.73263e-05
-0.000377612
-0.000413517
3.79073e-05
2.30848e-05
4.02446e-05
1.91233e-05
4.22713e-05
1.48812e-05
4.40318e-05
1.05575e-05
4.53335e-05
5.70175e-06
4.62942e-05
5.94641e-07
4.64889e-05
-4.92295e-06
4.64122e-05
-1.08873e-05
4.53734e-05
-1.87838e-05
4.13032e-05
-2.95959e-05
3.92491e-05
-2.61636e-05
3.05673e-05
3.2648e-05
2.73973e-05
0.000124913
3.17174e-05
0.000169767
3.25954e-05
0.0001106
2.66661e-06
-0.000122931
1.15648e-05
-0.000292663
2.91752e-05
-0.000364904
-0.000765395
3.47812e-05
2.07306e-05
3.68344e-05
1.70721e-05
3.86097e-05
1.31078e-05
4.01219e-05
9.04688e-06
4.12025e-05
4.62215e-06
4.17871e-05
1.11888e-08
4.15967e-05
-4.73115e-06
4.03876e-05
-9.67604e-06
3.71076e-05
-1.55034e-05
2.82788e-05
-2.07967e-05
2.05316e-05
-1.84012e-05
2.14712e-05
3.17106e-05
2.99238e-05
0.000116118
4.95425e-05
0.000151886
6.45486e-05
0.000113307
2.43795e-05
-8.22894e-05
1.07661e-05
-0.00026496
8.42683e-05
-0.00048544
-0.000600627
3.18042e-05
1.86939e-05
3.36299e-05
1.52479e-05
3.52235e-05
1.15154e-05
3.65672e-05
7.70384e-06
3.75069e-05
3.6829e-06
3.79572e-05
-4.38752e-07
3.76292e-05
-4.40177e-06
3.61291e-05
-8.17363e-06
3.23416e-05
-1.17137e-05
2.49073e-05
-1.3373e-05
1.63725e-05
-9.85389e-06
2.17866e-05
2.6308e-05
4.17141e-05
9.59574e-05
7.28664e-05
0.000122541
0.000101739
8.5303e-05
6.8748e-05
-4.95862e-05
3.26593e-05
-0.000222709
2.11064e-05
-0.000417292
-0.000424843
2.89944e-05
1.68882e-05
3.06289e-05
1.36143e-05
3.20848e-05
1.00599e-05
3.33294e-05
6.45922e-06
3.4297e-05
2.71512e-06
3.48734e-05
-1.01486e-06
3.49104e-05
-4.43735e-06
3.40736e-05
-7.33406e-06
3.16775e-05
-9.3141e-06
2.70147e-05
-8.70734e-06
2.11242e-05
-3.96281e-06
2.85957e-05
1.88704e-05
5.87456e-05
6.5776e-05
9.43021e-05
8.76628e-05
0.000126008
5.37669e-05
0.000112331
-3.58873e-05
7.12556e-05
-0.000181351
2.46396e-05
-0.000368036
-0.00039938
2.63056e-05
1.52941e-05
2.77925e-05
1.21278e-05
2.91302e-05
8.72212e-06
3.03542e-05
5.23476e-06
3.13817e-05
1.68711e-06
3.22032e-05
-1.83612e-06
3.27794e-05
-5.01192e-06
3.30185e-05
-7.57011e-06
3.29301e-05
-9.22184e-06
3.27229e-05
-8.49576e-06
3.3195e-05
-4.42763e-06
4.21832e-05
9.90623e-06
7.18657e-05
3.60825e-05
0.000105396
5.41705e-05
0.0001327
2.65493e-05
0.000128991
-3.2171e-05
9.88981e-05
-0.000151244
4.26421e-05
-0.000311776
-0.000356734
2.37035e-05
1.38782e-05
2.50472e-05
1.0784e-05
2.63196e-05
7.44925e-06
2.75257e-05
4.02782e-06
2.86741e-05
5.38147e-07
2.97744e-05
-2.93606e-06
3.09564e-05
-6.19183e-06
3.23727e-05
-8.98319e-06
3.42192e-05
-1.10644e-05
3.70347e-05
-1.13071e-05
4.25063e-05
-9.89247e-06
5.38784e-05
-1.45201e-06
7.96321e-05
1.03091e-05
0.00010538
2.84e-05
0.000123809
8.14141e-06
0.000123706
-3.20791e-05
9.9513e-05
-0.000127019
5.18163e-05
-0.000264075
-0.000304914
2.11599e-05
1.26353e-05
2.23747e-05
9.56883e-06
2.3556e-05
6.26721e-06
2.47395e-05
2.84332e-06
2.59464e-05
-6.69191e-07
2.72724e-05
-4.26136e-06
2.88565e-05
-7.77374e-06
3.09801e-05
-1.11036e-05
3.40379e-05
-1.41188e-05
3.91157e-05
-1.63813e-05
4.71778e-05
-1.79499e-05
6.06795e-05
-1.49454e-05
8.2796e-05
-1.181e-05
0.000102138
9.04854e-06
0.000113604
-3.32072e-06
0.000111371
-2.98489e-05
9.05901e-05
-0.000106236
5.07018e-05
-0.000224177
-0.000254207
1.86362e-05
1.15621e-05
1.97155e-05
8.48893e-06
2.07886e-05
5.19323e-06
2.1911e-05
1.72003e-06
2.31234e-05
-1.88195e-06
2.45464e-05
-5.68344e-06
2.63768e-05
-9.602e-06
2.89703e-05
-1.3694e-05
3.2804e-05
-1.79495e-05
3.91443e-05
-2.27189e-05
4.95363e-05
-2.83383e-05
6.58296e-05
-3.12337e-05
8.42735e-05
-3.02529e-05
9.60894e-05
-2.76979e-06
9.90462e-05
-6.26852e-06
9.27933e-05
-2.35973e-05
7.93136e-05
-9.27514e-05
4.58139e-05
-0.000190666
-0.000208389
1.61252e-05
1.06575e-05
1.70428e-05
7.57063e-06
1.79766e-05
4.25857e-06
1.8959e-05
7.3683e-07
2.00631e-05
-2.98616e-06
2.13621e-05
-6.98143e-06
2.30229e-05
-1.12607e-05
2.53e-05
-1.59685e-05
2.87517e-05
-2.13989e-05
3.42188e-05
-2.81839e-05
4.37905e-05
-3.79074e-05
5.74185e-05
-4.48575e-05
6.92504e-05
-4.20791e-05
7.57979e-05
-9.31366e-06
7.55295e-05
-5.98979e-06
7.2933e-05
-2.10007e-05
7.00892e-05
-8.98995e-05
4.15644e-05
-0.000162133
-0.000166817
1.36039e-05
9.92831e-06
1.43482e-05
6.8256e-06
1.51171e-05
3.4889e-06
1.59246e-05
-7.13553e-08
1.68247e-05
-3.8861e-06
1.78705e-05
-8.02628e-06
1.91326e-05
-1.2521e-05
2.06556e-05
-1.74895e-05
2.2579e-05
-2.33206e-05
2.45218e-05
-3.01252e-05
2.68564e-05
-4.024e-05
3.00503e-05
-4.80477e-05
3.52877e-05
-4.73114e-05
4.41214e-05
-1.81421e-05
4.92291e-05
-1.10867e-05
5.72219e-05
-2.89881e-05
6.12988e-05
-9.39686e-05
3.54084e-05
-0.000136231
-0.000131406
1.10693e-05
9.38497e-06
1.16209e-05
6.27329e-06
1.2185e-05
2.92415e-06
1.27749e-05
-6.61647e-07
1.34316e-05
-4.54275e-06
1.41528e-05
-8.74654e-06
1.49219e-05
-1.32886e-05
1.56713e-05
-1.82373e-05
1.62408e-05
-2.38889e-05
1.59294e-05
-2.98128e-05
1.37884e-05
-3.80973e-05
1.03463e-05
-4.46024e-05
8.44039e-06
-4.54008e-05
1.93502e-05
-2.90454e-05
3.24964e-05
-2.42253e-05
5.10585e-05
-4.75438e-05
5.11456e-05
-9.40472e-05
2.64732e-05
-0.000111553
-0.000104925
8.53446e-06
9.03553e-06
8.88692e-06
5.92024e-06
9.25113e-06
2.55937e-06
9.62626e-06
-1.03705e-06
1.00484e-05
-4.9647e-06
1.04973e-05
-9.19467e-06
1.0978e-05
-1.37681e-05
1.14085e-05
-1.86667e-05
1.15879e-05
-2.40674e-05
1.11143e-05
-2.93384e-05
8.75792e-06
-3.57393e-05
4.93656e-06
-4.07781e-05
1.89763e-06
-4.23574e-05
1.21887e-05
-3.93312e-05
2.84376e-05
-4.04688e-05
3.98277e-05
-5.89287e-05
3.09622e-05
-8.51781e-05
1.46742e-05
-9.52534e-05
-9.02444e-05
5.99059e-06
8.88526e-06
6.1233e-06
5.78713e-06
6.24687e-06
2.43542e-06
6.37938e-06
-1.16971e-06
6.51575e-06
-5.1009e-06
6.65774e-06
-9.33604e-06
6.8123e-06
-1.3922e-05
6.92004e-06
-1.87736e-05
6.86758e-06
-2.40148e-05
6.58316e-06
-2.90535e-05
5.4399e-06
-3.45954e-05
4.44611e-06
-3.97824e-05
3.44629e-06
-4.13554e-05
1.20305e-05
-4.7913e-05
2.14029e-05
-4.98393e-05
2.51568e-05
-6.26813e-05
1.83388e-05
-7.83547e-05
8.98786e-06
-8.58934e-05
-8.12532e-05
3.46639e-06
8.9924e-06
3.37077e-06
5.88252e-06
3.28231e-06
2.52374e-06
3.203e-06
-1.09053e-06
3.11999e-06
-5.0177e-06
3.03185e-06
-9.24789e-06
2.88756e-06
-1.37773e-05
2.72707e-06
-1.86137e-05
2.361e-06
-2.36492e-05
2.23133e-06
-2.89253e-05
1.96691e-06
-3.43318e-05
3.30106e-06
-4.11179e-05
4.8452e-06
-4.29003e-05
1.22061e-05
-5.52755e-05
1.92973e-05
-5.69326e-05
2.2807e-05
-6.61931e-05
1.72295e-05
-7.27752e-05
9.97584e-06
-7.86387e-05
-7.12766e-05
1.26451e-06
9.24997e-06
8.742e-07
6.27281e-06
4.23741e-07
2.97409e-06
-5.84293e-08
-6.08336e-07
-5.48713e-07
-4.52757e-06
-1.00572e-06
-8.79083e-06
-1.35613e-06
-1.34274e-05
-1.49992e-06
-1.84704e-05
-1.36703e-06
-2.37836e-05
-1.72327e-07
-3.01214e-05
1.16891e-06
-3.56751e-05
5.75899e-06
-4.57098e-05
1.15324e-05
-4.86763e-05
1.7925e-05
-6.16709e-05
2.18361e-05
-6.08474e-05
2.23978e-05
-6.67573e-05
1.68368e-05
-6.72178e-05
9.07778e-06
-7.08798e-05
-6.21988e-05
-1.39441e-06
-1.62398e-06
-1.97368e-06
-2.35429e-06
-2.70631e-06
-2.97957e-06
-3.1004e-06
-2.89557e-06
-2.0657e-06
2.85617e-07
3.54165e-06
9.62487e-06
1.66034e-05
2.10006e-05
2.37919e-05
2.22016e-05
1.61371e-05
8.44233e-06
)
;

boundaryField
{
    leftWall
    {
        type            fixedValue;
        value           nonuniform 0();
    }
    rightWall
    {
        type            fixedValue;
        value           uniform 0;
    }
    lowerWall
    {
        type            fixedValue;
        value           nonuniform 0();
    }
    atmosphere
    {
        type            calculated;
        value           nonuniform List<scalar> 
23
(
5.88542e-06
5.51935e-06
5.1265e-06
4.70964e-06
9.32452e-06
6.50236e-06
3.32379e-06
-2.27768e-07
-4.17557e-06
-8.51769e-06
-1.33067e-05
-1.86756e-05
-2.46139e-05
-3.24734e-05
-3.89319e-05
-5.1794e-05
-5.56558e-05
-6.60694e-05
-6.36401e-05
-6.51688e-05
-6.11539e-05
-6.3185e-05
-5.37565e-05
)
;
    }
    defaultFaces
    {
        type            empty;
        value           nonuniform 0();
    }
    procBoundary3to1
    {
        type            processor;
        value           nonuniform List<scalar> 
23
(
-4.08402e-05
-3.83282e-05
-3.5907e-05
-3.28409e-05
-6.75037e-05
-5.55735e-05
-5.02173e-05
-4.86983e-05
-4.24531e-05
-2.81204e-05
3.72301e-05
0.00010505
0.000153823
0.00016774
0.000171282
0.000187972
0.000190432
0.000164287
0.000159901
0.00015232
0.000144914
0.0001554
0.00018296
)
;
    }
    procBoundary3to2
    {
        type            processor;
        value           nonuniform List<scalar> 
25
(
-5.79839e-05
-5.20679e-05
-4.89785e-05
-4.53706e-05
-4.27792e-05
-3.97801e-05
-3.73142e-05
-3.48723e-05
-3.26206e-05
-3.03972e-05
-2.82277e-05
-2.60797e-05
-2.39753e-05
-2.18861e-05
-1.98139e-05
-1.77572e-05
-1.57074e-05
-1.36637e-05
-1.16228e-05
-9.58359e-06
-7.56066e-06
-5.58712e-06
-3.62217e-06
-1.49261e-06
1.62876e-06
)
;
    }
}


// ************************************************************************* //
