/*--------------------------------*- C++ -*----------------------------------*\
| =========                 |                                                 |
| \\      /  F ield         | OpenFOAM: The Open Source CFD Toolbox           |
|  \\    /   O peration     | Version:  2.4.0                                 |
|   \\  /    A nd           | Web:      www.OpenFOAM.org                      |
|    \\/     M anipulation  |                                                 |
\*---------------------------------------------------------------------------*/
FoamFile
{
    version     2.0;
    format      ascii;
    class       surfaceScalarField;
    location    "0.75";
    object      phi.mercury;
}
// * * * * * * * * * * * * * * * * * * * * * * * * * * * * * * * * * * * * * //

dimensions      [0 3 -1 0 0 0 0];

internalField   nonuniform List<scalar> 
1102
(
6.38354e-05
3.49925e-05
6.88119e-05
3.33542e-05
7.30889e-05
3.16348e-05
2.95481e-05
7.63861e-05
5.67542e-05
3.03092e-05
6.10444e-05
2.90678e-05
6.49052e-05
2.77774e-05
2.6306e-05
6.81513e-05
5.28419e-05
2.6448e-05
5.6385e-05
2.55265e-05
5.9651e-05
2.45156e-05
2.35023e-05
6.24583e-05
4.85843e-05
2.32371e-05
5.15411e-05
2.25725e-05
5.43026e-05
2.17578e-05
2.10303e-05
5.67782e-05
4.53296e-05
2.06892e-05
4.77288e-05
2.01756e-05
5.0059e-05
1.94312e-05
1.87572e-05
5.23355e-05
4.19109e-05
1.8561e-05
4.39896e-05
1.80993e-05
4.60337e-05
1.73906e-05
1.6703e-05
4.80911e-05
3.92016e-05
1.66758e-05
4.1084e-05
1.62192e-05
4.28796e-05
1.55982e-05
1.49339e-05
4.46516e-05
3.65232e-05
1.50271e-05
3.81946e-05
1.45497e-05
3.97885e-05
1.40072e-05
1.34013e-05
4.13237e-05
3.39919e-05
1.36577e-05
3.53933e-05
1.31502e-05
3.67931e-05
1.261e-05
1.20151e-05
3.81817e-05
3.16308e-05
1.24259e-05
3.28657e-05
1.19166e-05
3.40936e-05
1.13845e-05
1.08182e-05
3.52924e-05
2.92791e-05
1.13759e-05
3.03396e-05
1.08578e-05
3.13918e-05
1.03341e-05
9.78668e-06
3.2425e-05
2.70143e-05
1.04425e-05
2.79373e-05
9.93573e-06
2.88564e-05
9.41664e-06
8.87856e-06
2.9766e-05
2.47898e-05
9.62913e-06
2.55952e-05
9.13159e-06
2.63969e-05
8.61621e-06
8.08893e-06
2.71876e-05
2.26051e-05
8.91103e-06
2.33142e-05
8.42285e-06
2.40158e-05
7.91594e-06
7.39472e-06
2.47108e-05
2.04436e-05
8.28205e-06
2.10642e-05
7.80315e-06
2.16795e-05
7.30138e-06
6.78765e-06
2.22872e-05
1.83055e-05
7.73435e-06
1.88474e-05
7.26147e-06
1.93837e-05
6.76569e-06
6.25479e-06
1.99169e-05
1.61774e-05
7.26477e-06
1.66437e-05
6.79567e-06
1.71048e-05
6.30491e-06
5.79664e-06
1.75632e-05
1.40561e-05
6.87252e-06
1.44477e-05
6.40408e-06
1.48353e-05
5.91761e-06
5.41108e-06
1.52208e-05
1.19386e-05
6.55669e-06
1.22515e-05
6.09146e-06
1.25652e-05
5.60386e-06
5.10105e-06
1.28752e-05
9.82342e-06
6.31688e-06
1.00603e-05
5.8545e-06
1.02933e-05
5.37074e-06
4.86783e-06
1.05264e-05
7.71795e-06
6.15935e-06
7.87724e-06
5.69518e-06
8.03298e-06
5.21493e-06
4.71518e-06
8.18542e-06
5.64488e-06
6.10139e-06
5.70642e-06
5.63355e-06
5.77203e-06
5.1491e-06
4.6464e-06
5.84065e-06
3.64593e-06
6.0773e-06
3.64015e-06
5.63912e-06
3.61436e-06
5.17484e-06
4.68703e-06
3.57362e-06
1.56043e-06
6.00953e-06
1.58608e-06
5.61367e-06
1.5725e-06
5.18849e-06
4.73749e-06
1.52211e-06
-1.50427e-06
-1.40986e-06
-1.34774e-06
-1.31987e-06
8.14193e-05
6.24797e-05
8.42715e-05
5.27308e-05
8.87292e-05
4.57744e-05
9.64331e-05
4.10063e-05
0.000105885
3.30081e-05
0.000115587
2.07432e-05
0.000118426
3.98527e-06
7.69057e-05
-2.31971e-05
2.44274e-05
-6.16159e-05
-5.39733e-05
-7.38658e-05
-0.000124468
-0.000102676
-0.000144832
-0.000138829
-0.000117518
-0.000159071
-9.8266e-05
-0.000167508
-0.000105675
-0.000159613
-0.000127411
-0.000159843
-0.000133727
-0.000188266
-0.000122136
-0.000311749
-0.000508505
7.403e-05
5.66058e-05
7.8341e-05
4.84257e-05
8.29129e-05
4.12099e-05
8.9774e-05
3.41492e-05
9.72984e-05
2.54914e-05
0.000103023
1.50154e-05
0.000105304
1.71066e-06
9.81627e-05
-1.60874e-05
7.08911e-05
-3.34388e-05
3.2306e-05
-4.46279e-05
-1.56592e-05
-5.20225e-05
-8.35181e-05
-6.47799e-05
-0.000144037
-8.15789e-05
-0.000171887
-8.17747e-05
-0.000185751
-8.72336e-05
-0.000197183
-0.000100988
-0.000164553
-0.000246647
-4.2331e-05
-0.000585614
-0.000543758
6.81742e-05
5.08951e-05
7.26724e-05
4.39337e-05
7.72588e-05
3.66319e-05
8.23811e-05
2.90345e-05
8.64469e-05
2.14384e-05
9.03065e-05
1.11641e-05
9.13479e-05
6.75917e-07
8.65532e-05
-1.12746e-05
7.60845e-05
-2.29966e-05
6.2725e-05
-3.12513e-05
3.9179e-05
-2.69058e-05
6.23617e-06
-1.18305e-05
-6.23656e-05
3.47355e-06
-0.000131767
-2.28695e-05
-0.00016308
-6.00766e-05
-0.000145428
-0.000164355
-4.34493e-05
-0.000420384
1.23109e-05
-0.000494895
-0.000436131
6.20766e-05
4.56016e-05
6.68136e-05
3.92028e-05
7.12472e-05
3.22059e-05
7.53134e-05
2.49765e-05
7.84015e-05
1.83609e-05
8.11163e-05
8.45727e-06
8.0089e-05
1.72561e-06
7.84183e-05
-9.59667e-06
6.97605e-05
-1.43696e-05
5.88519e-05
-2.03935e-05
5.01817e-05
-1.81601e-05
4.35245e-05
-5.16706e-06
1.67313e-05
3.19141e-05
-4.39886e-05
4.05046e-05
-7.73216e-05
-4.23845e-05
-4.08456e-05
-0.00027188
-4.48871e-07
-0.00040459
5.09214e-06
-0.000403942
-0.00039388
5.7197e-05
4.07447e-05
6.16357e-05
3.477e-05
6.56102e-05
2.82382e-05
6.88245e-05
2.177e-05
7.14194e-05
1.57751e-05
7.27094e-05
7.17588e-06
7.42218e-05
2.28371e-07
7.17549e-05
-7.12735e-06
6.76616e-05
-1.02474e-05
6.49802e-05
-1.77295e-05
5.97649e-05
-1.3031e-05
5.17814e-05
2.75543e-06
3.61527e-05
4.70471e-05
-8.13793e-06
8.31539e-05
-4.43331e-05
-3.82747e-05
-1.75163e-05
-0.000288577
-6.60635e-06
-0.000373023
2.61798e-06
-0.000378874
-0.000389483
5.26272e-05
3.6213e-05
5.67321e-05
3.06703e-05
6.01727e-05
2.48036e-05
6.28636e-05
1.9086e-05
6.54957e-05
1.31503e-05
6.66378e-05
6.04051e-06
6.79888e-05
-1.11081e-06
6.7598e-05
-6.73881e-06
6.72479e-05
-9.87146e-06
6.80333e-05
-1.85929e-05
6.7686e-05
-1.28526e-05
6.36024e-05
6.80494e-06
4.63286e-05
6.41513e-05
1.33441e-05
0.000111614
-2.66599e-05
-3.51213e-05
-1.55006e-05
-0.000289748
-1.0231e-05
-0.000368303
2.22455e-06
-0.000383125
-0.000388947
4.8608e-05
3.22604e-05
5.21315e-05
2.71512e-05
5.51061e-05
2.18343e-05
5.75791e-05
1.66185e-05
6.0072e-05
1.06634e-05
6.15706e-05
4.54724e-06
6.29142e-05
-2.44551e-06
6.40348e-05
-7.86307e-06
6.63259e-05
-1.21254e-05
6.96478e-05
-2.209e-05
7.25294e-05
-1.60234e-05
6.91933e-05
9.80162e-06
5.02671e-05
8.27728e-05
1.75744e-05
0.000138912
-2.1025e-05
-2.62636e-05
-1.62356e-05
-0.00028832
-1.13379e-05
-0.000420949
5.20176e-06
-0.000416894
-0.000386091
4.48031e-05
2.87844e-05
4.78483e-05
2.41098e-05
5.04777e-05
1.92092e-05
5.27507e-05
1.43501e-05
5.48379e-05
8.58063e-06
5.64165e-05
2.97273e-06
5.78922e-05
-3.91526e-06
5.94733e-05
-9.44737e-06
6.35534e-05
-1.61489e-05
6.95186e-05
-2.84045e-05
7.59174e-05
-2.27582e-05
7.28688e-05
1.23393e-05
5.42495e-05
0.00010153
2.03079e-05
0.000167634
-1.22552e-05
-6.15026e-06
-1.6169e-05
-0.000318453
-1.26272e-05
-0.000481387
1.21469e-05
-0.000418921
-0.000383451
4.12716e-05
2.56973e-05
4.39267e-05
2.1458e-05
4.62341e-05
1.69053e-05
4.82722e-05
1.23155e-05
4.98548e-05
7.00128e-06
5.12767e-05
1.5536e-06
5.20949e-05
-4.73021e-06
5.36187e-05
-1.09676e-05
5.7309e-05
-1.98416e-05
6.20752e-05
-3.38284e-05
6.79777e-05
-2.88039e-05
5.82577e-05
2.32667e-05
3.92086e-05
0.000120986
1.81328e-05
0.000178396
9.57931e-06
3.70989e-05
-7.23575e-07
-0.000183632
-1.99628e-06
-0.000360999
2.73261e-05
-0.000377612
-0.000413518
3.79073e-05
2.30848e-05
4.02446e-05
1.91233e-05
4.22713e-05
1.48812e-05
4.40318e-05
1.05575e-05
4.53335e-05
5.70175e-06
4.62942e-05
5.94638e-07
4.6489e-05
-4.92299e-06
4.64076e-05
-1.08881e-05
4.51904e-05
-1.87995e-05
3.97056e-05
-2.9771e-05
3.80768e-05
-2.67252e-05
2.98955e-05
3.21024e-05
2.68271e-05
0.000124252
3.14117e-05
0.000169489
3.24678e-05
0.000110767
2.74339e-06
-0.000122624
1.15649e-05
-0.000292652
2.91752e-05
-0.000364926
-0.000765396
3.47812e-05
2.07306e-05
3.68344e-05
1.70721e-05
3.86097e-05
1.31078e-05
4.01219e-05
9.04688e-06
4.12025e-05
4.62215e-06
4.17871e-05
1.11882e-08
4.15966e-05
-4.73117e-06
4.03823e-05
-9.67643e-06
3.69112e-05
-1.55132e-05
2.62979e-05
-2.09897e-05
1.96119e-05
-1.90285e-05
2.04459e-05
3.13525e-05
2.87625e-05
0.000115554
4.77078e-05
0.000151151
6.44866e-05
0.000113109
2.45885e-05
-8.19272e-05
1.07729e-05
-0.00026496
8.4264e-05
-0.000485494
-0.000600665
3.18042e-05
1.86939e-05
3.36299e-05
1.52479e-05
3.52235e-05
1.15154e-05
3.65672e-05
7.70384e-06
3.75069e-05
3.6829e-06
3.79572e-05
-4.38752e-07
3.76291e-05
-4.40177e-06
3.61274e-05
-8.17372e-06
3.22721e-05
-1.17166e-05
2.38592e-05
-1.34531e-05
1.54158e-05
-1.02513e-05
2.10575e-05
2.6165e-05
3.99561e-05
9.59347e-05
6.8965e-05
0.000121531
0.000101045
8.48237e-05
6.89268e-05
-4.9186e-05
3.27023e-05
-0.000222677
2.11025e-05
-0.000417334
-0.000424848
2.89944e-05
1.68882e-05
3.06289e-05
1.36143e-05
3.20848e-05
1.00599e-05
3.33294e-05
6.45922e-06
3.4297e-05
2.71512e-06
3.48734e-05
-1.01486e-06
3.49104e-05
-4.43735e-06
3.40734e-05
-7.33407e-06
3.16702e-05
-9.31435e-06
2.68424e-05
-8.71493e-06
1.99678e-05
-4.05916e-06
2.86753e-05
1.88925e-05
5.76665e-05
6.6399e-05
8.9521e-05
8.82706e-05
0.000124453
5.41614e-05
0.000112176
-3.56117e-05
7.13559e-05
-0.000181296
2.46397e-05
-0.000368002
-0.000399376
2.63056e-05
1.52941e-05
2.77925e-05
1.21278e-05
2.91302e-05
8.72212e-06
3.03542e-05
5.23476e-06
3.13817e-05
1.68711e-06
3.22032e-05
-1.83612e-06
3.27794e-05
-5.01192e-06
3.30185e-05
-7.57011e-06
3.29298e-05
-9.22185e-06
3.27194e-05
-8.49608e-06
3.292e-05
-4.42075e-06
4.24585e-05
1.01001e-05
7.14969e-05
3.70052e-05
0.000102442
5.50924e-05
0.000131663
2.72369e-05
0.000128616
-3.20163e-05
9.90014e-05
-0.000151198
4.26718e-05
-0.000311755
-0.000356729
2.37035e-05
1.38782e-05
2.50472e-05
1.0784e-05
2.63196e-05
7.44925e-06
2.75257e-05
4.02782e-06
2.86741e-05
5.38147e-07
2.97744e-05
-2.93606e-06
3.09564e-05
-6.19183e-06
3.23727e-05
-8.98319e-06
3.42192e-05
-1.10644e-05
3.70397e-05
-1.13071e-05
4.25581e-05
-9.88825e-06
5.41837e-05
-1.34104e-06
7.95406e-05
1.08819e-05
0.0001047
2.89195e-05
0.000123743
8.51003e-06
0.000123498
-3.20212e-05
9.95943e-05
-0.000126994
5.18463e-05
-0.000264073
-0.000304914
2.11599e-05
1.26353e-05
2.23747e-05
9.56883e-06
2.3556e-05
6.26721e-06
2.47395e-05
2.84332e-06
2.59464e-05
-6.69191e-07
2.72724e-05
-4.26136e-06
2.88565e-05
-7.77374e-06
3.09801e-05
-1.11036e-05
3.4038e-05
-1.41188e-05
3.91167e-05
-1.63813e-05
4.71975e-05
-1.79491e-05
6.08471e-05
-1.4911e-05
8.28207e-05
-1.15107e-05
0.000102004
9.27661e-06
0.000113639
-3.24106e-06
0.000111331
-2.98545e-05
9.06643e-05
-0.000106246
5.07182e-05
-0.000224181
-0.000254209
1.86362e-05
1.15621e-05
1.97155e-05
8.48893e-06
2.07886e-05
5.19323e-06
2.1911e-05
1.72003e-06
2.31234e-05
-1.88195e-06
2.45464e-05
-5.68344e-06
2.63768e-05
-9.602e-06
2.89703e-05
-1.3694e-05
3.2804e-05
-1.79495e-05
3.91444e-05
-2.27189e-05
4.95369e-05
-2.83384e-05
6.58468e-05
-3.12337e-05
8.42956e-05
-3.02434e-05
9.60887e-05
-2.76304e-06
9.90526e-05
-6.27614e-06
9.27949e-05
-2.36047e-05
7.93383e-05
-9.27543e-05
4.58236e-05
-0.000190669
-0.000208391
1.61252e-05
1.06575e-05
1.70428e-05
7.57063e-06
1.79766e-05
4.25857e-06
1.8959e-05
7.3683e-07
2.00631e-05
-2.98616e-06
2.13621e-05
-6.98143e-06
2.30229e-05
-1.12607e-05
2.53e-05
-1.59685e-05
2.87517e-05
-2.13989e-05
3.42188e-05
-2.81839e-05
4.37908e-05
-3.79074e-05
5.74193e-05
-4.48577e-05
6.9253e-05
-4.20798e-05
7.58019e-05
-9.31483e-06
7.55263e-05
-5.99293e-06
7.29299e-05
-2.10042e-05
7.00997e-05
-8.98994e-05
4.15699e-05
-0.000162136
-0.000166819
1.36039e-05
9.92831e-06
1.43482e-05
6.8256e-06
1.51171e-05
3.4889e-06
1.59246e-05
-7.13553e-08
1.68247e-05
-3.8861e-06
1.78705e-05
-8.02628e-06
1.91326e-05
-1.2521e-05
2.06556e-05
-1.74895e-05
2.2579e-05
-2.33206e-05
2.45219e-05
-3.01252e-05
2.68565e-05
-4.02401e-05
3.00503e-05
-4.8048e-05
3.52896e-05
-4.7312e-05
4.41288e-05
-1.81441e-05
4.92315e-05
-1.10882e-05
5.72144e-05
-2.89858e-05
6.13038e-05
-9.39681e-05
3.54109e-05
-0.000136234
-0.000131407
1.10693e-05
9.38497e-06
1.16209e-05
6.27329e-06
1.2185e-05
2.92415e-06
1.27749e-05
-6.61647e-07
1.34316e-05
-4.54275e-06
1.41528e-05
-8.74654e-06
1.49219e-05
-1.32886e-05
1.56713e-05
-1.82373e-05
1.62408e-05
-2.38889e-05
1.59294e-05
-2.98128e-05
1.37883e-05
-3.80974e-05
1.03459e-05
-4.46026e-05
8.44134e-06
-4.54014e-05
1.93539e-05
-2.90438e-05
3.24965e-05
-2.42207e-05
5.10544e-05
-4.75397e-05
5.11482e-05
-9.40483e-05
2.6474e-05
-0.000111555
-0.000104925
8.53446e-06
9.03553e-06
8.88692e-06
5.92024e-06
9.25113e-06
2.55937e-06
9.62626e-06
-1.03705e-06
1.00484e-05
-4.9647e-06
1.04973e-05
-9.19467e-06
1.0978e-05
-1.37681e-05
1.14085e-05
-1.86667e-05
1.15879e-05
-2.40674e-05
1.11143e-05
-2.93384e-05
8.75788e-06
-3.57393e-05
4.93646e-06
-4.07782e-05
1.89756e-06
-4.23577e-05
1.21885e-05
-3.93304e-05
2.84372e-05
-4.04672e-05
3.98276e-05
-5.89286e-05
3.09628e-05
-8.51784e-05
1.46743e-05
-9.52536e-05
-9.02445e-05
5.99059e-06
8.88526e-06
6.1233e-06
5.78713e-06
6.24687e-06
2.43542e-06
6.37938e-06
-1.16971e-06
6.51575e-06
-5.1009e-06
6.65774e-06
-9.33604e-06
6.8123e-06
-1.3922e-05
6.92004e-06
-1.87736e-05
6.86758e-06
-2.40148e-05
6.58316e-06
-2.90535e-05
5.43989e-06
-3.45954e-05
4.44613e-06
-3.97825e-05
3.44627e-06
-4.13554e-05
1.20304e-05
-4.7913e-05
2.14029e-05
-4.98393e-05
2.51568e-05
-6.26813e-05
1.83389e-05
-7.83548e-05
8.98787e-06
-8.58935e-05
-8.12532e-05
3.46639e-06
8.9924e-06
3.37077e-06
5.88252e-06
3.28231e-06
2.52374e-06
3.203e-06
-1.09053e-06
3.11999e-06
-5.0177e-06
3.03185e-06
-9.24789e-06
2.88756e-06
-1.37773e-05
2.72707e-06
-1.86137e-05
2.361e-06
-2.36492e-05
2.23133e-06
-2.89253e-05
1.96691e-06
-3.43318e-05
3.30107e-06
-4.11179e-05
4.8452e-06
-4.29003e-05
1.22061e-05
-5.52755e-05
1.92973e-05
-5.69326e-05
2.2807e-05
-6.61931e-05
1.72295e-05
-7.27752e-05
9.97585e-06
-7.86388e-05
-7.12766e-05
1.26451e-06
9.24997e-06
8.742e-07
6.27281e-06
4.23741e-07
2.97409e-06
-5.84293e-08
-6.08336e-07
-5.48713e-07
-4.52757e-06
-1.00572e-06
-8.79083e-06
-1.35613e-06
-1.34274e-05
-1.49992e-06
-1.84704e-05
-1.36703e-06
-2.37836e-05
-1.72327e-07
-3.01214e-05
1.16891e-06
-3.56751e-05
5.759e-06
-4.57098e-05
1.15324e-05
-4.86763e-05
1.7925e-05
-6.16709e-05
2.18361e-05
-6.08474e-05
2.23978e-05
-6.67573e-05
1.68368e-05
-6.72178e-05
9.07778e-06
-7.08798e-05
-6.21988e-05
-1.39441e-06
-1.62398e-06
-1.97368e-06
-2.35429e-06
-2.70631e-06
-2.97957e-06
-3.1004e-06
-2.89557e-06
-2.0657e-06
2.85617e-07
3.54165e-06
9.62487e-06
1.66034e-05
2.10006e-05
2.37919e-05
2.22016e-05
1.61371e-05
8.44233e-06
)
;

boundaryField
{
    leftWall
    {
        type            fixedValue;
        value           nonuniform 0();
    }
    rightWall
    {
        type            fixedValue;
        value           uniform 0;
    }
    lowerWall
    {
        type            fixedValue;
        value           nonuniform 0();
    }
    atmosphere
    {
        type            calculated;
        value           nonuniform List<scalar> 
23
(
5.88542e-06
5.51935e-06
5.1265e-06
4.70964e-06
9.32452e-06
6.50236e-06
3.32379e-06
-2.27768e-07
-4.17557e-06
-8.51769e-06
-1.33067e-05
-1.86756e-05
-2.46139e-05
-3.24734e-05
-3.89319e-05
-5.1794e-05
-5.56558e-05
-6.60694e-05
-6.36401e-05
-6.51688e-05
-6.11539e-05
-6.3185e-05
-5.37565e-05
)
;
    }
    defaultFaces
    {
        type            empty;
        value           nonuniform 0();
    }
    procBoundary3to1
    {
        type            processor;
        value           nonuniform List<scalar> 
23
(
-4.08399e-05
-3.83279e-05
-3.59069e-05
-3.28408e-05
-6.75037e-05
-5.55723e-05
-5.02189e-05
-4.86998e-05
-4.2445e-05
-3.0419e-05
-3.33879e-06
7.18205e-05
0.000116874
0.000136031
0.000153462
0.000182947
0.000200497
0.000223923
0.000242458
0.000238448
0.000276672
0.000294571
0.000201575
)
;
    }
    procBoundary3to2
    {
        type            processor;
        value           nonuniform List<scalar> 
25
(
-5.79839e-05
-5.20679e-05
-4.89785e-05
-4.53706e-05
-4.27792e-05
-3.97801e-05
-3.73142e-05
-3.48723e-05
-3.26206e-05
-3.03972e-05
-2.82277e-05
-2.60797e-05
-2.39753e-05
-2.18861e-05
-1.98139e-05
-1.77572e-05
-1.57074e-05
-1.36637e-05
-1.16228e-05
-9.58359e-06
-7.56066e-06
-5.58712e-06
-3.62217e-06
-1.49261e-06
1.62876e-06
)
;
    }
}


// ************************************************************************* //
