/*--------------------------------*- C++ -*----------------------------------*\
| =========                 |                                                 |
| \\      /  F ield         | OpenFOAM: The Open Source CFD Toolbox           |
|  \\    /   O peration     | Version:  2.4.0                                 |
|   \\  /    A nd           | Web:      www.OpenFOAM.org                      |
|    \\/     M anipulation  |                                                 |
\*---------------------------------------------------------------------------*/
FoamFile
{
    version     2.0;
    format      ascii;
    class       volScalarField;
    location    "0.75";
    object      rho;
}
// * * * * * * * * * * * * * * * * * * * * * * * * * * * * * * * * * * * * * //

dimensions      [1 -3 0 0 0 0 0];

internalField   nonuniform List<scalar> 
575
(
1
1
1
1
1
0.999999
1
1
1
1
1
0.999999
1
1
1
0.999999
1
1
1
0.999999
1
1
1
0.999999
0.999999
0.999999
0.999999
0.999999
0.999999
0.999999
0.999999
0.999998
0.999998
0.999998
0.999998
0.999998
0.999998
0.999998
0.999997
0.999997
0.999997
0.999997
0.999997
0.999996
0.999997
0.999997
0.999996
0.999996
0.999997
0.999997
0.999996
0.999996
0.999997
0.999997
0.999996
0.999996
0.999997
0.999996
0.999996
0.999995
0.999997
0.999997
0.999996
0.999996
0.999997
0.999997
0.999996
0.999996
0.999998
0.999997
0.999996
0.999996
0.999998
0.999997
0.999997
0.999997
0.999998
0.999997
0.999997
0.999997
0.999998
0.999998
0.999997
0.999998
0.999998
0.999998
0.999998
0.999998
0.999998
0.999998
0.999998
0.999998
0.999998
0.999998
0.999998
0.999998
0.999998
0.999998
0.999998
0.999999
1
1.00001
1.00002
1.00005
1.00006
1.00022
1.00035
1.00145
1.00151
1.00152
1.00154
1.00214
1.00377
1.00763
1.02768
1.03594
1.01767
1.01096
1.01782
1
1
1.00001
1.00002
1.00004
1.00007
1.0001
1.00009
1.00008
1.00035
1.00095
1.00202
1.00299
1.00253
1.00166
1.00125
1.00269
1.36823
5.48836
0.999999
0.999999
1
1.00001
1.00002
1.00003
1.00004
1.00007
1.0001
1.00018
1.00044
1.00086
1.00117
1.0011
1.00111
1.00443
1.33104
13.3796
96.5499
0.999998
0.999998
0.999998
1
1
1.00001
1.00001
1.00002
1.00004
1.00011
1.00023
1.00044
1.00077
1.00118
1.01974
1.75838
10.2628
120.582
368.474
0.999998
0.999998
0.999997
0.999998
0.999999
1
1
1.00001
1.00002
1.00004
1.0001
1.00025
1.00055
1.00115
1.22237
8.08253
62.395
323.84
487.322
0.999998
0.999998
0.999997
0.999997
0.999998
0.999999
1
1
1.00001
1.00004
1.00012
1.00024
1.00047
1.00091
1.60448
16.2132
119.96
388.882
492.928
0.999998
0.999998
0.999997
0.999998
0.999998
0.999999
1
1
1.00001
1.00005
1.00016
1.0003
1.0005
1.00098
1.93319
18.5333
104.511
226.93
492.927
0.999998
0.999997
0.999997
0.999998
0.999998
0.999999
1
1
1.00001
1.00007
1.00024
1.00041
1.00059
1.00172
2.14493
8.98798
11.4136
49.1098
485.566
0.999997
0.999997
0.999997
0.999998
0.999998
0.999999
1
1
1.00001
1.0001
1.00038
1.00067
1.00081
1.00905
1.89993
1.2155
1.2064
27.7127
375.141
0.999997
0.999997
0.999997
0.999998
0.999998
0.999999
1
1
1.00001
1.00013
1.00057
1.00096
1.00109
1.02903
1.09844
1.00439
1.21627
21.9013
93.099
0.999996
0.999996
0.999997
0.999998
0.999998
0.999999
1
1
1.00001
1.00011
1.00064
1.0011
1.00124
1.02902
1.00669
1.00316
1.3472
4.48585
1.81527
0.999996
0.999996
0.999997
0.999998
0.999999
0.999999
1
1
1
1.00005
1.00035
1.001
1.00125
1.02307
1.00334
1.00318
1.06306
1.03096
1.00225
0.999996
0.999996
0.999997
0.999998
0.999999
0.999999
1
1
1
1.00001
1.0001
1.00067
1.0011
1.00724
1.0038
1.0027
1.00303
1.00081
1.00079
0.999996
0.999996
0.999997
0.999998
0.999999
0.999999
1
1
1
1
1.00003
1.0003
1.00076
1.0029
1.00385
1.0025
1.00101
1.0008
1.00062
0.999996
0.999996
0.999997
0.999998
0.999999
0.999999
1
1
1
1
1.00001
1.0001
1.00038
1.00131
1.00382
1.00385
1.00124
1.00073
1.00045
0.999996
0.999997
0.999997
0.999998
0.999999
0.999999
0.999999
1
1
1.00001
1.00001
1.00004
1.00017
1.00058
1.00317
1.00385
1.00276
1.00062
1.00032
0.999997
0.999997
0.999998
0.999998
0.999999
0.999999
0.999999
1
1
1.00001
1.00003
1.00008
1.00015
1.0004
1.00248
1.0038
1.00244
1.00051
1.00019
0.999997
0.999997
0.999998
0.999999
0.999999
0.999999
1
1
1.00001
1.00002
1.00007
1.00024
1.00036
1.00051
1.00249
1.00382
1.00111
1.00039
1.0001
0.999998
0.999998
0.999998
0.999999
0.999999
0.999999
1
1
1.00001
1.00003
1.00009
1.00033
1.00054
1.00081
1.00292
1.00195
1.0006
1.00027
1.00006
0.999998
0.999998
0.999999
0.999999
0.999999
0.999999
0.999999
1
1
1.00002
1.00006
1.00026
1.00057
1.00111
1.00163
1.00075
1.0004
1.00009
1.00003
0.999998
0.999999
0.999999
0.999999
0.999999
0.999999
0.999999
1
1
1.00001
1.00003
1.00009
1.00037
1.00064
1.00064
1.00035
1.00012
1.00003
1.00001
0.999999
0.999999
0.999999
0.999999
0.999999
0.999999
0.999999
0.999999
1
1
1.00001
1.00004
1.00012
1.0002
1.00014
1.00006
1.00002
1.00001
1
0.999999
0.999999
0.999999
0.999999
0.999999
0.999999
0.999999
0.999999
1
1
1.00001
1.00002
1.00003
1.00003
1.00002
1.00001
1.00001
1.00001
1
0.999999
0.999999
0.999999
0.999999
0.999999
0.999999
0.999999
0.999999
1
1
1.00001
1.00001
1.00001
1.00001
1.00001
1
1.00001
1
1
0.999999
0.999999
0.999999
0.999999
0.999999
0.999999
0.999999
0.999999
1
1
1
1
1
1
1
1
1
1
1
)
;

boundaryField
{
    leftWall
    {
        type            calculated;
        value           nonuniform 0();
    }
    rightWall
    {
        type            calculated;
        value           nonuniform List<scalar> 
25
(
1.01782
5.48836
96.5499
368.474
487.322
492.928
492.927
485.566
375.141
93.099
1.81527
1.00225
1.00079
1.00062
1.00045
1.00032
1.00019
1.0001
1.00006
1.00003
1.00001
1
1
1
1
)
;
    }
    lowerWall
    {
        type            calculated;
        value           nonuniform 0();
    }
    atmosphere
    {
        type            calculated;
        value           nonuniform List<scalar> 
23
(
0.999998
0.999998
0.999998
0.999999
0.999999
0.999999
0.999999
1
1
1
1
1
1
1
1
1
1
1
1
1
1
1
1
)
;
    }
    defaultFaces
    {
        type            empty;
    }
    procBoundary3to1
    {
        type            processor;
        value           nonuniform List<scalar> 
23
(
1
1
1.00001
1.00001
1.00001
1.00002
1.00006
1.00009
1.00016
1.00071
1.08276
1.65383
2.27977
2.45436
1.99584
1.42172
1.35858
1.83963
4.76243
14.5062
26.2484
25.7212
29.5616
)
;
    }
    procBoundary3to2
    {
        type            processor;
        value           nonuniform List<scalar> 
25
(
1
1
0.999999
1
1
0.999999
0.999999
0.999998
0.999998
0.999997
0.999997
0.999997
0.999997
0.999998
0.999998
0.999998
0.999998
0.999999
0.999999
0.999999
0.999999
0.999999
0.999999
0.999999
0.999999
)
;
    }
}


// ************************************************************************* //
