/*--------------------------------*- C++ -*----------------------------------*\
| =========                 |                                                 |
| \\      /  F ield         | OpenFOAM: The Open Source CFD Toolbox           |
|  \\    /   O peration     | Version:  2.4.0                                 |
|   \\  /    A nd           | Web:      www.OpenFOAM.org                      |
|    \\/     M anipulation  |                                                 |
\*---------------------------------------------------------------------------*/
FoamFile
{
    version     2.0;
    format      ascii;
    class       volVectorField;
    location    "0.75";
    object      U;
}
// * * * * * * * * * * * * * * * * * * * * * * * * * * * * * * * * * * * * * //

dimensions      [0 1 -1 0 0 0 0];

internalField   nonuniform List<vector> 
575
(
(0.325981 0.429236 0)
(0.356895 0.406771 0)
(0.380455 0.383651 0)
(0.402311 0.355307 0)
(0.291341 0.369729 0)
(0.316437 0.353419 0)
(0.337886 0.336489 0)
(0.357704 0.316873 0)
(0.272716 0.322159 0)
(0.293395 0.309273 0)
(0.311546 0.296079 0)
(0.328048 0.281866 0)
(0.251642 0.283071 0)
(0.269125 0.274299 0)
(0.284126 0.264281 0)
(0.298542 0.254607 0)
(0.23617 0.249088 0)
(0.249851 0.242218 0)
(0.262329 0.233435 0)
(0.275173 0.226058 0)
(0.218977 0.224498 0)
(0.230535 0.218943 0)
(0.241257 0.210436 0)
(0.253116 0.202072 0)
(0.205123 0.201026 0)
(0.215509 0.19556 0)
(0.225132 0.18772 0)
(0.235168 0.179611 0)
(0.191585 0.180203 0)
(0.200638 0.174955 0)
(0.209086 0.168636 0)
(0.217997 0.161388 0)
(0.178671 0.163925 0)
(0.186287 0.157913 0)
(0.193608 0.151749 0)
(0.201234 0.144698 0)
(0.166473 0.148466 0)
(0.173305 0.142717 0)
(0.179493 0.136464 0)
(0.186343 0.129699 0)
(0.154356 0.135835 0)
(0.160154 0.129748 0)
(0.165694 0.123767 0)
(0.171229 0.11736 0)
(0.142514 0.124368 0)
(0.147661 0.118479 0)
(0.152452 0.112475 0)
(0.157396 0.106188 0)
(0.13089 0.114531 0)
(0.135355 0.108701 0)
(0.139615 0.102772 0)
(0.143832 0.09663 0)
(0.119433 0.105768 0)
(0.123365 0.100094 0)
(0.127106 0.0942366 0)
(0.130811 0.0881961 0)
(0.108076 0.0981031 0)
(0.111517 0.0925358 0)
(0.114832 0.0867665 0)
(0.118085 0.0808116 0)
(0.0968227 0.0913967 0)
(0.0998036 0.0859337 0)
(0.102728 0.0802371 0)
(0.105559 0.0743553 0)
(0.085614 0.0855985 0)
(0.0881513 0.0801991 0)
(0.0906916 0.0745652 0)
(0.0931276 0.0687264 0)
(0.0744324 0.0806875 0)
(0.0765458 0.0753294 0)
(0.0786931 0.0697395 0)
(0.0807435 0.063932 0)
(0.0632721 0.0766572 0)
(0.0649549 0.0713191 0)
(0.0666868 0.0657595 0)
(0.0683475 0.059972 0)
(0.0521214 0.073503 0)
(0.0533944 0.0681745 0)
(0.0546891 0.0626441 0)
(0.0559363 0.0568821 0)
(0.0410488 0.0711913 0)
(0.0418776 0.0659106 0)
(0.0427502 0.0604076 0)
(0.0435732 0.0546634 0)
(0.0301493 0.069988 0)
(0.0304715 0.064629 0)
(0.0308376 0.0591249 0)
(0.0311923 0.0534433 0)
(0.019605 0.069661 0)
(0.0196034 0.064372 0)
(0.0195196 0.0588242 0)
(0.0193175 0.0530528 0)
(0.00824069 0.0698557 0)
(0.00849759 0.0650478 0)
(0.00853824 0.0599078 0)
(0.00836853 0.0544766 0)
(-0.00840279 0.0671732 0)
(-0.00774745 0.0629919 0)
(-0.00734387 0.0585043 0)
(-0.00708795 0.0537429 0)
(0.425329 0.315951 0)
(0.445252 0.264845 0)
(0.463704 0.231882 0)
(0.495257 0.219136 0)
(0.54785 0.192008 0)
(0.589815 0.136741 0)
(0.645177 0.0286832 0)
(0.570216 -0.112119 0)
(0.323719 -0.456107 0)
(-0.0550165 -0.670718 0)
(-0.530079 -0.795886 0)
(-0.782765 -0.891773 0)
(-0.893046 -0.919623 0)
(-0.958634 -0.908229 0)
(-1.05913 -0.847751 0)
(-1.2017 -0.758061 0)
(-1.26388 -0.793668 0)
(-0.942046 -1.24779 0)
(-0.492552 -1.76014 0)
(0.383076 0.287694 0)
(0.409273 0.244284 0)
(0.432538 0.210012 0)
(0.462931 0.179159 0)
(0.496803 0.140144 0)
(0.546332 0.0865684 0)
(0.550487 0.0169946 0)
(0.552465 -0.121395 0)
(0.480398 -0.213092 0)
(0.312523 -0.255065 0)
(0.122999 -0.347131 0)
(-0.223286 -0.459159 0)
(-0.672465 -0.584312 0)
(-0.925152 -0.569684 0)
(-1.06436 -0.561157 0)
(-1.17059 -0.610095 0)
(-1.19097 -0.810329 0)
(-0.788156 -1.22254 0)
(-0.239594 -1.5336 0)
(0.350895 0.260009 0)
(0.379326 0.224319 0)
(0.399132 0.189525 0)
(0.431718 0.15395 0)
(0.447078 0.114147 0)
(0.47959 0.0618027 0)
(0.482063 -0.0071029 0)
(0.477326 -0.0513888 0)
(0.444156 -0.132271 0)
(0.376917 -0.170106 0)
(0.291533 -0.119063 0)
(0.168144 -0.0337292 0)
(-0.100766 -0.0616258 0)
(-0.646678 -0.259055 0)
(-0.849816 -0.323914 0)
(-0.965268 -0.426947 0)
(-0.778626 -0.838568 0)
(0.0207759 -1.62241 0)
(0.166916 -2.24163 0)
(0.318746 0.23371 0)
(0.346039 0.201769 0)
(0.368501 0.166786 0)
(0.396414 0.129803 0)
(0.407438 0.094726 0)
(0.432314 0.0425952 0)
(0.429066 0.0110866 0)
(0.421629 -0.0598786 0)
(0.405133 -0.0885607 0)
(0.343863 -0.113565 0)
(0.287941 -0.115598 0)
(0.261903 -0.0605701 0)
(0.224018 0.117835 0)
(-0.0347136 0.077586 0)
(-0.455006 -0.174973 0)
(-0.589738 -0.552632 0)
(0.231459 -1.32688 0)
(0.104411 -2.11806 0)
(0.10311 -2.05354 0)
(0.294127 0.209238 0)
(0.318402 0.179077 0)
(0.340582 0.145621 0)
(0.363552 0.112128 0)
(0.371575 0.082223 0)
(0.393878 0.0361775 0)
(0.383726 0.00434979 0)
(0.403189 -0.0396373 0)
(0.366237 -0.0575847 0)
(0.353841 -0.0869406 0)
(0.337408 -0.0645374 0)
(0.300292 0.00683509 0)
(0.278676 0.189612 0)
(0.14202 0.309896 0)
(-0.244059 0.0200306 0)
(-0.300861 -0.767829 0)
(0.186889 -1.79132 0)
(-0.0399269 -1.92954 0)
(0.0822251 -1.94891 0)
(0.27026 0.186618 0)
(0.292866 0.158233 0)
(0.313581 0.127989 0)
(0.332273 0.0981145 0)
(0.339942 0.0686129 0)
(0.364073 0.0307472 0)
(0.349414 -0.00291579 0)
(0.377009 -0.0330305 0)
(0.352274 -0.0467358 0)
(0.36227 -0.0900758 0)
(0.366551 -0.0622101 0)
(0.350708 0.0237211 0)
(0.329865 0.256297 0)
(0.208144 0.477483 0)
(-0.0594093 0.28875 0)
(-0.108172 -0.929834 0)
(-0.0119828 -1.80153 0)
(-0.0701741 -1.86955 0)
(0.0875983 -1.93244 0)
(0.250623 0.164917 0)
(0.269976 0.139409 0)
(0.287678 0.112163 0)
(0.304506 0.0857444 0)
(0.311666 0.0564233 0)
(0.335976 0.0248647 0)
(0.322896 -0.00917574 0)
(0.354642 -0.0362773 0)
(0.338823 -0.0537204 0)
(0.366591 -0.095672 0)
(0.382722 -0.0636055 0)
(0.387103 0.0507153 0)
(0.344501 0.366928 0)
(0.235148 0.619142 0)
(-0.0154166 0.431192 0)
(-0.101425 -0.975935 0)
(-0.0546038 -1.74986 0)
(-0.0867838 -1.88377 0)
(0.118805 -1.91812 0)
(0.231495 0.148411 0)
(0.248359 0.123757 0)
(0.263754 0.0990052 0)
(0.278861 0.074082 0)
(0.286481 0.0448511 0)
(0.305783 0.0174017 0)
(0.298739 -0.0163867 0)
(0.32933 -0.0434543 0)
(0.320214 -0.06998 0)
(0.362049 -0.125805 0)
(0.388519 -0.093859 0)
(0.413307 0.0550102 0)
(0.374048 0.427141 0)
(0.24867 0.732632 0)
(0.0510677 0.550832 0)
(-0.057277 -0.908085 0)
(0.0441095 -1.65273 0)
(-0.227597 -2.01905 0)
(0.174945 -1.89483 0)
(0.214167 0.131069 0)
(0.228441 0.110059 0)
(0.24187 0.0868207 0)
(0.255045 0.0637268 0)
(0.262835 0.0366768 0)
(0.275165 0.00997073 0)
(0.277407 -0.0228014 0)
(0.289929 -0.0507511 0)
(0.299077 -0.0912717 0)
(0.328963 -0.158788 0)
(0.348141 -0.136774 0)
(0.361428 0.059088 0)
(0.292122 0.531638 0)
(0.15753 0.857154 0)
(0.154616 0.615979 0)
(0.00731882 -0.73891 0)
(0.0825908 -1.58801 0)
(-0.58355 -1.99326 0)
(0.220856 -1.88675 0)
(0.196909 0.118401 0)
(0.209853 0.0979067 0)
(0.221331 0.076478 0)
(0.232751 0.0545646 0)
(0.240023 0.0297991 0)
(0.248497 0.00421519 0)
(0.250998 -0.0244444 0)
(0.255735 -0.0554044 0)
(0.253939 -0.0970276 0)
(0.245709 -0.160091 0)
(0.205891 -0.129051 0)
(0.193364 0.174177 0)
(0.14932 0.641543 0)
(0.163475 0.876105 0)
(0.231489 0.628856 0)
(0.0616778 -0.664302 0)
(-0.0150914 -1.48222 0)
(-0.694975 -1.81167 0)
(0.194993 -1.74471 0)
(0.180868 0.105836 0)
(0.19253 0.0875178 0)
(0.202347 0.0673748 0)
(0.212416 0.0468626 0)
(0.218787 0.0243349 0)
(0.224846 0.00099268 0)
(0.226009 -0.0241153 0)
(0.226471 -0.0508654 0)
(0.213948 -0.0837048 0)
(0.193864 -0.119114 0)
(0.112949 -0.110872 0)
(0.103121 0.173251 0)
(0.138619 0.607979 0)
(0.191748 0.826158 0)
(0.362846 0.595295 0)
(0.23939 -0.499876 0)
(0.0765823 -1.34614 0)
(-0.0993711 -1.89197 0)
(0.458506 -1.31617 0)
(0.16556 0.0955121 0)
(0.176039 0.0781028 0)
(0.184797 0.0593374 0)
(0.193684 0.0401099 0)
(0.199488 0.0197041 0)
(0.204291 -0.00110064 0)
(0.205063 -0.0219604 0)
(0.202944 -0.0426412 0)
(0.189176 -0.0642536 0)
(0.165286 -0.0784301 0)
(0.100811 -0.0627791 0)
(0.0807123 0.145452 0)
(0.169036 0.532261 0)
(0.275813 0.691449 0)
(0.520083 0.501429 0)
(0.470201 -0.28468 0)
(0.336242 -1.17682 0)
(-0.00543643 -2.03237 0)
(0.236558 -2.00927 0)
(0.150985 0.0861357 0)
(0.160559 0.0698389 0)
(0.168387 0.0520797 0)
(0.17645 0.0340412 0)
(0.182221 0.0153104 0)
(0.187012 -0.00324538 0)
(0.188937 -0.0206359 0)
(0.188452 -0.0360044 0)
(0.180077 -0.0478849 0)
(0.163356 -0.0474456 0)
(0.134085 -0.027601 0)
(0.100621 0.109043 0)
(0.226537 0.401956 0)
(0.385951 0.525976 0)
(0.64609 0.364111 0)
(0.611254 -0.162572 0)
(0.64679 -0.92816 0)
(0.135193 -1.90933 0)
(0.161993 -2.04639 0)
(0.137026 0.0779767 0)
(0.145667 0.0623393 0)
(0.152903 0.0453847 0)
(0.160384 0.0282053 0)
(0.166287 0.0106409 0)
(0.171707 -0.00659209 0)
(0.175566 -0.0220376 0)
(0.178004 -0.0343394 0)
(0.178884 -0.041629 0)
(0.177046 -0.0371013 0)
(0.181679 -0.0115916 0)
(0.186851 0.0694503 0)
(0.288493 0.243692 0)
(0.453216 0.344388 0)
(0.70584 0.191383 0)
(0.650248 -0.146717 0)
(0.750305 -0.765765 0)
(0.352259 -1.59449 0)
(0.15096 -1.8522 0)
(0.123501 0.0707033 0)
(0.131306 0.0555096 0)
(0.138008 0.0391362 0)
(0.14503 0.0223804 0)
(0.151198 0.00544131 0)
(0.157486 -0.0111812 0)
(0.163351 -0.0262512 0)
(0.170283 -0.0386467 0)
(0.179804 -0.0470815 0)
(0.189966 -0.0450582 0)
(0.215756 -0.0316563 0)
(0.251693 0.0201582 0)
(0.34717 0.101945 0)
(0.479406 0.193121 0)
(0.671789 0.0763714 0)
(0.615226 -0.151013 0)
(0.708558 -0.642395 0)
(0.410215 -1.33876 0)
(0.183863 -1.59074 0)
(0.110239 0.0642945 0)
(0.117204 0.0493486 0)
(0.123382 0.0332507 0)
(0.12996 0.0166222 0)
(0.136275 -0.000275904 0)
(0.143028 -0.0171904 0)
(0.150699 -0.0333175 0)
(0.16037 -0.0476065 0)
(0.174659 -0.0591679 0)
(0.193213 -0.063387 0)
(0.234455 -0.0628632 0)
(0.282316 -0.0331775 0)
(0.38016 0.00567823 0)
(0.487275 0.0955633 0)
(0.62278 0.0080828 0)
(0.570632 -0.153126 0)
(0.626299 -0.545814 0)
(0.379067 -1.15321 0)
(0.196848 -1.33775 0)
(0.0971389 0.0587046 0)
(0.103241 0.0438066 0)
(0.108787 0.027808 0)
(0.1148 0.0110419 0)
(0.120938 -0.00625026 0)
(0.127944 -0.0240803 0)
(0.136481 -0.0418398 0)
(0.147759 -0.0596142 0)
(0.165432 -0.0768554 0)
(0.189705 -0.0940558 0)
(0.238125 -0.109777 0)
(0.301556 -0.111493 0)
(0.397271 -0.119773 0)
(0.491238 -0.00173977 0)
(0.55289 -0.040457 0)
(0.49562 -0.137626 0)
(0.516782 -0.465971 0)
(0.340549 -0.988311 0)
(0.179523 -1.10797 0)
(0.0840836 0.053924 0)
(0.0892402 0.0389742 0)
(0.0940597 0.0229292 0)
(0.0992622 0.00593015 0)
(0.104769 -0.0119243 0)
(0.11115 -0.0308087 0)
(0.118983 -0.0507336 0)
(0.129256 -0.0723921 0)
(0.144596 -0.0965579 0)
(0.167519 -0.126339 0)
(0.206824 -0.167987 0)
(0.264129 -0.198634 0)
(0.328791 -0.185756 0)
(0.397559 -0.0286008 0)
(0.438804 -0.0264562 0)
(0.365098 -0.102356 0)
(0.436037 -0.432641 0)
(0.30817 -0.839692 0)
(0.163718 -0.896026 0)
(0.0710332 0.0499682 0)
(0.0751926 0.0349389 0)
(0.0791495 0.0187726 0)
(0.0833931 0.00146117 0)
(0.0879336 -0.0169534 0)
(0.0931446 -0.0367582 0)
(0.099168 -0.0582055 0)
(0.106895 -0.0821341 0)
(0.116534 -0.110408 0)
(0.128455 -0.14557 0)
(0.139096 -0.197556 0)
(0.151896 -0.233679 0)
(0.15363 -0.225518 0)
(0.210946 -0.064864 0)
(0.287186 -0.0335302 0)
(0.241267 -0.109516 0)
(0.381176 -0.442116 0)
(0.260958 -0.731942 0)
(0.142812 -0.708575 0)
(0.0579479 0.0469026 0)
(0.061028 0.0317996 0)
(0.0639656 0.0155608 0)
(0.0670526 -0.00193699 0)
(0.0703853 -0.0206893 0)
(0.0740782 -0.0409861 0)
(0.0780883 -0.0630219 0)
(0.0823432 -0.0873587 0)
(0.0870814 -0.115525 0)
(0.0862984 -0.146107 0)
(0.0847953 -0.190763 0)
(0.0628976 -0.227904 0)
(0.0392114 -0.223964 0)
(0.0522279 -0.102573 0)
(0.168078 -0.0705337 0)
(0.196385 -0.170006 0)
(0.342158 -0.466058 0)
(0.194315 -0.594177 0)
(0.106586 -0.563996 0)
(0.0448772 0.0446711 0)
(0.0468596 0.0295329 0)
(0.0487484 0.0131852 0)
(0.0507032 -0.00452074 0)
(0.0528472 -0.0234725 0)
(0.0551848 -0.0439852 0)
(0.0576891 -0.0660889 0)
(0.0599313 -0.0898571 0)
(0.0632276 -0.116483 0)
(0.0590173 -0.142641 0)
(0.0598728 -0.176917 0)
(0.0313411 -0.202577 0)
(0.0162034 -0.212534 0)
(0.00679086 -0.173967 0)
(0.130258 -0.160967 0)
(0.192268 -0.282325 0)
(0.221678 -0.435408 0)
(0.0991478 -0.499875 0)
(0.067764 -0.471445 0)
(0.0318031 0.0435847 0)
(0.0325738 0.02848 0)
(0.0332597 0.0121653 0)
(0.0339352 -0.00554959 0)
(0.0346397 -0.0246117 0)
(0.0353724 -0.0452319 0)
(0.0362632 -0.0674723 0)
(0.036297 -0.0911283 0)
(0.0386834 -0.116777 0)
(0.0328911 -0.141064 0)
(0.0389792 -0.168956 0)
(0.0164784 -0.193458 0)
(0.027669 -0.203932 0)
(0.0110645 -0.22145 0)
(0.125987 -0.238371 0)
(0.111947 -0.307897 0)
(0.148665 -0.415852 0)
(0.0424458 -0.450614 0)
(0.059956 -0.429219 0)
(0.0188467 0.0430915 0)
(0.0184153 0.0280705 0)
(0.0178621 0.0117909 0)
(0.0174545 -0.0058368 0)
(0.0170315 -0.0249572 0)
(0.0165913 -0.045611 0)
(0.0161104 -0.0676575 0)
(0.0144718 -0.0912606 0)
(0.0157251 -0.115923 0)
(0.00802244 -0.141153 0)
(0.0174949 -0.167602 0)
(0.00172673 -0.19463 0)
(0.0338351 -0.201159 0)
(0.0205247 -0.24912 0)
(0.113957 -0.26135 0)
(0.100157 -0.315014 0)
(0.137929 -0.366696 0)
(0.0399277 -0.406098 0)
(0.0753465 -0.3748 0)
(0.007731 0.0447953 0)
(0.00588422 0.029619 0)
(0.00356158 0.013127 0)
(0.00103952 -0.00475843 0)
(-0.00154722 -0.0239203 0)
(-0.00413035 -0.0446434 0)
(-0.00640248 -0.0669961 0)
(-0.00840436 -0.0911003 0)
(-0.0064392 -0.116138 0)
(-0.00992241 -0.143822 0)
(0.00886632 -0.169339 0)
(0.00211665 -0.210587 0)
(0.0614004 -0.223894 0)
(0.0599067 -0.297503 0)
(0.133024 -0.295604 0)
(0.106791 -0.324482 0)
(0.133203 -0.32882 0)
(0.0408497 -0.345028 0)
(0.063585 -0.305512 0)
(-0.00710046 0.0452521 0)
(-0.00793536 0.0315401 0)
(-0.00952461 0.0160981 0)
(-0.0115322 -0.0011511 0)
(-0.0135298 -0.0203179 0)
(-0.0152086 -0.041401 0)
(-0.016307 -0.0646462 0)
(-0.0165731 -0.0906858 0)
(-0.0126746 -0.119493 0)
(-0.0117517 -0.157484 0)
(0.0155028 -0.188719 0)
(0.0187358 -0.251028 0)
(0.0885928 -0.269693 0)
(0.082571 -0.320586 0)
(0.145262 -0.30903 0)
(0.112808 -0.316937 0)
(0.131742 -0.298288 0)
(0.0347543 -0.308607 0)
(0.063004 -0.262975 0)
)
;

boundaryField
{
    leftWall
    {
        type            calculated;
        value           nonuniform 0();
    }
    rightWall
    {
        type            calculated;
        value           uniform (0 0 0);
    }
    lowerWall
    {
        type            calculated;
        value           nonuniform 0();
    }
    atmosphere
    {
        type            calculated;
        value           nonuniform List<vector> 
23
(
(-0.00840279 0.0671851 0)
(-0.00774745 0.063004 0)
(-0.00734387 0.0585168 0)
(-0.00708795 0.0537556 0)
(-0.00710046 0.0452654 0)
(-0.00793536 0.0315536 0)
(-0.00952461 0.01611 0)
(-0.0115322 -0.00114592 0)
(-0.0135298 -0.0203268 0)
(-0.0152086 -0.0414227 0)
(-0.016307 -0.0646888 0)
(-0.0165731 -0.0907703 0)
(-0.0126746 -0.119617 0)
(-0.0117517 -0.157793 0)
(0.0155028 -0.189168 0)
(0.0187358 -0.251637 0)
(0.0885928 -0.270402 0)
(0.082571 -0.320979 0)
(0.145262 -0.309194 0)
(0.112808 -0.316629 0)
(0.131742 -0.297147 0)
(0.0347543 -0.307022 0)
(0.063004 -0.261244 0)
)
;
    }
    defaultFaces
    {
        type            empty;
    }
    procBoundary3to1
    {
        type            processor;
        value           nonuniform List<vector> 
23
(
(0.377343 0.499984 0)
(0.416724 0.463036 0)
(0.44271 0.429043 0)
(0.466559 0.387496 0)
(0.48173 0.33203 0)
(0.481731 0.271251 0)
(0.486798 0.252851 0)
(0.516321 0.253199 0)
(0.555764 0.231843 0)
(0.595614 0.180698 0)
(0.544667 0.0680264 0)
(0.0272226 -0.387422 0)
(-0.418807 -0.494744 0)
(-0.756283 -0.430858 0)
(-0.860821 -0.409118 0)
(-0.849306 -0.274587 0)
(-0.833226 -0.0920766 0)
(-0.827476 0.055477 0)
(-0.849833 0.113515 0)
(-0.84335 0.121998 0)
(-0.707775 0.245218 0)
(-0.457156 0.674427 0)
(-0.288434 1.22045 0)
)
;
    }
    procBoundary3to2
    {
        type            processor;
        value           nonuniform List<vector> 
25
(
(0.270449 0.456756 0)
(0.248291 0.388176 0)
(0.23835 0.334683 0)
(0.223747 0.291585 0)
(0.21456 0.256498 0)
(0.201479 0.232051 0)
(0.190047 0.208807 0)
(0.177695 0.1901 0)
(0.167464 0.17192 0)
(0.15612 0.158219 0)
(0.145457 0.1444 0)
(0.13465 0.133233 0)
(0.12399 0.12293 0)
(0.113333 0.114057 0)
(0.102733 0.106226 0)
(0.0921926 0.0994411 0)
(0.0816515 0.0936103 0)
(0.0711321 0.0886907 0)
(0.0606185 0.0846649 0)
(0.0501078 0.0814885 0)
(0.0396661 0.0790801 0)
(0.0297391 0.078205 0)
(0.0191342 0.077441 0)
(0.00757738 0.076959 0)
(-0.0094095 0.0733333 0)
)
;
    }
}


// ************************************************************************* //
