/*--------------------------------*- C++ -*----------------------------------*\
| =========                 |                                                 |
| \\      /  F ield         | OpenFOAM: The Open Source CFD Toolbox           |
|  \\    /   O peration     | Version:  2.4.0                                 |
|   \\  /    A nd           | Web:      www.OpenFOAM.org                      |
|    \\/     M anipulation  |                                                 |
\*---------------------------------------------------------------------------*/
FoamFile
{
    version     2.0;
    format      ascii;
    class       volVectorField;
    location    "0.75";
    object      U.air;
}
// * * * * * * * * * * * * * * * * * * * * * * * * * * * * * * * * * * * * * //

dimensions      [0 1 -1 0 0 0 0];

internalField   nonuniform List<vector> 
575
(
(0.325982 0.429236 0)
(0.356896 0.406772 0)
(0.380456 0.383652 0)
(0.402312 0.355308 0)
(0.291341 0.36973 0)
(0.316437 0.35342 0)
(0.337886 0.336489 0)
(0.357704 0.316873 0)
(0.272716 0.322159 0)
(0.293395 0.309273 0)
(0.311546 0.296079 0)
(0.328049 0.281866 0)
(0.251642 0.283071 0)
(0.269125 0.274299 0)
(0.284126 0.264281 0)
(0.298542 0.254607 0)
(0.23617 0.249088 0)
(0.249851 0.242218 0)
(0.262329 0.233435 0)
(0.275173 0.226058 0)
(0.218977 0.224498 0)
(0.230535 0.218943 0)
(0.241257 0.210436 0)
(0.253117 0.202072 0)
(0.205123 0.201027 0)
(0.215509 0.19556 0)
(0.225132 0.18772 0)
(0.235168 0.179611 0)
(0.191585 0.180203 0)
(0.200639 0.174955 0)
(0.209086 0.168636 0)
(0.217998 0.161388 0)
(0.178671 0.163926 0)
(0.186287 0.157913 0)
(0.193608 0.15175 0)
(0.201235 0.144698 0)
(0.166474 0.148466 0)
(0.173306 0.142717 0)
(0.179493 0.136464 0)
(0.186344 0.1297 0)
(0.154356 0.135836 0)
(0.160154 0.129748 0)
(0.165694 0.123767 0)
(0.171229 0.11736 0)
(0.142515 0.124368 0)
(0.147661 0.118479 0)
(0.152452 0.112475 0)
(0.157396 0.106188 0)
(0.13089 0.114531 0)
(0.135355 0.108701 0)
(0.139616 0.102773 0)
(0.143833 0.0966304 0)
(0.119434 0.105768 0)
(0.123365 0.100094 0)
(0.127107 0.094237 0)
(0.130811 0.0881965 0)
(0.108076 0.0981034 0)
(0.111517 0.0925361 0)
(0.114833 0.0867668 0)
(0.118086 0.080812 0)
(0.0968229 0.091397 0)
(0.0998039 0.085934 0)
(0.102728 0.0802374 0)
(0.105559 0.0743556 0)
(0.0856143 0.0855987 0)
(0.0881516 0.0801994 0)
(0.0906919 0.0745655 0)
(0.093128 0.0687267 0)
(0.0744325 0.0806877 0)
(0.0765461 0.0753296 0)
(0.0786934 0.0697398 0)
(0.0807438 0.0639322 0)
(0.0632722 0.0766574 0)
(0.0649551 0.0713193 0)
(0.066687 0.0657597 0)
(0.0683477 0.0599722 0)
(0.0521216 0.0735031 0)
(0.0533946 0.0681746 0)
(0.0546893 0.0626443 0)
(0.0559364 0.0568822 0)
(0.0410489 0.0711914 0)
(0.0418777 0.0659108 0)
(0.0427503 0.0604078 0)
(0.0435733 0.0546636 0)
(0.0301493 0.0699882 0)
(0.0304715 0.0646292 0)
(0.0308377 0.0591251 0)
(0.0311923 0.0534434 0)
(0.019605 0.0696611 0)
(0.0196034 0.0643722 0)
(0.0195197 0.0588244 0)
(0.0193176 0.0530529 0)
(0.00824071 0.0698559 0)
(0.00849761 0.0650479 0)
(0.00853826 0.059908 0)
(0.00836854 0.0544767 0)
(-0.0084028 0.0671734 0)
(-0.00774747 0.062992 0)
(-0.00734389 0.0585044 0)
(-0.00708796 0.0537429 0)
(0.42533 0.315952 0)
(0.445253 0.264846 0)
(0.463704 0.231882 0)
(0.495257 0.219136 0)
(0.54785 0.192008 0)
(0.589815 0.136741 0)
(0.645178 0.0286833 0)
(0.570216 -0.112119 0)
(0.323719 -0.456106 0)
(-0.0550165 -0.670717 0)
(-0.530079 -0.795885 0)
(-0.782764 -0.891772 0)
(-0.893044 -0.919621 0)
(-0.958633 -0.908228 0)
(-1.05913 -0.847748 0)
(-1.2017 -0.758057 0)
(-1.26388 -0.793658 0)
(-0.942054 -1.24773 0)
(-0.492571 -1.76004 0)
(0.383076 0.287694 0)
(0.409274 0.244284 0)
(0.432539 0.210013 0)
(0.462931 0.17916 0)
(0.496804 0.140144 0)
(0.546332 0.0865685 0)
(0.550488 0.0169946 0)
(0.552465 -0.121395 0)
(0.480398 -0.213092 0)
(0.312523 -0.255065 0)
(0.122998 -0.347131 0)
(-0.223285 -0.459158 0)
(-0.672464 -0.58431 0)
(-0.92515 -0.569683 0)
(-1.06435 -0.561156 0)
(-1.17059 -0.610093 0)
(-1.19097 -0.810313 0)
(-0.788769 -1.21951 0)
(-0.243326 -1.51316 0)
(0.350895 0.26001 0)
(0.379327 0.224319 0)
(0.399133 0.189525 0)
(0.431719 0.15395 0)
(0.447079 0.114147 0)
(0.479591 0.0618028 0)
(0.482063 -0.00710291 0)
(0.477327 -0.0513889 0)
(0.444156 -0.132271 0)
(0.376917 -0.170106 0)
(0.291533 -0.119063 0)
(0.168144 -0.0337291 0)
(-0.100766 -0.0616256 0)
(-0.646677 -0.259054 0)
(-0.849815 -0.323913 0)
(-0.965269 -0.426934 0)
(-0.779024 -0.836605 0)
(0.0224017 -1.58043 0)
(0.178491 -2.16402 0)
(0.318747 0.23371 0)
(0.34604 0.201769 0)
(0.368502 0.166787 0)
(0.396415 0.129803 0)
(0.407439 0.0947263 0)
(0.432315 0.0425953 0)
(0.429066 0.0110866 0)
(0.421629 -0.0598787 0)
(0.405133 -0.0885607 0)
(0.343863 -0.113565 0)
(0.287941 -0.115598 0)
(0.261903 -0.06057 0)
(0.224018 0.117834 0)
(-0.0347135 0.077586 0)
(-0.45501 -0.174924 0)
(-0.590218 -0.549923 0)
(0.237146 -1.30525 0)
(0.15474 -2.07362 0)
(0.138434 -2.02168 0)
(0.294128 0.209238 0)
(0.318403 0.179078 0)
(0.340583 0.145622 0)
(0.363553 0.112128 0)
(0.371576 0.0822232 0)
(0.393879 0.0361775 0)
(0.383727 0.00434979 0)
(0.403189 -0.0396373 0)
(0.366237 -0.0575847 0)
(0.353841 -0.0869406 0)
(0.337408 -0.0645373 0)
(0.300292 0.00683509 0)
(0.278676 0.189611 0)
(0.14202 0.309896 0)
(-0.244062 0.0207102 0)
(-0.302946 -0.752552 0)
(0.220332 -1.76971 0)
(-0.00758586 -1.93539 0)
(0.0803708 -2.01774 0)
(0.27026 0.186618 0)
(0.292867 0.158233 0)
(0.313581 0.127989 0)
(0.332274 0.0981148 0)
(0.339943 0.0686131 0)
(0.364074 0.0307472 0)
(0.349414 -0.00291579 0)
(0.377009 -0.0330305 0)
(0.352274 -0.0467358 0)
(0.362269 -0.0900757 0)
(0.366551 -0.06221 0)
(0.350708 0.0237211 0)
(0.329864 0.256296 0)
(0.208144 0.477482 0)
(-0.0592306 0.290802 0)
(-0.107577 -0.907651 0)
(0.00292549 -1.79582 0)
(-0.0934552 -1.89429 0)
(0.0491287 -1.94985 0)
(0.250624 0.164917 0)
(0.269977 0.13941 0)
(0.287679 0.112164 0)
(0.304507 0.0857446 0)
(0.311667 0.0564234 0)
(0.335976 0.0248647 0)
(0.322896 -0.00917575 0)
(0.354642 -0.0362773 0)
(0.338823 -0.0537204 0)
(0.36659 -0.0956719 0)
(0.382722 -0.0636054 0)
(0.387103 0.0507152 0)
(0.344501 0.366928 0)
(0.235147 0.619141 0)
(-0.0150773 0.434439 0)
(-0.100716 -0.952894 0)
(-0.0512078 -1.73287 0)
(-0.106832 -1.87046 0)
(0.0846287 -1.8958 0)
(0.231496 0.148412 0)
(0.24836 0.123758 0)
(0.263754 0.0990054 0)
(0.278862 0.0740822 0)
(0.286482 0.0448512 0)
(0.305784 0.0174018 0)
(0.298739 -0.0163867 0)
(0.32933 -0.0434543 0)
(0.320214 -0.06998 0)
(0.362048 -0.125805 0)
(0.388519 -0.093859 0)
(0.413306 0.0550101 0)
(0.374048 0.42714 0)
(0.248669 0.732631 0)
(0.0515761 0.555011 0)
(-0.0561988 -0.895591 0)
(0.0472928 -1.63623 0)
(-0.247683 -2.00002 0)
(0.123038 -1.93499 0)
(0.214168 0.13107 0)
(0.228442 0.110059 0)
(0.241871 0.086821 0)
(0.255046 0.063727 0)
(0.262835 0.0366769 0)
(0.275166 0.00997074 0)
(0.277407 -0.0228014 0)
(0.289929 -0.0507511 0)
(0.299077 -0.0912717 0)
(0.328963 -0.158788 0)
(0.34814 -0.136774 0)
(0.361428 0.0590879 0)
(0.292121 0.531636 0)
(0.157532 0.857159 0)
(0.155127 0.619279 0)
(0.00741232 -0.737964 0)
(0.0826194 -1.58727 0)
(-0.622867 -1.99771 0)
(0.131285 -1.91733 0)
(0.19691 0.118401 0)
(0.209854 0.0979071 0)
(0.221332 0.0764782 0)
(0.232752 0.0545647 0)
(0.240024 0.0297992 0)
(0.248497 0.00421519 0)
(0.250998 -0.0244444 0)
(0.255735 -0.0554044 0)
(0.253939 -0.0970276 0)
(0.245709 -0.160091 0)
(0.205891 -0.129051 0)
(0.193364 0.174176 0)
(0.149319 0.641541 0)
(0.163487 0.876159 0)
(0.231548 0.629206 0)
(0.0616784 -0.664296 0)
(-0.0151878 -1.48215 0)
(-0.732829 -1.81857 0)
(0.149222 -1.649 0)
(0.180869 0.105837 0)
(0.192531 0.0875181 0)
(0.202348 0.0673751 0)
(0.212416 0.0468627 0)
(0.218787 0.0243349 0)
(0.224846 0.00099268 0)
(0.226009 -0.0241153 0)
(0.226471 -0.0508654 0)
(0.213948 -0.0837048 0)
(0.193864 -0.119114 0)
(0.112948 -0.110872 0)
(0.103121 0.173251 0)
(0.138618 0.607977 0)
(0.19176 0.826202 0)
(0.362848 0.595304 0)
(0.23939 -0.499875 0)
(0.0764991 -1.34597 0)
(-0.10148 -1.89251 0)
(0.456845 -1.30797 0)
(0.16556 0.0955125 0)
(0.17604 0.0781031 0)
(0.184798 0.0593376 0)
(0.193685 0.04011 0)
(0.199489 0.0197041 0)
(0.204291 -0.00110064 0)
(0.205063 -0.0219604 0)
(0.202944 -0.0426412 0)
(0.189176 -0.0642536 0)
(0.165286 -0.0784301 0)
(0.100811 -0.062779 0)
(0.0807122 0.145452 0)
(0.169036 0.53226 0)
(0.275821 0.69147 0)
(0.520083 0.501429 0)
(0.470201 -0.28468 0)
(0.336251 -1.17678 0)
(-0.00547098 -2.03223 0)
(0.236556 -2.00926 0)
(0.150986 0.086136 0)
(0.16056 0.0698392 0)
(0.168387 0.0520798 0)
(0.176451 0.0340413 0)
(0.182222 0.0153104 0)
(0.187012 -0.00324539 0)
(0.188937 -0.0206359 0)
(0.188453 -0.0360044 0)
(0.180078 -0.0478849 0)
(0.163356 -0.0474456 0)
(0.134085 -0.027601 0)
(0.100621 0.109043 0)
(0.226537 0.401955 0)
(0.385952 0.525978 0)
(0.646089 0.364111 0)
(0.611253 -0.162572 0)
(0.646788 -0.928157 0)
(0.135193 -1.90932 0)
(0.161992 -2.04638 0)
(0.137027 0.077977 0)
(0.145668 0.0623395 0)
(0.152903 0.0453848 0)
(0.160385 0.0282054 0)
(0.166288 0.0106409 0)
(0.171707 -0.00659209 0)
(0.175566 -0.0220376 0)
(0.178004 -0.0343394 0)
(0.178884 -0.0416291 0)
(0.177046 -0.0371013 0)
(0.181679 -0.0115916 0)
(0.186851 0.0694503 0)
(0.288493 0.243692 0)
(0.453215 0.344387 0)
(0.70584 0.191382 0)
(0.650247 -0.146717 0)
(0.750304 -0.765764 0)
(0.352259 -1.59448 0)
(0.15096 -1.8522 0)
(0.123501 0.0707036 0)
(0.131307 0.0555098 0)
(0.138008 0.0391363 0)
(0.14503 0.0223805 0)
(0.151198 0.00544132 0)
(0.157486 -0.0111812 0)
(0.163352 -0.0262512 0)
(0.170284 -0.0386467 0)
(0.179804 -0.0470815 0)
(0.189966 -0.0450582 0)
(0.215756 -0.0316563 0)
(0.251692 0.0201582 0)
(0.34717 0.101945 0)
(0.479405 0.193121 0)
(0.671789 0.0763711 0)
(0.615225 -0.151013 0)
(0.708556 -0.642394 0)
(0.410214 -1.33876 0)
(0.183863 -1.59074 0)
(0.110239 0.0642947 0)
(0.117205 0.0493487 0)
(0.123382 0.0332508 0)
(0.12996 0.0166222 0)
(0.136275 -0.000275904 0)
(0.143029 -0.0171904 0)
(0.150699 -0.0333175 0)
(0.16037 -0.0476065 0)
(0.174659 -0.0591679 0)
(0.193213 -0.0633871 0)
(0.234455 -0.0628632 0)
(0.282316 -0.0331775 0)
(0.38016 0.00567823 0)
(0.487274 0.0955632 0)
(0.622779 0.00808276 0)
(0.570631 -0.153126 0)
(0.626298 -0.545813 0)
(0.379066 -1.1532 0)
(0.196848 -1.33775 0)
(0.0971392 0.0587048 0)
(0.103241 0.0438068 0)
(0.108787 0.0278081 0)
(0.1148 0.0110419 0)
(0.120938 -0.00625026 0)
(0.127944 -0.0240803 0)
(0.136481 -0.0418398 0)
(0.147759 -0.0596143 0)
(0.165432 -0.0768554 0)
(0.189705 -0.0940559 0)
(0.238125 -0.109777 0)
(0.301556 -0.111493 0)
(0.39727 -0.119773 0)
(0.491237 -0.00173976 0)
(0.55289 -0.0404568 0)
(0.495619 -0.137626 0)
(0.516781 -0.465971 0)
(0.340549 -0.98831 0)
(0.179523 -1.10797 0)
(0.0840838 0.0539242 0)
(0.0892404 0.0389743 0)
(0.0940599 0.0229292 0)
(0.0992624 0.00593016 0)
(0.104769 -0.0119244 0)
(0.11115 -0.0308087 0)
(0.118984 -0.0507337 0)
(0.129256 -0.0723922 0)
(0.144596 -0.096558 0)
(0.167519 -0.126339 0)
(0.206824 -0.167987 0)
(0.264128 -0.198633 0)
(0.32879 -0.185756 0)
(0.397558 -0.0286008 0)
(0.438803 -0.026456 0)
(0.365097 -0.102356 0)
(0.436036 -0.43264 0)
(0.30817 -0.839691 0)
(0.163718 -0.896026 0)
(0.0710334 0.0499683 0)
(0.0751928 0.034939 0)
(0.0791496 0.0187727 0)
(0.0833932 0.00146118 0)
(0.0879337 -0.0169534 0)
(0.0931447 -0.0367582 0)
(0.0991681 -0.0582055 0)
(0.106895 -0.0821341 0)
(0.116534 -0.110408 0)
(0.128455 -0.14557 0)
(0.139096 -0.197556 0)
(0.151896 -0.233679 0)
(0.15363 -0.225517 0)
(0.210946 -0.0648639 0)
(0.287185 -0.0335299 0)
(0.241266 -0.109516 0)
(0.381175 -0.442115 0)
(0.260958 -0.731941 0)
(0.142812 -0.708575 0)
(0.057948 0.0469026 0)
(0.0610281 0.0317997 0)
(0.0639657 0.0155608 0)
(0.0670527 -0.00193699 0)
(0.0703854 -0.0206893 0)
(0.0740782 -0.0409862 0)
(0.0780883 -0.0630219 0)
(0.0823432 -0.0873588 0)
(0.0870814 -0.115526 0)
(0.0862984 -0.146107 0)
(0.0847953 -0.190763 0)
(0.0628975 -0.227904 0)
(0.0392113 -0.223963 0)
(0.0522278 -0.102573 0)
(0.168078 -0.0705335 0)
(0.196384 -0.170005 0)
(0.342158 -0.466058 0)
(0.194315 -0.594177 0)
(0.106586 -0.563996 0)
(0.0448773 0.0446712 0)
(0.0468597 0.0295329 0)
(0.0487484 0.0131852 0)
(0.0507033 -0.00452075 0)
(0.0528473 -0.0234725 0)
(0.0551848 -0.0439853 0)
(0.0576892 -0.0660889 0)
(0.0599313 -0.0898572 0)
(0.0632277 -0.116483 0)
(0.0590173 -0.142641 0)
(0.0598729 -0.176917 0)
(0.0313411 -0.202577 0)
(0.0162034 -0.212534 0)
(0.00679085 -0.173967 0)
(0.130258 -0.160967 0)
(0.192268 -0.282325 0)
(0.221678 -0.435407 0)
(0.0991478 -0.499875 0)
(0.067764 -0.471445 0)
(0.0318031 0.0435848 0)
(0.0325738 0.02848 0)
(0.0332597 0.0121654 0)
(0.0339352 -0.0055496 0)
(0.0346398 -0.0246118 0)
(0.0353725 -0.0452319 0)
(0.0362632 -0.0674723 0)
(0.036297 -0.0911284 0)
(0.0386834 -0.116777 0)
(0.0328911 -0.141064 0)
(0.0389792 -0.168956 0)
(0.0164784 -0.193458 0)
(0.027669 -0.203932 0)
(0.0110645 -0.221449 0)
(0.125987 -0.238371 0)
(0.111947 -0.307897 0)
(0.148665 -0.415852 0)
(0.0424458 -0.450614 0)
(0.059956 -0.429219 0)
(0.0188468 0.0430915 0)
(0.0184153 0.0280705 0)
(0.0178621 0.0117909 0)
(0.0174545 -0.00583681 0)
(0.0170315 -0.0249572 0)
(0.0165913 -0.045611 0)
(0.0161104 -0.0676575 0)
(0.0144719 -0.0912607 0)
(0.0157251 -0.115923 0)
(0.00802244 -0.141154 0)
(0.0174949 -0.167602 0)
(0.00172673 -0.19463 0)
(0.0338351 -0.201159 0)
(0.0205247 -0.24912 0)
(0.113957 -0.26135 0)
(0.100156 -0.315014 0)
(0.137929 -0.366696 0)
(0.0399277 -0.406098 0)
(0.0753465 -0.3748 0)
(0.00773101 0.0447954 0)
(0.00588422 0.029619 0)
(0.00356158 0.013127 0)
(0.00103952 -0.00475843 0)
(-0.00154722 -0.0239203 0)
(-0.00413035 -0.0446435 0)
(-0.00640248 -0.0669962 0)
(-0.00840437 -0.0911004 0)
(-0.0064392 -0.116138 0)
(-0.00992242 -0.143822 0)
(0.00886632 -0.16934 0)
(0.00211665 -0.210587 0)
(0.0614004 -0.223894 0)
(0.0599067 -0.297503 0)
(0.133024 -0.295604 0)
(0.106791 -0.324482 0)
(0.133203 -0.32882 0)
(0.0408497 -0.345028 0)
(0.063585 -0.305512 0)
(-0.00710047 0.0452521 0)
(-0.00793537 0.0315401 0)
(-0.00952462 0.0160981 0)
(-0.0115322 -0.0011511 0)
(-0.0135298 -0.0203179 0)
(-0.0152086 -0.041401 0)
(-0.016307 -0.0646462 0)
(-0.0165731 -0.0906859 0)
(-0.0126746 -0.119494 0)
(-0.0117517 -0.157485 0)
(0.0155028 -0.188719 0)
(0.0187358 -0.251028 0)
(0.0885928 -0.269693 0)
(0.082571 -0.320586 0)
(0.145262 -0.30903 0)
(0.112808 -0.316937 0)
(0.131742 -0.298288 0)
(0.0347543 -0.308607 0)
(0.063004 -0.262975 0)
)
;

boundaryField
{
    leftWall
    {
        type            fixedValue;
        value           nonuniform 0();
    }
    rightWall
    {
        type            fixedValue;
        value           uniform (0 0 0);
    }
    lowerWall
    {
        type            fixedValue;
        value           nonuniform 0();
    }
    atmosphere
    {
        type            fluxCorrectedVelocity;
        value           nonuniform List<vector> 
23
(
(-0.0084028 0.0671853 0)
(-0.00774747 0.0630041 0)
(-0.00734389 0.0585169 0)
(-0.00708796 0.0537557 0)
(-0.00710047 0.0452654 0)
(-0.00793537 0.0315536 0)
(-0.00952462 0.01611 0)
(-0.0115322 -0.00114592 0)
(-0.0135298 -0.0203268 0)
(-0.0152086 -0.0414227 0)
(-0.016307 -0.0646888 0)
(-0.0165731 -0.0907703 0)
(-0.0126746 -0.119617 0)
(-0.0117517 -0.157793 0)
(0.0155028 -0.189168 0)
(0.0187358 -0.251637 0)
(0.0885928 -0.270402 0)
(0.082571 -0.320979 0)
(0.145262 -0.309194 0)
(0.112808 -0.316629 0)
(0.131742 -0.297147 0)
(0.0347543 -0.307022 0)
(0.063004 -0.261244 0)
)
;
    }
    defaultFaces
    {
        type            empty;
    }
    procBoundary3to1
    {
        type            processor;
        value           nonuniform List<vector> 
23
(
(0.377344 0.499985 0)
(0.416725 0.463038 0)
(0.442711 0.429044 0)
(0.46656 0.387497 0)
(0.481731 0.332031 0)
(0.481732 0.271251 0)
(0.486798 0.252851 0)
(0.516321 0.253199 0)
(0.555764 0.231843 0)
(0.595614 0.180698 0)
(0.544729 0.0681389 0)
(0.0280843 -0.386191 0)
(-0.41708 -0.491854 0)
(-0.754879 -0.427277 0)
(-0.859988 -0.406762 0)
(-0.848904 -0.273357 0)
(-0.833012 -0.0908881 0)
(-0.827312 0.0582097 0)
(-0.850627 0.123828 0)
(-0.847762 0.146128 0)
(-0.714894 0.28311 0)
(-0.458957 0.708475 0)
(-0.287794 1.23353 0)
)
;
    }
    procBoundary3to2
    {
        type            processor;
        value           nonuniform List<vector> 
25
(
(0.27045 0.456757 0)
(0.248292 0.388176 0)
(0.23835 0.334683 0)
(0.223748 0.291585 0)
(0.214561 0.256498 0)
(0.201479 0.232051 0)
(0.190048 0.208807 0)
(0.177695 0.190101 0)
(0.167464 0.17192 0)
(0.15612 0.158219 0)
(0.145457 0.1444 0)
(0.134651 0.133233 0)
(0.123991 0.12293 0)
(0.113334 0.114058 0)
(0.102733 0.106226 0)
(0.0921928 0.0994413 0)
(0.0816516 0.0936105 0)
(0.0711322 0.0886908 0)
(0.0606186 0.084665 0)
(0.0501079 0.0814886 0)
(0.0396661 0.0790802 0)
(0.0297392 0.078205 0)
(0.0191342 0.077441 0)
(0.00757738 0.0769591 0)
(-0.00940951 0.0733333 0)
)
;
    }
}


// ************************************************************************* //
