/*--------------------------------*- C++ -*----------------------------------*\
| =========                 |                                                 |
| \\      /  F ield         | OpenFOAM: The Open Source CFD Toolbox           |
|  \\    /   O peration     | Version:  2.4.0                                 |
|   \\  /    A nd           | Web:      www.OpenFOAM.org                      |
|    \\/     M anipulation  |                                                 |
\*---------------------------------------------------------------------------*/
FoamFile
{
    version     2.0;
    format      ascii;
    class       volVectorField;
    location    "0.75";
    object      U.mercury;
}
// * * * * * * * * * * * * * * * * * * * * * * * * * * * * * * * * * * * * * //

dimensions      [0 1 -1 0 0 0 0];

internalField   nonuniform List<vector> 
575
(
(0.325904 0.428971 0)
(0.356819 0.4065 0)
(0.380385 0.383373 0)
(0.402245 0.355023 0)
(0.291249 0.369496 0)
(0.316348 0.353181 0)
(0.337804 0.336245 0)
(0.357625 0.316625 0)
(0.272618 0.321951 0)
(0.293296 0.309062 0)
(0.311452 0.295864 0)
(0.327961 0.28165 0)
(0.251538 0.282887 0)
(0.269023 0.274114 0)
(0.284029 0.264094 0)
(0.298449 0.25442 0)
(0.236064 0.248929 0)
(0.249746 0.242059 0)
(0.262229 0.233276 0)
(0.275079 0.2259 0)
(0.218872 0.224363 0)
(0.230432 0.218809 0)
(0.241158 0.210303 0)
(0.253023 0.201941 0)
(0.20502 0.200913 0)
(0.215408 0.195449 0)
(0.225036 0.187611 0)
(0.235077 0.179503 0)
(0.191486 0.180109 0)
(0.200542 0.174864 0)
(0.208994 0.168547 0)
(0.217911 0.161301 0)
(0.178577 0.163849 0)
(0.186195 0.157839 0)
(0.19352 0.151678 0)
(0.201152 0.144629 0)
(0.166385 0.148404 0)
(0.173219 0.142658 0)
(0.17941 0.136407 0)
(0.186266 0.129645 0)
(0.154273 0.135786 0)
(0.160074 0.129701 0)
(0.165617 0.123723 0)
(0.171156 0.117319 0)
(0.142438 0.124329 0)
(0.147586 0.118443 0)
(0.15238 0.112441 0)
(0.157328 0.106157 0)
(0.130819 0.114501 0)
(0.135287 0.108673 0)
(0.13955 0.102748 0)
(0.143769 0.096608 0)
(0.11937 0.105745 0)
(0.123302 0.100074 0)
(0.127045 0.0942192 0)
(0.130753 0.0881812 0)
(0.108018 0.0980859 0)
(0.11146 0.0925214 0)
(0.114777 0.0867548 0)
(0.118031 0.0808023 0)
(0.0967712 0.0913842 0)
(0.0997524 0.085924 0)
(0.102678 0.0802299 0)
(0.105509 0.0743504 0)
(0.0855679 0.0855897 0)
(0.0881057 0.080193 0)
(0.0906465 0.0745616 0)
(0.0930824 0.068725 0)
(0.0743921 0.0806815 0)
(0.0765053 0.075326 0)
(0.0786525 0.0697385 0)
(0.0807025 0.0639331 0)
(0.0632371 0.076653 0)
(0.0649196 0.0713174 0)
(0.0666512 0.0657603 0)
(0.0683109 0.0599749 0)
(0.052092 0.0735001 0)
(0.0533643 0.0681741 0)
(0.0546581 0.062646 0)
(0.0559043 0.0568863 0)
(0.0410246 0.071189 0)
(0.0418523 0.0659108 0)
(0.0427243 0.0604102 0)
(0.0435462 0.0546684 0)
(0.0301302 0.0699859 0)
(0.0304516 0.0646294 0)
(0.0308169 0.0591278 0)
(0.0311705 0.0534486 0)
(0.0195914 0.0696584 0)
(0.0195887 0.0643721 0)
(0.0195043 0.0588271 0)
(0.0193017 0.0530585 0)
(0.00823237 0.0698537 0)
(0.00848902 0.0650486 0)
(0.00852952 0.0599116 0)
(0.00835939 0.0544833 0)
(-0.00840564 0.0671733 0)
(-0.00774999 0.0629945 0)
(-0.00734656 0.0585096 0)
(-0.00709077 0.0537508 0)
(0.425259 0.315649 0)
(0.445163 0.264516 0)
(0.463596 0.231528 0)
(0.495126 0.218766 0)
(0.547694 0.191645 0)
(0.589654 0.136429 0)
(0.645064 0.0276703 0)
(0.57092 -0.114884 0)
(0.345579 -0.452671 0)
(0.0231561 -0.628945 0)
(-0.563035 -0.782439 0)
(-0.794583 -0.90943 0)
(-0.775091 -0.955437 0)
(-0.608825 -1.11782 0)
(-0.527649 -1.25127 0)
(-0.610568 -1.46479 0)
(-0.779873 -1.92728 0)
(-0.770789 -2.36726 0)
(-0.538859 -2.22946 0)
(0.382994 0.287435 0)
(0.409179 0.244008 0)
(0.432429 0.209723 0)
(0.462808 0.178859 0)
(0.496671 0.139847 0)
(0.546207 0.0862916 0)
(0.550394 0.0167492 0)
(0.552443 -0.121708 0)
(0.480438 -0.21413 0)
(0.312904 -0.257933 0)
(0.127879 -0.3678 0)
(-0.217349 -0.53722 0)
(-0.662918 -0.716585 0)
(-0.918157 -0.717066 0)
(-1.05189 -0.672895 0)
(-1.13357 -0.641863 0)
(-1.18435 -0.842066 0)
(-0.541906 -2.43959 0)
(0.00700797 -2.88544 0)
(0.350805 0.259786 0)
(0.379225 0.224087 0)
(0.399022 0.189285 0)
(0.4316 0.153706 0)
(0.446956 0.113904 0)
(0.479477 0.0615662 0)
(0.481977 -0.00733604 0)
(0.477308 -0.0516247 0)
(0.444225 -0.132558 0)
(0.377105 -0.170564 0)
(0.292192 -0.121065 0)
(0.171548 -0.0421325 0)
(-0.0899723 -0.0631049 0)
(-0.644442 -0.262545 0)
(-0.842983 -0.327608 0)
(-0.95923 -0.447449 0)
(-0.622973 -1.59357 0)
(-0.0245146 -2.81283 0)
(0.123479 -2.53327 0)
(0.318652 0.23352 0)
(0.345936 0.201576 0)
(0.368392 0.166593 0)
(0.396302 0.12961 0)
(0.407326 0.094538 0)
(0.43221 0.0424125 0)
(0.428982 0.0109051 0)
(0.42159 -0.0600823 0)
(0.405179 -0.0888328 0)
(0.34406 -0.114067 0)
(0.288394 -0.116714 0)
(0.262526 -0.0630973 0)
(0.224367 0.114713 0)
(-0.0345172 0.0740398 0)
(-0.451388 -0.207754 0)
(-0.487478 -1.12069 0)
(0.0289171 -2.09862 0)
(-0.0393318 -2.24483 0)
(0.0910978 -2.06422 0)
(0.294032 0.20908 0)
(0.318301 0.17892 0)
(0.340476 0.145467 0)
(0.363446 0.111979 0)
(0.371473 0.0820805 0)
(0.393785 0.0360426 0)
(0.38365 0.00421713 0)
(0.403141 -0.0397851 0)
(0.366236 -0.0578156 0)
(0.353956 -0.0874604 0)
(0.337692 -0.0658224 0)
(0.300694 0.0044156 0)
(0.278933 0.186404 0)
(0.141183 0.305226 0)
(-0.242544 -0.218153 0)
(-0.210412 -1.43111 0)
(-0.0169397 -1.92287 0)
(-0.0566279 -1.92635 0)
(0.0822492 -1.94722 0)
(0.270166 0.186488 0)
(0.292768 0.158106 0)
(0.313481 0.127867 0)
(0.332175 0.0979992 0)
(0.33985 0.0685049 0)
(0.36399 0.0306464 0)
(0.349344 -0.0030141 0)
(0.376961 -0.0331426 0)
(0.352256 -0.0469331 0)
(0.362326 -0.090651 0)
(0.366684 -0.0638663 0)
(0.350733 0.0204316 0)
(0.329625 0.252041 0)
(0.206744 0.472346 0)
(-0.099027 -0.166789 0)
(-0.121723 -1.4354 0)
(-0.0545228 -1.81747 0)
(-0.0638045 -1.86268 0)
(0.0881168 -1.93226 0)
(0.250533 0.164812 0)
(0.269883 0.139308 0)
(0.287584 0.112068 0)
(0.304414 0.085656 0)
(0.31158 0.0563412 0)
(0.335899 0.0247873 0)
(0.322829 -0.00925222 0)
(0.354592 -0.036369 0)
(0.338789 -0.0539067 0)
(0.366574 -0.0963463 0)
(0.382571 -0.0657088 0)
(0.386491 0.0466163 0)
(0.343248 0.361319 0)
(0.233091 0.613221 0)
(-0.0754005 -0.134288 0)
(-0.115688 -1.43804 0)
(-0.0660701 -1.80701 0)
(-0.0642727 -1.89897 0)
(0.119287 -1.91843 0)
(0.231409 0.148328 0)
(0.248271 0.123678 0)
(0.263665 0.0989323 0)
(0.278776 0.0740148 0)
(0.2864 0.0447885 0)
(0.305708 0.0173414 0)
(0.298672 -0.0164496 0)
(0.329276 -0.043535 0)
(0.320162 -0.0701595 0)
(0.361912 -0.12664 0)
(0.387844 -0.0967106 0)
(0.411677 0.0494576 0)
(0.371683 0.420374 0)
(0.24555 0.725967 0)
(-0.0291006 -0.0976921 0)
(-0.0981294 -1.38033 0)
(-0.0511654 -2.14697 0)
(-0.0730505 -2.16548 0)
(0.176423 -1.89343 0)
(0.214086 0.131003 0)
(0.228358 0.109999 0)
(0.241787 0.0867657 0)
(0.254963 0.0636765 0)
(0.262756 0.0366292 0)
(0.27509 0.0099226 0)
(0.277336 -0.0228547 0)
(0.289865 -0.0508214 0)
(0.299001 -0.0914423 0)
(0.32859 -0.159757 0)
(0.346228 -0.140316 0)
(0.357692 0.0525499 0)
(0.288643 0.524747 0)
(0.153207 0.84931 0)
(0.0633873 0.0326054 0)
(-0.0242854 -1.05848 0)
(0.0708757 -1.89746 0)
(-0.0408648 -1.93155 0)
(0.2491 -1.87667 0)
(0.196832 0.11835 0)
(0.209775 0.0978614 0)
(0.221252 0.0764375 0)
(0.232672 0.0545277 0)
(0.239944 0.0297633 0)
(0.248418 0.00417652 0)
(0.25092 -0.0244898 0)
(0.25566 -0.0554655 0)
(0.253841 -0.0971755 0)
(0.24513 -0.161054 0)
(0.202601 -0.132444 0)
(0.187898 0.169871 0)
(0.14552 0.637148 0)
(0.154745 0.84723 0)
(0.20134 0.458244 0)
(0.0612183 -0.667472 0)
(0.003542 -1.49669 0)
(-0.0434397 -1.69301 0)
(0.371304 -2.11393 0)
(0.180796 0.105799 0)
(0.192457 0.0874849 0)
(0.202272 0.0673462 0)
(0.212338 0.0468365 0)
(0.218706 0.0243084 0)
(0.224762 0.000962386 0)
(0.225923 -0.0241531 0)
(0.226385 -0.0509162 0)
(0.213847 -0.0838116 0)
(0.193361 -0.119811 0)
(0.110003 -0.113405 0)
(0.0980619 0.170718 0)
(0.133687 0.606016 0)
(0.182615 0.80491 0)
(0.358872 0.588098 0)
(0.239365 -0.497973 0)
(0.0903087 -1.37368 0)
(0.0329054 -1.85809 0)
(0.7782 -2.89538 0)
(0.165492 0.0954848 0)
(0.175969 0.07808 0)
(0.184725 0.0593184 0)
(0.193607 0.0400926 0)
(0.199405 0.0196857 0)
(0.204202 -0.00112301 0)
(0.204969 -0.0219896 0)
(0.202848 -0.0426799 0)
(0.189075 -0.0643203 0)
(0.165042 -0.0787914 0)
(0.0993684 -0.0641282 0)
(0.0769849 0.14391 0)
(0.163716 0.531612 0)
(0.267045 0.682797 0)
(0.515918 0.501227 0)
(0.469863 -0.283639 0)
(0.333977 -1.18731 0)
(0.015422 -2.11339 0)
(0.239423 -2.02394 0)
(0.150922 0.086117 0)
(0.160493 0.0698245 0)
(0.168316 0.0520685 0)
(0.176373 0.0340313 0)
(0.182136 0.0152995 0)
(0.186919 -0.00325969 0)
(0.188837 -0.020655 0)
(0.18835 -0.0360294 0)
(0.179973 -0.0479203 0)
(0.16323 -0.0475833 0)
(0.133699 -0.0282542 0)
(0.0986651 0.108094 0)
(0.222602 0.401945 0)
(0.380167 0.526112 0)
(0.641427 0.365626 0)
(0.610811 -0.161214 0)
(0.646862 -0.928099 0)
(0.135463 -1.90924 0)
(0.161681 -2.04646 0)
(0.136967 0.0779649 0)
(0.145605 0.0623316 0)
(0.152834 0.04538 0)
(0.160307 0.0282019 0)
(0.166201 0.0106372 0)
(0.171611 -0.00659753 0)
(0.175463 -0.0220451 0)
(0.177898 -0.0343487 0)
(0.178775 -0.04164 0)
(0.17693 -0.0371303 0)
(0.181517 -0.0118019 0)
(0.186189 0.0687036 0)
(0.286616 0.243631 0)
(0.450324 0.34499 0)
(0.702626 0.193243 0)
(0.650075 -0.145612 0)
(0.750174 -0.765503 0)
(0.352429 -1.5942 0)
(0.150959 -1.85229 0)
(0.123446 0.0706971 0)
(0.131247 0.0555073 0)
(0.137941 0.0391369 0)
(0.144953 0.022383 0)
(0.151111 0.00544472 0)
(0.157389 -0.0111771 0)
(0.163248 -0.0262458 0)
(0.170177 -0.0386391 0)
(0.179696 -0.0470714 0)
(0.189853 -0.0450483 0)
(0.215633 -0.0316966 0)
(0.251507 0.0197695 0)
(0.346703 0.101518 0)
(0.478758 0.193025 0)
(0.671075 0.0768723 0)
(0.615224 -0.150476 0)
(0.708446 -0.642165 0)
(0.410196 -1.33859 0)
(0.183932 -1.59059 0)
(0.110187 0.0642927 0)
(0.117148 0.0493508 0)
(0.123317 0.0332562 0)
(0.129886 0.0166304 0)
(0.13619 -0.000265084 0)
(0.142934 -0.0171763 0)
(0.150599 -0.0332986 0)
(0.160268 -0.047582 0)
(0.174555 -0.059137 0)
(0.193105 -0.0633504 0)
(0.234341 -0.062831 0)
(0.282201 -0.0332602 0)
(0.380067 0.00535889 0)
(0.487165 0.0953566 0)
(0.622665 0.00803668 0)
(0.570638 -0.152957 0)
(0.626239 -0.545622 0)
(0.379016 -1.1531 0)
(0.196859 -1.33763 0)
(0.0970913 0.0587063 0)
(0.103188 0.0438125 0)
(0.108726 0.0278178 0)
(0.114729 0.0110556 0)
(0.120856 -0.00623202 0)
(0.127855 -0.024056 0)
(0.136387 -0.041808 0)
(0.147664 -0.0595738 0)
(0.165335 -0.0768061 0)
(0.189603 -0.0939979 0)
(0.238018 -0.109712 0)
(0.301448 -0.111439 0)
(0.397177 -0.119806 0)
(0.491167 -0.00176061 0)
(0.552837 -0.0404418 0)
(0.495591 -0.137565 0)
(0.516748 -0.465859 0)
(0.340528 -0.988198 0)
(0.179515 -1.10786 0)
(0.0840399 0.0539284 0)
(0.089191 0.0389831 0)
(0.0940025 0.0229428 0)
(0.0991955 0.00594913 0)
(0.104693 -0.0118988 0)
(0.111067 -0.0307747 0)
(0.118898 -0.0506899 0)
(0.12917 -0.0723377 0)
(0.144508 -0.0964929 0)
(0.167427 -0.126264 0)
(0.206726 -0.167902 0)
(0.264031 -0.198538 0)
(0.328698 -0.185658 0)
(0.397483 -0.028506 0)
(0.438761 -0.0263733 0)
(0.365091 -0.102279 0)
(0.436002 -0.432514 0)
(0.308155 -0.839571 0)
(0.163713 -0.895902 0)
(0.0709939 0.0499746 0)
(0.0751479 0.0349505 0)
(0.0790974 0.0187899 0)
(0.0833325 0.00148517 0)
(0.0878655 -0.0169209 0)
(0.0930714 -0.0367156 0)
(0.0990927 -0.0581514 0)
(0.106819 -0.0820681 0)
(0.116456 -0.11033 0)
(0.128372 -0.145481 0)
(0.139009 -0.197455 0)
(0.151807 -0.233567 0)
(0.153546 -0.225394 0)
(0.210877 -0.0647352 0)
(0.287161 -0.0334292 0)
(0.241236 -0.109396 0)
(0.381139 -0.441973 0)
(0.260945 -0.731801 0)
(0.142812 -0.708432 0)
(0.0579133 0.0469105 0)
(0.0609886 0.0318134 0)
(0.0639197 0.0155812 0)
(0.0669997 -0.00190842 0)
(0.0703263 -0.0206508 0)
(0.0740154 -0.0409362 0)
(0.0780242 -0.0629593 0)
(0.0822784 -0.0872834 0)
(0.0870143 -0.115438 0)
(0.0862265 -0.146007 0)
(0.0847186 -0.190649 0)
(0.0628201 -0.227777 0)
(0.039138 -0.223825 0)
(0.0521694 -0.102428 0)
(0.168036 -0.0703908 0)
(0.196342 -0.169846 0)
(0.342127 -0.465895 0)
(0.194299 -0.594015 0)
(0.106582 -0.563832 0)
(0.0448479 0.0446802 0)
(0.0468263 0.0295484 0)
(0.0487097 0.0132084 0)
(0.050659 -0.00448828 0)
(0.0527984 -0.023429 0)
(0.0551334 -0.0439293 0)
(0.0576368 -0.0660196 0)
(0.0598783 -0.0897745 0)
(0.0631725 -0.116386 0)
(0.0589577 -0.142531 0)
(0.0598091 -0.176791 0)
(0.0312771 -0.202437 0)
(0.0161425 -0.212379 0)
(0.00673977 -0.173802 0)
(0.130215 -0.160792 0)
(0.19223 -0.28214 0)
(0.221645 -0.435221 0)
(0.0991293 -0.49969 0)
(0.0677622 -0.471254 0)
(0.0317796 0.0435946 0)
(0.0325472 0.028497 0)
(0.0332291 0.0121908 0)
(0.0339006 -0.005514 0)
(0.0346019 -0.0245646 0)
(0.035333 -0.0451716 0)
(0.0362232 -0.0673985 0)
(0.0362567 -0.0910403 0)
(0.0386412 -0.116675 0)
(0.0328454 -0.140947 0)
(0.0389304 -0.168823 0)
(0.0164293 -0.193306 0)
(0.0276235 -0.203765 0)
(0.0110242 -0.221268 0)
(0.125951 -0.238176 0)
(0.11191 -0.307693 0)
(0.148634 -0.415645 0)
(0.0424307 -0.4504 0)
(0.0599551 -0.429007 0)
(0.0188297 0.0431022 0)
(0.0183961 0.028089 0)
(0.0178402 0.0118183 0)
(0.0174299 -0.00579899 0)
(0.0170051 -0.0249075 0)
(0.016564 -0.0455485 0)
(0.0160831 -0.0675815 0)
(0.0144444 -0.0911712 0)
(0.0156963 -0.115819 0)
(0.00799124 -0.141036 0)
(0.0174617 -0.167467 0)
(0.00169338 -0.194479 0)
(0.0338044 -0.200992 0)
(0.0204969 -0.248938 0)
(0.113931 -0.261156 0)
(0.100128 -0.314809 0)
(0.137905 -0.366483 0)
(0.0399155 -0.405879 0)
(0.0753439 -0.374582 0)
(0.00772095 0.0448072 0)
(0.00587273 0.0296388 0)
(0.0035485 0.0131559 0)
(0.00102507 -0.00471921 0)
(-0.00156266 -0.0238696 0)
(-0.00414605 -0.0445806 0)
(-0.00641807 -0.0669208 0)
(-0.00841998 -0.0910129 0)
(-0.00645571 -0.116038 0)
(-0.00994031 -0.143708 0)
(0.00884718 -0.169211 0)
(0.00209784 -0.210443 0)
(0.0613829 -0.223736 0)
(0.0598906 -0.297331 0)
(0.133008 -0.29542 0)
(0.106774 -0.324286 0)
(0.133188 -0.328612 0)
(0.0408391 -0.344813 0)
(0.0635824 -0.305296 0)
(-0.00710372 0.0452649 0)
(-0.00793918 0.0315607 0)
(-0.00952894 0.0161277 0)
(-0.0115369 -0.00111127 0)
(-0.0135349 -0.0202671 0)
(-0.0152138 -0.0413385 0)
(-0.0163122 -0.0645725 0)
(-0.0165784 -0.0906008 0)
(-0.0126804 -0.119397 0)
(-0.011758 -0.157376 0)
(0.0154958 -0.188597 0)
(0.0187287 -0.250893 0)
(0.0885862 -0.269545 0)
(0.0825648 -0.320428 0)
(0.145257 -0.30886 0)
(0.112802 -0.316755 0)
(0.131736 -0.298093 0)
(0.0347506 -0.308401 0)
(0.0630034 -0.262764 0)
)
;

boundaryField
{
    leftWall
    {
        type            fixedValue;
        value           nonuniform 0();
    }
    rightWall
    {
        type            fixedValue;
        value           uniform (0 0 0);
    }
    lowerWall
    {
        type            fixedValue;
        value           nonuniform 0();
    }
    atmosphere
    {
        type            fluxCorrectedVelocity;
        value           nonuniform List<vector> 
23
(
(-0.00840564 0.0671853 0)
(-0.00774999 0.0630041 0)
(-0.00734656 0.0585169 0)
(-0.00709077 0.0537557 0)
(-0.00710372 0.0452654 0)
(-0.00793918 0.0315536 0)
(-0.00952894 0.01611 0)
(-0.0115369 -0.00114592 0)
(-0.0135349 -0.0203268 0)
(-0.0152138 -0.0414227 0)
(-0.0163122 -0.0646888 0)
(-0.0165784 -0.0907703 0)
(-0.0126804 -0.119617 0)
(-0.011758 -0.157793 0)
(0.0154958 -0.189168 0)
(0.0187287 -0.251637 0)
(0.0885862 -0.270402 0)
(0.0825648 -0.320979 0)
(0.145257 -0.309194 0)
(0.112802 -0.316629 0)
(0.131736 -0.297147 0)
(0.0347506 -0.307022 0)
(0.0630034 -0.261244 0)
)
;
    }
    defaultFaces
    {
        type            empty;
    }
    procBoundary3to1
    {
        type            processor;
        value           nonuniform List<vector> 
23
(
(0.377278 0.499681 0)
(0.416667 0.462726 0)
(0.44266 0.428724 0)
(0.466513 0.387171 0)
(0.481676 0.331684 0)
(0.481654 0.270866 0)
(0.486689 0.252433 0)
(0.516174 0.252744 0)
(0.555572 0.231392 0)
(0.595341 0.179482 0)
(0.515026 0.0194344 0)
(-0.24117 -0.678119 0)
(-0.820865 -1.1284 0)
(-0.906391 -1.17145 0)
(-0.873397 -1.15586 0)
(-0.860622 -1.18128 0)
(-0.815216 -1.23454 0)
(-0.68913 -1.1783 0)
(-0.522079 -1.12436 0)
(-0.364675 -0.86816 0)
(-0.253314 -0.816845 0)
(-0.165181 -0.979123 0)
(-0.0936908 -0.974091 0)
)
;
    }
    procBoundary3to2
    {
        type            processor;
        value           nonuniform List<vector> 
25
(
(0.270375 0.456499 0)
(0.248208 0.387949 0)
(0.23826 0.334479 0)
(0.223652 0.291405 0)
(0.214463 0.25634 0)
(0.201381 0.231915 0)
(0.189951 0.208692 0)
(0.177601 0.190004 0)
(0.167375 0.171839 0)
(0.156036 0.158153 0)
(0.145378 0.144345 0)
(0.134577 0.133189 0)
(0.123923 0.122895 0)
(0.113272 0.11403 0)
(0.102677 0.106204 0)
(0.0921427 0.0994241 0)
(0.0816071 0.0935971 0)
(0.0710934 0.0886803 0)
(0.0605852 0.0846566 0)
(0.0500798 0.0814815 0)
(0.0396434 0.0790738 0)
(0.0297217 0.0781988 0)
(0.0191221 0.0774345 0)
(0.0075697 0.0769535 0)
(-0.00941239 0.0733292 0)
)
;
    }
}


// ************************************************************************* //
