/*--------------------------------*- C++ -*----------------------------------*\
| =========                 |                                                 |
| \\      /  F ield         | OpenFOAM: The Open Source CFD Toolbox           |
|  \\    /   O peration     | Version:  2.4.0                                 |
|   \\  /    A nd           | Web:      www.OpenFOAM.org                      |
|    \\/     M anipulation  |                                                 |
\*---------------------------------------------------------------------------*/
FoamFile
{
    version     2.0;
    format      ascii;
    class       volVectorField;
    location    "0.75";
    object      U.water;
}
// * * * * * * * * * * * * * * * * * * * * * * * * * * * * * * * * * * * * * //

dimensions      [0 1 -1 0 0 0 0];

internalField   nonuniform List<vector> 
575
(
(0.325904 0.428971 0)
(0.356819 0.4065 0)
(0.380385 0.383373 0)
(0.402246 0.355023 0)
(0.291249 0.369496 0)
(0.316349 0.353181 0)
(0.337804 0.336245 0)
(0.357626 0.316625 0)
(0.272618 0.321951 0)
(0.293296 0.309062 0)
(0.311452 0.295864 0)
(0.327961 0.28165 0)
(0.251538 0.282887 0)
(0.269023 0.274114 0)
(0.284029 0.264094 0)
(0.298449 0.254421 0)
(0.236064 0.248929 0)
(0.249746 0.242059 0)
(0.262229 0.233276 0)
(0.275079 0.2259 0)
(0.218872 0.224363 0)
(0.230432 0.218809 0)
(0.241158 0.210303 0)
(0.253023 0.201941 0)
(0.20502 0.200913 0)
(0.215408 0.195449 0)
(0.225036 0.187611 0)
(0.235077 0.179503 0)
(0.191486 0.180109 0)
(0.200542 0.174864 0)
(0.208994 0.168547 0)
(0.217911 0.161301 0)
(0.178577 0.163849 0)
(0.186195 0.157839 0)
(0.19352 0.151678 0)
(0.201152 0.144629 0)
(0.166385 0.148404 0)
(0.173219 0.142658 0)
(0.17941 0.136407 0)
(0.186266 0.129645 0)
(0.154273 0.135786 0)
(0.160074 0.129701 0)
(0.165617 0.123723 0)
(0.171156 0.117319 0)
(0.142438 0.124329 0)
(0.147586 0.118443 0)
(0.15238 0.112441 0)
(0.157328 0.106157 0)
(0.130819 0.114501 0)
(0.135287 0.108673 0)
(0.13955 0.102748 0)
(0.143769 0.096608 0)
(0.11937 0.105745 0)
(0.123302 0.100074 0)
(0.127045 0.0942192 0)
(0.130753 0.0881812 0)
(0.108018 0.0980859 0)
(0.11146 0.0925214 0)
(0.114777 0.0867548 0)
(0.118031 0.0808023 0)
(0.0967712 0.0913842 0)
(0.0997524 0.085924 0)
(0.102678 0.0802299 0)
(0.105509 0.0743504 0)
(0.0855679 0.0855897 0)
(0.0881057 0.080193 0)
(0.0906465 0.0745616 0)
(0.0930824 0.068725 0)
(0.0743921 0.0806815 0)
(0.0765053 0.075326 0)
(0.0786525 0.0697385 0)
(0.0807025 0.0639331 0)
(0.0632371 0.076653 0)
(0.0649196 0.0713174 0)
(0.0666512 0.0657603 0)
(0.0683109 0.0599749 0)
(0.052092 0.0735001 0)
(0.0533643 0.0681741 0)
(0.0546581 0.062646 0)
(0.0559043 0.0568863 0)
(0.0410246 0.071189 0)
(0.0418523 0.0659108 0)
(0.0427243 0.0604102 0)
(0.0435462 0.0546684 0)
(0.0301302 0.0699859 0)
(0.0304516 0.0646294 0)
(0.0308169 0.0591278 0)
(0.0311705 0.0534486 0)
(0.0195914 0.0696584 0)
(0.0195887 0.0643721 0)
(0.0195043 0.0588271 0)
(0.0193017 0.0530585 0)
(0.00823237 0.0698537 0)
(0.00848902 0.0650486 0)
(0.00852952 0.0599116 0)
(0.00835939 0.0544833 0)
(-0.00840564 0.0671733 0)
(-0.00774999 0.0629945 0)
(-0.00734656 0.0585096 0)
(-0.00709077 0.0537508 0)
(0.425262 0.315652 0)
(0.445172 0.264525 0)
(0.463607 0.231544 0)
(0.495139 0.21878 0)
(0.547707 0.191643 0)
(0.589763 0.135908 0)
(0.648354 0.0279488 0)
(0.615949 -0.122462 0)
(0.435272 -0.511938 0)
(0.0489175 -0.623791 0)
(-0.499279 -0.754621 0)
(-0.76749 -0.860371 0)
(-0.876663 -0.890898 0)
(-0.953199 -0.875417 0)
(-1.04795 -0.816498 0)
(-1.16479 -0.755497 0)
(-1.21986 -0.790531 0)
(-0.910468 -1.29994 0)
(-0.47242 -1.84628 0)
(0.382995 0.287437 0)
(0.409181 0.244013 0)
(0.432433 0.209733 0)
(0.462812 0.178873 0)
(0.496669 0.13986 0)
(0.546195 0.086258 0)
(0.550445 0.0160439 0)
(0.552594 -0.123716 0)
(0.480519 -0.215365 0)
(0.313607 -0.260668 0)
(0.129638 -0.367381 0)
(-0.216109 -0.484871 0)
(-0.670646 -0.599056 0)
(-0.925919 -0.574185 0)
(-1.06485 -0.564965 0)
(-1.1696 -0.612262 0)
(-1.1887 -0.827219 0)
(-0.541643 -2.43877 0)
(0.00707818 -2.88492 0)
(0.350805 0.259787 0)
(0.379226 0.224089 0)
(0.399023 0.18929 0)
(0.4316 0.153716 0)
(0.446955 0.113919 0)
(0.479466 0.0615887 0)
(0.481945 -0.007321 0)
(0.477232 -0.0516184 0)
(0.444101 -0.132445 0)
(0.376968 -0.170614 0)
(0.292102 -0.120881 0)
(0.170726 -0.0392675 0)
(-0.0965025 -0.0624901 0)
(-0.646599 -0.259365 0)
(-0.849731 -0.323827 0)
(-0.963265 -0.435173 0)
(-0.624117 -1.59292 0)
(-0.0245044 -2.81283 0)
(0.123479 -2.53327 0)
(0.318652 0.233521 0)
(0.345937 0.201577 0)
(0.368392 0.166595 0)
(0.396302 0.129615 0)
(0.407326 0.0945475 0)
(0.432206 0.0424314 0)
(0.428969 0.0109426 0)
(0.421553 -0.0600003 0)
(0.405088 -0.0886594 0)
(0.343862 -0.113667 0)
(0.288022 -0.115867 0)
(0.262074 -0.0614714 0)
(0.224189 0.116972 0)
(-0.0345092 0.0773071 0)
(-0.451482 -0.20321 0)
(-0.488304 -1.12074 0)
(0.0289985 -2.09852 0)
(-0.0393319 -2.24484 0)
(0.0910978 -2.06422 0)
(0.294032 0.20908 0)
(0.318301 0.17892 0)
(0.340476 0.145467 0)
(0.363446 0.111981 0)
(0.371473 0.0820848 0)
(0.393784 0.0360519 0)
(0.383646 0.00423916 0)
(0.403128 -0.0397291 0)
(0.366204 -0.057664 0)
(0.35385 -0.0870119 0)
(0.337465 -0.0646277 0)
(0.300405 0.0066869 0)
(0.27882 0.189299 0)
(0.142125 0.309475 0)
(-0.242733 -0.21746 0)
(-0.21013 -1.43071 0)
(-0.016947 -1.92283 0)
(-0.0566279 -1.92635 0)
(0.0822492 -1.94722 0)
(0.270166 0.186488 0)
(0.292768 0.158106 0)
(0.313481 0.127867 0)
(0.332175 0.0979999 0)
(0.33985 0.0685066 0)
(0.36399 0.0306503 0)
(0.349344 -0.00300279 0)
(0.376957 -0.033107 0)
(0.352247 -0.0468082 0)
(0.362281 -0.0901538 0)
(0.366604 -0.062316 0)
(0.350798 0.0235625 0)
(0.329964 0.256024 0)
(0.208173 0.477027 0)
(-0.0989448 -0.166778 0)
(-0.121675 -1.43547 0)
(-0.0545229 -1.81747 0)
(-0.0638045 -1.86268 0)
(0.0881168 -1.93226 0)
(0.250533 0.164812 0)
(0.269883 0.139308 0)
(0.287584 0.112068 0)
(0.304414 0.0856562 0)
(0.31158 0.0563418 0)
(0.335899 0.0247891 0)
(0.322829 -0.0092464 0)
(0.354592 -0.0363449 0)
(0.338795 -0.053793 0)
(0.366593 -0.0957626 0)
(0.382752 -0.0637439 0)
(0.38715 0.0505061 0)
(0.344528 0.366622 0)
(0.23509 0.618657 0)
(-0.0744351 -0.133852 0)
(-0.115683 -1.43794 0)
(-0.0660702 -1.80701 0)
(-0.0642727 -1.89897 0)
(0.119287 -1.91843 0)
(0.231409 0.148328 0)
(0.248271 0.123678 0)
(0.263665 0.0989323 0)
(0.278776 0.0740149 0)
(0.2864 0.0447887 0)
(0.305708 0.017342 0)
(0.298672 -0.0164469 0)
(0.329277 -0.0435192 0)
(0.320178 -0.0700559 0)
(0.362032 -0.125908 0)
(0.388513 -0.0940294 0)
(0.413291 0.0547467 0)
(0.374007 0.426799 0)
(0.24853 0.732139 0)
(-0.0278773 -0.0978613 0)
(-0.0981297 -1.38033 0)
(-0.0511645 -2.14698 0)
(-0.0730507 -2.16548 0)
(0.176423 -1.89343 0)
(0.214086 0.131003 0)
(0.228358 0.109999 0)
(0.241787 0.0867657 0)
(0.254963 0.0636765 0)
(0.262756 0.0366292 0)
(0.27509 0.00992279 0)
(0.277336 -0.0228535 0)
(0.289867 -0.0508119 0)
(0.299027 -0.0913483 0)
(0.328921 -0.158899 0)
(0.348077 -0.136965 0)
(0.361328 0.0587993 0)
(0.292021 0.531291 0)
(0.156503 0.853885 0)
(0.0644917 0.034374 0)
(-0.0242908 -1.05857 0)
(0.0708764 -1.89746 0)
(-0.0408647 -1.93155 0)
(0.2491 -1.87667 0)
(0.196832 0.11835 0)
(0.209775 0.0978614 0)
(0.221252 0.0764375 0)
(0.232672 0.0545277 0)
(0.239944 0.0297633 0)
(0.248418 0.00417657 0)
(0.25092 -0.0244893 0)
(0.255662 -0.0554603 0)
(0.253872 -0.0970999 0)
(0.245639 -0.160199 0)
(0.205768 -0.129233 0)
(0.193194 0.17394 0)
(0.149161 0.641256 0)
(0.15759 0.849205 0)
(0.203082 0.461088 0)
(0.0611194 -0.668257 0)
(0.00353344 -1.49669 0)
(-0.0434403 -1.693 0)
(0.371303 -2.11393 0)
(0.180796 0.105799 0)
(0.192457 0.0874849 0)
(0.202272 0.0673462 0)
(0.212338 0.0468365 0)
(0.218706 0.0243084 0)
(0.224762 0.000962397 0)
(0.225923 -0.024153 0)
(0.226386 -0.0509137 0)
(0.213865 -0.0837678 0)
(0.193775 -0.119206 0)
(0.112807 -0.111021 0)
(0.102929 0.173074 0)
(0.13842 0.607781 0)
(0.186166 0.805957 0)
(0.361642 0.589844 0)
(0.239183 -0.499993 0)
(0.0902952 -1.3737 0)
(0.0329085 -1.85808 0)
(0.778204 -2.89537 0)
(0.165492 0.0954848 0)
(0.175969 0.07808 0)
(0.184725 0.0593184 0)
(0.193607 0.0400926 0)
(0.199405 0.0196857 0)
(0.204202 -0.00112301 0)
(0.204969 -0.0219895 0)
(0.202848 -0.0426791 0)
(0.18908 -0.0643024 0)
(0.165186 -0.078498 0)
(0.10068 -0.0628837 0)
(0.0805279 0.145329 0)
(0.168815 0.532139 0)
(0.272434 0.682853 0)
(0.519521 0.500968 0)
(0.470026 -0.284556 0)
(0.333944 -1.18733 0)
(0.0154081 -2.1134 0)
(0.239418 -2.02395 0)
(0.150922 0.086117 0)
(0.160493 0.0698245 0)
(0.168316 0.0520685 0)
(0.176373 0.0340313 0)
(0.182136 0.0152995 0)
(0.186919 -0.00325969 0)
(0.188837 -0.020655 0)
(0.18835 -0.0360292 0)
(0.179973 -0.0479158 0)
(0.163247 -0.0474863 0)
(0.133964 -0.0276631 0)
(0.100462 0.108968 0)
(0.226343 0.401893 0)
(0.385425 0.525284 0)
(0.645717 0.363999 0)
(0.611082 -0.162566 0)
(0.646878 -0.928204 0)
(0.135442 -1.9093 0)
(0.161679 -2.04647 0)
(0.136967 0.0779649 0)
(0.145605 0.0623316 0)
(0.152834 0.04538 0)
(0.160307 0.0282019 0)
(0.166201 0.0106372 0)
(0.171611 -0.00659753 0)
(0.175463 -0.0220451 0)
(0.177898 -0.0343487 0)
(0.178775 -0.0416394 0)
(0.176932 -0.0371141 0)
(0.181558 -0.0116119 0)
(0.186714 0.0694156 0)
(0.28834 0.243673 0)
(0.453019 0.344347 0)
(0.705588 0.191412 0)
(0.650115 -0.146698 0)
(0.750181 -0.765755 0)
(0.352378 -1.59432 0)
(0.150953 -1.85231 0)
(0.123446 0.0706971 0)
(0.131247 0.0555073 0)
(0.137941 0.0391369 0)
(0.144953 0.022383 0)
(0.151111 0.00544472 0)
(0.157389 -0.0111771 0)
(0.163248 -0.0262458 0)
(0.170177 -0.0386391 0)
(0.179696 -0.0470713 0)
(0.189854 -0.0450456 0)
(0.215637 -0.0316424 0)
(0.251569 0.0201674 0)
(0.347049 0.101957 0)
(0.479285 0.19315 0)
(0.671645 0.0764389 0)
(0.615116 -0.150933 0)
(0.708441 -0.64235 0)
(0.410161 -1.33867 0)
(0.183926 -1.59061 0)
(0.110187 0.0642927 0)
(0.117148 0.0493508 0)
(0.123317 0.0332562 0)
(0.129886 0.0166304 0)
(0.13619 -0.000265084 0)
(0.142934 -0.0171763 0)
(0.150599 -0.0332986 0)
(0.160268 -0.047582 0)
(0.174555 -0.059137 0)
(0.193105 -0.06335 0)
(0.234341 -0.0628204 0)
(0.282201 -0.0331304 0)
(0.380054 0.00572761 0)
(0.487179 0.0956226 0)
(0.622692 0.00815659 0)
(0.570555 -0.153024 0)
(0.626231 -0.545697 0)
(0.379 -1.15312 0)
(0.196855 -1.33763 0)
(0.0970913 0.0587063 0)
(0.103188 0.0438125 0)
(0.108726 0.0278178 0)
(0.114729 0.0110556 0)
(0.120856 -0.00623202 0)
(0.127855 -0.024056 0)
(0.136387 -0.041808 0)
(0.147664 -0.0595738 0)
(0.165335 -0.0768061 0)
(0.189603 -0.0939979 0)
(0.238018 -0.10971 0)
(0.301448 -0.111418 0)
(0.39717 -0.11969 0)
(0.491148 -0.00164704 0)
(0.552821 -0.0403617 0)
(0.495566 -0.137522 0)
(0.516737 -0.465858 0)
(0.340519 -0.988206 0)
(0.179513 -1.10785 0)
(0.0840399 0.0539284 0)
(0.089191 0.0389831 0)
(0.0940025 0.0229428 0)
(0.0991955 0.00594913 0)
(0.104693 -0.0118988 0)
(0.111067 -0.0307747 0)
(0.118898 -0.0506899 0)
(0.12917 -0.0723377 0)
(0.144508 -0.0964929 0)
(0.167427 -0.126264 0)
(0.206726 -0.167902 0)
(0.26403 -0.198537 0)
(0.328698 -0.185648 0)
(0.397479 -0.0284852 0)
(0.438751 -0.0263499 0)
(0.365074 -0.102256 0)
(0.435995 -0.432511 0)
(0.30815 -0.839571 0)
(0.163712 -0.8959 0)
(0.0709939 0.0499746 0)
(0.0751479 0.0349505 0)
(0.0790974 0.0187899 0)
(0.0833325 0.00148517 0)
(0.0878655 -0.0169209 0)
(0.0930714 -0.0367156 0)
(0.0990927 -0.0581514 0)
(0.106819 -0.0820681 0)
(0.116456 -0.11033 0)
(0.128372 -0.145481 0)
(0.139009 -0.197455 0)
(0.151807 -0.233566 0)
(0.153546 -0.225391 0)
(0.210874 -0.0647284 0)
(0.287149 -0.033415 0)
(0.241224 -0.109378 0)
(0.381138 -0.44197 0)
(0.260942 -0.731798 0)
(0.142811 -0.708431 0)
(0.0579133 0.0469105 0)
(0.0609886 0.0318134 0)
(0.0639197 0.0155812 0)
(0.0669997 -0.00190842 0)
(0.0703263 -0.0206508 0)
(0.0740154 -0.0409362 0)
(0.0780242 -0.0629593 0)
(0.0822784 -0.0872834 0)
(0.0870143 -0.115438 0)
(0.0862265 -0.146007 0)
(0.0847186 -0.190649 0)
(0.0628201 -0.227776 0)
(0.0391376 -0.223822 0)
(0.052166 -0.102422 0)
(0.168028 -0.0703789 0)
(0.196338 -0.169837 0)
(0.342126 -0.465891 0)
(0.194298 -0.594013 0)
(0.106582 -0.563831 0)
(0.0448479 0.0446802 0)
(0.0468263 0.0295484 0)
(0.0487097 0.0132084 0)
(0.050659 -0.00448828 0)
(0.0527984 -0.023429 0)
(0.0551334 -0.0439293 0)
(0.0576368 -0.0660196 0)
(0.0598783 -0.0897745 0)
(0.0631725 -0.116386 0)
(0.0589577 -0.142531 0)
(0.0598091 -0.176791 0)
(0.031277 -0.202436 0)
(0.0161423 -0.212377 0)
(0.00673849 -0.173797 0)
(0.130213 -0.160786 0)
(0.192229 -0.282136 0)
(0.221644 -0.435219 0)
(0.0991291 -0.499689 0)
(0.0677622 -0.471253 0)
(0.0317796 0.0435946 0)
(0.0325472 0.028497 0)
(0.0332291 0.0121908 0)
(0.0339006 -0.005514 0)
(0.0346019 -0.0245646 0)
(0.035333 -0.0451716 0)
(0.0362232 -0.0673985 0)
(0.0362567 -0.0910403 0)
(0.0386412 -0.116675 0)
(0.0328454 -0.140947 0)
(0.0389304 -0.168823 0)
(0.0164293 -0.193306 0)
(0.0276235 -0.203764 0)
(0.0110241 -0.221266 0)
(0.125951 -0.238175 0)
(0.11191 -0.307693 0)
(0.148634 -0.415645 0)
(0.0424307 -0.4504 0)
(0.0599551 -0.429007 0)
(0.0188297 0.0431022 0)
(0.0183961 0.028089 0)
(0.0178402 0.0118183 0)
(0.0174299 -0.00579899 0)
(0.0170051 -0.0249075 0)
(0.016564 -0.0455485 0)
(0.0160831 -0.0675815 0)
(0.0144444 -0.0911712 0)
(0.0156963 -0.115819 0)
(0.00799124 -0.141036 0)
(0.0174617 -0.167467 0)
(0.00169338 -0.194479 0)
(0.0338044 -0.200992 0)
(0.0204969 -0.248938 0)
(0.113931 -0.261156 0)
(0.100128 -0.314809 0)
(0.137905 -0.366483 0)
(0.0399155 -0.405879 0)
(0.0753439 -0.374582 0)
(0.00772095 0.0448072 0)
(0.00587273 0.0296388 0)
(0.0035485 0.0131559 0)
(0.00102507 -0.00471921 0)
(-0.00156266 -0.0238696 0)
(-0.00414605 -0.0445806 0)
(-0.00641807 -0.0669208 0)
(-0.00841998 -0.0910129 0)
(-0.00645571 -0.116038 0)
(-0.00994031 -0.143708 0)
(0.00884718 -0.169211 0)
(0.00209784 -0.210443 0)
(0.0613829 -0.223736 0)
(0.0598906 -0.297331 0)
(0.133008 -0.29542 0)
(0.106774 -0.324286 0)
(0.133188 -0.328612 0)
(0.0408391 -0.344813 0)
(0.0635824 -0.305296 0)
(-0.00710372 0.0452649 0)
(-0.00793918 0.0315607 0)
(-0.00952894 0.0161277 0)
(-0.0115369 -0.00111127 0)
(-0.0135349 -0.0202671 0)
(-0.0152138 -0.0413385 0)
(-0.0163122 -0.0645725 0)
(-0.0165784 -0.0906008 0)
(-0.0126804 -0.119397 0)
(-0.011758 -0.157376 0)
(0.0154958 -0.188597 0)
(0.0187287 -0.250893 0)
(0.0885862 -0.269545 0)
(0.0825648 -0.320428 0)
(0.145257 -0.30886 0)
(0.112802 -0.316755 0)
(0.131736 -0.298093 0)
(0.0347506 -0.308401 0)
(0.0630034 -0.262764 0)
)
;

boundaryField
{
    leftWall
    {
        type            fixedValue;
        value           nonuniform 0();
    }
    rightWall
    {
        type            fixedValue;
        value           uniform (0 0 0);
    }
    lowerWall
    {
        type            fixedValue;
        value           nonuniform 0();
    }
    atmosphere
    {
        type            fluxCorrectedVelocity;
        value           nonuniform List<vector> 
23
(
(-0.00840564 0.0671853 0)
(-0.00774999 0.0630041 0)
(-0.00734656 0.0585169 0)
(-0.00709077 0.0537557 0)
(-0.00710372 0.0452654 0)
(-0.00793918 0.0315536 0)
(-0.00952894 0.01611 0)
(-0.0115369 -0.00114592 0)
(-0.0135349 -0.0203268 0)
(-0.0152138 -0.0414227 0)
(-0.0163122 -0.0646888 0)
(-0.0165784 -0.0907703 0)
(-0.0126804 -0.119617 0)
(-0.011758 -0.157793 0)
(0.0154958 -0.189168 0)
(0.0187287 -0.251637 0)
(0.0885862 -0.270402 0)
(0.0825648 -0.320979 0)
(0.145257 -0.309194 0)
(0.112802 -0.316629 0)
(0.131736 -0.297147 0)
(0.0347506 -0.307022 0)
(0.0630034 -0.261244 0)
)
;
    }
    defaultFaces
    {
        type            empty;
    }
    procBoundary3to1
    {
        type            processor;
        value           nonuniform List<vector> 
23
(
(0.377278 0.49968 0)
(0.416667 0.462726 0)
(0.442661 0.428724 0)
(0.466515 0.387171 0)
(0.481684 0.331685 0)
(0.481671 0.270876 0)
(0.486713 0.252446 0)
(0.516197 0.252749 0)
(0.555625 0.231394 0)
(0.572815 0.158454 0)
(-0.0256906 -0.306127 0)
(-0.887549 -0.961806 0)
(-1.12718 -1.28587 0)
(-1.26771 -1.40167 0)
(-1.35029 -1.49778 0)
(-1.36781 -1.64252 0)
(-1.17191 -1.66684 0)
(-0.939684 -1.53706 0)
(-0.74174 -1.44323 0)
(-0.570318 -1.36109 0)
(-0.370269 -1.31942 0)
(-0.288212 -1.37697 0)
(-0.37194 -1.56942 0)
)
;
    }
    procBoundary3to2
    {
        type            processor;
        value           nonuniform List<vector> 
25
(
(0.270375 0.456499 0)
(0.248208 0.387949 0)
(0.23826 0.334479 0)
(0.223652 0.291405 0)
(0.214463 0.25634 0)
(0.201381 0.231915 0)
(0.189951 0.208692 0)
(0.177601 0.190004 0)
(0.167375 0.171839 0)
(0.156036 0.158153 0)
(0.145378 0.144345 0)
(0.134577 0.133189 0)
(0.123923 0.122895 0)
(0.113272 0.11403 0)
(0.102677 0.106204 0)
(0.0921427 0.0994241 0)
(0.0816071 0.0935971 0)
(0.0710934 0.0886803 0)
(0.0605852 0.0846566 0)
(0.0500798 0.0814815 0)
(0.0396434 0.0790738 0)
(0.0297217 0.0781988 0)
(0.0191221 0.0774345 0)
(0.0075697 0.0769535 0)
(-0.00941239 0.0733292 0)
)
;
    }
}


// ************************************************************************* //
