/*--------------------------------*- C++ -*----------------------------------*\
| =========                 |                                                 |
| \\      /  F ield         | OpenFOAM: The Open Source CFD Toolbox           |
|  \\    /   O peration     | Version:  2.4.0                                 |
|   \\  /    A nd           | Web:      www.OpenFOAM.org                      |
|    \\/     M anipulation  |                                                 |
\*---------------------------------------------------------------------------*/
FoamFile
{
    version     2.0;
    format      ascii;
    class       volScalarField;
    location    "0.3";
    object      alpha.air;
}
// * * * * * * * * * * * * * * * * * * * * * * * * * * * * * * * * * * * * * //

dimensions      [0 0 0 0 0 0 0];

internalField   nonuniform List<scalar> 
559
(
7.29604e-18
7.82724e-17
4.1994e-16
1.98082e-15
6.85975e-15
1.31707e-14
1.87629e-14
2.43302e-14
0.000139147
5.78117e-05
3.79955e-05
4.23428e-05
3.28208e-05
2.37425e-05
2.67404e-05
3.36797e-05
4.14798e-05
4.32284e-05
4.90453e-05
2.84106e-05
8.52952e-06
2.00812e-05
0.00334888
0.00328446
0.00299319
0.00455403
0.00567211
0.000213607
1.81009e-05
3.82208e-06
1.17857e-06
4.22053e-07
1.81006e-07
1.52266e-07
1.67153e-07
2.18192e-07
1.72971e-07
1.54905e-07
9.66995e-08
1.68247e-07
3.97696e-05
0.00116331
0.00106306
0.00298233
0.0831089
0.0578198
0.000262998
6.09974e-06
2.12038e-06
6.14796e-07
1.61374e-07
1.14783e-07
1.13699e-07
1.12621e-07
9.90144e-08
7.10472e-08
6.09329e-08
4.2362e-08
8.93228e-08
1.16336e-05
9.7711e-05
0.000123792
0.00184221
0.114638
0.114639
0.000263881
6.71903e-06
8.07851e-06
4.46863e-06
9.57219e-07
2.81907e-07
1.3505e-07
1.31697e-07
2.67669e-08
2.67641e-08
4.01672e-08
4.03418e-08
8.26835e-08
3.79133e-07
2.12096e-06
5.86482e-06
0.000587617
0.0989799
0.0716592
0.000182374
1.09935e-05
1.61026e-05
4.40038e-05
3.005e-05
5.13186e-06
1.86916e-06
1.86052e-07
2.67641e-08
5.45162e-08
4.36283e-07
2.01853e-07
1.30997e-07
1.30116e-07
1.30113e-07
2.74062e-07
0.000759491
0.0377393
0.0192859
0.000114231
0.00269367
0.0513143
0.184442
0.0152927
0.000942136
9.60742e-05
2.48406e-06
1.87089e-07
1.56827e-05
0.000279011
0.000165112
1.87151e-05
6.61306e-07
1.30116e-07
1.87875e-07
0.00257545
0.00769519
0.00315163
5.51094e-05
0.00582004
0.577645
0.959451
0.562742
0.0556956
0.00219445
5.19191e-05
5.36245e-05
0.00232388
0.0310469
0.0330026
0.00546454
0.000122964
3.97709e-07
4.79348e-07
0.00268629
0.00149684
0.000336993
6.78997e-05
0.0101882
0.818937
0.999118
0.983074
0.4729
0.0158333
0.000352364
0.00222112
0.0608691
0.402346
0.568808
0.25513
0.0101614
3.05738e-05
1.36735e-06
0.00132642
0.000287926
2.98669e-05
6.52996e-14
4.78715e-13
1.74931e-12
2.81812e-12
3.20747e-12
4.24903e-12
4.15966e-12
7.1519e-12
0.0283276
0.804857
0.681924
0.306471
0.00432089
0.20593
0.272007
0.0489678
8.64014e-05
0.0344922
0.0603065
0.0324812
2.24339e-07
0.00110962
0.00588729
0.00905441
8.55871e-09
8.68431e-06
0.000132414
0.000389372
1.63435e-09
4.89752e-07
3.15152e-06
8.81623e-06
6.29693e-10
6.57298e-09
3.25062e-08
2.91533e-07
6.8956e-11
6.01756e-11
6.09675e-11
8.97417e-10
9.01657e-10
6.47485e-10
5.57048e-10
7.86421e-10
9.05833e-10
9.37547e-09
1.49537e-08
1.40154e-08
0.0153586
0.007889
0.00305879
0.00279399
0.761965
0.792388
0.824775
0.829273
0.999998
0.999996
0.999985
0.999876
1
1
1
0.999999
1
0.999999
0.999999
0.999999
0.999999
0.999999
0.999999
0.999999
0.999999
0.999999
0.999999
0.999998
0.000859781
0.492711
0.98609
0.99912
0.999119
0.768747
0.059609
0.00165455
0.0298952
0.415057
0.903316
0.990534
0.980402
0.710784
0.0926303
0.00142393
0.000118282
3.3421e-05
5.78429e-06
0.00358059
0.50706
0.975855
0.999119
0.99735
0.671696
0.0811201
0.00535855
0.086419
0.689106
0.984847
0.99996
0.999989
0.995734
0.8099
0.118488
0.00243427
1.52514e-05
1.62971e-06
0.00401303
0.14206
0.716031
0.949863
0.766683
0.174302
0.0110223
0.00847851
0.14964
0.750186
0.987631
0.999952
1
0.999994
0.996219
0.715089
0.0354332
0.000151957
1.62963e-06
0.00362914
0.0322454
0.11428
0.112513
0.0438754
0.00365702
0.000867606
0.0100579
0.291368
0.849159
0.994448
0.999977
1
1
0.999993
0.984863
0.217035
0.0031546
6.56464e-06
0.000870178
0.00235982
0.00993562
0.00522019
0.000754348
0.000363304
0.000862691
0.0500597
0.560515
0.95759
0.999599
1
1
1
1
0.999883
0.747454
0.041637
0.000157257
6.94763e-05
0.000171467
0.000197147
7.90052e-05
5.63076e-05
0.000356928
0.0101112
0.212544
0.80346
0.992177
0.999977
1
1
1
1
1
0.983099
0.180443
0.00153912
2.62989e-05
2.57371e-05
1.04076e-05
5.98547e-06
9.39647e-05
0.00550693
0.0779582
0.583308
0.95802
0.999586
1
1
1
1
1
1
0.999686
0.233702
0.00268098
2.16886e-06
1.17044e-06
8.1677e-07
9.39641e-06
0.00451293
0.0349537
0.39149
0.897614
0.997581
0.999998
1
1
1
1
1
1
0.999999
0.188082
0.00218735
1.68284e-08
1.86329e-08
1.65501e-05
0.00354143
0.0293156
0.328676
0.866622
0.99665
0.999998
1
1
1
1
1
1
1
1
0.173812
0.00205409
9.00154e-08
0.000560341
0.00725023
0.0403148
0.444894
0.93846
0.999511
1
1
1
1
1
1
1
1
1
1
0.290585
0.00474866
0.00381079
0.0676512
0.482222
0.91606
0.998799
0.999999
1
1
1
1
1
1
1
1
1
1
1
0.677386
0.0297302
0.842143
0.96357
0.998981
0.999755
0.999997
1
1
1
1
1
1
1
1
1
1
1
1
0.935715
0.0964592
0.999258
0.999833
0.999998
1
1
1
1
1
1
1
1
1
1
1
1
1
1
0.966666
0.113555
0.999999
0.999999
0.999999
1
1
1
1
1
1
1
1
1
1
1
1
1
0.999974
0.956032
0.0910616
0.999999
0.999999
0.999999
0.999999
1
1
1
1
1
1
1
1
1
1
1
1
0.999759
0.887225
0.0420314
0.999999
0.999999
0.999999
0.999999
0.999999
1
1
1
1
1
1
1
1
1
1
1
0.999891
0.748267
0.0148766
0.999998
0.999998
0.999998
0.999999
0.999999
0.999999
0.999999
1
1
1
1
1
1
1
1
1
0.999993
0.742386
0.0141736
)
;

boundaryField
{
    leftWall
    {
        type            alphaContactAngle;
        thetaProperties 
6
(

(
water
mercury
)
 90 0 0 0

(
water
air
)
 90 0 0 0

(
water
oil
)
 90 0 0 0

(
mercury
air
)
 90 0 0 0

(
oil
mercury
)
 90 0 0 0

(
oil
air
)
 90 0 0 0
);
        value           nonuniform 0();
    }
    rightWall
    {
        type            alphaContactAngle;
        thetaProperties 
6
(

(
water
mercury
)
 90 0 0 0

(
water
air
)
 90 0 0 0

(
water
oil
)
 90 0 0 0

(
mercury
air
)
 90 0 0 0

(
oil
mercury
)
 90 0 0 0

(
oil
air
)
 90 0 0 0
);
        value           nonuniform List<scalar> 
25
(
0.00567211
0.0578198
0.114639
0.0716592
0.0192859
0.00315163
0.000336993
2.98669e-05
5.78429e-06
1.62971e-06
1.62963e-06
6.56464e-06
0.000157257
0.00153912
0.00268098
0.00218735
0.00205409
0.00474866
0.0297302
0.0964592
0.113555
0.0910616
0.0420314
0.0148766
0.0141736
)
;
    }
    lowerWall
    {
        type            alphaContactAngle;
        thetaProperties 
6
(

(
water
mercury
)
 90 0 0 0

(
water
air
)
 90 0 0 0

(
water
oil
)
 90 0 0 0

(
mercury
air
)
 90 0 0 0

(
oil
mercury
)
 90 0 0 0

(
oil
air
)
 90 0 0 0
);
        value           nonuniform List<scalar> 
40
(
7.29604e-18
7.29604e-18
7.82724e-17
4.1994e-16
1.98082e-15
6.85975e-15
1.31707e-14
1.87629e-14
2.43302e-14
0.0283276
0.804857
0.681924
0.306471
0.000139147
0.000213607
0.000262998
0.000263881
0.000182374
0.000114231
5.51094e-05
6.78997e-05
0.000139147
5.78117e-05
3.79955e-05
4.23428e-05
3.28208e-05
2.37425e-05
2.67404e-05
3.36797e-05
4.14798e-05
4.32284e-05
4.90453e-05
2.84106e-05
8.52952e-06
2.00812e-05
0.00334888
0.00328446
0.00299319
0.00455403
0.00567211
)
;
    }
    atmosphere
    {
        type            inletOutlet;
        inletValue      nonuniform 0();
        value           nonuniform 0();
    }
    defaultFaces
    {
        type            empty;
    }
    procBoundary1to0
    {
        type            processor;
        value           nonuniform List<scalar> 
26
(
2.25841e-17
2.70392e-16
1.71471e-15
9.26006e-15
3.10788e-14
5.97931e-14
8.10871e-14
1.09977e-13
5.54415e-13
2.41723e-12
5.26013e-12
7.63458e-12
7.95003e-12
7.22048e-12
4.78137e-12
1.35017e-11
1.51781e-09
1.51781e-09
5.2745e-06
0.0218628
0.756074
1
1
1
0.999999
0.999999
)
;
    }
    procBoundary1to3
    {
        type            processor;
        value           nonuniform List<scalar> 
23
(
0.999999
0.999998
0.999998
0.999998
0.999998
0.999998
0.999998
0.999998
0.999998
0.999999
0.999999
0.999999
1
1
1
1
1
1
1
1
1
0.83482
0.0167435
)
;
    }
}


// ************************************************************************* //
