/*--------------------------------*- C++ -*----------------------------------*\
| =========                 |                                                 |
| \\      /  F ield         | OpenFOAM: The Open Source CFD Toolbox           |
|  \\    /   O peration     | Version:  2.4.0                                 |
|   \\  /    A nd           | Web:      www.OpenFOAM.org                      |
|    \\/     M anipulation  |                                                 |
\*---------------------------------------------------------------------------*/
FoamFile
{
    version     2.0;
    format      ascii;
    class       volScalarField;
    location    "0.3";
    object      alpha.water;
}
// * * * * * * * * * * * * * * * * * * * * * * * * * * * * * * * * * * * * * //

dimensions      [0 0 0 0 0 0 0];

internalField   nonuniform List<scalar> 
559
(
5.55871e-11
1.67662e-09
1.61138e-07
8.78535e-07
1.42225e-05
3.44947e-05
0.000169667
0.000668395
5.30731e-10
9.27093e-10
1.16098e-09
1.38547e-09
1.55302e-09
1.61259e-09
1.62988e-09
1.69388e-09
1.48497e-09
1.36069e-09
1.05108e-09
7.41826e-10
4.29903e-10
1.71241e-10
3.81097e-11
1.97294e-11
1.01324e-11
3.42471e-12
5.75138e-13
6.85593e-10
1.81481e-09
2.85375e-09
3.36683e-09
3.56677e-09
3.54707e-09
3.11137e-09
2.89585e-09
2.61919e-09
2.38595e-09
2.1396e-09
1.83859e-09
1.50779e-09
1.1099e-09
5.17474e-10
1.32642e-10
1.81749e-11
8.9936e-12
2.57365e-12
9.74883e-10
2.99642e-09
4.29458e-09
4.99661e-09
5.66596e-09
5.94046e-09
4.66464e-09
3.36733e-09
2.90161e-09
2.49086e-09
2.25054e-09
2.23878e-09
2.07202e-09
1.73194e-09
1.14094e-09
4.47859e-10
7.34545e-11
1.70406e-11
7.3758e-12
1.22996e-09
3.53026e-09
5.13596e-09
7.06123e-09
1.10106e-08
1.50925e-08
1.64773e-08
9.84231e-09
6.89311e-09
3.88415e-09
2.14899e-09
1.83241e-09
1.9304e-09
1.8706e-09
1.46228e-09
7.26461e-10
2.48596e-10
3.40814e-11
1.41244e-11
1.41298e-09
3.47893e-09
4.57147e-09
7.18627e-09
2.05676e-08
4.2558e-08
6.03514e-08
5.26129e-08
3.7993e-08
1.68745e-08
4.4848e-09
1.41197e-09
1.46368e-09
1.59537e-09
1.46559e-09
9.26555e-10
4.77381e-10
8.27767e-11
1.41778e-11
1.47066e-09
2.99941e-09
2.75162e-09
5.07992e-09
2.81421e-08
8.78048e-08
1.48645e-07
1.56763e-07
1.13466e-07
4.60527e-08
1.09811e-08
1.43444e-09
9.21491e-10
1.10243e-09
1.2564e-09
9.88085e-10
6.39557e-10
1.68061e-10
2.40427e-11
1.36986e-09
2.43349e-09
6.76763e-10
8.67123e-10
3.02064e-08
1.35661e-07
2.86214e-07
3.10872e-07
2.12604e-07
7.78252e-08
1.62952e-08
1.34138e-09
5.50496e-10
6.87039e-10
9.91778e-10
9.38349e-10
7.08112e-10
2.86448e-10
4.67627e-11
2.52147e-11
1.04949e-09
1.74122e-10
3.33525e-11
3.35171e-09
1.60305e-07
4.71973e-07
4.91312e-07
3.08662e-07
9.98674e-08
1.38617e-08
6.11557e-10
2.81913e-10
3.88453e-10
7.11508e-10
8.64472e-10
7.49468e-10
3.80443e-10
6.39666e-11
0.0200637
0.207417
0.54722
0.781776
0.827526
0.743107
0.483233
0.147545
0.0416008
0.0101621
0.00177083
0.000185185
0.0885059
0.0574507
0.0332748
0.00670676
0.275461
0.199934
0.118564
0.0443611
0.587399
0.414901
0.272496
0.169607
0.741202
0.636472
0.48857
0.320386
0.715606
0.663943
0.581648
0.461663
0.560216
0.552848
0.519073
0.444383
0.228122
0.266342
0.277735
0.265285
0.0269947
0.0405535
0.0510737
0.0577173
0.00032666
0.000739891
0.00128666
0.0019893
8.78198e-06
2.32111e-05
4.75156e-05
8.02233e-05
2.52706e-09
9.33556e-09
3.61744e-08
8.41917e-08
2.38296e-13
1.9728e-13
9.36991e-14
1.24066e-13
3.46745e-13
2.24094e-13
1.91435e-14
1.92749e-14
1.45632e-13
5.43214e-14
3.99357e-15
4.82086e-15
3.9789e-14
1.27093e-14
1.34635e-15
1.50135e-15
5.50204e-15
1.99342e-15
5.43833e-16
5.87533e-16
6.47482e-06
3.90317e-08
3.59399e-11
2.79384e-11
3.24062e-11
1.48161e-07
8.27573e-07
7.47494e-07
4.14016e-07
1.01344e-07
5.05302e-09
6.5655e-11
4.18615e-11
1.25526e-10
3.882e-10
6.52303e-10
6.75869e-10
4.97329e-10
1.18787e-10
0.000372494
3.73679e-05
3.90657e-07
9.2658e-09
2.15713e-08
7.79014e-07
1.32533e-06
9.92599e-07
4.84263e-07
7.53281e-08
1.39684e-09
4.74811e-12
2.79037e-12
5.40764e-12
6.91503e-11
2.89922e-10
5.16535e-10
4.68171e-10
1.74412e-10
0.00584596
0.00163366
0.000152251
1.37149e-05
5.79901e-06
3.16871e-06
1.81875e-06
1.0283e-06
4.82274e-07
6.91943e-08
1.38732e-09
4.69922e-12
1.41662e-12
3.10681e-12
3.51071e-12
6.33762e-11
3.26957e-10
4.0194e-10
1.7334e-10
0.0391773
0.0098446
0.00231364
0.00062576
5.261e-05
4.17282e-06
1.4292e-06
8.43142e-07
3.37394e-07
3.77654e-08
6.56743e-10
3.09465e-12
1.14083e-12
1.15955e-12
1.77934e-12
4.1585e-12
1.40103e-10
3.09251e-10
1.62165e-10
0.151282
0.0396479
0.00703682
0.000617775
2.8854e-05
3.28721e-06
1.59791e-06
7.2143e-07
1.24275e-07
5.82692e-09
4.21647e-11
1.82125e-12
5.05837e-14
3.51287e-13
9.58343e-13
1.48945e-12
2.80406e-11
2.08004e-10
1.38301e-10
0.249362
0.0913715
0.0241207
0.00366163
0.000191301
1.44222e-05
4.80062e-06
5.36529e-07
1.35356e-08
1.09643e-10
1.90827e-12
4.4277e-13
5.64297e-14
7.29285e-14
5.46437e-13
8.73852e-13
2.14622e-12
1.28062e-10
1.08024e-10
0.275627
0.114786
0.0347743
0.00606045
0.000466481
6.94885e-05
8.63108e-06
1.86224e-07
4.26224e-10
1.61719e-12
7.91863e-13
1.18748e-13
1.88614e-14
3.30811e-14
2.07325e-13
5.35404e-13
1.2526e-12
7.8381e-11
7.92323e-11
0.18873
0.0834013
0.0265943
0.00386536
0.00106039
0.000126584
2.84263e-06
9.122e-09
2.13476e-12
2.82809e-13
5.32033e-14
1.29299e-14
1.41538e-14
3.21393e-14
8.13925e-14
3.82143e-13
1.00755e-12
4.13203e-11
5.52486e-11
0.0477019
0.0217554
0.00509763
0.00180096
0.000181469
7.64938e-06
5.24306e-08
2.18518e-11
5.89002e-13
4.34474e-14
1.30005e-14
6.46878e-15
1.39978e-14
3.77873e-14
8.36895e-14
3.32854e-13
8.93561e-13
1.36065e-11
3.46788e-11
0.00182619
0.00095224
0.000124667
1.32796e-05
1.47739e-06
1.62367e-08
5.83556e-12
1.0347e-13
3.66822e-14
1.45157e-14
5.25045e-15
4.49228e-15
1.4184e-14
4.18902e-14
9.9705e-14
3.14874e-13
8.04762e-13
5.32564e-12
1.72298e-11
5.72103e-05
4.76641e-06
1.07863e-07
1.16207e-09
1.3169e-12
6.94614e-14
5.99804e-14
2.98622e-14
1.54376e-14
6.04167e-15
2.31682e-15
3.7684e-15
1.44258e-14
4.49658e-14
1.12903e-13
2.89345e-13
7.12724e-13
4.05432e-12
9.34252e-12
4.53542e-08
1.32593e-09
1.28777e-12
1.03725e-13
7.66611e-14
3.31551e-14
2.37484e-14
1.41215e-14
6.5045e-15
2.31257e-15
1.19324e-15
3.45277e-15
1.43988e-14
4.70986e-14
1.23994e-13
2.66272e-13
6.29521e-13
3.30117e-12
8.11425e-12
3.82088e-13
1.18781e-13
7.47856e-14
5.43329e-14
2.10365e-14
1.80451e-14
1.14e-14
6.02921e-15
2.59229e-15
9.13304e-16
7.87562e-16
3.23574e-15
1.40964e-14
4.81535e-14
1.32184e-13
2.70084e-13
5.60976e-13
2.92763e-12
7.17481e-12
2.59281e-14
2.75007e-14
2.19073e-14
1.73736e-14
1.07327e-14
8.35286e-15
4.819e-15
2.36649e-15
9.73472e-16
3.77283e-16
6.24715e-16
3.01469e-15
1.34793e-14
4.79826e-14
1.37275e-13
2.93199e-13
5.15203e-13
2.75043e-12
6.35097e-12
5.90379e-15
6.54035e-15
7.28528e-15
5.9261e-15
4.66016e-15
3.29518e-15
1.80117e-15
8.70782e-16
3.47922e-16
1.76869e-16
5.2934e-16
2.79189e-15
1.25044e-14
4.69118e-14
1.37687e-13
3.15054e-13
4.86385e-13
2.51731e-12
5.54668e-12
1.77937e-15
2.17345e-15
2.53536e-15
2.22366e-15
1.75758e-15
1.17298e-15
6.29755e-16
3.00865e-16
1.2039e-16
9.89317e-17
4.51102e-16
2.51603e-15
1.13321e-14
4.51967e-14
1.35056e-13
3.22943e-13
4.459e-13
2.15886e-12
4.74977e-12
6.4715e-16
7.67569e-16
8.38307e-16
7.43243e-16
5.76999e-16
3.78452e-16
2.06458e-16
9.7758e-17
4.16214e-17
6.39206e-17
3.77764e-16
2.21906e-15
1.0273e-14
4.29533e-14
1.32526e-13
3.22646e-13
4.3935e-13
1.70325e-12
3.96919e-12
)
;

boundaryField
{
    leftWall
    {
        type            zeroGradient;
    }
    rightWall
    {
        type            zeroGradient;
    }
    lowerWall
    {
        type            zeroGradient;
    }
    atmosphere
    {
        type            inletOutlet;
        inletValue      nonuniform 0();
        value           nonuniform 0();
    }
    defaultFaces
    {
        type            empty;
    }
    procBoundary1to0
    {
        type            processor;
        value           nonuniform List<scalar> 
26
(
8.80068e-11
1.16499e-08
1.15046e-06
1.27667e-05
0.000187247
0.00260549
0.0183135
0.0628
0.270392
0.683512
0.87075
0.918555
0.894171
0.686295
0.279781
0.0356773
0.0115828
0.0115828
8.74429e-05
8.92169e-07
6.43704e-11
1.39948e-13
1.13676e-13
1.31429e-13
2.99567e-14
4.04067e-15
)
;
    }
    procBoundary1to3
    {
        type            processor;
        value           nonuniform List<scalar> 
23
(
2.74653e-16
1.74706e-16
1.42072e-16
1.63556e-16
1.87576e-16
2.32119e-16
2.52913e-16
2.22344e-16
1.7203e-16
1.14476e-16
6.31132e-17
3.00112e-17
1.50073e-17
4.38968e-17
3.07941e-16
1.92809e-15
9.36465e-15
4.07504e-14
1.30823e-13
3.24606e-13
4.65908e-13
1.33933e-12
3.21077e-12
)
;
    }
}


// ************************************************************************* //
