/*--------------------------------*- C++ -*----------------------------------*\
| =========                 |                                                 |
| \\      /  F ield         | OpenFOAM: The Open Source CFD Toolbox           |
|  \\    /   O peration     | Version:  2.4.0                                 |
|   \\  /    A nd           | Web:      www.OpenFOAM.org                      |
|    \\/     M anipulation  |                                                 |
\*---------------------------------------------------------------------------*/
FoamFile
{
    version     2.0;
    format      ascii;
    class       volScalarField;
    location    "0.3";
    object      alphas;
}
// * * * * * * * * * * * * * * * * * * * * * * * * * * * * * * * * * * * * * //

dimensions      [0 0 0 0 0 0 0];

internalField   nonuniform List<scalar> 
559
(
1.99991
1.9999
1.99988
1.99987
1.99984
1.99978
1.99948
1.99836
1.0003
1.00015
1.00012
1.00015
1.00016
1.00018
1.00023
1.00026
1.00026
1.00026
1.00016
1.00007
1.00004
1.00007
1.00671
1.00657
1.00599
1.00911
1.01135
1.00044
1.00006
1.00003
1.00002
1.00004
1.00008
1.00014
1.00021
1.00022
1.00019
1.00018
1.00024
1.00042
1.00052
1.00252
1.00214
1.00597
1.16622
1.11564
1.00054
1.00003
1.00002
1.00002
1.00004
1.00009
1.00015
1.00021
1.00024
1.00026
1.0004
1.00085
1.00124
1.00115
1.00074
1.0003
1.00369
1.22928
1.22928
1.00054
1.00003
1.00003
1.00003
1.00005
1.0001
1.00021
1.00043
1.00061
1.00088
1.00133
1.00208
1.00216
1.00148
1.00062
1.00008
1.00118
1.19796
1.14332
1.00038
1.00003
1.00004
1.0001
1.0001
1.0001
1.00027
1.00084
1.00159
1.00306
1.00412
1.00447
1.00324
1.00153
1.00047
1.00005
1.00153
1.07548
1.03857
1.00024
1.0054
1.10263
1.36889
1.0306
1.00194
1.00058
1.00203
1.00427
1.00872
1.01101
1.00816
1.00382
1.00108
1.00023
1.00003
1.00516
1.01539
1.0063
1.00012
1.01165
2.15529
2.91891
2.12549
1.1114
1.00532
1.00494
1.01047
1.02345
1.07964
1.07519
1.0138
1.00076
1.00009
1.00002
1.00538
1.00299
1.00068
1.00014
1.02038
2.63788
2.99824
2.96615
1.9458
1.03418
1.01053
1.02486
1.15148
1.82796
2.14582
1.51175
1.0205
1.0001
1.00002
1.00266
1.00058
1.00006
1.95403
1.54968
0.830195
0.336555
0.21404
0.270643
0.519658
0.852708
1.93776
2.75196
2.394
1.62111
1.79049
2.03485
1.89541
1.22095
1.37204
1.54262
1.63763
1.47465
0.7087
1.04202
1.29069
1.38951
0.360881
0.5501
0.816751
1.08701
0.322571
0.409687
0.548552
0.743484
0.448142
0.464297
0.516994
0.63076
0.772707
0.735529
0.726734
0.745689
0.973027
0.959501
0.949067
0.942673
0.999673
0.99926
0.998714
0.998011
1.03071
1.01576
1.00607
1.00551
2.52393
2.58478
2.64955
2.65855
3
2.99999
2.99997
2.99975
3
3
3
3
3
3
3
3
3
3
3
3
3
3
3
3
1.00312
1.98545
2.97219
2.99825
2.99824
2.53782
1.12788
1.02409
1.09708
1.86539
2.81707
2.98195
2.961
2.4216
1.18527
1.00286
1.00024
1.00007
1.00001
1.02458
2.0164
2.95175
2.99825
2.99472
2.3477
1.18316
1.04825
1.22519
2.41177
2.97316
2.99994
2.99998
2.99147
2.6198
1.23698
1.00487
1.00003
1
1.10522
1.32497
2.43822
2.90081
2.53841
1.37849
1.07115
1.06856
1.35566
2.528
2.97773
2.99993
3
2.99999
2.99244
2.43018
1.07087
1.0003
1
1.23984
1.20151
1.30018
1.28171
1.1521
1.07988
1.06197
1.07975
1.63923
2.7151
2.98983
2.99996
3.00001
3
2.99999
2.96973
1.43407
1.00631
1.00001
1.21419
1.23487
1.21766
1.18169
1.14482
1.10813
1.07607
1.16501
2.15156
2.91849
2.99925
3.00001
3.00001
3.00001
3
2.99977
2.49491
1.08328
1.00032
1.02017
1.16187
1.19484
1.17867
1.13781
1.08945
1.08521
1.46684
2.6155
2.98471
2.99996
3.00001
3.00001
3.00001
3.00001
3
2.9662
1.36089
1.00308
0.860769
1.04502
1.11565
1.11875
1.08352
1.06734
1.19256
2.17845
2.91694
2.99918
3
3.00001
3.00001
3.00001
3.00001
3.00001
2.99938
1.46741
1.00536
0.842547
0.96938
1.02522
1.0371
1.04064
1.0895
1.79126
2.79625
2.99519
3
3.00001
3.00001
3.00001
3.00001
3.00001
3.00001
3
1.37617
1.00438
0.954547
0.984525
1.00208
1.01179
1.06241
1.65965
2.73371
2.99332
3
3.00001
3.00001
3.00001
3.00001
3.00001
3.00001
3.00001
3
1.34763
1.00411
0.998213
1.00047
1.01461
1.08078
1.8899
2.87695
2.99902
3
3.00001
3.00001
3.00001
3.00001
3.00001
3.00001
3.00001
3.00001
3
1.58117
1.0095
1.00757
1.1353
1.96445
2.83212
2.9976
3
3
3.00001
3.00001
3.00001
3.00001
3.00001
3.00001
3.00001
3.00001
3.00001
3.00001
2.35477
1.05946
2.68429
2.92714
2.99796
2.99951
2.99999
3
3
3.00001
3.00001
3.00001
3.00001
3.00001
3.00001
3.00001
3
3.00001
3.00001
2.87143
1.19292
2.99852
2.99967
3
3
3
3
3
3
3.00001
3.00001
3.00001
3.00001
3.00001
3
3
3.00001
3.00001
2.93333
1.22711
3
3
3
3
3
3
3
3
3
3
3.00001
3
3
3
3
3
2.99995
2.91207
1.18213
3
3
3
3
3
3
3
3
3
3
3
3
3
3
3
3
2.99952
2.77445
1.08407
3
3
3
3
3
3
3
3
3
3
3
3
3
3
3
3
2.99979
2.49654
1.02976
3
2.99999
3
3
3
3
3
3
3
3
3
3
3
3
3
3
2.99999
2.48478
1.02835
)
;

boundaryField
{
    leftWall
    {
        type            zeroGradient;
    }
    rightWall
    {
        type            zeroGradient;
    }
    lowerWall
    {
        type            zeroGradient;
    }
    atmosphere
    {
        type            zeroGradient;
    }
    defaultFaces
    {
        type            empty;
    }
    procBoundary1to0
    {
        type            processor;
        value           nonuniform List<scalar> 
26
(
1.99998
1.99998
1.99997
1.99994
1.99957
1.9945
1.96197
1.8666
1.41417
0.543945
0.169714
0.0882336
0.108662
0.314514
0.720331
0.964327
0.988422
0.988422
0.999923
1.04373
2.51215
3
3
3
3
3
)
;
    }
    procBoundary1to3
    {
        type            processor;
        value           nonuniform List<scalar> 
23
(
3
3
2.99999
2.99999
2.99999
2.99999
2.99999
2.99999
2.99999
3
3
3
3
3
3
3
3
3
3
3
3
2.66964
1.03349
)
;
    }
}


// ************************************************************************* //
