/*--------------------------------*- C++ -*----------------------------------*\
| =========                 |                                                 |
| \\      /  F ield         | OpenFOAM: The Open Source CFD Toolbox           |
|  \\    /   O peration     | Version:  2.4.0                                 |
|   \\  /    A nd           | Web:      www.OpenFOAM.org                      |
|    \\/     M anipulation  |                                                 |
\*---------------------------------------------------------------------------*/
FoamFile
{
    version     2.0;
    format      ascii;
    class       volScalarField;
    location    "0.3";
    object      alpha.oil;
}
// * * * * * * * * * * * * * * * * * * * * * * * * * * * * * * * * * * * * * //

dimensions      [0 0 0 0 0 0 0];

internalField   nonuniform List<scalar> 
559
(
8.59087e-05
9.99614e-05
0.000118838
0.000125443
0.000132148
0.000151863
0.000183984
0.000301061
0.999844
0.999909
0.999917
0.999892
0.999872
0.999842
0.999794
0.99978
0.999778
0.999789
0.99989
0.999955
0.999969
0.999954
0.996647
0.996718
0.997009
0.995449
0.994333
0.999772
0.999964
0.99998
0.999978
0.999957
0.999917
0.999859
0.999794
0.999777
0.99981
0.999819
0.999756
0.999585
0.999517
0.998646
0.998927
0.997019
0.916894
0.942184
0.999726
0.999982
0.999982
0.999981
0.999961
0.999916
0.999854
0.999786
0.999761
0.999743
0.999597
0.999154
0.998758
0.998864
0.999363
0.999828
0.998159
0.885364
0.885364
0.999726
0.999982
0.999982
0.999982
0.999957
0.999906
0.999791
0.99957
0.999391
0.999116
0.998668
0.997919
0.997838
0.998519
0.999379
0.999927
0.999408
0.901021
0.928343
0.999809
0.999982
0.999982
0.99995
0.999933
0.999912
0.999735
0.999158
0.998415
0.996943
0.995879
0.99553
0.996757
0.998468
0.99953
0.999949
0.999233
0.962262
0.980716
0.999878
0.997303
0.948688
0.815559
0.984697
0.999003
0.999519
0.997974
0.995727
0.991297
0.989271
0.992004
0.996203
0.998924
0.999766
0.999971
0.997418
0.992305
0.99685
0.99994
0.994179
0.422359
0.0405529
0.437257
0.944299
0.996876
0.995113
0.989587
0.978879
0.951405
0.957814
0.991668
0.999365
0.999912
0.999982
0.997308
0.998503
0.999664
0.999935
0.989815
0.181067
0.000887118
0.0169299
0.527103
0.981653
0.98982
0.977359
0.909386
0.574389
0.422989
0.743382
0.989661
0.999936
0.999982
0.998667
0.999712
0.999971
0.00584598
0.0354873
0.0753651
0.0998929
0.130909
0.243143
0.513875
0.8522
0.00736488
0.0325885
0.284388
0.684996
0.0368156
0.0561775
0.31005
0.814618
0.0771205
0.0920099
0.185553
0.469112
0.116501
0.12929
0.170211
0.280337
0.156715
0.176965
0.206242
0.272603
0.246216
0.262427
0.288154
0.333198
0.431426
0.430007
0.44486
0.480473
0.771048
0.731786
0.717796
0.723739
0.972984
0.959392
0.948786
0.941892
0.999673
0.99926
0.998713
0.998011
0.984633
0.992088
0.996894
0.997126
0.238036
0.207613
0.175226
0.170727
2.30462e-06
3.89187e-06
1.46494e-05
0.000123222
6.99517e-07
1.43938e-07
2.77684e-08
3.74861e-08
1.50052e-07
6.67215e-08
2.6948e-08
1.42606e-08
7.94527e-08
4.71172e-08
2.01491e-08
1.13338e-08
2.48399e-08
1.60837e-08
9.76788e-09
6.46312e-09
0.997733
0.507272
0.0139165
0.000887477
0.000886233
0.230936
0.931734
0.977564
0.932818
0.549665
0.0862516
0.00859116
0.0194072
0.289188
0.90736
0.998567
0.999877
0.999966
0.999995
0.978265
0.490599
0.024121
0.000886504
0.00263816
0.323998
0.897962
0.957111
0.861229
0.277335
0.0116891
2.09717e-05
1.28005e-05
0.00426759
0.1901
0.88151
0.997564
0.999985
0.999999
0.887106
0.813832
0.277516
0.0490362
0.228271
0.79581
0.939871
0.939919
0.79398
0.222192
0.00990537
3.27643e-05
4.25513e-06
8.63901e-06
0.00378329
0.284912
0.964567
0.999848
0.999999
0.68544
0.811055
0.809479
0.82956
0.891676
0.923768
0.938893
0.930305
0.652137
0.134061
0.00462699
2.08538e-05
4.25664e-06
4.61008e-06
1.03334e-05
0.0151389
0.782966
0.996846
0.999994
0.484124
0.688201
0.77821
0.822302
0.855878
0.892232
0.924785
0.885049
0.408951
0.0391028
0.000351832
4.57764e-06
2.20214e-06
3.72345e-06
4.21531e-06
0.000119831
0.252548
0.958364
0.999844
0.481175
0.65556
0.757122
0.814091
0.861865
0.910878
0.92489
0.745702
0.187959
0.00747245
2.49433e-05
3.51228e-06
1.65644e-06
2.25364e-06
3.93962e-06
3.76513e-06
0.0169036
0.819558
0.998462
0.588004
0.72543
0.814815
0.869135
0.915643
0.938031
0.885382
0.404857
0.0410835
0.00040714
4.11424e-06
1.57618e-06
1.1282e-06
1.65361e-06
2.85483e-06
3.6858e-06
0.000316686
0.766299
0.99732
0.779996
0.863818
0.921588
0.955179
0.961753
0.945196
0.600225
0.101369
0.00239365
4.8389e-06
1.49576e-06
8.49448e-07
7.97874e-07
1.21079e-06
1.91278e-06
3.3414e-06
4.6093e-06
0.81192
0.997814
0.950049
0.971964
0.987739
0.98815
0.966541
0.669009
0.132918
0.00333153
4.67722e-06
1.24729e-06
6.93476e-07
5.18688e-07
5.73248e-07
9.6839e-07
1.65189e-06
3.23333e-06
3.80004e-06
0.82619
0.997947
0.998135
0.998182
0.99239
0.959511
0.554988
0.0615151
0.000489077
2.36946e-06
8.62932e-07
5.739e-07
3.929e-07
3.16982e-07
4.2026e-07
8.09008e-07
1.61014e-06
3.31176e-06
3.94618e-06
0.709418
0.995253
0.996131
0.932343
0.517777
0.0839401
0.00120097
1.7525e-06
1.62016e-06
6.19561e-07
4.67356e-07
3.20663e-07
2.17876e-07
1.92985e-07
3.18705e-07
7.0467e-07
1.54276e-06
3.36969e-06
3.86636e-06
0.322617
0.970272
0.157857
0.0364296
0.0010191
0.000245099
3.41584e-06
4.39581e-07
3.86382e-07
3.3412e-07
2.50198e-07
1.66105e-07
1.15568e-07
1.19952e-07
2.52956e-07
6.42923e-07
1.48834e-06
3.28744e-06
3.82323e-06
0.0642878
0.903543
0.000741641
0.000166235
1.85739e-06
4.81526e-08
2.34633e-07
2.19176e-07
2.04333e-07
1.69918e-07
1.2505e-07
8.20802e-08
6.02828e-08
7.98296e-08
2.1555e-07
6.17219e-07
1.48759e-06
3.08826e-06
3.80631e-06
0.0333375
0.886447
1.6161e-07
4.18148e-08
2.97096e-08
3.48835e-08
9.02818e-08
1.07056e-07
9.7691e-08
7.98172e-08
5.83117e-08
3.84918e-08
3.19379e-08
5.86013e-08
1.9297e-07
5.95354e-07
1.47599e-06
2.957e-06
3.01197e-05
0.043971
0.908941
1.72011e-08
1.04858e-08
1.63992e-08
2.68737e-08
4.00739e-08
4.56957e-08
4.17301e-08
3.49678e-08
2.54555e-08
1.73522e-08
1.77667e-08
4.63509e-08
1.70688e-07
5.58557e-07
1.38302e-06
3.00727e-06
0.000245353
0.112778
0.957971
6.70883e-09
5.63943e-09
8.35446e-09
1.21177e-08
1.58748e-08
1.77403e-08
1.6592e-08
1.4273e-08
1.03897e-08
7.63763e-09
1.08479e-08
3.85887e-08
1.51607e-07
5.22181e-07
1.28834e-06
2.52518e-06
0.00011301
0.251736
0.985126
4.96114e-09
2.4215e-09
2.94355e-09
4.17265e-09
5.45857e-09
6.31676e-09
6.54393e-09
5.36399e-09
3.76097e-09
3.32257e-09
7.31747e-09
3.27984e-08
1.35456e-07
4.81455e-07
1.18868e-06
2.1502e-06
1.05217e-05
0.257618
0.985829
)
;

boundaryField
{
    leftWall
    {
        type            zeroGradient;
    }
    rightWall
    {
        type            zeroGradient;
    }
    lowerWall
    {
        type            zeroGradient;
    }
    atmosphere
    {
        type            inletOutlet;
        inletValue      nonuniform 0();
        value           nonuniform 0();
    }
    defaultFaces
    {
        type            empty;
    }
    procBoundary1to0
    {
        type            processor;
        value           nonuniform List<scalar> 
26
(
2.15309e-05
2.23114e-05
2.53991e-05
3.08088e-05
5.68479e-05
0.000288632
0.00140496
0.0077979
0.0450425
0.089031
0.0887857
0.0746565
0.102996
0.312896
0.720108
0.964318
0.988412
0.988412
0.999907
0.978137
0.243927
8.13993e-07
4.00112e-07
1.58768e-07
8.55752e-08
2.69471e-08
)
;
    }
    procBoundary1to3
    {
        type            processor;
        value           nonuniform List<scalar> 
23
(
6.17213e-09
5.05117e-09
3.82939e-09
2.96675e-09
2.24926e-09
9.11414e-10
8.77402e-10
1.24326e-09
1.69802e-09
2.08753e-09
2.2789e-09
2.08394e-09
1.32734e-09
1.48616e-09
5.40592e-09
2.84756e-08
1.22997e-07
4.43152e-07
1.11274e-06
2.01177e-06
3.23887e-06
0.165183
0.98326
)
;
    }
}


// ************************************************************************* //
