/*--------------------------------*- C++ -*----------------------------------*\
| =========                 |                                                 |
| \\      /  F ield         | OpenFOAM: The Open Source CFD Toolbox           |
|  \\    /   O peration     | Version:  2.4.0                                 |
|   \\  /    A nd           | Web:      www.OpenFOAM.org                      |
|    \\/     M anipulation  |                                                 |
\*---------------------------------------------------------------------------*/
FoamFile
{
    version     2.0;
    format      ascii;
    class       volScalarField;
    location    "0.3";
    object      p;
}
// * * * * * * * * * * * * * * * * * * * * * * * * * * * * * * * * * * * * * //

dimensions      [1 -1 -2 0 0 0 0];

internalField   nonuniform List<scalar> 
559
(
10889.8
10056.1
9179.6
8249.99
7176.7
5922.78
4412.22
2719.51
667.253
283.686
21.8652
-84.0073
-35.3422
98.1562
300.652
483.102
612.886
695.686
660.036
621.529
597.603
622.205
687.138
766.748
845.15
867.132
882.287
604.332
211.685
-41.9474
-133.095
-94.895
45.3669
258.978
434.255
570.478
652.784
621.666
581.474
559.839
584.431
645.203
723.202
798.573
817.833
840.959
474.652
87.0368
-131.543
-194.294
-171.208
-31.7452
194.265
373.787
514.701
594.778
570.611
527.936
509.665
537.135
604.701
689.484
777.331
806.886
831.754
310.134
-73.9949
-245.15
-325.65
-272.139
-131.253
102.489
302.736
448.816
524.603
505.079
455.213
442.994
477.493
550.986
641.85
732.219
776.947
802.967
151.234
-216.666
-337.244
-365.009
-351.006
-238.67
1.05363
219.992
372.681
448.156
429.516
368.362
371.408
415.242
491.7
588.676
684.341
743.28
778.821
-12.7279
-359.973
-472.366
-472.379
-438.903
-314.515
-90.6726
127.424
278.561
356.672
339.253
274.542
271.959
327.288
422.827
531.599
632.869
704.391
753.463
-159.518
-454.929
-482.922
-479.428
-476.8
-403.63
-172.257
33.4077
166.901
224.51
171.564
108.74
174.562
247.654
346.391
468.024
578.044
660.967
729.251
-256.914
-470.969
-482.349
-477.8
-481.786
-459.915
-274.608
-51.8827
59.0644
84.3308
61.9118
27.5261
62.619
124.473
267.447
401.066
515.904
616.423
696.261
194.213
1087.29
782.746
557.912
340.217
189.709
123.834
151.651
-313.286
-250.803
-219.66
-222.398
265.888
4.35762
-6.12856
151.699
485.72
319.476
253.627
222.336
407.832
297.362
187.236
96.2129
260.324
199.23
119.91
28.3536
157.698
125.39
76.7552
19.7548
127.548
118.993
94.0694
59.2125
150.964
150.797
144.625
126.845
140.622
142.218
138.934
129.423
125.993
128.809
126.216
121.914
37.3887
33.4235
26.5186
21.8598
2.66361
2.84728
2.79127
2.77646
3.40133
3.32423
3.23065
3.14304
3.10623
3.12817
3.15556
3.16503
2.9016
2.89274
2.86101
2.85373
2.90346
2.91172
2.91569
2.9131
2.70652
2.7097
2.71189
2.71951
-303.461
-477.191
-481.202
-480.406
-479.293
-483.924
-409.053
-167.169
-41.7194
-1.33444
3.08347
1.21191
-0.69277
10.79
86.5423
293.584
407.489
538.885
632.846
-38.921
-463.836
-482.551
-478.13
-481.883
-480.032
-446.246
-243.462
-72.5756
1.79734
7.51118
7.34543
9.35109
5.77813
9.93017
88.4461
250.85
410.944
520.494
216.445
-377.446
-475.83
-480.529
-479.554
-476.521
-421.329
-249.579
-56.5721
2.7642
5.91807
4.66009
4.29479
5.88932
4.40177
10.2238
99.1934
275.751
388.435
26.6452
-278.393
-411.325
-462.535
-460.847
-432.372
-342.995
-195.044
-29.6097
4.87024
5.57918
5.17137
5.55831
5.43728
6.42149
3.11494
21.327
155.931
258.75
-95.8415
-255.119
-344.999
-393.336
-388.785
-332.284
-234.639
-84.3083
-2.48175
5.38543
5.10743
5.06069
5.18547
4.95298
5.41522
5.24438
4.22293
43.8229
149.748
-79.8951
-186.06
-255.273
-280.705
-264.149
-196.564
-115.758
-15.1796
4.02584
4.85606
4.81422
4.81308
4.81029
4.7733
4.71301
4.87632
3.82354
8.32453
81.3041
-4.40277
-82.9775
-127.817
-143.592
-125.051
-76.3379
-22.5785
2.22843
4.65898
4.58925
4.60436
4.68298
4.61714
4.79247
4.57037
4.7274
4.13307
3.96894
54.8068
84.6741
28.5768
-5.22679
-34.8813
-27.0974
-5.52639
2.47806
4.07229
4.27898
4.37608
4.37429
4.38101
4.3202
4.4407
4.32119
4.49699
4.17281
3.15103
49.6851
104.777
64.4323
26.5742
9.47115
15.9984
6.60762
3.99074
3.96348
4.09138
4.11026
4.1394
4.15447
4.09042
4.21213
3.93237
4.23004
3.87438
4.03438
44.4696
115.675
81.0246
35.0405
13.5137
4.98653
3.93107
3.78907
3.79361
3.8829
3.88913
3.92077
3.91165
3.87594
3.93868
3.68103
4.00292
3.63025
5.51906
32.4118
20.4424
7.64955
3.79395
3.59275
3.43204
3.48294
3.59475
3.63166
3.68664
3.68901
3.7154
3.68769
3.67734
3.68927
3.52303
3.69169
3.43272
3.52992
10.4868
3.04484
3.30807
3.37122
3.00675
3.61141
3.40136
3.49715
3.45738
3.51212
3.48422
3.51898
3.47029
3.48509
3.43744
3.37607
3.37199
3.20517
2.94443
4.88781
2.99097
3.27877
3.44644
3.29357
3.32273
3.29658
3.30662
3.30804
3.33088
3.29032
3.32984
3.25826
3.30395
3.20819
3.22406
3.08288
3.08279
2.62288
4.12876
3.18136
3.1754
3.07657
3.12161
3.16763
3.15337
3.15016
3.14016
3.15064
3.09713
3.15657
3.03891
3.14091
2.98538
3.10389
2.81741
3.01705
2.49715
4.33461
2.87953
3.0054
3.02483
3.01846
3.01771
3.00625
2.99495
2.97884
2.96934
2.91473
2.97274
2.8208
2.97853
2.78213
2.98672
2.7754
3.11668
2.40623
7.8153
2.89897
2.88256
2.87028
2.87348
2.86984
2.85695
2.83809
2.81461
2.78845
2.73965
2.77636
2.61052
2.79459
2.57224
2.91474
2.78991
3.19607
3.18161
20.6539
2.73853
2.75836
2.75685
2.74767
2.73274
2.71235
2.68623
2.65314
2.61337
2.56396
2.56513
2.3958
2.57712
2.31766
2.7596
2.62164
3.32176
3.31142
35.8765
)
;

boundaryField
{
    leftWall
    {
        type            fixedFluxPressure;
        gradient        nonuniform 0();
        value           nonuniform 0();
    }
    rightWall
    {
        type            fixedFluxPressure;
        gradient        uniform 0;
        value           nonuniform List<scalar> 
25
(
882.287
840.959
831.754
802.967
778.821
753.463
729.251
696.261
632.846
520.494
388.435
258.75
149.748
81.3041
54.8068
49.6851
44.4696
32.4118
10.4868
4.88781
4.12876
4.33461
7.8153
20.6539
35.8765
)
;
    }
    lowerWall
    {
        type            fixedFluxPressure;
        gradient        nonuniform List<scalar> 
40
(
132621
0
0
0
0
0
0
0
0
3464.59
26.4911
18.4422
157.697
0
0
0
0
0
0
0
0
4892.41
4902.98
4903.7
4902.69
4903.98
4904.92
4904.98
4904.51
4903.73
4902.95
4902.03
4903.68
4904.89
4904.76
3997.07
4042.86
4061.85
3724.3
3440.89
)
;
        value           nonuniform List<scalar> 
40
(
11287.6
10889.8
10056.1
9179.6
8249.99
7176.7
5922.78
4412.22
2719.51
-291.178
-250.634
-219.542
-221.392
667.253
604.332
474.652
310.134
151.234
-12.7279
-159.518
-256.914
681.93
298.394
36.576
-69.2996
-20.6306
112.871
315.366
497.815
627.597
710.394
674.742
636.24
612.318
636.919
699.129
778.877
857.335
878.305
892.61
)
;
    }
    atmosphere
    {
        type            totalPressure;
        U               U.air;
        phi             phi.air;
        rho             rho;
        psi             none;
        gamma           1;
        p0              nonuniform 0();
        value           nonuniform 0();
    }
    defaultFaces
    {
        type            empty;
    }
    procBoundary1to0
    {
        type            processor;
        value           nonuniform List<scalar> 
26
(
10318.1
9556.49
8623.84
7616.88
6486.88
5230.36
3855.54
2681.55
1343.99
956.953
847.463
658.467
418.364
225.63
126.398
149.768
134.296
134.296
121.595
35.7377
2.2634
3.59939
2.95384
2.87215
2.88877
2.70034
)
;
    }
    procBoundary1to3
    {
        type            processor;
        value           nonuniform List<scalar> 
23
(
2.67125
2.66872
2.66584
2.66174
2.65404
2.63986
2.62921
2.61658
2.59763
2.57182
2.53871
2.4967
2.44553
2.38529
2.34023
2.17785
2.29683
1.99944
2.43149
2.00391
3.09929
1.33094
27.0942
)
;
    }
}


// ************************************************************************* //
