/*--------------------------------*- C++ -*----------------------------------*\
| =========                 |                                                 |
| \\      /  F ield         | OpenFOAM: The Open Source CFD Toolbox           |
|  \\    /   O peration     | Version:  2.4.0                                 |
|   \\  /    A nd           | Web:      www.OpenFOAM.org                      |
|    \\/     M anipulation  |                                                 |
\*---------------------------------------------------------------------------*/
FoamFile
{
    version     2.0;
    format      ascii;
    class       surfaceScalarField;
    location    "0.3";
    object      phi.oil;
}
// * * * * * * * * * * * * * * * * * * * * * * * * * * * * * * * * * * * * * //

dimensions      [0 3 -1 0 0 0 0];

internalField   nonuniform List<scalar> 
1061
(
2.10688e-05
3.76081e-05
5.40078e-05
7.1579e-05
9.47098e-05
0.000120507
0.000146401
0.000146331
-6.59698e-05
6.59635e-05
-0.000109097
4.31288e-05
-0.000129214
2.01176e-05
-0.000131978
2.76402e-06
-0.000119391
-1.25855e-05
-9.50823e-05
-2.43051e-05
-6.7938e-05
-2.71331e-05
-3.64139e-05
-3.15058e-05
-3.12013e-06
-3.3274e-05
3.08714e-05
-3.3973e-05
5.27902e-05
-2.19098e-05
6.64421e-05
-1.36403e-05
6.81441e-05
-1.67475e-06
6.17878e-05
6.42415e-06
4.8459e-05
1.32218e-05
3.11263e-05
1.7173e-05
1.09082e-05
1.99267e-05
-1.92361e-06
8.32424e-06
-4.8256e-06
-6.54248e-05
0.000131376
-0.000105235
8.29417e-05
-0.00012308
3.79625e-05
-0.000120861
5.43296e-07
-0.000110666
-2.27828e-05
-9.04828e-05
-4.44914e-05
-5.81018e-05
-5.95167e-05
-2.71868e-05
-6.24178e-05
4.23303e-06
-6.46845e-05
3.8452e-05
-6.81798e-05
6.23861e-05
-4.5816e-05
7.73366e-05
-2.85175e-05
8.00147e-05
-4.21949e-06
7.5006e-05
1.15761e-05
6.08989e-05
2.75362e-05
4.32245e-05
3.50051e-05
2.27347e-05
4.08731e-05
4.10399e-06
2.87098e-05
-1.12285e-06
-6.02008e-05
0.000191569
-0.000102081
0.000124825
-0.000113714
4.95947e-05
-0.00011266
-5.1105e-07
-0.000107508
-2.79363e-05
-8.33062e-05
-6.86963e-05
-5.00332e-05
-9.27925e-05
-2.3457e-05
-8.89877e-05
9.72398e-06
-9.78457e-05
4.37876e-05
-0.000102205
6.94258e-05
-7.13666e-05
8.35911e-05
-4.25089e-05
8.53172e-05
-5.74514e-06
8.00044e-05
1.7041e-05
6.78479e-05
3.98024e-05
5.12654e-05
5.16447e-05
3.15172e-05
6.14554e-05
1.08955e-05
4.54736e-05
4.41029e-06
-5.29523e-05
0.000244523
-8.84732e-05
0.000160349
-9.42702e-05
5.53914e-05
-9.40184e-05
-7.63716e-07
-9.12363e-05
-3.07205e-05
-7.48041e-05
-8.51354e-05
-4.56369e-05
-0.000121974
-1.4667e-05
-0.000119955
1.91007e-05
-0.000131575
5.18775e-05
-0.000134871
7.69821e-05
-9.62368e-05
8.90413e-05
-5.42611e-05
9.00675e-05
-6.53522e-06
8.53313e-05
2.18656e-05
7.3244e-05
5.19186e-05
5.69197e-05
6.79828e-05
3.92322e-05
8.00881e-05
1.98756e-05
6.76691e-05
2.76186e-05
-4.48184e-05
0.000289348
-6.71129e-05
0.000182499
-6.60805e-05
5.03236e-05
-6.80538e-05
-1.44501e-05
-6.6488e-05
-3.29949e-05
-5.57996e-05
-9.58652e-05
-3.50866e-05
-0.000142725
-3.26219e-06
-0.000151813
3.1544e-05
-0.000166363
6.25707e-05
-0.00016574
8.52331e-05
-0.000118453
9.38038e-05
-6.23679e-05
9.50682e-05
-7.5896e-06
8.97517e-05
2.71852e-05
7.82106e-05
6.34447e-05
6.26103e-05
8.35922e-05
4.02739e-05
0.000102716
1.8332e-05
9.25519e-05
4.744e-05
-3.7229e-05
0.000326512
-3.93467e-05
0.000183727
-2.59231e-05
2.26297e-05
-2.92675e-05
-6.42189e-05
-3.62043e-05
-7.09076e-05
-3.25035e-05
-0.000102275
-1.72183e-05
-0.000158202
1.18416e-05
-0.000181004
4.37797e-05
-0.000198416
7.11178e-05
-0.000193162
9.10321e-05
-0.000140043
0.000100829
-7.38932e-05
0.000100999
-7.93765e-06
9.43093e-05
3.38079e-05
7.9214e-05
7.85121e-05
6.36145e-05
9.92244e-05
4.50963e-05
0.000121225
2.09903e-05
0.000117851
6.88978e-05
-2.44537e-05
0.00035081
-1.89766e-05
0.000166472
8.69494e-06
5.89029e-05
1.89589e-05
-5.72492e-05
6.94633e-06
-0.000142501
-2.32591e-06
-0.000136776
3.95257e-07
-0.000163031
2.51251e-05
-0.000206141
5.48224e-05
-0.000228696
7.85344e-05
-0.000222164
9.46837e-05
-0.000198107
9.66031e-05
-0.00014474
0.000107518
-3.98713e-05
9.98111e-05
4.09582e-05
8.65238e-05
9.17835e-05
6.83308e-05
0.000117453
5.08901e-05
0.000138707
2.87994e-05
0.000140186
9.77524e-05
-1.15762e-05
0.000362234
2.84284e-06
0.000141043
2.47296e-05
7.40724e-05
4.12766e-05
1.20563e-05
3.76702e-05
-9.08633e-05
2.38976e-05
-0.000172605
1.62615e-05
-0.000177157
3.58926e-05
-0.000226805
6.17762e-05
-0.000256502
7.83807e-05
-0.000261786
9.56524e-05
-0.000266546
0.000104335
-0.000237743
0.00010439
-0.000150621
9.70966e-05
-2.4143e-05
8.7172e-05
9.8589e-05
7.22735e-05
0.000132345
4.99203e-05
0.00016116
2.74496e-05
0.000162684
0.000125205
0.000112038
9.72618e-05
0.000130572
0.000110846
0.000155367
0.000122911
0.000187678
0.000162762
0.000187759
0.000200542
0.000163094
0.000200186
0.000112603
0.000173673
0.000116989
4.06687e-05
5.03869e-05
1.36731e-05
4.38918e-05
-9.77604e-06
-1.25026e-05
2.86878e-05
-2.91649e-05
9.6851e-05
4.64131e-05
6.4953e-05
3.87807e-05
2.07546e-05
2.41028e-05
2.39168e-05
2.80243e-06
0.000114044
5.70873e-05
9.82736e-05
5.02169e-05
7.4935e-05
4.25738e-05
3.68332e-05
6.60224e-05
0.000145649
7.77443e-05
0.00013301
6.48216e-05
0.000119434
5.4151e-05
4.61264e-05
0.00010761
0.000191375
8.75553e-05
0.000177097
8.05252e-05
0.000161381
6.86045e-05
5.45869e-05
0.000146466
0.000203879
8.24757e-05
0.000203806
8.18125e-05
0.000197226
7.51738e-05
6.29678e-05
0.000185435
0.00018941
6.57211e-05
0.000201364
6.98169e-05
0.000208902
6.93175e-05
6.32344e-05
0.00020969
0.00014097
4.04954e-05
0.000164279
4.61161e-05
0.000184991
4.91844e-05
4.89446e-05
0.000200721
0.000100278
2.27988e-05
0.00012131
2.59297e-05
0.000144574
2.68823e-05
2.81168e-05
0.000166589
9.67731e-05
9.86576e-06
0.000111019
1.18403e-05
0.000124281
1.39704e-05
1.46674e-05
0.000138191
0.000111528
-2.95133e-05
0.000124733
-2.89804e-05
0.000134952
-2.44905e-05
-1.73952e-05
0.000142087
8.29836e-05
-3.68462e-05
8.94284e-05
-3.77375e-05
0.000103966
-4.63988e-05
-4.34191e-05
0.000116948
-8.24588e-07
3.22746e-06
-6.79391e-06
-1.09115e-05
3.42724e-05
-1.90726e-05
-2.91087e-05
7.62639e-05
-1.41371e-05
1.44907e-05
-2.05513e-05
3.80157e-06
-2.97729e-05
-2.30586e-06
5.24838e-06
-3.20123e-05
-6.21722e-05
6.12077e-06
-6.10705e-05
2.23804e-06
-6.58102e-05
1.97666e-06
4.45744e-06
-6.47418e-05
-4.41271e-05
3.87839e-06
-4.52771e-05
3.41244e-06
-4.69891e-05
3.36625e-06
4.69263e-06
-4.7273e-05
-6.88338e-05
-6.44553e-05
-6.13179e-05
-5.7238e-05
-1.95476e-05
0.00031909
1.33666e-05
0.000185715
5.38075e-05
0.000136234
0.0001723
0.000149312
0.00020422
0.000112947
0.000117799
-0.000141644
8.2176e-05
-0.000214166
0.000105174
-0.000254306
0.000138958
-0.000282475
0.000168768
-0.000290479
0.000206577
-0.000297716
0.000236117
-0.000269974
0.000248776
-0.000202871
0.000210758
-0.000130199
0.000166078
1.58604e-05
0.00015583
0.000132797
0.000117301
0.000199642
6.45095e-05
0.00021548
0.000189714
2.40883e-05
0.000225467
3.76416e-05
0.000193128
3.48822e-05
0.000195836
0.000123093
0.000186746
0.000195564
8.08642e-05
0.000159867
-0.000103964
0.000126535
-0.000213675
0.000130325
-0.000261598
0.000162262
-0.000268353
0.000180404
-0.000270599
0.000160282
-0.000272775
0.000166734
-0.000248252
0.000190754
-0.000124586
0.000247506
-0.000126943
0.000191536
-2.67121e-05
0.000135798
7.21644e-05
0.000109881
0.000220281
5.92461e-05
0.000266033
0.00024896
0.000127766
0.000161222
0.000123525
0.000134446
0.00011418
0.000123994
0.000133497
9.11479e-05
0.000167177
-1.09039e-05
0.000166566
-0.000112845
0.000157108
-0.000213295
0.000155901
-0.000255214
0.000184926
-0.000251982
0.000200825
-0.000251593
0.000177082
-0.000245371
0.000117754
-0.000217777
9.35858e-05
-9.05126e-05
0.000171297
-1.21544e-05
0.000214928
-1.12101e-05
0.000127834
3.42826e-05
8.10688e-05
0.000197189
4.76519e-05
0.000298136
0.000296611
0.000146429
0.000119876
0.000171754
9.9191e-05
0.000184699
5.01626e-05
0.000180852
-1.53936e-06
0.00018108
-5.11664e-05
0.000185801
-0.000126572
0.000180848
-0.000210551
0.00018328
-0.000240468
0.000208342
-0.000236791
0.000206848
-0.000236074
0.000171587
-0.000228011
0.000115409
-0.000155304
5.2674e-05
-5.66954e-05
0.000109981
2.81736e-05
0.000164698
7.20934e-05
0.000139319
2.11211e-05
7.32261e-05
0.000156929
4.10944e-05
0.000317866
0.000337634
0.000152834
0.000105786
0.000173252
7.27576e-05
0.000184311
3.07336e-05
0.00018971
-1.55039e-05
0.000200295
-6.68881e-05
0.000208758
-0.000137499
0.000199473
-0.000200973
0.000214499
-0.000208841
0.000225016
-0.000209321
0.000215034
-0.000200655
0.000127164
-0.000175704
1.71448e-05
-8.27505e-05
-4.03851e-07
-5.37901e-05
6.10353e-05
-5.26055e-07
0.000121943
0.000142844
0.000143021
5.39227e-05
9.72752e-05
0.000120645
3.74404e-05
0.000328735
0.000373876
0.000176784
0.000105817
0.000188039
5.7882e-05
0.000197007
1.79829e-05
0.000208801
-2.95267e-05
0.000220973
-8.04896e-05
0.000225786
-0.000141838
0.000221716
-0.00018366
0.000230913
-0.000185682
0.000224114
-0.000179883
0.0001839
-0.000169686
0.000109856
-9.84104e-05
3.67205e-05
-4.49926e-05
1.19884e-05
-3.1542e-05
-7.83186e-06
2.91854e-05
5.2434e-05
0.000115652
0.000117622
0.00012646
0.000106334
0.0001088
3.40164e-05
0.00034737
0.000401001
0.000208707
0.000103445
0.000212006
5.30115e-05
0.000223209
7.51058e-06
0.000233143
-3.84472e-05
0.000238863
-8.47389e-05
0.000235048
-0.000133532
0.000237971
-0.00015121
0.00022897
-0.000154212
0.000205345
-0.000148977
0.00011751
-0.000103864
3.72668e-05
-3.68079e-05
8.93789e-06
-2.09981e-05
9.68632e-06
-3.04481e-05
7.11407e-07
2.40384e-05
6.46269e-05
6.35642e-05
0.000120906
0.000162799
9.44151e-05
0.000157039
2.77679e-05
0.000351811
0.00042062
0.000221116
8.62272e-05
0.000235532
4.05284e-05
0.00024708
-1.78227e-06
0.000246553
-3.56299e-05
0.000244667
-7.94154e-05
0.00023537
-0.000112099
0.000223164
-0.000133069
0.000209177
-0.000145974
0.000134526
-0.000100355
5.72767e-05
-2.58728e-05
2.3224e-05
-1.52998e-05
1.93735e-05
-1.42374e-05
2.15763e-05
-2.79336e-05
2.65516e-05
1.97938e-05
8.93531e-05
1.1236e-05
9.36077e-05
0.000192659
3.90671e-05
0.000287576
2.10688e-05
0.00034452
0.000435692
0.000203001
5.30566e-05
0.000218934
2.69966e-05
0.000219794
-8.26651e-07
0.000224539
-3.88813e-05
0.000224302
-8.87379e-05
0.00019815
-0.000133301
0.000157456
-0.00014719
8.91915e-05
-0.000102666
3.6164e-05
-2.78154e-05
1.7154e-05
-2.28375e-06
1.74107e-05
-1.16954e-05
1.64442e-05
-1.27796e-05
1.85314e-05
-2.80856e-05
3.16923e-05
2.50297e-06
7.44725e-05
-1.63616e-05
7.15306e-05
0.000214642
3.33248e-05
0.000317105
1.83628e-05
0.000339775
0.000449216
0.000168552
2.34884e-05
0.000202734
-9.50397e-06
0.000223834
-4.08251e-05
0.000203583
-8.4877e-05
0.000156802
-0.000123284
0.000113856
-9.25706e-05
5.70443e-05
-9.65846e-05
1.02463e-05
-1.29123e-05
6.88848e-06
1.44279e-06
1.11847e-05
-4.01793e-06
1.31336e-05
-1.19525e-05
1.51744e-05
-1.36983e-05
1.44333e-05
-2.75966e-05
2.36857e-05
-7.35813e-06
4.0326e-05
-2.41082e-05
4.68661e-05
0.000202771
3.19849e-05
0.000322296
2.08714e-05
0.00034333
0.000463061
0.000145624
-4.01612e-05
0.000140306
-7.04351e-05
0.000135108
-9.64183e-05
0.00010759
-0.000118502
6.90496e-05
-8.4574e-05
1.52592e-05
-2.2289e-05
1.60891e-06
-2.59942e-06
1.08381e-06
9.51307e-07
6.0017e-06
-1.95108e-06
7.78483e-06
-5.51248e-06
9.04094e-06
-1.21397e-05
1.13111e-05
-1.4667e-05
7.71176e-06
-2.63103e-05
1.78175e-05
-1.59726e-05
1.50863e-05
-2.09275e-05
3.30684e-05
0.000168242
4.17523e-05
0.000304002
2.80596e-05
0.000360076
0.000482203
0.000125267
-7.88679e-05
0.000116515
-8.31525e-05
0.0001068
-5.64507e-05
6.7028e-05
-7.02286e-05
3.09655e-05
-2.06323e-05
2.55026e-06
1.04784e-05
-1.56937e-06
4.9959e-06
-5.1158e-08
1.27401e-06
1.30532e-06
-2.67994e-06
3.9441e-06
-7.59356e-06
4.8444e-06
-1.26974e-05
8.47691e-06
-1.63906e-05
3.59324e-06
-2.55174e-05
1.36071e-05
-2.10357e-05
4.65443e-06
-1.67858e-05
3.46346e-05
0.000132548
5.82651e-05
0.00028495
3.86937e-05
0.000406084
0.000502622
8.79572e-05
-5.67814e-05
4.97279e-05
-6.04889e-05
1.42584e-05
-1.40451e-05
-2.34989e-06
3.64599e-05
-5.63482e-06
2.10534e-05
-6.95982e-06
1.25656e-05
-5.6691e-06
4.90659e-06
-3.55817e-06
-6.96912e-07
-1.82232e-06
-3.76494e-06
1.00903e-06
-1.0452e-05
8.25084e-07
-1.25535e-05
5.85376e-06
-1.90544e-05
1.4549e-07
-2.41441e-05
9.64151e-06
-2.52047e-05
4.03904e-07
-1.36851e-05
2.8442e-05
0.000106988
5.59967e-05
0.000283758
4.03868e-05
0.000459804
0.000516303
-3.36951e-05
2.03205e-05
-3.37369e-05
3.16027e-05
-3.75727e-05
2.28258e-05
-2.27694e-05
2.33657e-05
-1.62654e-05
1.46321e-05
-1.22586e-05
9.02246e-06
-9.5301e-06
2.60899e-06
-7.73132e-06
-2.15537e-06
-5.04349e-06
-6.13838e-06
-2.52569e-06
-1.29674e-05
-2.15398e-06
-1.32648e-05
3.47463e-06
-2.20447e-05
-3.45162e-06
-2.21981e-05
5.48202e-06
-2.82754e-05
-5.3294e-06
-8.92081e-06
-8.22676e-08
0.000103789
2.81336e-05
0.000350358
3.31454e-05
0.000474105
0.000521058
-5.48005e-05
1.31351e-05
-3.80817e-05
1.46337e-05
-3.15755e-05
1.58681e-05
-2.44395e-05
1.61666e-05
-2.03468e-05
1.06295e-05
-1.663e-05
5.43358e-06
-1.3662e-05
-2.10814e-07
-1.13214e-05
-4.44985e-06
-8.16805e-06
-9.17527e-06
-6.01332e-06
-1.50602e-05
-4.3493e-06
-1.54078e-05
1.26655e-06
-2.52357e-05
-4.96898e-06
-2.12243e-05
4.13365e-06
-3.05771e-05
-4.96119e-06
-3.91418e-06
-4.34585e-06
0.000105565
1.75292e-05
0.000362782
2.94383e-05
0.000463525
0.000520356
-4.63921e-05
1.22522e-05
-4.29573e-05
1.13546e-05
-3.77809e-05
1.08658e-05
-3.00268e-05
8.45826e-06
-2.45521e-05
5.16768e-06
-2.06691e-05
1.56705e-06
-1.75361e-05
-3.29787e-06
-1.48058e-05
-7.16405e-06
-1.15735e-05
-1.2367e-05
-9.2849e-06
-1.72737e-05
-6.31679e-06
-1.87957e-05
-3.2084e-07
-2.86674e-05
-4.37363e-06
-2.22262e-05
8.49909e-06
-3.48486e-05
9.41881e-07
-1.89244e-06
1.49341e-06
9.25494e-05
1.75572e-05
0.000343006
2.9928e-05
0.000461615
0.000516179
-4.80504e-05
-4.14524e-05
-3.67176e-05
-3.17912e-05
-2.77322e-05
-2.41958e-05
-2.11844e-05
-1.84457e-05
-1.53769e-05
-1.26271e-05
-8.23596e-06
-1.32276e-06
-7.28925e-07
1.67211e-05
1.51062e-05
2.10644e-05
2.42411e-05
4.08336e-05
)
;

boundaryField
{
    leftWall
    {
        type            fixedValue;
        value           nonuniform 0();
    }
    rightWall
    {
        type            fixedValue;
        value           uniform 0;
    }
    lowerWall
    {
        type            fixedValue;
        value           uniform 0;
    }
    atmosphere
    {
        type            calculated;
        value           nonuniform 0();
    }
    defaultFaces
    {
        type            empty;
        value           nonuniform 0();
    }
    procBoundary1to0
    {
        type            processor;
        value           nonuniform List<scalar> 
26
(
-1.04666e-05
-1.2596e-05
-1.2962e-05
-1.30182e-05
-1.85317e-05
-2.04746e-05
-1.59424e-05
-1.31466e-05
-5.78796e-05
-7.52976e-05
-0.000129456
-0.000184405
-0.000200678
-0.000181446
-0.000125862
-6.69987e-05
6.07262e-05
-8.17731e-05
-8.38878e-05
-9.76004e-05
-8.06995e-05
-1.97002e-05
1.50971e-05
7.43094e-05
4.61229e-05
7.42352e-05
)
;
    }
    procBoundary1to3
    {
        type            processor;
        value           nonuniform List<scalar> 
23
(
-1.16705e-06
-7.87031e-07
2.86109e-07
6.38953e-07
3.049e-06
4.7365e-06
6.09226e-06
3.49533e-06
1.08448e-06
-1.97126e-06
-6.30941e-06
-9.90225e-06
-1.5424e-05
-1.99637e-05
-2.34559e-05
-3.31091e-05
-2.69715e-05
-4.37142e-05
-9.99304e-06
6.142e-05
0.00033821
0.000477743
0.00050656
)
;
    }
}


// ************************************************************************* //
