/*--------------------------------*- C++ -*----------------------------------*\
| =========                 |                                                 |
| \\      /  F ield         | OpenFOAM: The Open Source CFD Toolbox           |
|  \\    /   O peration     | Version:  2.4.0                                 |
|   \\  /    A nd           | Web:      www.OpenFOAM.org                      |
|    \\/     M anipulation  |                                                 |
\*---------------------------------------------------------------------------*/
FoamFile
{
    version     2.0;
    format      ascii;
    class       surfaceScalarField;
    location    "0.3";
    object      phi.mercury;
}
// * * * * * * * * * * * * * * * * * * * * * * * * * * * * * * * * * * * * * //

dimensions      [0 3 -1 0 0 0 0];

internalField   nonuniform List<scalar> 
1061
(
1.27333e-05
2.80945e-05
4.36501e-05
5.98782e-05
8.10606e-05
0.000103525
0.000125025
0.000142565
-8.5748e-05
4.83295e-05
-0.000119603
1.61899e-05
-0.00012578
-8.14601e-06
-0.000114329
-3.11511e-05
-9.16165e-05
-5.33769e-05
-6.10902e-05
-7.94887e-05
-3.58341e-05
-9.97895e-05
-1.11092e-05
-0.000118864
1.28513e-05
-0.000122602
3.30907e-05
-0.000125101
4.97978e-05
-9.49815e-05
8.01291e-05
-0.000105283
9.5002e-05
-0.000127448
7.64777e-05
-0.000125926
4.22285e-05
-7.40077e-05
3.18652e-05
-9.19097e-06
1.09091e-05
2.01022e-05
-1.92525e-06
8.59329e-06
-4.66025e-06
-8.10622e-05
0.000103374
-0.000116148
5.1472e-05
-0.000122753
1.01017e-05
-0.000105362
-2.9742e-05
-8.53207e-05
-6.39993e-05
-5.40895e-05
-0.000106203
-1.86381e-05
-0.000141797
7.31501e-06
-0.000160898
2.82252e-05
-0.000172108
5.14037e-05
-0.000183841
7.83392e-05
-0.000174005
0.000105478
-0.000195829
0.000115188
-0.000205526
0.00011028
-0.000192406
7.98913e-05
-0.000141864
3.68148e-05
-4.28034e-05
2.32655e-05
3.35202e-05
4.06602e-06
2.8888e-05
-9.72532e-07
-7.17446e-05
0.000161237
-0.000109656
9.33906e-05
-0.0001125
1.97427e-05
-9.87218e-05
-2.94685e-05
-7.70708e-05
-6.96528e-05
-3.94956e-05
-0.000126596
-4.36872e-08
-0.000165381
2.48419e-05
-0.000178757
4.82356e-05
-0.00019966
7.82716e-05
-0.000218518
0.000104198
-0.000227368
0.000120169
-0.000234825
0.000124433
-0.000226324
0.0001197
-0.000212667
9.50525e-05
-0.000158351
4.69426e-05
-4.81302e-05
3.32243e-05
3.07646e-05
1.08205e-05
4.62108e-05
4.79278e-06
-6.29645e-05
0.000215555
-9.4141e-05
0.000130919
-9.22103e-05
3.24839e-05
-7.42596e-05
-2.40844e-05
-5.63094e-05
-6.93196e-05
-1.94631e-05
-0.000131708
2.15364e-05
-0.000171333
4.65212e-05
-0.000185305
6.86588e-05
-0.000210722
9.49213e-05
-0.000229831
0.000114001
-0.000237536
0.000125899
-0.000238459
0.000128963
-0.000230134
0.000123312
-0.000214942
9.92861e-05
-0.000156271
6.48699e-05
-3.35991e-05
2.99107e-05
5.26887e-05
2.00989e-05
6.73323e-05
2.77629e-05
-5.27747e-05
0.000260813
-6.72156e-05
0.00015914
-6.11155e-05
3.90617e-05
-5.11794e-05
-2.53782e-05
-3.60898e-05
-5.85217e-05
3.28306e-06
-0.000129715
4.42193e-05
-0.000167614
6.22849e-05
-0.000182096
7.9791e-05
-0.000213267
0.000101545
-0.000229204
0.000117833
-0.000232187
0.000128079
-0.000233963
0.000131291
-0.000226371
0.000123693
-0.000208452
9.82278e-05
-0.000134213
7.02359e-05
2.85903e-06
3.18158e-05
8.09494e-05
1.87999e-05
9.21637e-05
4.74813e-05
-4.28223e-05
0.000295775
-3.85548e-05
0.000169242
-2.37133e-05
1.77233e-05
-2.1502e-05
-5.3718e-05
-1.228e-05
-8.92194e-05
2.95521e-05
-0.000112103
6.30589e-05
-0.000161086
6.9658e-05
-0.000180501
8.65065e-05
-0.000214523
0.000106241
-0.000226482
0.000119401
-0.000226318
0.00012854
-0.000232465
0.000131365
-0.000226325
0.000120728
-0.000197272
9.3017e-05
-8.41028e-05
6.82318e-05
4.59156e-05
3.45646e-05
0.000104032
2.18929e-05
0.000111453
6.89675e-05
-2.85992e-05
0.000210586
-1.64468e-05
0.000143286
2.131e-06
5.94825e-05
8.40597e-06
-6.01298e-05
1.00311e-05
-8.03984e-05
4.17996e-05
-9.17529e-05
7.29498e-05
-0.000157778
7.46232e-05
-0.000178548
9.17274e-05
-0.000216198
0.000110609
-0.000222997
0.000120108
-0.000220458
0.000127563
-0.000229478
0.000128115
-0.000227562
0.000114207
-0.000179764
9.26536e-05
-1.60722e-05
7.14406e-05
8.30566e-05
4.27739e-05
0.000124226
2.66124e-05
0.000138443
9.78059e-05
-1.21462e-05
9.64538e-05
2.04338e-06
8.43347e-05
1.03096e-05
7.10971e-05
-6.21802e-06
1.19858e-05
1.72513e-05
-8.97749e-05
3.76333e-05
-8.5518e-05
7.84712e-05
-0.000146876
7.89266e-05
-0.000176881
9.93682e-05
-0.000220265
0.000108854
-0.00022194
0.00012079
-0.000217876
0.000126863
-0.000228364
0.000121665
-0.000229644
0.000107156
-0.00017709
9.70788e-05
2.15059e-05
7.5401e-05
0.000103068
4.17719e-05
0.00014522
2.49275e-05
0.000161255
0.000125418
0.00012587
6.26357e-05
0.000114152
7.53043e-05
0.000115982
9.09202e-05
0.000124895
0.000115526
0.000124316
0.000138047
0.000113863
0.000140561
8.83315e-05
0.000135456
0.000120275
5.24942e-05
5.57206e-05
5.33499e-05
4.84063e-05
6.02281e-05
2.71567e-05
2.76951e-05
5.29501e-05
7.73718e-05
5.22658e-05
7.4084e-05
4.68767e-05
5.72994e-05
3.69147e-05
3.10696e-05
4.98215e-05
9.16684e-05
5.20103e-05
8.9273e-05
5.00615e-05
8.02784e-05
4.29389e-05
3.68451e-05
7.12895e-05
0.000110581
5.79205e-05
0.000108534
5.41882e-05
0.000102985
4.90119e-05
4.27737e-05
9.66521e-05
0.000136525
6.01792e-05
0.00013388
5.95504e-05
0.000130279
5.60607e-05
4.95365e-05
0.000125848
0.00014436
5.64165e-05
0.000147526
5.84142e-05
0.000148701
5.77255e-05
5.3941e-05
0.00014706
0.000140561
4.63888e-05
0.000146398
5.11185e-05
0.000151675
5.32312e-05
5.28184e-05
0.000154334
0.000128975
3.17612e-05
0.000137611
3.71153e-05
0.000146926
4.0712e-05
4.55491e-05
0.00015344
0.000103755
1.4944e-05
0.000121096
1.80722e-05
0.000136266
2.07631e-05
2.05886e-05
0.000142964
9.57588e-05
1.11224e-05
0.0001061
1.41726e-05
0.000117422
1.65768e-05
1.49716e-05
7.43878e-05
0.000111577
-2.71609e-05
0.00012477
-2.60563e-05
0.000131773
-2.07045e-05
-1.13811e-05
0.000102113
8.26926e-05
-3.30073e-05
8.95338e-05
-3.41517e-05
0.000104151
-4.10044e-05
-3.64082e-05
0.000116607
-2.5929e-05
1.59794e-05
-3.74311e-05
2.357e-07
-3.58699e-05
-9.86777e-06
1.14641e-07
-2.87366e-05
-1.80773e-05
1.67381e-05
-2.20176e-05
4.18247e-06
-2.96472e-05
-2.21346e-06
5.4962e-06
-3.42087e-05
-6.35948e-05
5.83412e-06
-6.1653e-05
2.24114e-06
-6.58301e-05
1.96277e-06
4.44362e-06
-6.47761e-05
-4.43195e-05
4.04764e-06
-4.55729e-05
3.49508e-06
-4.70157e-05
3.40899e-06
4.69824e-06
-4.72714e-05
-6.88232e-05
-6.44559e-05
-6.13035e-05
-5.72302e-05
3.07735e-05
0.000105474
1.2499e-05
0.000101287
7.09692e-05
7.13833e-05
3.37473e-05
7.79552e-05
9.29464e-05
-1.79217e-05
0.000196077
-8.56591e-05
0.000183472
-0.000122521
0.000193603
-0.000180439
0.000216213
-0.000220529
0.000253384
-0.00021197
0.00026907
-0.000213709
0.00027109
-0.000214171
0.000250287
-0.000175398
0.000216775
-9.16337e-05
0.000182705
4.97837e-06
0.0001589
9.93304e-05
0.000101314
0.00017038
6.09178e-05
0.000211509
0.00019011
3.3978e-05
9.68449e-05
1.82047e-05
0.00011503
3.89413e-05
0.0001115
0.000123018
7.18181e-05
0.000194047
6.29736e-05
0.00020212
-3.8132e-05
0.0001986
-0.000118261
0.000205771
-0.000187314
0.000239152
-0.000204154
0.000265954
-0.000196635
0.000284696
-0.000193708
0.000251464
-0.000192489
0.000193143
-0.000121612
0.000227959
1.15192e-05
0.000188347
1.04395e-05
0.00014129
5.91293e-05
0.000103842
0.000180002
5.86037e-05
0.000255013
0.000249134
7.27026e-05
9.30043e-05
5.9059e-05
9.51895e-05
6.20818e-05
8.98031e-05
0.000106754
7.46066e-05
0.000164093
3.90275e-05
0.000192052
-4.7255e-05
0.000206102
-0.000121669
0.000224318
-0.000177565
0.000253473
-0.000181752
0.000258844
-0.000174883
0.00025845
-0.000165287
0.000170873
-0.000167824
8.2742e-05
-9.98845e-05
0.000130369
5.22198e-05
0.000182736
7.94963e-05
0.000111792
4.76903e-05
8.30629e-05
0.000171246
4.82213e-05
0.000285017
0.000296417
0.000105807
9.68681e-05
0.000119444
8.51113e-05
0.000133632
5.99882e-05
0.000150438
3.2051e-05
0.000176537
-6.61886e-06
0.000202661
-5.97965e-05
0.000221837
-0.000121978
0.000243562
-0.000158156
0.000260176
-0.000157896
0.000261834
-0.000144092
0.000254081
-0.000142108
0.000199649
-0.000130827
9.28853e-05
-5.08098e-05
3.19903e-05
6.52126e-05
0.000114397
0.000163271
0.000118816
8.56505e-05
7.12966e-05
0.000157629
4.23965e-05
0.000312258
0.000337285
0.000129413
0.000102441
0.000147104
8.03851e-05
0.000162773
5.30387e-05
0.000179424
2.0516e-05
0.000201002
-1.83344e-05
0.000222159
-6.28799e-05
0.000238965
-0.00011445
0.000256352
-0.000131389
0.00026193
-0.000122948
0.000258218
-0.000113567
0.000178052
-0.000105527
5.66029e-05
-8.21465e-05
-1.26314e-06
-3.6572e-05
3.28624e-05
-1.19807e-06
3.61461e-05
0.000181679
0.000127539
0.00016763
9.04208e-05
0.000126999
3.84087e-05
0.000327822
0.00037364
0.000151983
0.000107628
0.000166612
7.84321e-05
0.000181902
5.20371e-05
0.000199697
1.55795e-05
0.000218707
-1.75386e-05
0.000235617
-5.77421e-05
0.000252295
-9.46605e-05
0.000262277
-0.000100037
0.000265849
-9.27784e-05
0.000224804
-8.98961e-05
0.000131216
-7.02766e-05
3.83106e-05
-4.07471e-05
9.6353e-06
-1.7734e-05
-7.83248e-06
3.08046e-05
4.35176e-05
0.000131097
9.34799e-05
0.000156011
9.6493e-05
0.000139509
3.38852e-05
0.000347048
0.000400904
0.000166978
0.000108715
0.000182388
7.818e-05
0.000198671
4.93088e-05
0.000213906
1.60557e-05
0.000228448
-1.14427e-05
0.000243649
-4.65161e-05
0.000255854
-7.26724e-05
0.000259528
-7.77166e-05
0.000243225
-7.98337e-05
0.000138737
-6.06811e-05
3.31736e-05
-3.7668e-05
1.37498e-05
-1.81504e-05
4.62776e-06
-2.494e-05
3.72096e-06
3.4004e-05
6.15318e-05
7.29657e-05
4.53136e-05
0.000178621
8.64922e-05
0.000190693
2.73526e-05
0.000351819
0.000420581
0.000170014
0.000100166
0.000186704
7.41109e-05
0.000201841
4.65227e-05
0.00021404
2.01918e-05
0.000229287
-4.35349e-06
0.000243455
-3.47012e-05
0.000249572
-5.99281e-05
0.000248331
-8.16227e-05
0.000147215
-5.64108e-05
4.34846e-05
-2.05293e-05
1.84831e-05
-1.10097e-05
1.85094e-05
-9.3826e-06
1.99882e-05
-2.45012e-05
2.91332e-05
2.51936e-05
7.8341e-05
2.37133e-05
5.22516e-05
0.000204758
3.69258e-05
0.000238573
2.07389e-05
0.000344506
0.000435679
0.000167132
7.44438e-05
0.000185856
6.06777e-05
0.000196588
3.74729e-05
0.000214557
5.54396e-06
0.000232677
-2.63725e-05
0.000228201
-6.03344e-05
0.000201935
-7.54778e-05
0.000112073
-5.93582e-05
3.25874e-05
-1.16564e-05
1.53783e-05
2.25744e-06
1.72539e-05
-9.26471e-06
1.69788e-05
-1.05814e-05
1.80853e-05
-2.57087e-05
3.52645e-05
8.01265e-06
6.60981e-05
-7.11634e-06
4.43971e-05
0.000226474
3.16486e-05
0.000275241
1.81093e-05
0.000339692
0.000449214
0.000152056
3.84884e-05
0.000186733
3.73156e-06
0.000203304
-1.79185e-05
0.000206291
-3.15235e-05
0.000189174
-3.32313e-05
0.000148577
-4.2505e-05
6.77591e-05
-4.57108e-05
3.15179e-06
4.72359e-06
6.7834e-06
4.54218e-06
1.15665e-05
-2.22567e-06
1.30635e-05
-1.07616e-05
1.51074e-05
-1.26218e-05
1.53462e-05
-2.5946e-05
2.64477e-05
-3.08794e-06
3.72308e-05
-1.78971e-05
4.60422e-05
0.00021766
3.12941e-05
0.000298801
2.05289e-05
0.000343545
0.00046308
0.000146872
-1.24592e-05
0.000142307
-4.61908e-05
0.000131359
-6.88784e-05
8.59388e-05
-6.65951e-05
3.39393e-05
1.57318e-05
-2.99401e-06
1.52067e-06
-5.06923e-07
2.92573e-06
9.10926e-07
3.32457e-06
5.98488e-06
-5.4383e-07
8.21508e-06
-4.45436e-06
9.06522e-06
-1.16081e-05
1.04676e-05
-1.40216e-05
9.5154e-06
-2.49924e-05
1.85798e-05
-1.21512e-05
1.62742e-05
-1.55912e-05
4.87726e-05
0.000185152
4.33944e-05
0.000292588
2.74728e-05
0.000363049
0.000482193
0.000122988
-5.99984e-05
9.2974e-05
-3.54594e-05
1.25362e-05
1.59593e-05
-1.64004e-06
2.63057e-05
1.28752e-05
1.92484e-05
2.18528e-06
1.22897e-05
-1.39238e-06
6.72631e-06
-3.25683e-08
1.9755e-06
1.3506e-06
-1.92306e-06
4.24066e-06
-7.34017e-06
5.03303e-06
-1.23968e-05
7.01803e-06
-1.6004e-05
6.48901e-06
-2.44621e-05
1.20017e-05
-1.76627e-05
7.98482e-06
-1.15758e-05
4.45123e-05
0.000148622
5.851e-05
0.000277963
3.70716e-05
0.000409748
0.000502631
-2.33752e-05
1.07044e-05
-5.51839e-06
3.08552e-05
2.68201e-06
1.91101e-05
-2.88975e-06
3.72608e-05
-5.85062e-06
2.22557e-05
-6.87426e-06
1.33234e-05
-5.60714e-06
5.47512e-06
-3.42951e-06
-1.99019e-07
-1.84554e-06
-3.50275e-06
1.16394e-06
-1.0345e-05
1.17303e-06
-1.24024e-05
3.91524e-06
-1.87437e-05
2.74092e-06
-2.32867e-05
7.09855e-06
-2.20189e-05
4.92785e-06
-9.40703e-06
3.55853e-05
0.000117967
5.15754e-05
0.000269881
3.75842e-05
0.000457672
0.000516295
-3.70965e-05
2.31603e-05
-3.43029e-05
3.1286e-05
-3.76427e-05
2.24628e-05
-2.37101e-05
2.33309e-05
-1.62775e-05
1.48214e-05
-1.21757e-05
9.22233e-06
-9.48195e-06
2.78593e-06
-7.63304e-06
-2.04414e-06
-5.05636e-06
-6.07314e-06
-2.47534e-06
-1.29215e-05
-1.68722e-06
-1.31854e-05
1.36039e-06
-2.17885e-05
-4.9029e-07
-2.14334e-05
2.97858e-06
-2.5486e-05
-1.32974e-06
-5.09877e-06
1.79469e-05
9.85963e-05
2.41023e-05
0.000275631
3.01405e-05
0.000472083
0.000521011
-5.47524e-05
1.31358e-05
-3.818e-05
1.47185e-05
-3.16896e-05
1.59723e-05
-2.45283e-05
1.61739e-05
-2.03517e-05
1.06445e-05
-1.65889e-05
5.465e-06
-1.36331e-05
-1.67546e-07
-1.1256e-05
-4.41347e-06
-8.16316e-06
-9.16159e-06
-6.03939e-06
-1.50376e-05
-3.85992e-06
-1.53612e-05
-6.15823e-07
-2.50271e-05
-1.5857e-06
-2.04617e-05
7.29505e-07
-2.77967e-05
-4.33201e-06
-3.71477e-08
-5.08265e-06
9.93815e-05
1.24686e-05
0.000277726
2.68097e-05
0.000462887
0.000520318
-4.63848e-05
1.22535e-05
-4.29739e-05
1.13066e-05
-3.78176e-05
1.08212e-05
-3.00597e-05
8.41489e-06
-2.45551e-05
5.14485e-06
-2.06521e-05
1.56196e-06
-1.75208e-05
-3.29256e-06
-1.47739e-05
-7.1581e-06
-1.15644e-05
-1.23641e-05
-9.33481e-06
-1.72646e-05
-5.92812e-06
-1.87625e-05
-2.46623e-06
-2.84877e-05
-1.48434e-06
-2.14401e-05
2.45341e-06
-3.17334e-05
-1.5105e-06
3.9283e-06
-3.75442e-06
0.000101736
1.49521e-05
0.000271999
2.73674e-05
0.000461502
0.000516168
-4.80264e-05
-4.14559e-05
-3.67264e-05
-3.17962e-05
-2.77332e-05
-2.41921e-05
-2.11767e-05
-1.84313e-05
-1.5372e-05
-1.26726e-05
-8.00676e-06
-3.53918e-06
1.09554e-06
9.52952e-06
1.43808e-05
3.02232e-05
2.49959e-05
3.67642e-05
)
;

boundaryField
{
    leftWall
    {
        type            fixedValue;
        value           nonuniform 0();
    }
    rightWall
    {
        type            fixedValue;
        value           uniform 0;
    }
    lowerWall
    {
        type            fixedValue;
        value           uniform 0;
    }
    atmosphere
    {
        type            calculated;
        value           nonuniform 0();
    }
    defaultFaces
    {
        type            empty;
        value           nonuniform 0();
    }
    procBoundary1to0
    {
        type            processor;
        value           nonuniform List<scalar> 
26
(
-1.27342e-05
-1.53617e-05
-1.5556e-05
-1.62286e-05
-2.11835e-05
-2.24774e-05
-2.15824e-05
-1.78236e-05
-4.97851e-05
-7.33544e-05
-0.000111016
-0.000143321
-0.000153102
-0.000142479
-0.000117453
-7.03827e-05
5.00523e-05
-8.44952e-05
-8.4271e-05
-9.76221e-05
-8.03746e-05
3.27074e-06
1.73261e-05
7.45018e-05
4.61083e-05
7.42259e-05
)
;
    }
    procBoundary1to3
    {
        type            processor;
        value           nonuniform List<scalar> 
23
(
-1.3535e-06
-8.67833e-07
2.5676e-07
6.27743e-07
3.04734e-06
4.74056e-06
6.08948e-06
3.48858e-06
1.07931e-06
-1.97485e-06
-6.30879e-06
-9.89831e-06
-1.5423e-05
-1.99596e-05
-2.34285e-05
-3.29525e-05
-2.60764e-05
-4.01644e-05
-9.27436e-07
8.58688e-05
0.000270442
0.000480198
0.000506572
)
;
    }
}


// ************************************************************************* //
