/*--------------------------------*- C++ -*----------------------------------*\
| =========                 |                                                 |
| \\      /  F ield         | OpenFOAM: The Open Source CFD Toolbox           |
|  \\    /   O peration     | Version:  2.4.0                                 |
|   \\  /    A nd           | Web:      www.OpenFOAM.org                      |
|    \\/     M anipulation  |                                                 |
\*---------------------------------------------------------------------------*/
FoamFile
{
    version     2.0;
    format      ascii;
    class       surfaceScalarField;
    location    "0.3";
    object      phi.water;
}
// * * * * * * * * * * * * * * * * * * * * * * * * * * * * * * * * * * * * * //

dimensions      [0 3 -1 0 0 0 0];

internalField   nonuniform List<scalar> 
1061
(
1.27348e-05
2.81769e-05
4.38241e-05
5.9919e-05
8.4877e-05
0.000106699
0.000141965
0.000161396
-6.60218e-05
6.59394e-05
-0.000109131
4.30618e-05
-0.0001292
2.00647e-05
-0.000131825
2.6375e-06
-0.000118998
-1.29182e-05
-9.4407e-05
-2.51061e-05
-6.71944e-05
-2.87324e-05
-3.58435e-05
-3.38658e-05
-2.79996e-06
-3.56371e-05
3.08972e-05
-3.60835e-05
5.27751e-05
-2.31501e-05
6.6482e-05
-1.59571e-05
6.82736e-05
-6.95646e-06
6.18322e-05
5.73857e-07
4.84515e-05
1.13048e-05
3.11216e-05
1.71597e-05
1.09064e-05
1.99413e-05
-1.92515e-06
8.59286e-06
-4.66047e-06
-6.54519e-05
0.000131348
-0.000105252
8.29001e-05
-0.000123081
3.79347e-05
-0.000120815
5.01537e-07
-0.000110452
-2.29736e-05
-8.98673e-05
-4.52468e-05
-5.70944e-05
-6.13378e-05
-2.61634e-05
-6.54758e-05
4.90646e-06
-6.8128e-05
3.8773e-05
-7.18326e-05
6.28763e-05
-5.11522e-05
7.86617e-05
-4.00389e-05
8.20081e-05
-2.22936e-05
7.66806e-05
-6.07132e-06
6.13219e-05
1.86071e-05
4.3216e-05
3.45467e-05
2.27136e-05
4.08786e-05
4.06597e-06
2.88876e-05
-9.7225e-07
-6.02203e-05
0.000191545
-0.000102093
0.000124792
-0.000113713
4.95679e-05
-0.00011262
-5.44282e-07
-0.000107236
-2.81365e-05
-8.25108e-05
-6.94986e-05
-4.86357e-05
-9.47995e-05
-2.18701e-05
-9.30269e-05
1.10569e-05
-0.000103094
4.53328e-05
-0.000109653
7.19457e-05
-8.48134e-05
8.72329e-05
-6.54586e-05
8.95171e-05
-3.49018e-05
8.35211e-05
-9.2591e-06
6.92188e-05
2.60666e-05
5.12419e-05
5.05389e-05
3.14696e-05
6.14546e-05
1.08191e-05
4.59108e-05
4.79281e-06
-5.2968e-05
0.000244502
-8.84806e-05
0.000160324
-9.42689e-05
5.5381e-05
-9.39561e-05
-7.7631e-07
-9.08625e-05
-3.09033e-05
-7.34508e-05
-8.58015e-05
-4.26551e-05
-0.000123722
-1.10559e-05
-0.000124561
2.27395e-05
-0.000138741
5.60273e-05
-0.000146897
8.171e-05
-0.000118166
9.44314e-05
-8.69646e-05
9.53994e-05
-4.39402e-05
8.92448e-05
-7.58618e-06
7.47113e-05
3.7922e-05
5.69793e-05
6.68637e-05
3.91759e-05
8.00774e-05
1.9823e-05
6.79493e-05
2.77622e-05
-4.48282e-05
0.000289329
-6.71129e-05
0.0001825
-6.60796e-05
5.06145e-05
-6.8017e-05
-1.33871e-05
-6.61899e-05
-3.30234e-05
-5.40988e-05
-9.62177e-05
-2.99181e-05
-0.000143816
3.06328e-06
-0.000155159
3.81313e-05
-0.000173274
6.93952e-05
-0.000179051
9.16873e-05
-0.000146063
0.000100447
-0.000103183
0.000100778
-4.87973e-05
9.32045e-05
1.55569e-07
7.91578e-05
5.33098e-05
6.26506e-05
8.30325e-05
4.02488e-05
0.000102714
1.8311e-05
9.26482e-05
4.74742e-05
-3.72281e-05
0.000326497
-3.92986e-05
0.000183754
-2.59219e-05
2.38492e-05
-2.93471e-05
-5.55969e-05
-3.60682e-05
-6.7493e-05
-3.01624e-05
-0.000102369
-9.08417e-06
-0.000158347
2.07405e-05
-0.000180895
5.31004e-05
-0.00020199
8.05479e-05
-0.000202858
9.87782e-05
-0.00016642
0.000107264
-0.00011655
0.000105785
-4.78873e-05
9.64207e-05
1.38906e-05
7.95979e-05
7.37494e-05
6.36236e-05
9.90638e-05
4.50888e-05
0.000121232
2.09855e-05
0.000117871
6.89015e-05
-2.4443e-05
0.000350781
-1.81919e-05
0.000166487
4.19157e-06
5.87422e-05
1.45254e-05
-4.04565e-05
5.88097e-06
-0.000125518
7.62057e-07
-0.000134304
1.17145e-05
-0.000162341
3.63672e-05
-0.000199484
6.5707e-05
-0.000224876
8.90934e-05
-0.000222424
0.00010236
-0.000205887
0.0001036
-0.000167844
0.000110284
-6.9143e-05
0.000100551
2.92838e-05
8.65879e-05
9.05199e-05
6.83317e-05
0.000117402
5.08868e-05
0.000138714
2.87988e-05
0.000140188
9.77523e-05
-1.15569e-05
0.000289285
3.75718e-06
0.000140997
2.03181e-05
7.34804e-05
3.63921e-06
4.30313e-05
2.78502e-05
-7.58334e-05
2.52116e-05
-0.000168928
3.01017e-05
-0.000171221
4.90627e-05
-0.000211427
7.57131e-05
-0.000242733
9.09151e-05
-0.000244245
0.000105788
-0.000242918
0.000109025
-0.000225002
0.000105862
-0.000154351
9.73305e-05
-2.47075e-05
8.72073e-05
9.84993e-05
7.22752e-05
0.000132316
4.99188e-05
0.00016116
2.745e-05
0.000162685
0.000125204
0.00011596
9.64706e-05
0.000122678
0.000107305
0.000143413
0.000118226
0.000169057
0.000156749
0.00017083
0.000191465
0.00015679
0.00019282
0.000118776
0.000175677
0.000137015
7.05821e-05
5.06284e-05
5.05895e-05
4.72236e-05
2.85944e-05
1.15755e-05
1.86498e-05
-2.01946e-06
0.000103497
4.66101e-05
8.36618e-05
3.94555e-05
4.42909e-05
2.85189e-05
2.34766e-05
3.50969e-05
0.000115008
5.66164e-05
0.000103472
4.97473e-05
9.63176e-05
4.25465e-05
3.9243e-05
8.51031e-05
0.000142219
7.39783e-05
0.000130915
6.35816e-05
0.00012281
5.3423e-05
4.63662e-05
0.000120043
0.000184099
8.15283e-05
0.000171268
7.7779e-05
0.000158392
6.83931e-05
5.62479e-05
0.000152646
0.000195868
7.83854e-05
0.000194452
7.85941e-05
0.000188753
7.44689e-05
6.57025e-05
0.000181902
0.000187621
6.65594e-05
0.000195489
7.02849e-05
0.000198786
6.99458e-05
6.57866e-05
0.000198466
0.000158424
5.02462e-05
0.000176684
5.53898e-05
0.000190501
5.80236e-05
5.79949e-05
0.000198994
0.000126478
3.29231e-05
0.000147152
3.90252e-05
0.000167406
4.27525e-05
4.57998e-05
0.00018469
0.000106286
1.89108e-05
0.000128581
2.32198e-05
0.000146648
2.64755e-05
2.92362e-05
0.000165139
0.000106499
-1.36103e-05
0.000121506
-8.43877e-06
0.000136133
-2.44353e-06
1.48277e-06
0.000146576
8.27032e-05
-3.29943e-05
8.96115e-05
-3.41232e-05
0.000104253
-4.08207e-05
-3.61053e-05
0.000116618
-2.59289e-05
1.59794e-05
-3.7431e-05
2.35762e-07
-3.58701e-05
-9.8678e-06
1.14713e-07
-2.87368e-05
-1.80773e-05
1.67381e-05
-2.20176e-05
4.18247e-06
-2.96472e-05
-2.21345e-06
5.49622e-06
-3.42087e-05
-6.35948e-05
5.83412e-06
-6.1653e-05
2.24114e-06
-6.58301e-05
1.96277e-06
4.44361e-06
-6.47761e-05
-4.43195e-05
4.04764e-06
-4.55729e-05
3.49508e-06
-4.70157e-05
3.40899e-06
4.69824e-06
-4.72714e-05
-6.88232e-05
-6.44559e-05
-6.13035e-05
-5.72302e-05
-1.65625e-05
0.000143893
1.15912e-05
0.000107258
3.38764e-05
0.000103465
3.59185e-05
8.23923e-05
0.000162377
-2.42654e-05
0.000136752
-0.000127501
0.000114984
-0.000184344
0.000140598
-0.000224506
0.00017492
-0.000253428
0.000212817
-0.000247355
0.000245203
-0.000243161
0.000250195
-0.000175878
0.000241802
-0.000124627
0.000206824
-9.49444e-05
0.00016581
2.44236e-05
0.000155829
0.000133262
0.0001173
0.000199643
6.45115e-05
0.00021548
0.000189714
2.53834e-05
0.000112769
3.33852e-05
0.000117976
6.37477e-05
7.71413e-05
0.000198316
5.92269e-05
0.000190034
4.45957e-05
0.000178271
-7.85771e-05
0.000156063
-0.0001727
0.000165504
-0.000227494
0.000202395
-0.000235799
0.000229702
-0.000226059
0.000211379
-0.00020238
0.000121503
-0.000167553
0.000195131
-7.32035e-05
0.000229193
2.74887e-05
0.000185136
1.77108e-06
0.000135494
7.70099e-05
0.000109876
0.000220387
5.92478e-05
0.000266032
0.00024896
0.000122284
9.83997e-05
9.97834e-05
9.38319e-05
9.73252e-05
8.81165e-05
0.000115746
4.70999e-05
0.000180872
5.83307e-06
0.000179746
-8.22834e-05
0.000180373
-0.00016871
0.000189859
-0.000217196
0.000220951
-0.000214807
0.0002328
-0.000205737
0.000205209
-0.000172609
7.40691e-05
-0.000136193
6.14249e-05
-7.02801e-05
0.000132088
8.28844e-05
0.000198583
8.14406e-05
0.000122056
5.7926e-05
8.09743e-05
0.000197684
4.76526e-05
0.000298142
0.000296611
0.000140735
0.000113857
0.000143035
9.44862e-05
0.000148883
5.60758e-05
0.000122226
2.06985e-05
0.00014608
-2.48957e-05
0.000194601
-9.06793e-05
0.000201282
-0.000165091
0.000214302
-0.000198703
0.000236032
-0.000194613
0.000235379
-0.000181521
0.000185194
-0.000138949
7.12232e-05
-9.47765e-05
3.94845e-05
-4.38213e-05
6.25389e-05
5.99432e-05
0.00011014
0.00016421
0.00012349
8.60626e-05
7.25043e-05
0.000158502
4.10897e-05
0.000317972
0.000337634
0.000162786
0.000110348
0.000167076
7.95634e-05
0.000156483
4.13201e-05
0.000121851
3.79772e-06
0.000188343
-3.03971e-05
0.000216045
-9.4879e-05
0.000219914
-0.000155904
0.0002353
-0.000170172
0.000242178
-0.00016607
0.000213058
-0.00014641
6.89655e-05
-8.03065e-05
2.38665e-06
-5.29205e-05
-1.7468e-06
-3.98027e-05
4.84586e-05
9.76765e-06
3.31822e-05
0.000182871
0.000127887
0.000167623
9.3308e-05
0.000127315
3.73614e-05
0.000328943
0.000373877
0.000184461
0.000118235
0.000190219
7.30139e-05
0.000193117
3.16273e-05
0.000165338
-6.11239e-06
0.000153458
-4.05116e-05
0.000228183
-8.77032e-05
0.000234735
-0.000140981
0.000244247
-0.000146921
0.000238106
-0.000141808
0.000150815
-0.000100688
5.07464e-05
-3.78359e-05
2.73416e-05
-3.06296e-05
1.30328e-05
-2.55008e-05
-7.88815e-06
3.06919e-05
4.42072e-05
0.000130808
9.34433e-05
0.000156012
9.80494e-05
0.000139521
3.36266e-05
0.000347448
0.000401004
0.000204073
0.000120805
0.000213482
7.41778e-05
0.000219533
3.02648e-05
0.000199723
-3.77033e-06
0.000183488
-3.91042e-05
0.000197797
-9.07805e-05
0.000230876
-0.00011913
0.000237984
-0.000125765
0.000188734
-0.000113581
5.39656e-05
-2.74822e-05
2.52957e-05
-1.78852e-05
8.22917e-06
-1.35626e-05
7.06482e-06
-2.43358e-05
3.74413e-06
3.40107e-05
6.16414e-05
7.2918e-05
4.52944e-05
0.000178623
8.73927e-05
0.00019069
2.73342e-05
0.000351823
0.000420621
0.000213599
0.000111672
0.000227521
7.23176e-05
0.000233453
3.33775e-05
0.000234815
-2.47011e-07
0.000196936
-4.03063e-05
0.000147409
-6.59087e-05
0.000212319
-0.000105152
0.000203115
-0.00012205
7.75747e-05
-3.60111e-05
3.12662e-05
2.39943e-06
2.28302e-05
-9.45935e-06
2.00428e-05
-1.07731e-05
2.03129e-05
-2.46045e-05
2.91331e-05
2.51913e-05
7.83431e-05
2.37115e-05
5.2252e-05
0.000204759
3.69676e-05
0.000238574
2.07658e-05
0.0003445
0.000435693
0.000209012
8.89515e-05
0.000226608
5.56696e-05
0.000227046
2.2216e-05
0.000199672
-1.64338e-05
0.000154098
-4.53006e-05
0.000155749
-8.23785e-05
0.000157075
-0.000125247
5.66158e-05
-3.74661e-05
1.75542e-05
9.36165e-06
1.73557e-05
2.61682e-06
1.71707e-05
-9.27156e-06
1.69799e-05
-1.05803e-05
1.80854e-05
-2.57087e-05
3.52645e-05
8.01264e-06
6.60968e-05
-7.1163e-06
4.4399e-05
0.000226475
3.16531e-05
0.000275241
1.81241e-05
0.000339693
0.000449218
0.000185092
5.54328e-05
0.000184716
1.58857e-05
0.000183123
3.31621e-06
0.000161747
-3.59775e-05
0.000144177
-0.000103521
0.000107109
-7.39061e-05
2.14685e-05
-3.38624e-06
1.83583e-06
5.22311e-06
6.72297e-06
4.50686e-06
1.15704e-05
-2.22752e-06
1.30635e-05
-1.07616e-05
1.51074e-05
-1.26218e-05
1.53462e-05
-2.5946e-05
2.64476e-05
-3.08792e-06
3.72304e-05
-1.7897e-05
4.60429e-05
0.00021766
3.12936e-05
0.000298801
2.05326e-05
0.000343545
0.000463081
0.000111065
-4.35081e-06
0.000119301
-5.64989e-05
0.000135331
-8.70174e-05
0.000103704
-8.41062e-05
2.79755e-05
1.6141e-05
-3.72133e-06
1.58655e-06
-9.6446e-07
3.16862e-06
9.30668e-07
3.33395e-06
5.98458e-06
-5.4418e-07
8.21509e-06
-4.45436e-06
9.06523e-06
-1.16081e-05
1.04676e-05
-1.40216e-05
9.51545e-06
-2.49924e-05
1.85797e-05
-1.21512e-05
1.62743e-05
-1.55912e-05
4.87721e-05
0.000185152
4.33914e-05
0.000292588
2.74735e-05
0.000363048
0.000482193
0.000122933
-5.99348e-05
9.30082e-05
-3.55484e-05
1.25751e-05
1.59452e-05
-1.66242e-06
2.63081e-05
1.28906e-05
1.92696e-05
2.17519e-06
1.2298e-05
-1.39324e-06
6.73867e-06
-3.20858e-08
1.97522e-06
1.3506e-06
-1.92306e-06
4.24066e-06
-7.34017e-06
5.03303e-06
-1.23968e-05
7.01801e-06
-1.6004e-05
6.48908e-06
-2.44621e-05
1.20014e-05
-1.76627e-05
7.98516e-06
-1.15758e-05
4.45116e-05
0.000148622
5.85072e-05
0.000277964
3.70717e-05
0.000409747
0.000502631
-2.33752e-05
1.07044e-05
-5.51902e-06
3.0855e-05
2.68269e-06
1.91113e-05
-2.88839e-06
3.72612e-05
-5.84893e-06
2.22516e-05
-6.87295e-06
1.33231e-05
-5.60715e-06
5.47479e-06
-3.42946e-06
-1.99011e-07
-1.84554e-06
-3.50275e-06
1.16394e-06
-1.0345e-05
1.17303e-06
-1.24024e-05
3.91522e-06
-1.87437e-05
2.741e-06
-2.32867e-05
7.09829e-06
-2.20189e-05
4.92836e-06
-9.407e-06
3.55846e-05
0.000117967
5.15731e-05
0.000269881
3.75842e-05
0.000457672
0.000516295
-3.70965e-05
2.31603e-05
-3.43028e-05
3.12857e-05
-3.76433e-05
2.24621e-05
-2.37108e-05
2.33301e-05
-1.62775e-05
1.4821e-05
-1.21752e-05
9.22199e-06
-9.48193e-06
2.78589e-06
-7.63304e-06
-2.04414e-06
-5.05636e-06
-6.07314e-06
-2.47534e-06
-1.29215e-05
-1.68722e-06
-1.31854e-05
1.36037e-06
-2.17885e-05
-4.90204e-07
-2.14334e-05
2.9783e-06
-2.5486e-05
-1.32909e-06
-5.09875e-06
1.79466e-05
9.85963e-05
2.41e-05
0.000275631
3.01406e-05
0.000472083
0.000521011
-5.47524e-05
1.31358e-05
-3.818e-05
1.47185e-05
-3.16897e-05
1.59723e-05
-2.45283e-05
1.61739e-05
-2.03516e-05
1.06445e-05
-1.65889e-05
5.46497e-06
-1.36331e-05
-1.6755e-07
-1.1256e-05
-4.41347e-06
-8.16316e-06
-9.16159e-06
-6.03939e-06
-1.50376e-05
-3.85991e-06
-1.53612e-05
-6.15843e-07
-2.50271e-05
-1.58561e-06
-2.04617e-05
7.29238e-07
-2.77967e-05
-4.33132e-06
-3.7134e-08
-5.08257e-06
9.93815e-05
1.24679e-05
0.000277726
2.68097e-05
0.000462886
0.000520318
-4.63848e-05
1.22535e-05
-4.29739e-05
1.13066e-05
-3.78176e-05
1.08211e-05
-3.00597e-05
8.41488e-06
-2.45551e-05
5.14485e-06
-2.06521e-05
1.56196e-06
-1.75208e-05
-3.29256e-06
-1.47739e-05
-7.1581e-06
-1.15644e-05
-1.23641e-05
-9.33481e-06
-1.72646e-05
-5.92812e-06
-1.87625e-05
-2.46624e-06
-2.84877e-05
-1.48427e-06
-2.14401e-05
2.45312e-06
-3.17334e-05
-1.50981e-06
3.92832e-06
-3.75456e-06
0.000101736
1.49512e-05
0.000271999
2.73673e-05
0.000461502
0.000516168
-4.80264e-05
-4.14559e-05
-3.67264e-05
-3.17962e-05
-2.77332e-05
-2.41921e-05
-2.11767e-05
-1.84313e-05
-1.5372e-05
-1.26726e-05
-8.00676e-06
-3.53919e-06
1.09559e-06
9.52919e-06
1.43815e-05
3.02223e-05
2.49913e-05
3.6764e-05
)
;

boundaryField
{
    leftWall
    {
        type            fixedValue;
        value           nonuniform 0();
    }
    rightWall
    {
        type            fixedValue;
        value           uniform 0;
    }
    lowerWall
    {
        type            fixedValue;
        value           uniform 0;
    }
    atmosphere
    {
        type            calculated;
        value           nonuniform 0();
    }
    defaultFaces
    {
        type            empty;
        value           nonuniform 0();
    }
    procBoundary1to0
    {
        type            processor;
        value           nonuniform List<scalar> 
26
(
-1.27342e-05
-1.53646e-05
-1.55401e-05
-1.63109e-05
-1.81833e-05
-1.41866e-05
-1.40449e-05
-1.34304e-05
-5.44684e-05
-7.58979e-05
-0.000125298
-0.000179397
-0.000193486
-0.00017863
-0.000137233
-8.9192e-05
8.30708e-05
-0.000108587
-8.7394e-05
-8.74015e-05
-8.03755e-05
3.27061e-06
1.73261e-05
7.45018e-05
4.61083e-05
7.42259e-05
)
;
    }
    procBoundary1to3
    {
        type            processor;
        value           nonuniform List<scalar> 
23
(
-1.3535e-06
-8.67833e-07
2.5676e-07
6.27743e-07
3.04734e-06
4.74056e-06
6.08948e-06
3.48858e-06
1.07931e-06
-1.97485e-06
-6.30879e-06
-9.89831e-06
-1.5423e-05
-1.99596e-05
-2.34285e-05
-3.29525e-05
-2.60764e-05
-4.01644e-05
-9.27382e-07
8.5869e-05
0.000270442
0.000480198
0.000506572
)
;
    }
}


// ************************************************************************* //
