/*--------------------------------*- C++ -*----------------------------------*\
| =========                 |                                                 |
| \\      /  F ield         | OpenFOAM: The Open Source CFD Toolbox           |
|  \\    /   O peration     | Version:  2.4.0                                 |
|   \\  /    A nd           | Web:      www.OpenFOAM.org                      |
|    \\/     M anipulation  |                                                 |
\*---------------------------------------------------------------------------*/
FoamFile
{
    version     2.0;
    format      ascii;
    class       volVectorField;
    location    "0.3";
    object      U.air;
}
// * * * * * * * * * * * * * * * * * * * * * * * * * * * * * * * * * * * * * //

dimensions      [0 1 -1 0 0 0 0];

internalField   nonuniform List<vector> 
559
(
(0.0515047 0.0196245 0)
(0.0597356 0.116811 0)
(0.114258 0.191572 0)
(0.0671307 0.289614 0)
(0.132484 0.363388 0)
(0.119067 0.508173 0)
(0.147697 0.586982 0)
(0.111432 0.736101 0)
(-0.417724 0.281505 0)
(-0.9479 0.162164 0)
(-1.35171 0.0918034 0)
(-1.49726 0.0541902 0)
(-1.46656 -0.0332422 0)
(-1.27892 -0.0691605 0)
(-0.940173 -0.0527782 0)
(-0.668622 -0.0530193 0)
(-0.274716 -0.0646879 0)
(0.157828 -0.0514653 0)
(0.513785 -0.0154771 0)
(0.700273 -0.0175504 0)
(0.799709 -0.00107743 0)
(0.670687 0.0220976 0)
(0.427474 0.256151 0)
(0.186566 0.244696 0)
(0.104618 0.267442 0)
(-0.122473 0.245041 0)
(-0.0185284 0.219888 0)
(-0.431306 0.714272 0)
(-0.942662 0.338402 0)
(-1.33951 0.157733 0)
(-1.4053 0.0349658 0)
(-1.29573 -0.0499479 0)
(-1.16437 -0.148996 0)
(-0.804975 -0.188778 0)
(-0.460096 -0.258143 0)
(-0.114818 -0.243456 0)
(0.25124 -0.251216 0)
(0.595855 -0.158445 0)
(0.818881 -0.114735 0)
(0.95209 -0.0690764 0)
(0.872857 0.0036266 0)
(0.609488 0.436335 0)
(0.333076 0.447249 0)
(0.245288 0.505841 0)
(-0.034182 0.488061 0)
(-0.0137293 0.32679 0)
(-0.365648 1.055 0)
(-0.894913 0.482811 0)
(-1.27043 0.239908 0)
(-1.26943 0.00514506 0)
(-1.25123 -0.157522 0)
(-1.13914 -0.29502 0)
(-0.655669 -0.399522 0)
(-0.435398 -0.386225 0)
(-0.0345366 -0.435255 0)
(0.308945 -0.456689 0)
(0.69244 -0.344892 0)
(0.930757 -0.290885 0)
(1.05102 -0.181985 0)
(1.02033 -0.077961 0)
(0.894544 0.200358 0)
(0.544186 0.299024 0)
(0.312704 0.489606 0)
(0.0127047 0.386212 0)
(0.0274304 0.196852 0)
(-0.351574 1.41971 0)
(-0.741635 0.7069 0)
(-1.06799 0.249367 0)
(-1.04715 0.00730841 0)
(-1.05949 -0.128283 0)
(-0.966101 -0.406491 0)
(-0.622867 -0.559514 0)
(-0.310638 -0.541305 0)
(0.095032 -0.596118 0)
(0.448928 -0.646796 0)
(0.812311 -0.520564 0)
(1.0386 -0.405266 0)
(1.1213 -0.231825 0)
(1.08811 -0.0743954 0)
(1.00058 0.150201 0)
(0.682712 0.326393 0)
(0.427603 0.650079 0)
(0.132029 0.607145 0)
(0.121951 0.389746 0)
(-0.338195 1.53926 0)
(-0.655861 1.1236 0)
(-0.723305 0.719517 0)
(-0.747408 0.401814 0)
(-0.809328 0.0843389 0)
(-0.69765 -0.322243 0)
(-0.472363 -0.654457 0)
(-0.159569 -0.695873 0)
(0.271933 -0.764877 0)
(0.62851 -0.802579 0)
(0.960931 -0.639547 0)
(1.13285 -0.494451 0)
(1.19044 -0.264657 0)
(1.13303 -0.0531991 0)
(1.02943 0.200691 0)
(0.742314 0.356244 0)
(0.444576 0.7447 0)
(0.104627 0.718077 0)
(0.0783024 0.455082 0)
(-0.104232 1.64246 0)
(-0.143842 1.35458 0)
(-0.131587 0.602268 0)
(-0.345716 0.355726 0)
(-0.599039 0.33423 0)
(-0.729372 -0.0329406 0)
(-0.466591 -0.526028 0)
(0.0559587 -0.825499 0)
(0.462401 -0.909808 0)
(0.802934 -0.71588 0)
(1.12139 -0.434744 0)
(1.25848 -0.30795 0)
(1.28848 -0.178743 0)
(1.19569 -0.00921987 0)
(1.04197 0.291851 0)
(0.698789 0.459554 0)
(0.426756 0.933602 0)
(0.166478 0.844104 0)
(0.0399805 0.531413 0)
(-0.0534669 1.726 0)
(0.183756 1.25735 0)
(0.14723 0.371647 0)
(-0.718461 0.515597 0)
(-0.237076 0.0364986 0)
(-0.413534 -0.0834801 0)
(-0.50194 -0.368444 0)
(0.164265 -0.852658 0)
(0.563315 -0.859043 0)
(0.843397 -0.467401 0)
(1.09442 -0.0313377 0)
(1.08758 0.335394 0)
(1.06331 0.568464 0)
(1.12056 0.390629 0)
(1.09596 0.4087 0)
(0.773801 0.500654 0)
(0.439925 1.01117 0)
(0.247159 0.955482 0)
(0.122232 0.565355 0)
(-0.0374232 1.83217 0)
(0.430784 0.805185 0)
(0.353291 0.201616 0)
(-0.2214 -0.338666 0)
(-1.46887 0.271758 0)
(-0.186659 -0.332445 0)
(-0.472601 -0.432977 0)
(0.215056 -0.81109 0)
(0.526595 -0.754401 0)
(0.826383 -0.556435 0)
(1.12292 -0.350986 0)
(1.16629 -0.0918994 0)
(1.0618 0.300961 0)
(0.97141 0.967952 0)
(0.981472 0.776111 0)
(0.813693 0.768049 0)
(0.481436 1.11886 0)
(0.279803 0.939327 0)
(0.185336 0.591608 0)
(0.90598 0.781921 0)
(0.483287 0.648795 0)
(0.524811 0.636394 0)
(0.753408 0.751009 0)
(0.915213 0.826962 0)
(0.944075 0.853421 0)
(0.86101 0.790783 0)
(0.54599 0.487942 0)
(0.788511 0.429208 0)
(-0.22891 0.365718 0)
(-0.137001 -0.620033 0)
(0.122975 -0.0623458 0)
(0.626965 0.293844 0)
(0.545735 0.317451 0)
(0.226401 0.0272041 0)
(0.206001 -0.454172 0)
(0.581085 0.559504 0)
(0.635987 0.478727 0)
(0.566965 0.361744 0)
(0.453438 0.427717 0)
(0.682812 0.65255 0)
(0.718499 0.62526 0)
(0.733119 0.568741 0)
(0.647232 0.591691 0)
(0.870406 0.791094 0)
(0.811363 0.744988 0)
(0.786381 0.669308 0)
(0.75548 0.57424 0)
(0.936747 0.828985 0)
(0.917332 0.795315 0)
(0.905709 0.74052 0)
(0.871674 0.644763 0)
(0.93322 0.831996 0)
(0.950365 0.822494 0)
(0.96153 0.772815 0)
(0.950754 0.688734 0)
(0.744964 0.666886 0)
(0.852005 0.726971 0)
(0.927715 0.741459 0)
(0.9786 0.696124 0)
(0.512231 0.322456 0)
(0.61774 0.382013 0)
(0.735578 0.401102 0)
(0.853583 0.425774 0)
(0.492665 0.384303 0)
(0.550425 0.41177 0)
(0.622816 0.426235 0)
(0.719867 0.439169 0)
(0.554852 0.365465 0)
(0.667335 0.38144 0)
(0.745212 0.38471 0)
(0.781012 0.36625 0)
(0.414941 -0.0102461 0)
(0.440586 0.0545971 0)
(0.497021 0.164774 0)
(0.593761 0.257623 0)
(-0.082511 0.162913 0)
(-0.201941 -0.0372439 0)
(-0.210289 -0.0904867 0)
(-0.214714 0.0124154 0)
(-0.0985353 0.212196 0)
(-0.108975 0.0345032 0)
(-0.122912 -0.106237 0)
(-0.1855 0.0142083 0)
(-0.335666 0.125244 0)
(-0.337199 0.0375984 0)
(-0.355241 0.0364426 0)
(-0.344582 0.0750477 0)
(-0.239629 0.035388 0)
(-0.235759 0.0312912 0)
(-0.251673 0.0268906 0)
(-0.254328 0.0554263 0)
(-0.378105 0.0361527 0)
(-0.354185 0.0287052 0)
(-0.342555 0.0304881 0)
(-0.31734 0.0284079 0)
(0.430621 1.52821 0)
(0.760353 0.646908 0)
(-0.449716 0.66489 0)
(0.651125 1.04988 0)
(-0.63802 -0.898227 0)
(0.0881983 -0.593651 0)
(-0.132654 -0.752657 0)
(0.217333 -0.878806 0)
(0.343277 -1.0383 0)
(0.68353 -0.95551 0)
(0.847402 -0.323294 0)
(1.51709 1.28644 0)
(0.734617 1.64343 0)
(0.816329 0.432106 0)
(0.59418 0.915994 0)
(0.519744 1.05293 0)
(0.644103 1.22653 0)
(0.49557 0.966484 0)
(0.181772 0.778597 0)
(1.02904 1.06386 0)
(1.35559 0.882983 0)
(0.94602 -0.371274 0)
(0.972235 -0.101304 0)
(0.910631 -0.236319 0)
(0.549177 -0.646059 0)
(0.287874 -0.993648 0)
(0.254523 -1.06096 0)
(0.280879 -1.27027 0)
(0.464779 -1.24048 0)
(-0.225127 -1.25135 0)
(0.196323 -1.44554 0)
(1.20967 -0.813669 0)
(0.411218 1.57841 0)
(0.553059 0.790438 0)
(0.300889 1.09168 0)
(0.356762 1.38202 0)
(0.341283 1.21096 0)
(0.161503 1.07044 0)
(0.980641 0.614724 0)
(1.61004 0.528585 0)
(1.23826 0.308282 0)
(0.920743 -0.574808 0)
(0.753645 -0.38447 0)
(0.723806 -0.66457 0)
(0.546112 -1.08403 0)
(0.419897 -1.23724 0)
(0.387938 -1.27505 0)
(0.531684 -1.13738 0)
(0.254336 -0.778339 0)
(0.541494 -0.604584 0)
(0.121737 -0.320369 0)
(0.729517 -0.0372423 0)
(0.126956 1.11759 0)
(0.154038 0.765737 0)
(-0.0213642 1.36295 0)
(0.177586 1.52333 0)
(0.13375 1.30649 0)
(0.882895 0.681503 0)
(1.1627 0.325931 0)
(1.2237 -0.118744 0)
(1.06331 -0.294084 0)
(0.858403 -0.499795 0)
(0.877531 -0.666019 0)
(0.864026 -0.869316 0)
(0.558952 -1.31686 0)
(0.5455 -1.24152 0)
(0.522676 -1.12614 0)
(0.513037 -0.587743 0)
(0.455186 -0.474571 0)
(0.338012 -0.103529 0)
(0.00840751 0.75694 0)
(0.856323 0.545566 0)
(-0.782158 1.46014 0)
(0.109096 1.18232 0)
(-0.0586727 1.82273 0)
(0.0396475 1.55393 0)
(0.793124 0.553881 0)
(0.934888 0.328072 0)
(1.05382 0.0129045 0)
(0.997137 -0.224959 0)
(1.00903 -0.283332 0)
(1.08978 -0.50317 0)
(1.00678 -0.87603 0)
(0.650998 -1.31561 0)
(0.670725 -1.19959 0)
(0.221003 -0.978897 0)
(0.373348 -0.42456 0)
(0.107157 -0.408373 0)
(-0.0714503 -0.3718 0)
(0.0379159 -0.17548 0)
(0.571172 0.816615 0)
(-0.264093 0.677547 0)
(0.147135 0.801543 0)
(-0.049163 1.8577 0)
(-0.0437824 1.89804 0)
(0.824012 0.522514 0)
(0.898232 0.327973 0)
(0.960618 0.140536 0)
(1.03617 -0.0550038 0)
(1.1387 -0.213754 0)
(1.13113 -0.556482 0)
(0.916806 -1.17116 0)
(0.836494 -1.14255 0)
(0.774731 -1.08432 0)
(0.441236 -0.485112 0)
(0.338259 -0.227224 0)
(0.214791 -0.148055 0)
(0.070949 -0.0543715 0)
(0.0719306 0.278754 0)
(-0.173415 0.863914 0)
(0.738273 0.762971 0)
(-0.288231 0.92944 0)
(0.0510869 1.80273 0)
(-0.129025 2.12782 0)
(0.944665 0.536389 0)
(1.00752 0.338046 0)
(1.06228 0.177273 0)
(1.1571 -0.0187633 0)
(1.17617 -0.290475 0)
(1.12001 -0.837652 0)
(1.01139 -1.10597 0)
(0.974695 -0.994407 0)
(0.566913 -0.801679 0)
(0.289581 -0.16364 0)
(0.174955 -0.118851 0)
(0.122823 -0.112826 0)
(-0.0549385 -0.159878 0)
(0.154632 0.0687285 0)
(-0.133454 0.501279 0)
(0.893209 0.801762 0)
(-0.552342 0.922954 0)
(0.037409 1.74613 0)
(-0.124167 2.11963 0)
(1.01568 0.525947 0)
(1.09336 0.330961 0)
(1.17466 0.134404 0)
(1.20686 -0.1195 0)
(1.24453 -0.593625 0)
(1.2085 -0.849093 0)
(1.15005 -0.866489 0)
(0.909236 -0.846862 0)
(0.388225 -0.178848 0)
(0.173561 -0.00517033 0)
(0.148034 -0.0576104 0)
(0.111007 -0.0399066 0)
(0.0787124 -0.100625 0)
(0.172774 0.215331 0)
(0.0937699 0.196614 0)
(0.839123 0.882999 0)
(-0.326625 0.971265 0)
(0.0343531 1.70377 0)
(-0.150957 2.1364 0)
(1.00916 0.344969 0)
(1.11522 0.147994 0)
(1.17522 0.0110146 0)
(1.22657 -0.259497 0)
(1.25621 -0.47202 0)
(1.27354 -0.575495 0)
(1.12804 -0.676082 0)
(0.381972 -0.158205 0)
(0.0905002 0.0522054 0)
(0.0805864 0.0254112 0)
(0.114327 -0.0414253 0)
(0.0747944 -0.0533189 0)
(0.0841198 -0.126419 0)
(0.145765 0.0516373 0)
(0.167481 0.00953393 0)
(0.641815 1.0979 0)
(-0.250849 1.245 0)
(0.0492392 1.64621 0)
(-0.161716 2.22185 0)
(0.836406 0.396765 0)
(1.09468 0.359266 0)
(1.36293 0.209837 0)
(1.35157 -0.128428 0)
(1.07595 -0.393789 0)
(0.854254 -0.154627 0)
(0.183364 0.0318793 0)
(0.00537464 0.0493514 0)
(0.0205055 0.040131 0)
(0.0414048 0.00319024 0)
(0.0925979 -0.0487835 0)
(0.0406903 -0.0548195 0)
(0.109437 -0.124069 0)
(0.0823932 0.020143 0)
(0.1485 -0.0698762 0)
(0.324139 1.14438 0)
(0.0540269 1.42909 0)
(0.0674662 1.65742 0)
(-0.129882 2.35192 0)
(0.829613 0.298818 0)
(0.821253 -0.0431979 0)
(0.75694 -0.199038 0)
(0.719434 0.33124 0)
(0.263559 0.45213 0)
(-0.0428982 -0.033629 0)
(0.00997474 0.0189464 0)
(-0.023298 0.00696869 0)
(0.0360736 0.00438172 0)
(0.020431 -0.0207136 0)
(0.076806 -0.0530964 0)
(0.0109583 -0.0650964 0)
(0.106981 -0.124473 0)
(0.00898334 -0.0443851 0)
(0.157491 -0.0884265 0)
(0.0548499 0.995319 0)
(0.401205 1.46548 0)
(0.107793 1.73819 0)
(-0.0403269 2.43553 0)
(0.653148 0.352246 0)
(0.499616 0.779533 0)
(-0.0236647 0.391716 0)
(-0.0787935 0.221085 0)
(0.052455 0.000549627 0)
(0.0426216 0.057818 0)
(-0.00895209 0.0207678 0)
(-0.0124059 0.0221447 0)
(0.0138603 -0.00728132 0)
(-0.00436065 -0.0255438 0)
(0.0584537 -0.0580214 0)
(-0.0141321 -0.0724314 0)
(0.0999671 -0.119034 0)
(-0.0371084 -0.072225 0)
(0.165662 -0.063402 0)
(-0.0662356 0.805055 0)
(0.543966 1.38589 0)
(-0.0121447 1.88974 0)
(0.0445299 2.46544 0)
(-0.281638 0.152411 0)
(-0.0915929 0.0684846 0)
(0.0141365 -0.0510714 0)
(0.0018641 0.159718 0)
(-0.0233998 0.150898 0)
(-0.0441084 0.066941 0)
(-0.0299422 0.0355122 0)
(-0.0303913 0.000360958 0)
(-0.000727448 -0.0119582 0)
(-0.0251164 -0.0436449 0)
(0.0425443 -0.0592036 0)
(-0.0354991 -0.0848873 0)
(0.08834 -0.115187 0)
(-0.0677454 -0.096424 0)
(0.15873 -0.0512094 0)
(-0.11826 0.64018 0)
(0.5492 1.32238 0)
(-0.186473 2.13998 0)
(0.10198 2.51619 0)
(-0.193432 0.0920614 0)
(-0.190953 0.253799 0)
(-0.211162 0.193634 0)
(-0.160502 0.15614 0)
(-0.102927 0.0859423 0)
(-0.0778922 0.0558939 0)
(-0.0529353 0.0208525 0)
(-0.0512558 -0.00286778 0)
(-0.0224942 -0.0229167 0)
(-0.0425866 -0.0566447 0)
(0.0255469 -0.06116 0)
(-0.0530153 -0.0990141 0)
(0.0762099 -0.106942 0)
(-0.0876439 -0.114589 0)
(0.13479 -0.0347258 0)
(-0.161633 0.520826 0)
(0.402805 1.32989 0)
(-0.302951 2.20125 0)
(0.142745 2.53026 0)
(-0.315235 0.0807833 0)
(-0.244916 0.0483635 0)
(-0.18691 0.0590039 0)
(-0.145899 0.0852143 0)
(-0.120179 0.061364 0)
(-0.098868 0.0351518 0)
(-0.0766398 0.00674044 0)
(-0.0712611 -0.015921 0)
(-0.0435998 -0.0371775 0)
(-0.0565749 -0.0680272 0)
(0.00737194 -0.0689415 0)
(-0.0648637 -0.114249 0)
(0.065654 -0.0999929 0)
(-0.0947892 -0.128079 0)
(0.111797 -0.0152338 0)
(-0.180861 0.492759 0)
(0.15868 1.35285 0)
(-0.303292 2.18464 0)
(0.137752 2.49125 0)
(-0.25391 0.075696 0)
(-0.24172 0.092124 0)
(-0.217121 0.0788186 0)
(-0.181434 0.0611125 0)
(-0.145226 0.0381592 0)
(-0.121382 0.016601 0)
(-0.0985405 -0.0086047 0)
(-0.0903871 -0.0281901 0)
(-0.0652939 -0.0528878 0)
(-0.0686743 -0.0786209 0)
(-0.0133222 -0.0829952 0)
(-0.0708049 -0.130486 0)
(0.059463 -0.0996557 0)
(-0.0885361 -0.142835 0)
(0.132985 0.0168484 0)
(-0.161342 0.509431 0)
(0.137726 1.34563 0)
(-0.326446 2.22245 0)
(0.0954808 2.47068 0)
(-0.282232 0.0251547 0)
(-0.240355 0.0236222 0)
(-0.211749 0.0355723 0)
(-0.181103 0.0263088 0)
(-0.159928 0.0140989 0)
(-0.139192 -0.0013595 0)
(-0.118039 -0.0238804 0)
(-0.10983 -0.0421474 0)
(-0.0859034 -0.0678549 0)
(-0.0817211 -0.0910241 0)
(-0.0365468 -0.103033 0)
(-0.0725325 -0.150066 0)
(0.053257 -0.113907 0)
(-0.0546298 -0.174037 0)
(0.196532 0.0249508 0)
(-0.0945518 0.479421 0)
(0.499449 1.33439 0)
(-0.460848 2.32674 0)
(0.108809 2.51738 0)
)
;

boundaryField
{
    leftWall
    {
        type            fixedValue;
        value           nonuniform 0();
    }
    rightWall
    {
        type            fixedValue;
        value           uniform (0 0 0);
    }
    lowerWall
    {
        type            fixedValue;
        value           uniform (0 0 0);
    }
    atmosphere
    {
        type            fluxCorrectedVelocity;
        value           nonuniform 0();
    }
    defaultFaces
    {
        type            empty;
    }
    procBoundary1to0
    {
        type            processor;
        value           nonuniform List<vector> 
26
(
(0.247403 0.0591615 0)
(0.292301 0.109495 0)
(0.245156 0.201816 0)
(0.310622 0.275684 0)
(0.361788 0.395267 0)
(0.397005 0.476469 0)
(0.346475 0.561262 0)
(0.286196 0.610021 0)
(0.325639 0.583249 0)
(0.481258 0.484786 0)
(0.742956 0.605474 0)
(1.00113 0.70607 0)
(1.01565 0.664076 0)
(0.906039 0.636917 0)
(0.561822 0.410198 0)
(0.263973 0.193594 0)
(0.351232 0.207157 0)
(0.351232 0.207157 0)
(0.37696 0.297047 0)
(0.452599 0.319708 0)
(0.397368 -0.0442972 0)
(0.104703 0.184556 0)
(-0.0603898 -0.207433 0)
(-0.4583 0.21873 0)
(-0.280399 -0.165726 0)
(-0.416725 0.0621529 0)
)
;
    }
    procBoundary1to3
    {
        type            processor;
        value           nonuniform List<vector> 
23
(
(-0.274963 -0.0571075 0)
(-0.268675 -0.0406125 0)
(-0.265663 -0.020168 0)
(-0.251863 -0.00764579 0)
(-0.245284 0.0111756 0)
(-0.235116 0.0201433 0)
(-0.213719 0.0193984 0)
(-0.186309 0.00617423 0)
(-0.171399 -0.00350913 0)
(-0.155431 -0.0179754 0)
(-0.135582 -0.0377306 0)
(-0.129093 -0.0545231 0)
(-0.107439 -0.0824275 0)
(-0.0984019 -0.105058 0)
(-0.0638274 -0.128309 0)
(-0.0752539 -0.174103 0)
(0.038121 -0.15063 0)
(-0.0187081 -0.229622 0)
(0.262171 -0.0361766 0)
(0.0170091 0.322867 0)
(1.05809 1.31925 0)
(-0.595975 2.54819 0)
(0.303705 2.56797 0)
)
;
    }
}


// ************************************************************************* //
