/*--------------------------------*- C++ -*----------------------------------*\
| =========                 |                                                 |
| \\      /  F ield         | OpenFOAM: The Open Source CFD Toolbox           |
|  \\    /   O peration     | Version:  2.4.0                                 |
|   \\  /    A nd           | Web:      www.OpenFOAM.org                      |
|    \\/     M anipulation  |                                                 |
\*---------------------------------------------------------------------------*/
FoamFile
{
    version     2.0;
    format      ascii;
    class       volVectorField;
    location    "0.3";
    object      U.mercury;
}
// * * * * * * * * * * * * * * * * * * * * * * * * * * * * * * * * * * * * * //

dimensions      [0 1 -1 0 0 0 0];

internalField   nonuniform List<vector> 
559
(
(0.0515049 0.0196218 0)
(0.0597359 0.116807 0)
(0.114258 0.191564 0)
(0.0671312 0.289604 0)
(0.132484 0.363375 0)
(0.119068 0.508155 0)
(0.147702 0.586921 0)
(0.111446 0.735614 0)
(-0.730693 0.114026 0)
(-1.31316 0.00202655 0)
(-1.45958 -0.0824063 0)
(-1.39707 -0.173064 0)
(-1.17053 -0.262507 0)
(-0.899486 -0.33595 0)
(-0.517021 -0.361887 0)
(-0.272581 -0.427182 0)
(0.0100953 -0.441889 0)
(0.297075 -0.445461 0)
(0.526705 -0.294827 0)
(0.802522 -0.274882 0)
(1.06606 -0.395974 0)
(1.1174 -0.395688 0)
(0.934287 -0.215328 0)
(0.480695 -0.0311654 0)
(0.283572 -0.0390999 0)
(-0.0525021 -0.101633 0)
(0.0108686 -0.0997431 0)
(-0.701387 0.38353 0)
(-1.23633 0.179114 0)
(-1.41138 0.0166609 0)
(-1.35075 -0.130635 0)
(-1.13871 -0.275154 0)
(-0.870916 -0.458901 0)
(-0.405461 -0.603588 0)
(-0.0385073 -0.739455 0)
(0.200736 -0.753912 0)
(0.459565 -0.780968 0)
(0.737789 -0.649033 0)
(1.12169 -0.80776 0)
(1.3515 -0.887004 0)
(1.39596 -0.81089 0)
(1.3274 -0.567193 0)
(0.908562 -0.0961912 0)
(0.431668 0.206365 0)
(0.0619713 0.167086 0)
(0.0394282 0.0422753 0)
(-0.593358 0.586744 0)
(-1.14726 0.313926 0)
(-1.322 0.0744995 0)
(-1.20942 -0.161045 0)
(-1.06643 -0.363071 0)
(-0.785534 -0.591133 0)
(-0.156833 -0.78269 0)
(0.15428 -0.83632 0)
(0.405049 -0.93571 0)
(0.700416 -1.0194 0)
(1.07689 -1.06121 0)
(1.3426 -1.13381 0)
(1.45195 -1.09467 0)
(1.46024 -1.00306 0)
(1.39112 -0.737768 0)
(1.06646 -0.246481 0)
(0.570717 0.189552 0)
(0.162131 0.147036 0)
(0.0977159 -0.045421 0)
(-0.5572 0.930768 0)
(-0.974357 0.548966 0)
(-1.10665 0.109504 0)
(-0.9883 -0.136738 0)
(-0.836427 -0.338354 0)
(-0.518462 -0.65996 0)
(0.0346581 -0.851036 0)
(0.427514 -0.925846 0)
(0.630392 -1.03805 0)
(0.935165 -1.14898 0)
(1.22003 -1.18333 0)
(1.41141 -1.1849 0)
(1.49557 -1.12939 0)
(1.49319 -1.04032 0)
(1.41341 -0.768986 0)
(1.1071 -0.216434 0)
(0.713746 0.23051 0)
(0.289214 0.277068 0)
(0.18015 0.0829689 0)
(-0.484907 1.12041 0)
(-0.81927 0.740831 0)
(-0.733635 0.26627 0)
(-0.712337 -0.0836608 0)
(-0.614831 -0.316671 0)
(-0.258546 -0.650098 0)
(0.314344 -0.85088 0)
(0.648422 -0.917235 0)
(0.78343 -1.06577 0)
(1.0418 -1.1596 0)
(1.27243 -1.17644 0)
(1.43566 -1.16047 0)
(1.51453 -1.1139 0)
(1.51739 -1.02898 0)
(1.41799 -0.72887 0)
(1.09795 -0.105158 0)
(0.752846 0.310751 0)
(0.292205 0.388662 0)
(0.150038 0.188678 0)
(-0.439568 1.3404 0)
(-0.649296 0.774154 0)
(-0.285033 0.0613873 0)
(-0.272958 -0.219191 0)
(-0.300104 -0.304719 0)
(-0.0280219 -0.586815 0)
(0.634461 -0.81097 0)
(0.766614 -0.89995 0)
(0.859152 -1.06497 0)
(1.09666 -1.13708 0)
(1.30449 -1.13252 0)
(1.43778 -1.1309 0)
(1.51394 -1.09634 0)
(1.52374 -0.993096 0)
(1.38915 -0.550799 0)
(0.997457 0.144577 0)
(0.74225 0.479289 0)
(0.379807 0.506526 0)
(0.13123 0.280549 0)
(-0.39308 1.53268 0)
(-0.330625 0.926528 0)
(-0.0789227 0.19195 0)
(0.0618818 -0.196292 0)
(0.104071 -0.534395 0)
(0.113946 -0.659511 0)
(0.846083 -0.795494 0)
(0.831984 -0.895652 0)
(0.915371 -1.08349 0)
(1.14122 -1.13076 0)
(1.33481 -1.11871 0)
(1.44569 -1.12875 0)
(1.51001 -1.0933 0)
(1.48449 -0.900941 0)
(1.3273 -0.222587 0)
(1.00517 0.310119 0)
(0.754874 0.550753 0)
(0.496455 0.63044 0)
(0.218811 0.407894 0)
(-0.337997 1.69978 0)
(-0.0253901 0.735659 0)
(0.103251 0.355082 0)
(-0.0533017 -0.365526 0)
(-0.199311 -0.466526 0)
(0.409882 -0.797944 0)
(0.932804 -0.759743 0)
(0.890793 -0.882204 0)
(0.974642 -1.09574 0)
(1.1924 -1.12451 0)
(1.38024 -1.10638 0)
(1.46244 -1.11419 0)
(1.51614 -1.12238 0)
(1.45322 -0.84707 0)
(1.22981 0.101757 0)
(1.02708 0.501064 0)
(0.781175 0.658318 0)
(0.451654 0.729397 0)
(0.224686 0.529779 0)
(0.232377 0.781717 0)
(0.359096 0.648494 0)
(0.487006 0.611918 0)
(0.631106 0.653276 0)
(0.726998 0.664235 0)
(0.729499 0.641449 0)
(0.702823 0.568616 0)
(0.619011 0.435391 0)
(0.346088 0.684393 0)
(0.249726 0.563798 0)
(0.328905 0.25586 0)
(0.304754 0.273996 0)
(0.397714 0.622017 0)
(0.434133 0.550212 0)
(0.370706 0.40378 0)
(0.276811 0.346376 0)
(0.48296 0.581716 0)
(0.494187 0.536811 0)
(0.475446 0.441217 0)
(0.39877 0.380961 0)
(0.615912 0.634564 0)
(0.588275 0.598095 0)
(0.571403 0.516222 0)
(0.527106 0.44372 0)
(0.738001 0.67942 0)
(0.728976 0.668618 0)
(0.720114 0.629463 0)
(0.678697 0.543286 0)
(0.761249 0.661756 0)
(0.775642 0.668424 0)
(0.800337 0.654223 0)
(0.796419 0.606035 0)
(0.74852 0.588992 0)
(0.762924 0.6308 0)
(0.803174 0.633965 0)
(0.811754 0.608306 0)
(0.692519 0.493651 0)
(0.721185 0.531419 0)
(0.773043 0.566338 0)
(0.80381 0.573546 0)
(0.552388 0.33199 0)
(0.636251 0.391407 0)
(0.730677 0.414636 0)
(0.783466 0.487291 0)
(0.493426 0.254275 0)
(0.552703 0.277867 0)
(0.629271 0.292428 0)
(0.720834 0.316981 0)
(0.544608 -0.0587615 0)
(0.628195 -0.039954 0)
(0.701347 -0.00789674 0)
(0.760045 -0.000749862 0)
(0.432656 -0.562512 0)
(0.450066 -0.542216 0)
(0.49695 -0.450532 0)
(0.602399 -0.304882 0)
(-0.0822745 0.162705 0)
(-0.201675 -0.0374763 0)
(-0.209069 -0.0928095 0)
(-0.187649 -0.0167743 0)
(-0.0984116 0.212148 0)
(-0.108841 0.0344491 0)
(-0.122775 -0.106298 0)
(-0.185366 0.0141408 0)
(-0.335555 0.125197 0)
(-0.337077 0.0375439 0)
(-0.355119 0.0363797 0)
(-0.34446 0.07498 0)
(-0.239534 0.035341 0)
(-0.235656 0.0312366 0)
(-0.251562 0.0268315 0)
(-0.254215 0.0553625 0)
(-0.378022 0.0361075 0)
(-0.354091 0.028657 0)
(-0.342453 0.030436 0)
(-0.317235 0.0283519 0)
(0.198994 0.518044 0)
(0.157752 0.546516 0)
(-0.123784 0.455428 0)
(0.704553 0.927845 0)
(-0.210642 -0.533052 0)
(1.05804 -0.662395 0)
(1.02792 -0.644502 0)
(0.96734 -0.865252 0)
(1.06943 -1.09724 0)
(1.2922 -1.09312 0)
(1.46241 -1.04044 0)
(1.48898 -1.03138 0)
(1.47463 -1.04632 0)
(1.43759 -0.927307 0)
(1.13905 0.0761125 0)
(0.909077 0.571662 0)
(0.809118 0.825705 0)
(0.548674 0.879816 0)
(0.193811 0.760756 0)
(0.201883 0.536535 0)
(0.146114 0.579461 0)
(0.0695397 0.603993 0)
(0.436023 0.197853 0)
(0.992245 0.252281 0)
(1.07436 -0.172835 0)
(1.06234 -0.54474 0)
(1.06471 -0.902056 0)
(1.18198 -1.05451 0)
(1.36283 -0.993111 0)
(1.51492 -0.978289 0)
(1.59708 -1.03219 0)
(1.30582 -0.65338 0)
(0.863522 0.3298 0)
(1.21926 -0.0145879 0)
(0.836806 0.504253 0)
(0.738911 0.989109 0)
(0.517706 1.15559 0)
(0.166936 1.06254 0)
(0.386035 0.432414 0)
(0.35191 0.488192 0)
(0.254311 0.502769 0)
(0.416122 0.484433 0)
(0.716809 0.360668 0)
(1.00013 -0.178743 0)
(1.07967 -0.579406 0)
(1.17014 -0.904992 0)
(1.27062 -0.952251 0)
(1.374 -0.874499 0)
(1.45705 -0.871824 0)
(1.45673 -0.889132 0)
(0.473888 -0.628407 0)
(0.718174 -0.191566 0)
(0.629668 0.572219 0)
(0.806272 0.232248 0)
(0.561138 1.03077 0)
(0.38603 1.34558 0)
(0.164034 1.30069 0)
(0.535601 0.449876 0)
(0.577071 0.416772 0)
(0.694963 0.316975 0)
(0.759746 0.194286 0)
(0.864545 0.0132358 0)
(1.05306 -0.264145 0)
(1.15176 -0.585603 0)
(1.26441 -0.814724 0)
(1.32087 -0.81801 0)
(1.40199 -0.784146 0)
(1.47791 -0.788706 0)
(1.40524 -0.769159 0)
(0.822878 -0.372307 0)
(0.123689 0.597922 0)
(0.850328 0.544114 0)
(0.311648 0.584196 0)
(0.516006 0.925193 0)
(0.330161 1.49739 0)
(0.147677 1.5201 0)
(0.662142 0.48676 0)
(0.733959 0.399037 0)
(0.853031 0.255587 0)
(0.91094 0.116973 0)
(1.03545 -0.0742881 0)
(1.15731 -0.300489 0)
(1.25161 -0.579385 0)
(1.32345 -0.716809 0)
(1.36438 -0.683942 0)
(1.42733 -0.638753 0)
(1.41588 -0.638687 0)
(0.547629 -0.559774 0)
(-0.0656339 -0.383524 0)
(0.0451295 -0.151872 0)
(0.568981 0.809912 0)
(-0.199317 0.645872 0)
(0.627328 0.612443 0)
(0.350022 1.59258 0)
(0.0961836 1.75937 0)
(0.769172 0.524365 0)
(0.856896 0.391932 0)
(0.937694 0.266068 0)
(1.0283 0.0868454 0)
(1.14337 -0.097205 0)
(1.23226 -0.294065 0)
(1.31014 -0.51853 0)
(1.35178 -0.53852 0)
(1.39084 -0.492977 0)
(1.44239 -0.487833 0)
(1.10052 -0.438811 0)
(0.374166 -0.268119 0)
(0.0850242 -0.0808974 0)
(0.0717842 0.277097 0)
(-0.172723 0.863296 0)
(0.738112 0.762546 0)
(0.400587 0.670197 0)
(0.31926 1.68696 0)
(0.0820836 1.93563 0)
(0.844288 0.52471 0)
(0.942061 0.38043 0)
(1.01666 0.24879 0)
(1.11798 0.0701522 0)
(1.20648 -0.0663982 0)
(1.26877 -0.253678 0)
(1.30327 -0.380009 0)
(1.35687 -0.400905 0)
(1.40307 -0.41562 0)
(1.29743 -0.420865 0)
(0.270693 -0.265679 0)
(0.129431 -0.154261 0)
(-0.0538353 -0.162978 0)
(0.154565 0.06841 0)
(-0.133525 0.501061 0)
(0.893124 0.801451 0)
(-0.407177 0.883624 0)
(0.253284 1.72701 0)
(0.0719889 2.03378 0)
(0.847107 0.506438 0)
(0.964973 0.370243 0)
(1.04947 0.232677 0)
(1.13383 0.0918319 0)
(1.19478 -0.0389768 0)
(1.24156 -0.180451 0)
(1.3083 -0.297041 0)
(1.35752 -0.355586 0)
(1.33987 -0.380885 0)
(0.339983 -0.179159 0)
(0.154653 -0.117486 0)
(0.110699 -0.049142 0)
(0.078846 -0.101397 0)
(0.172744 0.215016 0)
(0.0937359 0.196323 0)
(0.839095 0.88272 0)
(-0.325896 0.971557 0)
(0.219027 1.70545 0)
(0.0303244 2.10466 0)
(0.843604 0.464573 0)
(0.968155 0.336945 0)
(1.04034 0.212978 0)
(1.09921 0.104575 0)
(1.17272 0.00035831 0)
(1.26877 -0.145294 0)
(1.22911 -0.299795 0)
(1.02244 -0.45881 0)
(0.326792 -0.103183 0)
(0.0848576 0.0171302 0)
(0.114337 -0.043263 0)
(0.0748156 -0.0543037 0)
(0.0841243 -0.126799 0)
(0.145758 0.0513395 0)
(0.167469 0.00924896 0)
(0.641809 1.09762 0)
(-0.250505 1.24506 0)
(0.221622 1.65951 0)
(-0.00434073 2.16684 0)
(0.814698 0.327941 0)
(0.973629 0.270828 0)
(1.08511 0.142824 0)
(1.13932 -0.0612332 0)
(1.10275 -0.290287 0)
(0.986399 -0.496265 0)
(0.727372 -0.390182 0)
(0.0185177 0.0385557 0)
(0.0228902 0.0370318 0)
(0.0414853 0.00233301 0)
(0.0926529 -0.0491682 0)
(0.0407288 -0.055144 0)
(0.109461 -0.124372 0)
(0.0824042 0.019859 0)
(0.148502 -0.0701478 0)
(0.324132 1.1441 0)
(0.0540577 1.42896 0)
(0.239517 1.64741 0)
(-0.00302396 2.23115 0)
(0.797503 -0.0291992 0)
(0.772701 -0.29532 0)
(0.746033 -0.452071 0)
(0.689893 -0.415293 0)
(0.340804 0.166204 0)
(-0.0420058 -0.0358942 0)
(0.0123262 0.015498 0)
(-0.0231561 0.00639819 0)
(0.0361763 0.00395088 0)
(0.0205143 -0.0210369 0)
(0.0768739 -0.0534079 0)
(0.0110122 -0.0653938 0)
(0.107021 -0.124755 0)
(0.0090086 -0.0446531 0)
(0.157503 -0.0886835 0)
(0.0548368 0.995042 0)
(0.401078 1.46531 0)
(0.261752 1.68708 0)
(0.0260527 2.3186 0)
(0.666624 -0.230861 0)
(0.612273 -0.0634525 0)
(0.112426 0.211831 0)
(-0.0262064 0.154557 0)
(0.0528944 -0.000473447 0)
(0.0427759 0.0575502 0)
(-0.00880067 0.0203184 0)
(-0.0122855 0.0218524 0)
(0.0139616 -0.00757266 0)
(-0.00427276 -0.0258334 0)
(0.0585306 -0.0583041 0)
(-0.014067 -0.0727044 0)
(0.100019 -0.119296 0)
(-0.0370715 -0.072476 0)
(0.165684 -0.0636434 0)
(-0.066244 0.804791 0)
(0.543885 1.38569 0)
(0.262986 1.83355 0)
(0.0757735 2.42314 0)
(-0.134487 0.0417775 0)
(-0.0602031 0.035675 0)
(0.0143588 -0.0512591 0)
(0.00203973 0.159559 0)
(-0.0232324 0.150696 0)
(-0.0439589 0.0667075 0)
(-0.0298135 0.0352595 0)
(-0.03028 0.000107056 0)
(-0.000628649 -0.0122183 0)
(-0.0250259 -0.0439047 0)
(0.042627 -0.05946 0)
(-0.0354263 -0.0851373 0)
(0.0884004 -0.115429 0)
(-0.067699 -0.0966584 0)
(0.158761 -0.0514359 0)
(-0.118252 0.639939 0)
(0.549142 1.3222 0)
(0.158994 2.13869 0)
(0.132789 2.5135 0)
(-0.193294 0.0919849 0)
(-0.190808 0.253701 0)
(-0.211011 0.193514 0)
(-0.160349 0.155993 0)
(-0.102783 0.0857702 0)
(-0.0777639 0.0556954 0)
(-0.0528214 0.02064 0)
(-0.051153 -0.00309202 0)
(-0.0223986 -0.0231455 0)
(-0.0424954 -0.0568762 0)
(0.0256325 -0.0613893 0)
(-0.0529377 -0.0992415 0)
(0.0762765 -0.107163 0)
(-0.08759 -0.114806 0)
(0.13483 -0.0349353 0)
(-0.161606 0.520621 0)
(0.400194 1.33405 0)
(0.0583685 2.29998 0)
(0.174437 2.55999 0)
(-0.315112 0.0807067 0)
(-0.244788 0.0482738 0)
(-0.186778 0.0588951 0)
(-0.145768 0.0850864 0)
(-0.120057 0.0612135 0)
(-0.0987563 0.0349839 0)
(-0.0765379 0.00655723 0)
(-0.071166 -0.0161128 0)
(-0.0435076 -0.0373758 0)
(-0.0564848 -0.0682273 0)
(0.00745836 -0.0691433 0)
(-0.0647837 -0.114449 0)
(0.0657246 -0.100191 0)
(-0.0947299 -0.128273 0)
(0.111845 -0.015423 0)
(-0.180816 0.492598 0)
(0.153672 1.38885 0)
(0.0471652 2.26404 0)
(0.204752 2.56737 0)
(-0.253796 0.0756265 0)
(-0.241604 0.0920421 0)
(-0.217005 0.0787223 0)
(-0.181321 0.0609994 0)
(-0.145119 0.0380298 0)
(-0.121283 0.0164564 0)
(-0.0984487 -0.00876078 0)
(-0.0902982 -0.0283548 0)
(-0.0652059 -0.0530578 0)
(-0.0685862 -0.0787948 0)
(-0.0132368 -0.0831712 0)
(-0.0707242 -0.130663 0)
(0.0595356 -0.0998318 0)
(-0.0884723 -0.14301 0)
(0.133041 0.0166779 0)
(-0.161291 0.509267 0)
(0.137539 1.36868 0)
(0.0371109 2.25035 0)
(0.252656 2.56429 0)
(-0.282127 0.0250913 0)
(-0.240252 0.0235473 0)
(-0.211646 0.0354839 0)
(-0.181003 0.0262067 0)
(-0.159834 0.0139826 0)
(-0.139104 -0.0014879 0)
(-0.117956 -0.0240193 0)
(-0.109748 -0.0422939 0)
(-0.0858197 -0.0680074 0)
(-0.0816365 -0.0911809 0)
(-0.0364634 -0.103194 0)
(-0.0724526 -0.150228 0)
(0.0533302 -0.11407 0)
(-0.054563 -0.174199 0)
(0.196593 0.0247867 0)
(-0.0944824 0.479234 0)
(0.498477 1.3367 0)
(0.021314 2.30219 0)
(0.36424 2.53707 0)
)
;

boundaryField
{
    leftWall
    {
        type            fixedValue;
        value           nonuniform 0();
    }
    rightWall
    {
        type            fixedValue;
        value           uniform (0 0 0);
    }
    lowerWall
    {
        type            fixedValue;
        value           uniform (0 0 0);
    }
    atmosphere
    {
        type            fluxCorrectedVelocity;
        value           nonuniform 0();
    }
    defaultFaces
    {
        type            empty;
    }
    procBoundary1to0
    {
        type            processor;
        value           nonuniform List<vector> 
26
(
(0.247403 0.0591612 0)
(0.2923 0.109494 0)
(0.245156 0.201814 0)
(0.310621 0.275681 0)
(0.361804 0.395227 0)
(0.397726 0.4749 0)
(0.34948 0.555683 0)
(0.291986 0.598453 0)
(0.328175 0.552999 0)
(0.481525 0.394558 0)
(0.703179 0.362675 0)
(0.864086 0.363205 0)
(0.873526 0.337237 0)
(0.831852 0.344958 0)
(0.656376 0.292969 0)
(0.279771 0.188893 0)
(0.376731 0.215649 0)
(0.376731 0.215649 0)
(0.378308 0.165025 0)
(0.471456 -0.0923685 0)
(0.415203 -0.559733 0)
(0.10484 0.184449 0)
(-0.0602895 -0.207471 0)
(-0.458212 0.218692 0)
(-0.280321 -0.165766 0)
(-0.416655 0.0621157 0)
)
;
    }
    procBoundary1to3
    {
        type            processor;
        value           nonuniform List<vector> 
23
(
(-0.274885 -0.0571448 0)
(-0.268588 -0.0406519 0)
(-0.265569 -0.0202119 0)
(-0.251767 -0.00769338 0)
(-0.24519 0.0111174 0)
(-0.235024 0.0200757 0)
(-0.213628 0.0193153 0)
(-0.186221 0.00608108 0)
(-0.171316 -0.0036173 0)
(-0.155353 -0.0180915 0)
(-0.135507 -0.0378576 0)
(-0.129017 -0.0546544 0)
(-0.107361 -0.0825666 0)
(-0.098321 -0.105201 0)
(-0.063747 -0.128458 0)
(-0.0751757 -0.174254 0)
(0.0381941 -0.150785 0)
(-0.018641 -0.229777 0)
(0.262231 -0.0363401 0)
(0.0170787 0.32266 0)
(1.05784 1.31928 0)
(-0.0156437 2.4717 0)
(0.549176 2.48512 0)
)
;
    }
}


// ************************************************************************* //
