/*--------------------------------*- C++ -*----------------------------------*\
| =========                 |                                                 |
| \\      /  F ield         | OpenFOAM: The Open Source CFD Toolbox           |
|  \\    /   O peration     | Version:  2.4.0                                 |
|   \\  /    A nd           | Web:      www.OpenFOAM.org                      |
|    \\/     M anipulation  |                                                 |
\*---------------------------------------------------------------------------*/
FoamFile
{
    version     2.0;
    format      ascii;
    class       volVectorField;
    location    "0.3";
    object      U.water;
}
// * * * * * * * * * * * * * * * * * * * * * * * * * * * * * * * * * * * * * //

dimensions      [0 1 -1 0 0 0 0];

internalField   nonuniform List<vector> 
559
(
(0.0515047 0.0196253 0)
(0.0597331 0.116932 0)
(0.114053 0.192267 0)
(0.0660508 0.29481 0)
(0.127752 0.380039 0)
(0.109901 0.545592 0)
(0.138724 0.681517 0)
(0.10526 0.92466 0)
(-0.536266 0.181665 0)
(-1.11084 0.129243 0)
(-1.42257 0.0595815 0)
(-1.5092 0.0134246 0)
(-1.43061 -0.066784 0)
(-1.22539 -0.0918756 0)
(-0.878907 -0.0733239 0)
(-0.60921 -0.0797318 0)
(-0.223683 -0.0968329 0)
(0.169113 -0.0922288 0)
(0.491743 -0.0574405 0)
(0.685005 -0.0442388 0)
(0.796997 -0.0113393 0)
(0.765197 0.0029134 0)
(0.67078 -0.0177142 0)
(0.460911 -0.0247884 0)
(0.283554 -0.0390558 0)
(-0.0525022 -0.101633 0)
(0.0108686 -0.099743 0)
(-0.558397 0.495257 0)
(-1.07856 0.305623 0)
(-1.35489 0.132873 0)
(-1.40705 0.013551 0)
(-1.29499 -0.0689643 0)
(-1.16636 -0.158837 0)
(-0.810858 -0.192071 0)
(-0.46818 -0.262087 0)
(-0.121821 -0.246785 0)
(0.245763 -0.256875 0)
(0.591668 -0.164111 0)
(0.812307 -0.110445 0)
(0.945452 -0.0533561 0)
(0.935731 0.0085963 0)
(0.838142 0.111797 0)
(0.602103 0.174757 0)
(0.425216 0.209729 0)
(0.0619715 0.167087 0)
(0.0394281 0.0422755 0)
(-0.494119 0.721144 0)
(-1.02346 0.46177 0)
(-1.27617 0.220994 0)
(-1.2703 -0.0055747 0)
(-1.25193 -0.159132 0)
(-1.14209 -0.293031 0)
(-0.661698 -0.39497 0)
(-0.444231 -0.379553 0)
(-0.0415578 -0.427313 0)
(0.302351 -0.447346 0)
(0.684429 -0.330133 0)
(0.918824 -0.26655 0)
(1.03771 -0.150713 0)
(1.0166 -0.0534973 0)
(0.916448 0.0900411 0)
(0.697312 0.181668 0)
(0.522 0.220708 0)
(0.162118 0.147085 0)
(0.0977159 -0.0454208 0)
(-0.477253 1.07165 0)
(-0.86938 0.690122 0)
(-1.07958 0.228626 0)
(-1.05052 -0.00840402 0)
(-1.05707 -0.142081 0)
(-0.969923 -0.407656 0)
(-0.632557 -0.556776 0)
(-0.326107 -0.53339 0)
(0.081715 -0.58515 0)
(0.434526 -0.631984 0)
(0.797855 -0.49723 0)
(1.02267 -0.372035 0)
(1.10506 -0.192922 0)
(1.07309 -0.040225 0)
(0.98754 0.154807 0)
(0.754225 0.297343 0)
(0.592207 0.350193 0)
(0.285415 0.277676 0)
(0.180151 0.0829692 0)
(-0.416246 1.25854 0)
(-0.73485 0.855939 0)
(-0.727976 0.344771 0)
(-0.748105 0.00997685 0)
(-0.802236 -0.136267 0)
(-0.685737 -0.471279 0)
(-0.480597 -0.686754 0)
(-0.182094 -0.690531 0)
(0.252557 -0.753545 0)
(0.607127 -0.788075 0)
(0.933573 -0.648199 0)
(1.10995 -0.477763 0)
(1.17325 -0.224145 0)
(1.11862 -0.0168124 0)
(1.02085 0.220748 0)
(0.82812 0.352641 0)
(0.645101 0.43391 0)
(0.282652 0.39116 0)
(0.150041 0.188678 0)
(-0.38211 1.46651 0)
(-0.579306 0.833544 0)
(-0.274196 0.0767383 0)
(-0.289303 -0.18219 0)
(-0.405002 -0.217518 0)
(-0.393873 -0.41307 0)
(-0.251008 -0.727851 0)
(0.0415582 -0.83926 0)
(0.439436 -0.916346 0)
(0.758735 -0.912042 0)
(1.03588 -0.725701 0)
(1.17238 -0.494849 0)
(1.24624 -0.262191 0)
(1.18217 0.000861072 0)
(1.03658 0.305031 0)
(0.816417 0.458502 0)
(0.673576 0.572799 0)
(0.369764 0.509523 0)
(0.131225 0.280544 0)
(-0.344943 1.63751 0)
(-0.298725 0.967118 0)
(-0.0779348 0.191726 0)
(0.0682931 -0.166923 0)
(0.0828094 -0.47851 0)
(0.0534652 -0.588137 0)
(-0.00946071 -0.769517 0)
(0.250155 -0.948645 0)
(0.595362 -1.08144 0)
(0.882253 -1.07337 0)
(1.10153 -0.923755 0)
(1.18416 -0.669005 0)
(1.24017 -0.189683 0)
(1.21575 0.16916 0)
(1.12087 0.403226 0)
(0.895602 0.499821 0)
(0.698061 0.622829 0)
(0.472966 0.640645 0)
(0.218502 0.407633 0)
(-0.31706 1.77105 0)
(0.0066196 0.721542 0)
(0.104002 0.353668 0)
(-0.0902257 -0.302004 0)
(-0.212765 -0.451132 0)
(0.429589 -0.791051 0)
(0.263754 -0.834643 0)
(0.431182 -1.02836 0)
(0.703918 -1.18149 0)
(0.95951 -1.18345 0)
(1.14693 -1.14958 0)
(1.25378 -1.00762 0)
(1.27196 -0.516361 0)
(1.16825 0.0781475 0)
(1.08474 0.514425 0)
(0.929132 0.647895 0)
(0.725131 0.725117 0)
(0.433934 0.737858 0)
(0.224543 0.52968 0)
(0.3583 0.912743 0)
(0.490159 0.670898 0)
(0.646569 0.73641 0)
(0.905784 0.868736 0)
(1.04427 0.931688 0)
(1.02048 0.916971 0)
(0.895537 0.808174 0)
(0.634561 0.552757 0)
(0.478544 0.672104 0)
(0.318201 0.456015 0)
(0.249539 -0.0287088 0)
(0.0189111 0.430245 0)
(0.541268 0.575236 0)
(0.530437 0.471605 0)
(0.343198 0.262835 0)
(0.193241 0.140894 0)
(0.617156 0.591735 0)
(0.59209 0.49532 0)
(0.526064 0.380274 0)
(0.4664 0.344574 0)
(0.822442 0.767888 0)
(0.724208 0.634733 0)
(0.673208 0.535943 0)
(0.618841 0.481402 0)
(1.02317 0.915971 0)
(0.970772 0.853374 0)
(0.891858 0.72457 0)
(0.809151 0.598343 0)
(1.05192 0.932168 0)
(1.05359 0.913321 0)
(1.04618 0.853968 0)
(0.999174 0.723753 0)
(0.988673 0.88741 0)
(1.03038 0.894853 0)
(1.06072 0.861119 0)
(1.08218 0.778364 0)
(0.804618 0.708438 0)
(0.900467 0.770381 0)
(0.983208 0.796369 0)
(1.0474 0.761882 0)
(0.640349 0.489644 0)
(0.734801 0.545525 0)
(0.837148 0.575842 0)
(0.942514 0.601161 0)
(0.560593 0.351563 0)
(0.651672 0.416952 0)
(0.748123 0.455596 0)
(0.864962 0.488663 0)
(0.546695 -0.0313908 0)
(0.633152 0.0159384 0)
(0.712994 0.0743656 0)
(0.793026 0.110729 0)
(0.432662 -0.562852 0)
(0.450132 -0.542598 0)
(0.497245 -0.450718 0)
(0.602863 -0.304793 0)
(-0.0822744 0.162703 0)
(-0.201675 -0.0374828 0)
(-0.209069 -0.0928352 0)
(-0.18765 -0.0168064 0)
(-0.0984116 0.212148 0)
(-0.108841 0.0344491 0)
(-0.122775 -0.106298 0)
(-0.185366 0.0141408 0)
(-0.335555 0.125197 0)
(-0.337077 0.0375439 0)
(-0.355119 0.0363797 0)
(-0.34446 0.07498 0)
(-0.239534 0.035341 0)
(-0.235656 0.0312366 0)
(-0.251562 0.0268315 0)
(-0.254215 0.0553625 0)
(-0.378022 0.0361075 0)
(-0.354091 0.028657 0)
(-0.342453 0.030436 0)
(-0.317235 0.0283519 0)
(-0.246691 1.56312 0)
(0.115402 0.661115 0)
(-0.12525 0.456932 0)
(0.621643 0.946464 0)
(-0.14216 -0.570448 0)
(0.755284 -0.759564 0)
(0.637205 -0.91186 0)
(0.64793 -1.09664 0)
(0.829921 -1.22917 0)
(1.05772 -1.21366 0)
(1.23346 -1.14 0)
(1.42834 -0.48697 0)
(1.1355 -0.394042 0)
(1.25004 -0.546753 0)
(1.04079 0.289711 0)
(0.838569 0.666562 0)
(0.769804 0.886377 0)
(0.532987 0.889512 0)
(0.193298 0.760716 0)
(0.0683013 0.963512 0)
(0.244779 1.00992 0)
(0.396726 0.586271 0)
(0.808576 0.127898 0)
(0.973242 0.0799794 0)
(0.957919 -0.441082 0)
(0.874549 -0.842032 0)
(0.847494 -1.09449 0)
(0.979495 -1.19583 0)
(1.16487 -1.14183 0)
(1.1769 -1.0782 0)
(0.444026 -1.37295 0)
(1.20895 -0.813308 0)
(0.789662 0.550002 0)
(1.22789 -0.0253289 0)
(0.800739 0.549322 0)
(0.71454 1.02135 0)
(0.505773 1.16716 0)
(0.166055 1.06259 0)
(0.529008 0.452844 0)
(0.646995 0.546466 0)
(0.571886 0.676182 0)
(0.665743 0.455669 0)
(0.792098 0.160108 0)
(0.949362 -0.371605 0)
(0.979367 -0.809784 0)
(1.00931 -1.09132 0)
(1.08445 -1.09589 0)
(1.21003 -1.01366 0)
(1.16948 -0.914675 0)
(0.669566 -0.647809 0)
(0.122524 -0.321794 0)
(0.729452 -0.0397208 0)
(0.628179 0.575546 0)
(0.803559 0.229274 0)
(0.550274 1.03966 0)
(0.379606 1.35156 0)
(0.16343 1.30098 0)
(0.659675 0.520466 0)
(0.76278 0.458901 0)
(0.865987 0.339417 0)
(0.902775 0.132186 0)
(0.905258 -0.105235 0)
(1.03766 -0.420668 0)
(1.07826 -0.804467 0)
(1.12775 -1.00136 0)
(1.18029 -0.979457 0)
(1.25472 -0.944413 0)
(1.1335 -0.797299 0)
(0.518582 -0.496856 0)
(0.341365 -0.105822 0)
(0.0083707 0.756407 0)
(0.857169 0.543529 0)
(0.311356 0.584685 0)
(0.515076 0.925656 0)
(0.327931 1.49948 0)
(0.147369 1.52047 0)
(0.791403 0.536272 0)
(0.866902 0.410282 0)
(0.966998 0.228927 0)
(0.97781 0.057353 0)
(1.04403 -0.156913 0)
(1.14753 -0.437859 0)
(1.18881 -0.768851 0)
(1.21427 -0.894635 0)
(1.24518 -0.874775 0)
(1.20465 -0.833871 0)
(0.655608 -0.51327 0)
(0.109298 -0.409673 0)
(-0.0715964 -0.372161 0)
(0.0378085 -0.175818 0)
(0.571123 0.816138 0)
(-0.199347 0.645878 0)
(0.627335 0.612481 0)
(0.349685 1.59284 0)
(0.0960118 1.75961 0)
(0.939505 0.57197 0)
(0.995809 0.372627 0)
(1.07014 0.179242 0)
(1.12798 -0.0100553 0)
(1.16979 -0.19838 0)
(1.23219 -0.468911 0)
(1.2623 -0.722274 0)
(1.25855 -0.75026 0)
(1.26699 -0.733275 0)
(1.00899 -0.609662 0)
(0.358735 -0.236587 0)
(0.214903 -0.148635 0)
(0.0708537 -0.0547291 0)
(0.0718366 0.278447 0)
(-0.173484 0.863547 0)
(0.738216 0.762541 0)
(0.400586 0.670205 0)
(0.319197 1.68702 0)
(0.0820303 1.93572 0)
(1.08833 0.60551 0)
(1.14262 0.364053 0)
(1.20877 0.147404 0)
(1.27004 -0.0407549 0)
(1.28811 -0.21691 0)
(1.28454 -0.471975 0)
(1.27122 -0.631304 0)
(1.27608 -0.664212 0)
(1.15665 -0.684719 0)
(0.440814 -0.250332 0)
(0.175127 -0.119538 0)
(0.122779 -0.113222 0)
(-0.0549933 -0.160227 0)
(0.154573 0.0684171 0)
(-0.133512 0.500984 0)
(0.893143 0.801458 0)
(-0.407178 0.883624 0)
(0.253257 1.72703 0)
(0.071977 2.0338 0)
(1.12091 0.599612 0)
(1.21923 0.386724 0)
(1.31878 0.155958 0)
(1.36424 0.00330563 0)
(1.33919 -0.205023 0)
(1.30193 -0.446998 0)
(1.24761 -0.577256 0)
(1.19299 -0.619886 0)
(0.68391 -0.335739 0)
(0.174262 -0.00615092 0)
(0.14805 -0.0580276 0)
(0.110998 -0.0402786 0)
(0.0786906 -0.100962 0)
(0.172745 0.215022 0)
(0.093738 0.196323 0)
(0.839096 0.882722 0)
(-0.325895 0.971558 0)
(0.219021 1.70545 0)
(0.0303177 2.10466 0)
(1.07679 0.499206 0)
(1.20506 0.306667 0)
(1.26082 0.145305 0)
(1.28724 -0.0067625 0)
(1.27306 -0.266601 0)
(1.19409 -0.468195 0)
(1.03267 -0.588454 0)
(0.544075 -0.388903 0)
(0.0910247 0.0512503 0)
(0.0806537 0.0250142 0)
(0.114365 -0.0417989 0)
(0.0748123 -0.0536664 0)
(0.0841243 -0.12674 0)
(0.145758 0.0513398 0)
(0.167469 0.00924932 0)
(0.641809 1.09762 0)
(-0.250505 1.24506 0)
(0.221621 1.65951 0)
(-0.00434284 2.16684 0)
(0.984124 0.411178 0)
(1.12551 0.277008 0)
(1.23248 0.0901518 0)
(1.22858 -0.24048 0)
(1.00607 -0.525275 0)
(0.747426 -0.637217 0)
(0.237402 -0.0888715 0)
(0.00556001 0.048912 0)
(0.0206105 0.0397695 0)
(0.0414809 0.00283423 0)
(0.092653 -0.0491252 0)
(0.0407288 -0.0551422 0)
(0.109461 -0.124372 0)
(0.0824043 0.0198591 0)
(0.148502 -0.0701476 0)
(0.324132 1.1441 0)
(0.0540566 1.42896 0)
(0.239517 1.64741 0)
(-0.00302418 2.23114 0)
(0.838146 0.0311976 0)
(0.776757 -0.283724 0)
(0.73543 -0.463495 0)
(0.677618 -0.416081 0)
(0.325655 0.191743 0)
(-0.0426104 -0.0340173 0)
(0.0101442 0.0186359 0)
(-0.0231675 0.00665034 0)
(0.036177 0.00405694 0)
(0.0205143 -0.0210354 0)
(0.0768739 -0.0534079 0)
(0.0110122 -0.0653938 0)
(0.107021 -0.124755 0)
(0.00900863 -0.044653 0)
(0.157503 -0.0886834 0)
(0.0548369 0.995043 0)
(0.401078 1.46531 0)
(0.261752 1.68708 0)
(0.0260528 2.3186 0)
(0.666857 -0.23068 0)
(0.612304 -0.0631312 0)
(0.11259 0.212769 0)
(-0.0261598 0.155592 0)
(0.0528811 8.57167e-05 0)
(0.0427968 0.0575739 0)
(-0.00880602 0.0204979 0)
(-0.0122854 0.0218598 0)
(0.0139616 -0.00757223 0)
(-0.00427276 -0.0258334 0)
(0.0585306 -0.0583041 0)
(-0.014067 -0.0727044 0)
(0.100019 -0.119296 0)
(-0.0370715 -0.0724759 0)
(0.165684 -0.0636433 0)
(-0.0662439 0.804791 0)
(0.543885 1.38569 0)
(0.262986 1.83355 0)
(0.0757735 2.42314 0)
(-0.134487 0.0417716 0)
(-0.060203 0.0356784 0)
(0.0143586 -0.0512587 0)
(0.00204081 0.15956 0)
(-0.0232323 0.150708 0)
(-0.0439587 0.0667229 0)
(-0.0298135 0.0352716 0)
(-0.03028 0.000107459 0)
(-0.000628649 -0.0122183 0)
(-0.0250259 -0.0439047 0)
(0.042627 -0.05946 0)
(-0.0354263 -0.0851373 0)
(0.0884004 -0.115429 0)
(-0.067699 -0.0966583 0)
(0.158761 -0.0514358 0)
(-0.118252 0.639939 0)
(0.549142 1.3222 0)
(0.158994 2.13869 0)
(0.132789 2.5135 0)
(-0.193294 0.0919849 0)
(-0.190808 0.253701 0)
(-0.211011 0.193515 0)
(-0.16035 0.155994 0)
(-0.102784 0.0857728 0)
(-0.0777637 0.0556993 0)
(-0.0528213 0.0206415 0)
(-0.051153 -0.00309199 0)
(-0.0223986 -0.0231455 0)
(-0.0424954 -0.0568762 0)
(0.0256325 -0.0613893 0)
(-0.0529377 -0.0992415 0)
(0.0762765 -0.107163 0)
(-0.08759 -0.114806 0)
(0.13483 -0.0349352 0)
(-0.161606 0.520621 0)
(0.400194 1.33405 0)
(0.0583685 2.29998 0)
(0.174437 2.55999 0)
(-0.315112 0.0807068 0)
(-0.244788 0.0482738 0)
(-0.186778 0.0588952 0)
(-0.145768 0.0850867 0)
(-0.120057 0.0612141 0)
(-0.0987563 0.0349845 0)
(-0.0765379 0.00655739 0)
(-0.071166 -0.0161128 0)
(-0.0435076 -0.0373758 0)
(-0.0564848 -0.0682273 0)
(0.00745836 -0.0691433 0)
(-0.0647837 -0.114449 0)
(0.0657246 -0.100191 0)
(-0.0947299 -0.128273 0)
(0.111845 -0.0154229 0)
(-0.180816 0.492598 0)
(0.153672 1.38885 0)
(0.0471652 2.26404 0)
(0.204752 2.56737 0)
(-0.253796 0.0756265 0)
(-0.241604 0.0920421 0)
(-0.217005 0.0787224 0)
(-0.181321 0.0609995 0)
(-0.145119 0.0380299 0)
(-0.121283 0.0164564 0)
(-0.0984487 -0.00876077 0)
(-0.0902982 -0.0283548 0)
(-0.0652059 -0.0530578 0)
(-0.0685862 -0.0787948 0)
(-0.0132368 -0.0831712 0)
(-0.0707242 -0.130663 0)
(0.0595356 -0.0998318 0)
(-0.0884723 -0.14301 0)
(0.133041 0.016678 0)
(-0.161291 0.509267 0)
(0.137539 1.36868 0)
(0.0371109 2.25035 0)
(0.252656 2.56429 0)
(-0.282127 0.0250913 0)
(-0.240252 0.0235473 0)
(-0.211646 0.0354839 0)
(-0.181003 0.0262068 0)
(-0.159834 0.0139826 0)
(-0.139104 -0.0014879 0)
(-0.117956 -0.0240193 0)
(-0.109748 -0.0422939 0)
(-0.0858197 -0.0680074 0)
(-0.0816365 -0.0911809 0)
(-0.0364634 -0.103194 0)
(-0.0724526 -0.150228 0)
(0.0533302 -0.11407 0)
(-0.054563 -0.174199 0)
(0.196593 0.0247869 0)
(-0.0944829 0.479235 0)
(0.498476 1.3367 0)
(0.021314 2.30219 0)
(0.36424 2.53707 0)
)
;

boundaryField
{
    leftWall
    {
        type            fixedValue;
        value           nonuniform 0();
    }
    rightWall
    {
        type            fixedValue;
        value           uniform (0 0 0);
    }
    lowerWall
    {
        type            fixedValue;
        value           uniform (0 0 0);
    }
    atmosphere
    {
        type            fluxCorrectedVelocity;
        value           nonuniform 0();
    }
    defaultFaces
    {
        type            empty;
    }
    procBoundary1to0
    {
        type            processor;
        value           nonuniform List<vector> 
26
(
(0.247403 0.0591691 0)
(0.292282 0.11016 0)
(0.244113 0.206225 0)
(0.30428 0.296796 0)
(0.322383 0.480056 0)
(0.306175 0.67404 0)
(0.243154 0.75295 0)
(0.198264 0.785055 0)
(0.310864 0.735854 0)
(0.479756 0.647453 0)
(0.768562 0.766028 0)
(1.03372 0.780673 0)
(1.03335 0.697845 0)
(0.909657 0.618875 0)
(0.602848 0.394026 0)
(0.344247 0.196516 0)
(0.484064 0.368933 0)
(0.484064 0.368933 0)
(0.403968 0.20338 0)
(0.471208 -0.0910864 0)
(0.415202 -0.559838 0)
(0.10484 0.184449 0)
(-0.0602895 -0.207471 0)
(-0.458212 0.218692 0)
(-0.280321 -0.165766 0)
(-0.416655 0.0621157 0)
)
;
    }
    procBoundary1to3
    {
        type            processor;
        value           nonuniform List<vector> 
23
(
(-0.274885 -0.0571448 0)
(-0.268588 -0.0406519 0)
(-0.265569 -0.0202119 0)
(-0.251767 -0.00769338 0)
(-0.24519 0.0111174 0)
(-0.235024 0.0200757 0)
(-0.213628 0.0193153 0)
(-0.186221 0.00608108 0)
(-0.171316 -0.0036173 0)
(-0.155353 -0.0180915 0)
(-0.135507 -0.0378576 0)
(-0.129017 -0.0546544 0)
(-0.107361 -0.0825666 0)
(-0.098321 -0.105201 0)
(-0.063747 -0.128458 0)
(-0.0751757 -0.174254 0)
(0.0381941 -0.150785 0)
(-0.018641 -0.229777 0)
(0.262231 -0.0363397 0)
(0.0170781 0.322662 0)
(1.05784 1.31928 0)
(-0.0156438 2.4717 0)
(0.549176 2.48512 0)
)
;
    }
}


// ************************************************************************* //
