/*--------------------------------*- C++ -*----------------------------------*\
| =========                 |                                                 |
| \\      /  F ield         | OpenFOAM: The Open Source CFD Toolbox           |
|  \\    /   O peration     | Version:  2.4.0                                 |
|   \\  /    A nd           | Web:      www.OpenFOAM.org                      |
|    \\/     M anipulation  |                                                 |
\*---------------------------------------------------------------------------*/
FoamFile
{
    version     2.0;
    format      ascii;
    class       volScalarField;
    location    "0.3";
    object      alpha.mercury;
}
// * * * * * * * * * * * * * * * * * * * * * * * * * * * * * * * * * * * * * //

dimensions      [0 0 0 0 0 0 0];

internalField   nonuniform List<scalar> 
575
(
6.48742e-18
1.01237e-17
1.6748e-17
2.81528e-17
1.15176e-18
1.728e-18
2.54726e-18
3.76049e-18
1.81639e-19
2.76936e-19
4.1121e-19
5.95858e-19
2.82691e-20
4.46314e-20
6.85273e-20
1.01378e-19
3.60108e-21
6.00939e-21
9.7658e-21
1.52732e-20
3.96351e-22
7.1681e-22
1.26397e-21
2.14377e-21
3.92903e-23
7.79067e-23
1.49803e-22
2.75347e-22
3.59489e-24
7.80396e-24
1.62255e-23
3.19331e-23
2.93368e-25
6.94707e-25
1.56241e-24
3.30746e-24
2.13013e-26
5.4997e-26
1.34178e-25
3.06387e-25
1.36779e-27
3.86395e-27
1.02734e-26
2.54924e-26
7.79247e-29
2.41889e-28
7.05036e-28
1.91365e-27
3.94903e-30
1.35447e-29
4.35357e-29
1.30073e-28
1.783e-31
6.79655e-31
2.42411e-30
8.02495e-30
7.17855e-33
3.06021e-32
1.21891e-31
4.5003e-31
2.5761e-34
1.23685e-33
5.54062e-33
2.29772e-32
8.22278e-36
4.48162e-35
2.2757e-34
1.06844e-33
2.32512e-37
1.45229e-36
8.43745e-36
4.52655e-35
5.78565e-39
4.18814e-38
2.81504e-37
1.74465e-36
1.25223e-40
1.0662e-39
8.40929e-39
6.10329e-38
2.31352e-42
2.36255e-41
2.22712e-40
1.92749e-39
3.52674e-44
4.44587e-43
5.14306e-42
5.44554e-41
4.25332e-46
6.88072e-45
1.01019e-43
1.34969e-42
3.43418e-48
7.93021e-47
1.6148e-45
2.92335e-44
1.27641e-50
4.69298e-49
1.48348e-47
4.09392e-46
4.73245e-17
1.11342e-16
2.24713e-16
2.74014e-16
2.6011e-16
1.86651e-16
8.79555e-17
2.01318e-17
1.90855e-17
9.04487e-17
6.38468e-16
3.90647e-15
1.8505e-14
7.76188e-14
2.38254e-13
5.51855e-13
7.51621e-13
1.71547e-12
5.21096e-12
5.57801e-18
1.07622e-17
1.72006e-17
2.16662e-17
2.54454e-17
2.23076e-17
1.34311e-17
6.22679e-18
8.94176e-18
6.13128e-17
4.92002e-16
3.27872e-15
1.67056e-14
7.29482e-14
2.34171e-13
5.58499e-13
8.24225e-13
1.48462e-12
3.98204e-12
8.32056e-19
1.49019e-18
2.27555e-18
3.14437e-18
3.91766e-18
3.74697e-18
2.79154e-18
1.87145e-18
4.20177e-18
3.81698e-17
3.52653e-16
2.64343e-15
1.51605e-14
6.89591e-14
2.31862e-13
5.76087e-13
9.27667e-13
1.35255e-12
2.94588e-12
1.43665e-19
2.65598e-19
4.2871e-19
6.13284e-19
7.72906e-19
7.84465e-19
6.61455e-19
5.32961e-19
1.80166e-18
2.06068e-17
2.23275e-16
1.95031e-15
1.30876e-14
6.56462e-14
2.28898e-13
5.92567e-13
1.04506e-12
1.31341e-12
2.30386e-12
2.29604e-20
4.69012e-20
8.22119e-20
1.22918e-19
1.60077e-19
1.73193e-19
1.56227e-19
1.40134e-19
6.37429e-19
8.88825e-18
1.14331e-16
1.19173e-15
9.56123e-15
5.58819e-14
2.2142e-13
5.92924e-13
1.09626e-12
1.33883e-12
1.9724e-12
3.46856e-21
7.80193e-21
1.46749e-20
2.30626e-20
3.19935e-20
3.69856e-20
3.47906e-20
3.30459e-20
1.71522e-19
2.81244e-18
4.27577e-17
5.34259e-16
5.19929e-15
3.69133e-14
1.77058e-13
5.4597e-13
1.08542e-12
1.3939e-12
1.85532e-12
4.77735e-22
1.16847e-21
2.36683e-21
3.98034e-21
5.99019e-21
7.38411e-21
7.23942e-21
6.94273e-21
3.38504e-20
6.20131e-19
1.08418e-17
1.58753e-16
1.85347e-15
1.62412e-14
9.89912e-14
3.87904e-13
9.47614e-13
1.50144e-12
2.1296e-12
5.89482e-23
1.56691e-22
3.45849e-22
6.3539e-22
1.03643e-21
1.36066e-21
1.4087e-21
1.33474e-21
5.04401e-21
9.67643e-20
1.8748e-18
3.08661e-17
4.14244e-16
4.3243e-15
3.30979e-14
1.73088e-13
5.84613e-13
1.29624e-12
1.98386e-12
6.52403e-24
1.8969e-23
4.59982e-23
9.34053e-23
1.64819e-22
2.31503e-22
2.5648e-22
2.42608e-22
6.16828e-22
1.14003e-20
2.39239e-19
4.32078e-18
6.46487e-17
7.72691e-16
7.08572e-15
4.76027e-14
2.2331e-13
6.79401e-13
1.26866e-12
6.49431e-25
2.08447e-24
5.59634e-24
1.26027e-23
2.41106e-23
3.64977e-23
4.36216e-23
4.22902e-23
6.95832e-23
1.08669e-21
2.44753e-20
4.83034e-19
8.04346e-18
1.09396e-16
1.17093e-15
9.46695e-15
5.51386e-14
2.16987e-13
4.83227e-13
5.85516e-26
2.0895e-25
6.24372e-25
1.56047e-24
3.25334e-24
5.34999e-24
6.9378e-24
7.07399e-24
8.21177e-24
8.83095e-23
2.09922e-21
4.47583e-20
8.10994e-19
1.21507e-17
1.45954e-16
1.35613e-15
9.33825e-15
4.46546e-14
1.11944e-13
4.79712e-27
1.91518e-26
6.39647e-26
1.7773e-25
4.06538e-25
7.32047e-25
1.03085e-24
1.1141e-24
1.05843e-24
6.132e-24
1.47148e-22
3.34673e-21
6.52137e-20
1.06145e-18
1.40357e-17
1.45859e-16
1.14209e-15
6.29161e-15
1.70844e-14
3.58201e-28
1.60819e-27
6.02852e-27
1.86835e-26
4.72632e-26
9.29684e-26
1.4105e-25
1.62086e-25
1.44213e-25
3.91347e-25
8.59141e-24
2.06543e-22
4.28885e-21
7.49445e-20
1.07371e-18
1.22113e-17
1.05516e-16
6.42641e-16
1.84467e-15
2.44374e-29
1.24006e-28
5.24103e-28
1.82128e-27
5.08778e-27
1.08699e-26
1.77333e-26
2.1672e-26
1.94264e-26
2.65159e-26
4.27705e-25
1.07375e-23
2.35755e-22
4.37894e-21
6.70841e-20
8.20618e-19
7.6512e-18
5.00327e-17
1.48961e-16
1.52561e-30
8.79692e-30
4.21427e-29
1.65076e-28
5.04617e-28
1.1697e-27
2.04801e-27
2.65742e-27
2.46681e-27
2.19425e-27
1.87165e-26
4.78593e-25
1.10356e-23
2.1607e-22
3.50175e-21
4.54486e-20
4.49648e-19
3.09397e-18
9.4017e-18
8.73374e-32
5.75715e-31
3.14909e-30
1.3802e-29
4.61413e-29
1.1591e-28
2.17402e-28
2.98798e-28
2.89233e-28
2.16517e-28
7.63112e-28
1.85848e-26
4.47093e-25
9.16447e-24
1.55769e-22
2.12226e-21
2.20034e-20
1.57117e-19
4.80653e-19
4.59181e-33
3.48268e-32
2.19243e-31
1.06497e-30
3.89435e-30
1.05908e-29
2.12418e-29
3.08456e-29
3.11259e-29
2.23751e-29
3.2828e-29
6.39085e-28
1.59061e-26
3.39414e-25
6.00907e-24
8.52359e-23
9.17473e-22
6.73267e-21
2.04996e-20
2.22018e-34
1.95376e-33
1.41042e-32
7.59573e-32
3.0393e-31
8.94063e-31
1.91448e-30
2.9301e-30
3.07495e-30
2.22195e-30
1.76692e-30
1.98864e-29
5.03589e-28
1.11334e-26
2.04209e-25
2.99664e-24
3.32528e-23
2.49045e-22
7.47644e-22
9.87372e-36
1.02171e-34
8.38899e-34
5.01778e-33
2.19843e-32
6.99138e-32
1.5961e-31
2.56896e-31
2.79624e-31
2.05579e-31
1.2268e-31
5.83224e-31
1.43703e-29
3.27646e-28
6.20055e-27
9.36814e-26
1.06604e-24
8.10917e-24
2.38175e-23
4.03398e-37
4.97417e-36
4.62158e-35
3.07767e-34
1.47802e-33
5.08016e-33
1.23503e-32
2.08636e-32
2.34957e-32
1.76086e-32
9.54902e-33
1.76671e-32
3.7486e-31
8.75866e-30
1.70463e-28
2.64206e-27
3.07091e-26
2.36426e-25
6.75163e-25
1.5124e-38
2.23379e-37
2.36221e-36
1.7572e-35
9.26479e-35
3.44227e-34
8.90396e-34
1.5762e-33
1.83274e-33
1.39926e-33
7.41217e-34
6.45413e-34
9.09436e-33
2.14967e-31
4.29218e-30
6.80848e-29
8.06143e-28
6.26623e-27
1.73121e-26
5.20515e-40
9.26096e-39
1.12349e-37
9.37518e-37
5.43718e-36
2.18416e-35
6.00573e-35
1.11229e-34
1.33295e-34
1.03575e-34
5.48266e-35
3.13025e-35
2.12629e-34
4.91131e-33
1.00284e-31
1.62464e-30
1.95524e-29
1.53145e-28
4.07694e-28
1.63051e-41
3.51745e-40
4.95417e-39
4.67089e-38
2.9919e-37
1.3019e-36
3.80669e-36
7.37127e-36
9.09404e-36
7.18709e-36
3.82845e-36
1.83486e-36
5.09726e-36
1.05266e-34
2.19046e-33
3.62314e-32
4.42959e-31
3.49331e-30
8.93372e-30
4.75854e-43
1.26085e-41
2.07355e-40
2.20993e-39
1.56147e-38
7.34677e-38
2.2798e-37
4.60706e-37
5.84352e-37
4.69567e-37
2.5248e-37
1.13816e-37
1.42495e-37
2.16847e-36
4.54648e-35
7.66465e-34
9.50874e-33
7.54184e-32
1.84833e-31
1.03097e-44
3.75405e-43
7.65844e-42
9.53869e-41
7.57632e-40
3.89437e-39
1.28898e-38
2.7242e-38
3.55511e-38
2.90698e-38
1.58104e-38
6.98134e-39
5.11037e-39
4.35125e-38
8.98505e-37
1.54562e-35
1.9485e-34
1.55492e-33
3.64552e-33
)
;

boundaryField
{
    leftWall
    {
        type            zeroGradient;
    }
    rightWall
    {
        type            zeroGradient;
    }
    lowerWall
    {
        type            zeroGradient;
    }
    atmosphere
    {
        type            inletOutlet;
        inletValue      uniform 0;
        value           nonuniform List<scalar> 
23
(
0
0
0
0
1.03097e-44
3.75405e-43
7.65844e-42
9.53869e-41
7.57632e-40
3.89437e-39
1.28898e-38
2.7242e-38
3.55511e-38
2.90698e-38
1.58104e-38
6.98134e-39
5.11037e-39
4.35125e-38
8.98505e-37
1.54562e-35
1.9485e-34
1.55492e-33
3.64552e-33
)
;
    }
    defaultFaces
    {
        type            empty;
    }
    procBoundary3to1
    {
        type            processor;
        value           nonuniform List<scalar> 
23
(
7.51125e-17
1.05078e-16
1.78378e-16
3.31772e-16
5.61186e-16
1.34649e-15
3.00787e-15
4.16418e-15
3.92435e-15
2.1985e-15
7.83477e-16
6.67115e-17
4.3415e-17
1.28631e-16
7.99433e-16
4.58574e-15
2.06821e-14
8.31805e-14
2.45444e-13
5.59456e-13
7.08636e-13
2.08728e-12
6.39737e-12
)
;
    }
    procBoundary3to2
    {
        type            processor;
        value           nonuniform List<scalar> 
25
(
2.94978e-18
5.3023e-19
7.85193e-20
1.17623e-20
1.40398e-21
1.39695e-22
1.21816e-23
9.7514e-25
7.04141e-26
4.54603e-27
2.60271e-28
1.32009e-29
5.93677e-31
2.36868e-32
8.38549e-34
2.63027e-35
7.28761e-37
1.77331e-38
3.756e-40
6.81861e-42
1.03538e-43
1.25748e-45
1.1557e-47
6.30144e-50
1.44248e-52
)
;
    }
}


// ************************************************************************* //
