/*--------------------------------*- C++ -*----------------------------------*\
| =========                 |                                                 |
| \\      /  F ield         | OpenFOAM: The Open Source CFD Toolbox           |
|  \\    /   O peration     | Version:  2.4.0                                 |
|   \\  /    A nd           | Web:      www.OpenFOAM.org                      |
|    \\/     M anipulation  |                                                 |
\*---------------------------------------------------------------------------*/
FoamFile
{
    version     2.0;
    format      ascii;
    class       volScalarField;
    location    "0.3";
    object      p;
}
// * * * * * * * * * * * * * * * * * * * * * * * * * * * * * * * * * * * * * //

dimensions      [1 -1 -2 0 0 0 0];

internalField   nonuniform List<scalar> 
575
(
2.67125
2.66872
2.66584
2.66174
2.53275
2.53057
2.52901
2.52772
2.44769
2.44188
2.43618
2.43082
2.33178
2.32684
2.32207
2.31737
2.22917
2.22298
2.21685
2.21104
2.122
2.1161
2.1099
2.10386
2.01557
2.00994
2.0039
1.99785
1.90941
1.90412
1.89845
1.89266
1.80346
1.79857
1.7934
1.78809
1.6976
1.69321
1.68865
1.68394
1.59175
1.58792
1.58401
1.57996
1.48576
1.48252
1.47927
1.47593
1.3795
1.37685
1.37423
1.37158
1.27283
1.27073
1.2687
1.26671
1.16562
1.16403
1.16254
1.16113
1.05777
1.05664
1.05562
1.05471
0.94921
0.948469
0.947852
0.947357
0.839907
0.839484
0.839186
0.839018
0.729853
0.729677
0.729614
0.729672
0.619074
0.619082
0.619193
0.619414
0.507612
0.507748
0.507973
0.508298
0.395526
0.395731
0.396015
0.396402
0.282839
0.283035
0.28325
0.283476
0.169838
0.170046
0.170251
0.170466
0.0562585
0.0564492
0.0566224
0.0567822
2.65404
2.63986
2.62921
2.61658
2.59763
2.57182
2.53871
2.4967
2.44553
2.38529
2.34023
2.17785
2.29683
1.99944
2.43149
2.00391
3.09929
1.33094
27.0942
2.52556
2.52023
2.50848
2.49099
2.46743
2.43681
2.39735
2.34734
2.2844
2.20742
2.11555
1.96354
1.97496
1.6206
1.91579
1.15452
2.64444
-0.46697
9.12866
2.42141
2.40704
2.39059
2.36966
2.34282
2.30834
2.26407
2.20773
2.13495
2.04194
1.92054
1.75481
1.63765
1.21448
1.16284
0.146586
1.31496
-2.02851
3.75297
2.30915
2.29435
2.276
2.25299
2.22405
2.18737
2.14065
2.08052
2.00213
1.89878
1.75894
1.56653
1.31833
0.854496
0.447245
-0.732672
-1.40652
-3.7585
-5.95567
2.20075
2.18452
2.16484
2.14111
2.11174
2.07447
2.02781
1.96766
1.88912
1.78442
1.64077
1.43757
1.13913
0.654362
-0.0231067
-1.42225
-3.84925
-6.01791
-6.99808
2.09365
2.07695
2.05702
2.03353
2.00521
1.96975
1.9256
1.86931
1.79642
1.69994
1.5686
1.3835
1.11031
0.682496
-0.0428543
-1.43758
-3.64592
-6.74278
-2.19918
1.98774
1.97136
1.95235
1.9304
1.9041
1.87215
1.83293
1.78384
1.72163
1.64121
1.53482
1.39006
1.18548
0.880249
0.377263
-0.523266
-2.0391
-4.07134
3.59295
1.88299
1.86776
1.85017
1.83059
1.80754
1.78043
1.74788
1.70837
1.66012
1.60049
1.52595
1.43187
1.31182
1.15648
0.944835
0.635371
0.25293
0.450513
4.30378
1.77918
1.76559
1.75015
1.73347
1.71441
1.69276
1.66791
1.63915
1.60616
1.56853
1.52648
1.4816
1.4385
1.4058
1.40231
1.45674
1.80667
3.0125
4.50726
1.676
1.6643
1.6515
1.63802
1.62335
1.60745
1.59047
1.57246
1.5542
1.53702
1.52362
1.51896
1.53187
1.58059
1.69436
1.92465
2.40284
3.41805
4.1644
1.57318
1.56352
1.55345
1.54328
1.53301
1.52282
1.51321
1.50499
1.49969
1.49961
1.50868
1.53329
1.58375
1.67713
1.83916
2.10609
2.5283
3.19861
3.59581
1.47036
1.46279
1.45537
1.44842
1.44225
1.43706
1.43409
1.43423
1.43943
1.45242
1.47742
1.52068
1.59135
1.70241
1.87056
2.11393
2.4414
2.86592
3.09267
1.36722
1.36166
1.35669
1.35267
1.34996
1.34934
1.35176
1.35849
1.37149
1.39352
1.42841
1.48144
1.55949
1.67099
1.82476
2.02637
2.26826
2.53724
2.67766
1.26349
1.25975
1.25695
1.25544
1.25577
1.25872
1.26529
1.27678
1.29504
1.32249
1.36233
1.41849
1.49559
1.59834
1.73009
1.88973
2.06538
2.23913
2.33039
1.15894
1.15679
1.15582
1.15633
1.15906
1.16469
1.17418
1.18876
1.21003
1.23998
1.28103
1.33588
1.40727
1.49729
1.60611
1.72981
1.85709
1.97246
2.03369
1.0534
1.05256
1.05302
1.05513
1.05959
1.06703
1.07832
1.09453
1.11698
1.1472
1.18688
1.23773
1.30112
1.37749
1.46544
1.56038
1.65311
1.73183
1.77393
0.946764
0.946973
0.948446
0.951707
0.957273
0.965741
0.977863
0.994523
1.01674
1.04563
1.0823
1.12772
1.18234
1.24571
1.31582
1.38842
1.45654
1.51149
1.54103
0.838983
0.840043
0.842132
0.846055
0.852177
0.861001
0.873148
0.889316
0.910265
0.936763
0.969488
1.00887
1.05483
1.10652
1.16185
1.21727
1.26764
1.30673
1.32779
0.729986
0.731268
0.734007
0.738255
0.744465
0.753085
0.764615
0.779588
0.79855
0.821999
0.850303
0.88356
0.921424
0.962902
1.00614
1.0483
1.08565
1.1139
1.12902
0.619983
0.621559
0.624333
0.628501
0.634387
0.642348
0.652766
0.666037
0.682533
0.70256
0.726279
0.753602
0.784077
0.816755
0.850089
0.88191
0.909538
0.930049
0.940955
0.509021
0.51059
0.513186
0.51698
0.522214
0.529159
0.538099
0.549312
0.563044
0.579467
0.598617
0.620324
0.64413
0.669222
0.694379
0.717997
0.738186
0.752983
0.760787
0.3973
0.398544
0.40076
0.403954
0.408286
0.413949
0.421145
0.430061
0.440852
0.453603
0.468287
0.484718
0.502499
0.520987
0.539278
0.556228
0.57055
0.580938
0.586382
0.283808
0.285329
0.28716
0.289612
0.292863
0.297057
0.302329
0.308799
0.316557
0.325637
0.335992
0.34746
0.359743
0.372381
0.384757
0.396115
0.405632
0.412489
0.416061
0.170879
0.171679
0.172813
0.174341
0.176358
0.17894
0.182161
0.186086
0.19076
0.196194
0.202343
0.209102
0.216284
0.223616
0.23074
0.237229
0.24263
0.246503
0.248505
0.0570366
0.0574297
0.0578835
0.0584319
0.0591116
0.0599703
0.0610467
0.0623608
0.0639196
0.0657218
0.067748
0.0699581
0.0722881
0.0746476
0.0769211
0.0789722
0.0806704
0.0818758
0.0824912
)
;

boundaryField
{
    leftWall
    {
        type            fixedFluxPressure;
        gradient        nonuniform 0();
        value           nonuniform 0();
    }
    rightWall
    {
        type            fixedFluxPressure;
        gradient        uniform 0;
        value           nonuniform List<scalar> 
25
(
27.0942
9.12866
3.75297
-5.95567
-6.99808
-2.19918
3.59295
4.30378
4.50726
4.1644
3.59581
3.09267
2.67766
2.33039
2.03369
1.77393
1.54103
1.32779
1.12902
0.940955
0.760787
0.586382
0.416061
0.248505
0.0824912
)
;
    }
    lowerWall
    {
        type            fixedFluxPressure;
        gradient        nonuniform 0();
        value           nonuniform 0();
    }
    atmosphere
    {
        type            totalPressure;
        U               U.air;
        phi             phi.air;
        rho             rho;
        psi             none;
        gamma           1;
        p0              uniform 0;
        value           nonuniform List<scalar> 
23
(
-0.000284251
-0.00016968
-0.000103887
-8.0082e-05
0
0
0
0
0
0
0
0
0
0
0
0
0
0
0
0
0
0
0
)
;
    }
    defaultFaces
    {
        type            empty;
    }
    procBoundary3to1
    {
        type            processor;
        value           nonuniform List<scalar> 
23
(
2.70652
2.7097
2.71189
2.71951
2.73853
2.75836
2.75685
2.74767
2.73274
2.71235
2.68623
2.65314
2.61337
2.56396
2.56513
2.3958
2.57712
2.31766
2.7596
2.62164
3.32176
3.31142
35.8765
)
;
    }
    procBoundary3to2
    {
        type            processor;
        value           nonuniform List<scalar> 
25
(
2.67591
2.53616
2.45654
2.3395
2.23832
2.13078
2.0241
1.91754
1.81098
1.7044
1.59772
1.49087
1.38374
1.27623
1.16824
1.05969
0.950536
0.840736
0.730286
0.619205
0.507523
0.395305
0.282575
0.1695
0.0559206
)
;
    }
}


// ************************************************************************* //
