/*--------------------------------*- C++ -*----------------------------------*\
| =========                 |                                                 |
| \\      /  F ield         | OpenFOAM: The Open Source CFD Toolbox           |
|  \\    /   O peration     | Version:  2.4.0                                 |
|   \\  /    A nd           | Web:      www.OpenFOAM.org                      |
|    \\/     M anipulation  |                                                 |
\*---------------------------------------------------------------------------*/
FoamFile
{
    version     2.0;
    format      ascii;
    class       surfaceScalarField;
    location    "0.3";
    object      phi;
}
// * * * * * * * * * * * * * * * * * * * * * * * * * * * * * * * * * * * * * //

dimensions      [0 3 -1 0 0 0 0];

internalField   nonuniform List<scalar> 
1102
(
-5.06155e-05
-2.93133e-06
-4.94676e-05
-2.01214e-06
-4.78942e-05
-1.31231e-06
-6.91377e-07
-4.65708e-05
-5.59744e-05
-4.13986e-06
-5.44629e-05
-3.52367e-06
-5.25537e-05
-3.22154e-06
-2.54541e-06
-5.06997e-05
-4.91991e-05
-4.86006e-06
-4.81531e-05
-4.56972e-06
-4.73628e-05
-4.01187e-06
-3.37362e-06
-4.65345e-05
-4.82096e-05
-5.78235e-06
-4.72853e-05
-5.49399e-06
-4.63997e-05
-4.89751e-06
-4.46459e-06
-4.53087e-05
-4.47011e-05
-6.4093e-06
-4.40722e-05
-6.12294e-06
-4.34505e-05
-5.51923e-06
-5.21485e-06
-4.27002e-05
-4.18518e-05
-6.76108e-06
-4.14837e-05
-6.49102e-06
-4.11352e-05
-5.86779e-06
-5.43829e-06
-4.09117e-05
-3.92678e-05
-6.798e-06
-3.92277e-05
-6.53118e-06
-3.91712e-05
-5.92432e-06
-5.40903e-06
-3.92004e-05
-3.72686e-05
-6.64122e-06
-3.74494e-05
-6.35036e-06
-3.75299e-05
-5.84383e-06
-5.37738e-06
-3.75615e-05
-3.52618e-05
-6.43472e-06
-3.55318e-05
-6.08034e-06
-3.57094e-05
-5.66624e-06
-5.19789e-06
-3.58889e-05
-3.33326e-05
-6.14443e-06
-3.36258e-05
-5.78715e-06
-3.39117e-05
-5.38033e-06
-4.95496e-06
-3.41547e-05
-3.13605e-05
-5.83126e-06
-3.17026e-05
-5.44511e-06
-3.20313e-05
-5.05158e-06
-4.63977e-06
-3.23465e-05
-2.94012e-05
-5.49014e-06
-2.97599e-05
-5.08649e-06
-3.01242e-05
-4.68723e-06
-4.2802e-06
-3.04838e-05
-2.74344e-05
-5.13561e-06
-2.78075e-05
-4.71344e-06
-2.81933e-05
-4.3014e-06
-3.89364e-06
-2.85799e-05
-2.5457e-05
-4.77397e-06
-2.58329e-05
-4.33759e-06
-2.62239e-05
-3.91035e-06
-3.49319e-06
-2.66244e-05
-2.34654e-05
-4.41147e-06
-2.38375e-05
-3.96543e-06
-2.42237e-05
-3.52414e-06
-3.09451e-06
-2.46224e-05
-2.1451e-05
-4.05459e-06
-2.18146e-05
-3.6019e-06
-2.21892e-05
-3.14949e-06
-2.70552e-06
-2.25782e-05
-1.94151e-05
-3.7091e-06
-1.97645e-05
-3.25246e-06
-2.01232e-05
-2.79074e-06
-2.3372e-06
-2.04916e-05
-1.73541e-05
-3.38159e-06
-1.7687e-05
-2.9195e-06
-1.80258e-05
-2.452e-06
-1.98896e-06
-1.8374e-05
-1.5274e-05
-3.07312e-06
-1.55854e-05
-2.60814e-06
-1.5901e-05
-2.13636e-06
-1.66439e-06
-1.62256e-05
-1.31695e-05
-2.78713e-06
-1.34598e-05
-2.31781e-06
-1.37545e-05
-1.84167e-06
-1.36297e-06
-1.40559e-05
-1.10427e-05
-2.52368e-06
-1.13116e-05
-2.04895e-06
-1.15856e-05
-1.56768e-06
-1.08399e-06
-1.18646e-05
-8.88671e-06
-2.28046e-06
-9.13727e-06
-1.79839e-06
-9.39344e-06
-1.3115e-06
-8.23358e-07
-9.65407e-06
-6.7276e-06
-2.05008e-06
-6.96107e-06
-1.56492e-06
-7.19727e-06
-1.0753e-06
-5.81783e-07
-7.43885e-06
-4.42355e-06
-1.81896e-06
-4.68977e-06
-1.2987e-06
-4.97273e-06
-7.92342e-07
-2.94029e-07
-5.26049e-06
-2.14242e-06
-2.18739e-06
-2.27502e-06
-2.39451e-06
-4.46035e-05
1.09329e-06
-4.21136e-05
2.26461e-06
-3.73188e-05
1.31327e-06
-3.32742e-05
-5.36627e-07
-3.04094e-05
-1.76167e-06
-2.73421e-05
-5.01768e-06
-2.46545e-05
-8.96821e-06
-2.22819e-05
-1.22426e-05
-1.94161e-05
-1.8258e-05
-1.63308e-05
-2.30144e-05
-1.08039e-05
-2.89228e-05
-5.56467e-06
-3.81598e-05
3.98623e-06
-3.5594e-05
1.72686e-05
-5.34147e-05
3.55946e-05
-1.92193e-05
8.09354e-05
4.05687e-05
8.9188e-05
0.000262038
-8.06399e-06
0.000597258
0.000498647
-4.60306e-05
-3.57577e-06
-4.19844e-05
-1.78158e-06
-3.8119e-05
-2.55207e-06
-3.50679e-05
-3.5877e-06
-3.25873e-05
-4.24227e-06
-3.00825e-05
-7.52246e-06
-2.82137e-05
-1.08371e-05
-2.61519e-05
-1.43044e-05
-2.39257e-05
-2.04842e-05
-2.09633e-05
-2.59768e-05
-1.59269e-05
-3.39592e-05
-1.04018e-05
-4.3685e-05
1.88142e-06
-4.78773e-05
1.96072e-05
-7.11405e-05
4.97584e-05
-4.93704e-05
0.000106987
-1.66595e-05
0.000106887
0.000262138
1.48485e-05
0.000689297
0.000513496
-4.38029e-05
-6.30737e-06
-4.07884e-05
-4.79609e-06
-3.85309e-05
-4.80955e-06
-3.66255e-05
-5.49307e-06
-3.44489e-05
-6.41893e-06
-3.27342e-05
-9.2371e-06
-3.18328e-05
-1.17385e-05
-3.01747e-05
-1.59624e-05
-2.91067e-05
-2.15522e-05
-2.70938e-05
-2.79897e-05
-2.3953e-05
-3.71e-05
-1.89721e-05
-4.86659e-05
-5.20476e-06
-6.16445e-05
1.1726e-05
-8.80713e-05
5.19604e-05
-8.96048e-05
0.000108357
-7.30558e-05
0.000163137
0.000207357
7.04484e-05
0.000781986
0.000583944
-4.27535e-05
-8.8626e-06
-4.05633e-05
-6.98629e-06
-3.90441e-05
-6.32869e-06
-3.7614e-05
-6.92321e-06
-3.60358e-05
-7.99704e-06
-3.54279e-05
-9.84507e-06
-3.49655e-05
-1.22009e-05
-3.44864e-05
-1.64415e-05
-3.46347e-05
-2.14039e-05
-3.43513e-05
-2.8273e-05
-3.37257e-05
-3.77257e-05
-3.16278e-05
-5.07638e-05
-2.39803e-05
-6.9292e-05
-1.27643e-05
-9.92872e-05
2.17266e-05
-0.000124096
6.96354e-05
-0.000120965
0.000173115
0.000103878
0.000156415
0.000798686
0.000740359
-4.10057e-05
-1.05571e-05
-4.01082e-05
-7.8838e-06
-3.92257e-05
-7.21117e-06
-3.81593e-05
-7.98954e-06
-3.76251e-05
-8.53123e-06
-3.78025e-05
-9.66772e-06
-3.78363e-05
-1.21671e-05
-3.87705e-05
-1.55073e-05
-4.01461e-05
-2.00283e-05
-4.20374e-05
-2.63817e-05
-4.45442e-05
-3.52189e-05
-4.74094e-05
-4.78986e-05
-4.97464e-05
-6.6955e-05
-5.22567e-05
-9.67769e-05
-4.13664e-05
-0.000134986
-9.42793e-06
-0.000152903
8.78839e-05
6.56629e-06
0.000200536
0.000686034
0.000940894
-4.0257e-05
-1.12118e-05
-3.96999e-05
-8.44092e-06
-3.91073e-05
-7.80383e-06
-3.85612e-05
-8.53561e-06
-3.88487e-05
-8.24374e-06
-3.95207e-05
-8.99567e-06
-4.04654e-05
-1.12225e-05
-4.25047e-05
-1.3468e-05
-4.52118e-05
-1.73212e-05
-4.91797e-05
-2.24138e-05
-5.47864e-05
-2.96122e-05
-6.28296e-05
-3.98554e-05
-7.48351e-05
-5.49494e-05
-9.37245e-05
-7.78875e-05
-0.000117285
-0.000111425
-0.000138456
-0.000131732
-0.000121783
-1.01068e-05
7.81145e-05
0.000486136
0.00101901
-3.92339e-05
-1.11784e-05
-3.88161e-05
-8.85871e-06
-3.8625e-05
-7.99494e-06
-3.8881e-05
-8.27963e-06
-3.96596e-05
-7.46509e-06
-4.07912e-05
-7.86414e-06
-4.26473e-05
-9.36628e-06
-4.54216e-05
-1.06937e-05
-4.93234e-05
-1.34194e-05
-5.49019e-05
-1.68353e-05
-6.28667e-05
-2.16474e-05
-7.45827e-05
-2.81394e-05
-9.25175e-05
-3.70146e-05
-0.000121168
-4.92369e-05
-0.000167143
-6.54505e-05
-0.00022718
-7.16953e-05
-0.00025061
1.33229e-05
-0.000139083
0.00037461
0.000879926
-3.78224e-05
-1.09175e-05
-3.77973e-05
-8.88389e-06
-3.8013e-05
-7.77919e-06
-3.88771e-05
-7.4155e-06
-3.99837e-05
-6.35855e-06
-4.15228e-05
-6.32498e-06
-4.40407e-05
-6.84842e-06
-4.73722e-05
-7.36225e-06
-5.20807e-05
-8.71087e-06
-5.8614e-05
-1.03021e-05
-6.78184e-05
-1.24429e-05
-8.10596e-05
-1.48983e-05
-0.00010071
-1.73642e-05
-0.000131078
-1.88686e-05
-0.000179315
-1.7214e-05
-0.000248808
-2.20227e-06
-0.000308322
7.28376e-05
-0.000263409
0.000329697
0.000616517
-3.63334e-05
-1.0473e-05
-3.66458e-05
-8.5715e-06
-3.72263e-05
-7.19868e-06
-3.84116e-05
-6.23017e-06
-3.98303e-05
-4.93985e-06
-4.17471e-05
-4.40816e-06
-4.45848e-05
-4.01077e-06
-4.82608e-05
-3.68627e-06
-5.3318e-05
-3.65362e-06
-6.01292e-05
-3.49082e-06
-6.94367e-05
-3.13545e-06
-8.23001e-05
-2.03493e-06
-0.000100375
7.10206e-07
-0.000126159
6.91571e-06
-0.000163461
2.00884e-05
-0.000214365
4.87012e-05
-0.000259554
0.000118027
-0.000210175
0.000280318
0.000406342
-3.47117e-05
-9.91596e-06
-3.53648e-05
-7.91842e-06
-3.62388e-05
-6.32463e-06
-3.759e-05
-4.87897e-06
-3.92042e-05
-3.32565e-06
-4.13753e-05
-2.23708e-06
-4.43159e-05
-1.07016e-06
-4.80938e-05
9.15864e-08
-5.30998e-05
1.35238e-06
-5.96326e-05
3.04197e-06
-6.82219e-05
5.45385e-06
-7.95261e-05
9.26926e-06
-9.43693e-05
1.55534e-05
-0.000113634
2.61809e-05
-0.000137859
4.43127e-05
-0.000164643
7.54853e-05
-0.000177674
0.000131058
-0.000125918
0.000228561
0.000280424
-3.30637e-05
-9.19875e-06
-3.39068e-05
-7.07536e-06
-3.49908e-05
-5.24066e-06
-3.64241e-05
-3.44568e-06
-3.81562e-05
-1.59354e-06
-4.04192e-05
2.59164e-08
-4.33154e-05
1.826e-06
-4.69712e-05
3.74746e-06
-5.16327e-05
6.01381e-06
-5.75059e-05
8.91526e-06
-6.48882e-05
1.28361e-05
-7.40572e-05
1.84383e-05
-8.52015e-05
2.66977e-05
-9.81402e-05
3.91197e-05
-0.000111697
5.78692e-05
-0.000121993
8.57816e-05
-0.000117352
0.000126417
-7.25571e-05
0.000183767
0.000207867
-3.1325e-05
-8.35753e-06
-3.22935e-05
-6.10693e-06
-3.34913e-05
-4.04285e-06
-3.49601e-05
-1.97686e-06
-3.67256e-05
1.71928e-07
-3.89495e-05
2.24987e-06
-4.16867e-05
4.56316e-06
-4.50551e-05
7.11593e-06
-4.91883e-05
1.0147e-05
-5.41937e-05
1.39207e-05
-6.01741e-05
1.88165e-05
-6.71297e-05
2.53939e-05
-7.48462e-05
3.44142e-05
-8.26211e-05
4.68945e-05
-8.87922e-05
6.40404e-05
-8.99372e-05
8.69266e-05
-7.9263e-05
0.000115743
-4.52918e-05
0.000149796
0.000162575
-2.94985e-05
-7.4389e-06
-3.05331e-05
-5.07231e-06
-3.17673e-05
-2.80869e-06
-3.32292e-05
-5.14981e-07
-3.49555e-05
1.89825e-06
-3.70514e-05
4.34581e-06
-3.95507e-05
7.06245e-06
-4.25319e-05
1.00971e-05
-4.60486e-05
1.36637e-05
-5.01228e-05
1.79949e-05
-5.472e-05
2.34137e-05
-5.9672e-05
3.03459e-05
-6.45713e-05
3.93135e-05
-6.85852e-05
5.09083e-05
-7.02017e-05
6.56569e-05
-6.69598e-05
8.36847e-05
-5.52878e-05
0.000104071
-3.04464e-05
0.000124954
0.000132128
-2.75836e-05
-6.47967e-06
-2.86418e-05
-4.01412e-06
-2.98614e-05
-1.58914e-06
-3.1279e-05
9.02685e-07
-3.29055e-05
3.52474e-06
-3.48191e-05
6.25934e-06
-3.70327e-05
9.27608e-06
-3.95831e-05
1.26475e-05
-4.24694e-05
1.65501e-05
-4.56506e-05
2.11761e-05
-4.90108e-05
2.67739e-05
-5.2303e-05
3.3638e-05
-5.50751e-05
4.20856e-05
-5.65675e-05
5.24008e-05
-5.56113e-05
6.47007e-05
-5.06166e-05
7.869e-05
-3.98183e-05
9.32724e-05
-2.14905e-05
0.000106626
0.000110638
-2.55876e-05
-5.51443e-06
-2.66311e-05
-2.97071e-06
-2.78087e-05
-4.11503e-07
-2.91409e-05
2.23488e-06
-3.06366e-05
5.02047e-06
-3.23399e-05
7.96261e-06
-3.42495e-05
1.11857e-05
-3.63687e-05
1.47666e-05
-3.86615e-05
1.88429e-05
-4.10483e-05
2.35629e-05
-4.3376e-05
2.91017e-05
-4.53815e-05
3.56435e-05
-4.66484e-05
4.33525e-05
-4.6562e-05
5.23144e-05
-4.42952e-05
6.24338e-05
-3.88871e-05
7.32818e-05
-2.95163e-05
8.39016e-05
-1.57093e-05
9.28194e-05
9.49286e-05
-2.35197e-05
-4.57294e-06
-2.45235e-05
-1.96693e-06
-2.56401e-05
7.0508e-07
-2.68638e-05
3.45861e-06
-2.82085e-05
6.36512e-06
-2.96925e-05
9.44667e-06
-3.13027e-05
1.27959e-05
-3.30187e-05
1.64826e-05
-3.47849e-05
2.06092e-05
-3.65037e-05
2.52817e-05
-3.80151e-05
3.0613e-05
-3.90751e-05
3.67035e-05
-3.93353e-05
4.36127e-05
-3.83326e-05
5.13117e-05
-3.55131e-05
5.96143e-05
-3.03241e-05
6.80928e-05
-2.24163e-05
7.59939e-05
-1.17974e-05
8.22005e-05
8.31312e-05
-2.13951e-05
-3.66944e-06
-2.23452e-05
-1.01677e-06
-2.33761e-05
1.73596e-06
-2.44852e-05
4.5677e-06
-2.56733e-05
7.5532e-06
-2.69436e-05
1.0717e-05
-2.82746e-05
1.41269e-05
-2.96323e-05
1.78403e-05
-3.09523e-05
2.19292e-05
-3.21343e-05
2.64637e-05
-3.30288e-05
3.15076e-05
-3.34271e-05
3.71018e-05
-3.30545e-05
4.32401e-05
-3.1578e-05
4.98353e-05
-2.86406e-05
5.66769e-05
-2.39389e-05
6.33911e-05
-1.73539e-05
6.94088e-05
-9.04646e-06
7.38931e-05
7.40847e-05
-1.92229e-05
-2.82056e-06
-2.01107e-05
-1.28954e-07
-2.10501e-05
2.67529e-06
-2.20406e-05
5.55826e-06
-2.30754e-05
8.58796e-06
-2.41469e-05
1.17885e-05
-2.52286e-05
1.52086e-05
-2.62802e-05
1.88919e-05
-2.72367e-05
2.28858e-05
-2.80043e-05
2.72312e-05
-2.84528e-05
3.19561e-05
-2.84124e-05
3.70615e-05
-2.76756e-05
4.25033e-05
-2.60105e-05
4.81702e-05
-2.31938e-05
5.38601e-05
-1.90662e-05
5.92635e-05
-1.36122e-05
6.39548e-05
-7.04132e-06
6.73223e-05
6.70434e-05
-1.70121e-05
-2.03409e-06
-1.78388e-05
6.97749e-07
-1.86842e-05
3.52072e-06
-1.9559e-05
6.43307e-06
-2.04498e-05
9.47877e-06
-2.13423e-05
1.26809e-05
-2.22078e-05
1.60742e-05
-2.30052e-05
1.96894e-05
-2.36742e-05
2.35547e-05
-2.41322e-05
2.76892e-05
-2.42717e-05
3.20956e-05
-2.396e-05
3.67498e-05
-2.30451e-05
4.15883e-05
-2.13698e-05
4.64949e-05
-1.87983e-05
5.12886e-05
-1.52536e-05
5.57188e-05
-1.07664e-05
5.94676e-05
-5.5312e-06
6.20871e-05
6.15122e-05
-1.4784e-05
-1.306e-06
-1.55362e-05
1.4499e-06
-1.62974e-05
4.28192e-06
-1.70663e-05
7.20206e-06
-1.78287e-05
1.02412e-05
-1.85672e-05
1.34194e-05
-1.9254e-05
1.67609e-05
-1.98503e-05
2.02857e-05
-2.03032e-05
2.40076e-05
-2.05435e-05
2.79296e-05
-2.04853e-05
3.20374e-05
-2.0028e-05
3.62924e-05
-1.90628e-05
4.06232e-05
-1.74854e-05
4.49176e-05
-1.52157e-05
4.90188e-05
-1.2222e-05
5.27251e-05
-8.55204e-06
5.57976e-05
-4.36784e-06
5.79029e-05
5.71444e-05
-1.25376e-05
-6.33007e-07
-1.32201e-05
2.13239e-06
-1.38992e-05
4.96108e-06
-1.45671e-05
7.86996e-06
-1.52083e-05
1.08823e-05
-1.58051e-05
1.40162e-05
-1.63327e-05
1.72886e-05
-1.67585e-05
2.07115e-05
-1.70395e-05
2.42886e-05
-1.71214e-05
2.80115e-05
-1.69391e-05
3.18552e-05
-1.64196e-05
3.57729e-05
-1.54875e-05
3.96911e-05
-1.40758e-05
4.35059e-05
-1.21392e-05
4.70822e-05
-9.6713e-06
5.02573e-05
-6.72145e-06
5.28478e-05
-3.41625e-06
5.45977e-05
5.37281e-05
-1.02854e-05
-1.70675e-09
-1.09233e-05
2.7703e-06
-1.15485e-05
5.58633e-06
-1.21521e-05
8.47353e-06
-1.27174e-05
1.14476e-05
-1.32259e-05
1.45247e-05
-1.36549e-05
1.77176e-05
-1.39763e-05
2.10329e-05
-1.41555e-05
2.44678e-05
-1.4151e-05
2.80069e-05
-1.3915e-05
3.16192e-05
-1.33964e-05
3.52543e-05
-1.25454e-05
3.884e-05
-1.13204e-05
4.22809e-05
-9.69742e-06
4.54593e-05
-7.68007e-06
4.82399e-05
-5.30948e-06
5.04772e-05
-2.68493e-06
5.19732e-05
5.10432e-05
-7.99344e-06
5.52878e-07
-8.52656e-06
3.30341e-06
-9.03504e-06
6.09481e-06
-9.50874e-06
8.94722e-06
-9.93534e-06
1.18742e-05
-1.0303e-05
1.48924e-05
-1.05968e-05
1.80114e-05
-1.07975e-05
2.12336e-05
-1.08805e-05
2.45507e-05
-1.0816e-05
2.79424e-05
-1.05706e-05
3.13738e-05
-1.01093e-05
3.4793e-05
-9.39978e-06
3.81305e-05
-8.41715e-06
4.12983e-05
-7.1514e-06
4.41935e-05
-5.61619e-06
4.67047e-05
-3.85894e-06
4.87199e-05
-1.94336e-06
5.00576e-05
4.90998e-05
-6.00072e-06
1.2931e-06
-6.66689e-06
3.96957e-06
-7.24524e-06
6.67315e-06
-7.72502e-06
9.42701e-06
-8.11336e-06
1.22626e-05
-8.41359e-06
1.51926e-05
-8.6234e-06
1.82212e-05
-8.73491e-06
2.13451e-05
-8.73636e-06
2.45521e-05
-8.61258e-06
2.78186e-05
-8.34587e-06
3.1107e-05
-7.91741e-06
3.43646e-05
-7.31015e-06
3.75232e-05
-6.51212e-06
4.05002e-05
-5.51941e-06
4.32008e-05
-4.33834e-06
4.55236e-05
-2.98492e-06
4.73665e-05
-1.49651e-06
4.85692e-05
4.76033e-05
-2.72654e-06
-3.13661e-06
-3.56499e-06
-3.97154e-06
-4.32453e-06
-4.60458e-06
-4.80127e-06
-4.90925e-06
-4.9252e-06
-4.8464e-06
-4.67027e-06
-4.39488e-06
-4.01888e-06
-3.54245e-06
-2.96839e-06
-2.30237e-06
-1.5657e-06
-7.79306e-07
)
;

boundaryField
{
    leftWall
    {
        type            calculated;
        value           nonuniform 0();
    }
    rightWall
    {
        type            calculated;
        value           uniform 0;
    }
    lowerWall
    {
        type            calculated;
        value           nonuniform 0();
    }
    atmosphere
    {
        type            calculated;
        value           nonuniform List<scalar> 
23
(
-1.8279e-06
-1.25373e-06
-7.0472e-07
-1.74538e-07
1.62513e-06
4.37964e-06
7.10153e-06
9.83355e-06
1.26155e-05
1.54726e-05
1.84179e-05
2.14531e-05
2.45681e-05
2.77398e-05
3.09309e-05
3.40892e-05
3.71472e-05
4.00238e-05
4.26267e-05
4.48576e-05
4.66298e-05
4.77828e-05
4.6824e-05
)
;
    }
    defaultFaces
    {
        type            empty;
        value           nonuniform 0();
    }
    procBoundary3to1
    {
        type            processor;
        value           nonuniform List<scalar> 
23
(
1.34975e-06
8.64178e-07
-2.61081e-07
-6.32061e-07
-3.06057e-06
-4.75451e-06
-6.10797e-06
-3.50793e-06
-1.10315e-06
1.95038e-06
6.28063e-06
9.87008e-06
1.53921e-05
1.99291e-05
2.3396e-05
3.29206e-05
2.60431e-05
4.01323e-05
8.93241e-07
-8.59094e-05
-0.000270291
-0.000500006
-0.000506711
)
;
    }
    procBoundary3to2
    {
        type            processor;
        value           nonuniform List<scalar> 
25
(
5.21971e-05
5.71829e-05
4.99194e-05
4.91318e-05
4.53281e-05
4.22036e-05
3.93048e-05
3.71118e-05
3.50552e-05
3.30423e-05
3.10474e-05
2.90601e-05
2.70799e-05
2.50954e-05
2.31029e-05
2.10942e-05
1.90696e-05
1.70266e-05
1.49656e-05
1.28835e-05
1.07793e-05
8.64348e-06
6.49722e-06
4.19243e-06
2.15136e-06
)
;
    }
}


// ************************************************************************* //
