/*--------------------------------*- C++ -*----------------------------------*\
| =========                 |                                                 |
| \\      /  F ield         | OpenFOAM: The Open Source CFD Toolbox           |
|  \\    /   O peration     | Version:  2.4.0                                 |
|   \\  /    A nd           | Web:      www.OpenFOAM.org                      |
|    \\/     M anipulation  |                                                 |
\*---------------------------------------------------------------------------*/
FoamFile
{
    version     2.0;
    format      ascii;
    class       surfaceScalarField;
    location    "0.3";
    object      phi.air;
}
// * * * * * * * * * * * * * * * * * * * * * * * * * * * * * * * * * * * * * //

dimensions      [0 3 -1 0 0 0 0];

internalField   nonuniform List<scalar> 
1102
(
-5.06156e-05
-2.93133e-06
-4.94677e-05
-2.01214e-06
-4.78943e-05
-1.31231e-06
-6.91378e-07
-4.65708e-05
-5.59745e-05
-4.13986e-06
-5.4463e-05
-3.52367e-06
-5.25538e-05
-3.22154e-06
-2.54541e-06
-5.06997e-05
-4.91992e-05
-4.86006e-06
-4.81531e-05
-4.56972e-06
-4.73628e-05
-4.01187e-06
-3.37362e-06
-4.65346e-05
-4.82095e-05
-5.78235e-06
-4.72853e-05
-5.49399e-06
-4.63997e-05
-4.89751e-06
-4.46459e-06
-4.53087e-05
-4.47011e-05
-6.4093e-06
-4.40721e-05
-6.12294e-06
-4.34504e-05
-5.51923e-06
-5.21485e-06
-4.27002e-05
-4.18518e-05
-6.76108e-06
-4.14837e-05
-6.49102e-06
-4.11352e-05
-5.86779e-06
-5.43829e-06
-4.09117e-05
-3.92678e-05
-6.798e-06
-3.92277e-05
-6.53118e-06
-3.91712e-05
-5.92432e-06
-5.40904e-06
-3.92004e-05
-3.72686e-05
-6.64123e-06
-3.74494e-05
-6.35037e-06
-3.75299e-05
-5.84384e-06
-5.37739e-06
-3.75616e-05
-3.52618e-05
-6.43473e-06
-3.55318e-05
-6.08035e-06
-3.57094e-05
-5.66625e-06
-5.1979e-06
-3.58889e-05
-3.33327e-05
-6.14444e-06
-3.36259e-05
-5.78717e-06
-3.39118e-05
-5.38034e-06
-4.95497e-06
-3.41547e-05
-3.13606e-05
-5.83127e-06
-3.17027e-05
-5.44513e-06
-3.20314e-05
-5.05159e-06
-4.63979e-06
-3.23466e-05
-2.94013e-05
-5.49016e-06
-2.976e-05
-5.0865e-06
-3.01243e-05
-4.68725e-06
-4.28022e-06
-3.04839e-05
-2.74345e-05
-5.13562e-06
-2.78076e-05
-4.71346e-06
-2.81934e-05
-4.30141e-06
-3.89366e-06
-2.858e-05
-2.54571e-05
-4.77398e-06
-2.58329e-05
-4.3376e-06
-2.6224e-05
-3.91036e-06
-3.49319e-06
-2.66244e-05
-2.34654e-05
-4.41148e-06
-2.38376e-05
-3.96544e-06
-2.42238e-05
-3.52415e-06
-3.09452e-06
-2.46225e-05
-2.14511e-05
-4.0546e-06
-2.18146e-05
-3.60191e-06
-2.21893e-05
-3.1495e-06
-2.70552e-06
-2.25783e-05
-1.94151e-05
-3.7091e-06
-1.97645e-05
-3.25247e-06
-2.01233e-05
-2.79074e-06
-2.33721e-06
-2.04916e-05
-1.73541e-05
-3.3816e-06
-1.76871e-05
-2.9195e-06
-1.80258e-05
-2.452e-06
-1.98897e-06
-1.83741e-05
-1.52741e-05
-3.07312e-06
-1.55854e-05
-2.60814e-06
-1.59011e-05
-2.13636e-06
-1.6644e-06
-1.62256e-05
-1.31695e-05
-2.78713e-06
-1.34598e-05
-2.31781e-06
-1.37545e-05
-1.84167e-06
-1.36298e-06
-1.40559e-05
-1.10427e-05
-2.52368e-06
-1.13116e-05
-2.04895e-06
-1.15856e-05
-1.56768e-06
-1.08399e-06
-1.18646e-05
-8.88671e-06
-2.28046e-06
-9.13727e-06
-1.79839e-06
-9.39345e-06
-1.3115e-06
-8.23358e-07
-9.65408e-06
-6.7276e-06
-2.05008e-06
-6.96107e-06
-1.56492e-06
-7.19728e-06
-1.0753e-06
-5.81783e-07
-7.43885e-06
-4.42355e-06
-1.81896e-06
-4.68978e-06
-1.2987e-06
-4.97274e-06
-7.92342e-07
-2.94029e-07
-5.2605e-06
-2.14242e-06
-2.18739e-06
-2.27502e-06
-2.39451e-06
-4.46035e-05
1.0933e-06
-4.21136e-05
2.26462e-06
-3.73189e-05
1.31328e-06
-3.32743e-05
-5.36628e-07
-3.04095e-05
-1.76168e-06
-2.73421e-05
-5.01769e-06
-2.46545e-05
-8.96822e-06
-2.22819e-05
-1.22426e-05
-1.94161e-05
-1.8258e-05
-1.63308e-05
-2.30144e-05
-1.08039e-05
-2.89228e-05
-5.56467e-06
-3.81598e-05
3.98623e-06
-3.5594e-05
1.72685e-05
-5.34146e-05
3.55946e-05
-1.92192e-05
8.09352e-05
4.05686e-05
9.23635e-05
0.000262037
-9.81982e-05
0.000605972
0.000514965
-4.60307e-05
-3.57578e-06
-4.19845e-05
-1.78158e-06
-3.81191e-05
-2.55207e-06
-3.5068e-05
-3.5877e-06
-3.25874e-05
-4.24227e-06
-3.00826e-05
-7.52247e-06
-2.82137e-05
-1.08371e-05
-2.61519e-05
-1.43044e-05
-2.39257e-05
-2.04842e-05
-2.09633e-05
-2.59768e-05
-1.59269e-05
-3.39592e-05
-1.04018e-05
-4.3685e-05
1.88142e-06
-4.78772e-05
1.96072e-05
-7.11404e-05
4.97583e-05
-4.93703e-05
0.000106986
-1.66594e-05
0.000107583
0.000262137
-4.96839e-05
0.000691646
0.000518096
-4.3803e-05
-6.30737e-06
-4.07885e-05
-4.7961e-06
-3.8531e-05
-4.80956e-06
-3.66256e-05
-5.49308e-06
-3.44489e-05
-6.41894e-06
-3.27343e-05
-9.23711e-06
-3.18328e-05
-1.17385e-05
-3.01747e-05
-1.59625e-05
-2.91068e-05
-2.15522e-05
-2.70938e-05
-2.79897e-05
-2.3953e-05
-3.71e-05
-1.89721e-05
-4.86659e-05
-5.20476e-06
-6.16445e-05
1.1726e-05
-8.80712e-05
5.19604e-05
-8.96047e-05
0.000108356
-7.30556e-05
0.0001635
0.000207357
4.37857e-05
0.000782227
0.000601813
-4.27535e-05
-8.8626e-06
-4.05633e-05
-6.98629e-06
-3.90442e-05
-6.3287e-06
-3.7614e-05
-6.92323e-06
-3.60359e-05
-7.99705e-06
-3.54279e-05
-9.84509e-06
-3.49655e-05
-1.22009e-05
-3.44864e-05
-1.64416e-05
-3.46347e-05
-2.14039e-05
-3.43513e-05
-2.8273e-05
-3.37257e-05
-3.77257e-05
-3.16278e-05
-5.07638e-05
-2.39803e-05
-6.9292e-05
-1.27643e-05
-9.92872e-05
2.17266e-05
-0.000124096
6.96353e-05
-0.000120964
0.000173159
0.000103878
0.000164326
0.000798695
0.000734921
-4.10057e-05
-1.05571e-05
-4.01082e-05
-7.88381e-06
-3.92257e-05
-7.21118e-06
-3.81594e-05
-7.98955e-06
-3.76252e-05
-8.53124e-06
-3.78026e-05
-9.66773e-06
-3.78363e-05
-1.21672e-05
-3.87705e-05
-1.55073e-05
-4.01461e-05
-2.00283e-05
-4.20374e-05
-2.63817e-05
-4.45442e-05
-3.52189e-05
-4.74094e-05
-4.78986e-05
-4.97464e-05
-6.6955e-05
-5.22567e-05
-9.67769e-05
-4.13663e-05
-0.000134986
-9.42783e-06
-0.000152903
8.78843e-05
6.56594e-06
0.000201284
0.000686024
0.000919644
-4.0257e-05
-1.12118e-05
-3.97e-05
-8.44092e-06
-3.91073e-05
-7.80383e-06
-3.85613e-05
-8.53562e-06
-3.88487e-05
-8.24375e-06
-3.95208e-05
-8.99568e-06
-4.04655e-05
-1.12225e-05
-4.25048e-05
-1.3468e-05
-4.52118e-05
-1.73212e-05
-4.91797e-05
-2.24138e-05
-5.47864e-05
-2.96122e-05
-6.28296e-05
-3.98555e-05
-7.48351e-05
-5.49494e-05
-9.37245e-05
-7.78875e-05
-0.000117285
-0.000111425
-0.000138456
-0.000131732
-0.000121784
-1.01074e-05
6.66051e-05
0.000486004
0.00100741
-3.92339e-05
-1.11784e-05
-3.88161e-05
-8.85872e-06
-3.8625e-05
-7.99494e-06
-3.8881e-05
-8.27964e-06
-3.96597e-05
-7.46509e-06
-4.07912e-05
-7.86414e-06
-4.26474e-05
-9.36629e-06
-4.54217e-05
-1.06937e-05
-4.93235e-05
-1.34194e-05
-5.49019e-05
-1.68353e-05
-6.28667e-05
-2.16474e-05
-7.45827e-05
-2.81395e-05
-9.25175e-05
-3.70146e-05
-0.000121168
-4.92369e-05
-0.000167143
-6.54505e-05
-0.00022718
-7.16953e-05
-0.000250653
1.33123e-05
-0.00014029
0.00037431
0.000878788
-3.78225e-05
-1.09175e-05
-3.77973e-05
-8.8839e-06
-3.8013e-05
-7.7792e-06
-3.88772e-05
-7.41551e-06
-3.99837e-05
-6.35855e-06
-4.15229e-05
-6.32498e-06
-4.40407e-05
-6.84843e-06
-4.73722e-05
-7.36225e-06
-5.20808e-05
-8.71087e-06
-5.8614e-05
-1.03021e-05
-6.78185e-05
-1.24429e-05
-8.10596e-05
-1.48983e-05
-0.00010071
-1.73642e-05
-0.000131078
-1.88686e-05
-0.000179315
-1.7214e-05
-0.000248812
-2.20232e-06
-0.000308391
7.28216e-05
-0.000263517
0.000329549
0.000616483
-3.63334e-05
-1.0473e-05
-3.66458e-05
-8.57151e-06
-3.72263e-05
-7.19869e-06
-3.84116e-05
-6.23018e-06
-3.98303e-05
-4.93986e-06
-4.17472e-05
-4.40816e-06
-4.45848e-05
-4.01077e-06
-4.82608e-05
-3.68627e-06
-5.3318e-05
-3.65362e-06
-6.01293e-05
-3.49083e-06
-6.94367e-05
-3.13545e-06
-8.23001e-05
-2.03493e-06
-0.000100375
7.10206e-07
-0.000126159
6.91571e-06
-0.000163461
2.00884e-05
-0.000214366
4.87013e-05
-0.000259562
0.000118026
-0.000210183
0.000280309
0.000406341
-3.47117e-05
-9.91598e-06
-3.53648e-05
-7.91844e-06
-3.62389e-05
-6.32464e-06
-3.75901e-05
-4.87897e-06
-3.92043e-05
-3.32565e-06
-4.13754e-05
-2.23708e-06
-4.4316e-05
-1.07016e-06
-4.80938e-05
9.15864e-08
-5.30998e-05
1.35238e-06
-5.96326e-05
3.04197e-06
-6.82219e-05
5.45385e-06
-7.95261e-05
9.26927e-06
-9.43693e-05
1.55534e-05
-0.000113634
2.61809e-05
-0.000137859
4.43128e-05
-0.000164643
7.54853e-05
-0.000177674
0.000131058
-0.000125918
0.000228561
0.000280424
-3.30638e-05
-9.19878e-06
-3.39069e-05
-7.07538e-06
-3.49908e-05
-5.24067e-06
-3.64241e-05
-3.44568e-06
-3.81562e-05
-1.59354e-06
-4.04192e-05
2.59164e-08
-4.33154e-05
1.82601e-06
-4.69712e-05
3.74746e-06
-5.16327e-05
6.01381e-06
-5.7506e-05
8.91527e-06
-6.48882e-05
1.28362e-05
-7.40573e-05
1.84383e-05
-8.52015e-05
2.66977e-05
-9.81403e-05
3.91197e-05
-0.000111697
5.78692e-05
-0.000121993
8.57816e-05
-0.000117352
0.000126417
-7.25572e-05
0.000183767
0.000207867
-3.13251e-05
-8.35755e-06
-3.22935e-05
-6.10695e-06
-3.34913e-05
-4.04286e-06
-3.49601e-05
-1.97686e-06
-3.67256e-05
1.71928e-07
-3.89496e-05
2.24987e-06
-4.16867e-05
4.56316e-06
-4.50552e-05
7.11594e-06
-4.91883e-05
1.0147e-05
-5.41938e-05
1.39207e-05
-6.01741e-05
1.88165e-05
-6.71297e-05
2.53939e-05
-7.48463e-05
3.44142e-05
-8.26211e-05
4.68945e-05
-8.87923e-05
6.40404e-05
-8.99373e-05
8.69266e-05
-7.9263e-05
0.000115743
-4.52918e-05
0.000149796
0.000162575
-2.94986e-05
-7.43892e-06
-3.05332e-05
-5.07233e-06
-3.17674e-05
-2.8087e-06
-3.32292e-05
-5.14982e-07
-3.49556e-05
1.89825e-06
-3.70515e-05
4.34581e-06
-3.95508e-05
7.06246e-06
-4.25319e-05
1.00971e-05
-4.60487e-05
1.36637e-05
-5.01228e-05
1.79949e-05
-5.47201e-05
2.34137e-05
-5.96721e-05
3.03459e-05
-6.45713e-05
3.93135e-05
-6.85852e-05
5.09084e-05
-7.02017e-05
6.56569e-05
-6.69598e-05
8.36847e-05
-5.52878e-05
0.000104071
-3.04464e-05
0.000124954
0.000132128
-2.75837e-05
-6.47969e-06
-2.86419e-05
-4.01414e-06
-2.98614e-05
-1.58914e-06
-3.12791e-05
9.02687e-07
-3.29056e-05
3.52475e-06
-3.48191e-05
6.25935e-06
-3.70327e-05
9.27609e-06
-3.95831e-05
1.26475e-05
-4.24695e-05
1.65501e-05
-4.56506e-05
2.11761e-05
-4.90109e-05
2.6774e-05
-5.2303e-05
3.3638e-05
-5.50751e-05
4.20857e-05
-5.65675e-05
5.24008e-05
-5.56113e-05
6.47007e-05
-5.06166e-05
7.869e-05
-3.98183e-05
9.32724e-05
-2.14905e-05
0.000106626
0.000110638
-2.55877e-05
-5.51444e-06
-2.66311e-05
-2.97072e-06
-2.78088e-05
-4.11504e-07
-2.9141e-05
2.23489e-06
-3.06367e-05
5.02048e-06
-3.23399e-05
7.96262e-06
-3.42496e-05
1.11857e-05
-3.63687e-05
1.47666e-05
-3.86615e-05
1.8843e-05
-4.10483e-05
2.35629e-05
-4.3376e-05
2.91017e-05
-4.53815e-05
3.56435e-05
-4.66484e-05
4.33525e-05
-4.6562e-05
5.23144e-05
-4.42952e-05
6.24339e-05
-3.88871e-05
7.32818e-05
-2.95163e-05
8.39016e-05
-1.57093e-05
9.28195e-05
9.49286e-05
-2.35198e-05
-4.57295e-06
-2.45236e-05
-1.96694e-06
-2.56402e-05
7.05082e-07
-2.68639e-05
3.45862e-06
-2.82085e-05
6.36513e-06
-2.96926e-05
9.44668e-06
-3.13027e-05
1.27959e-05
-3.30187e-05
1.64826e-05
-3.47849e-05
2.06092e-05
-3.65037e-05
2.52817e-05
-3.80151e-05
3.0613e-05
-3.90751e-05
3.67035e-05
-3.93353e-05
4.36127e-05
-3.83326e-05
5.13118e-05
-3.55131e-05
5.96143e-05
-3.03241e-05
6.80928e-05
-2.24163e-05
7.59939e-05
-1.17974e-05
8.22005e-05
8.31312e-05
-2.13951e-05
-3.66945e-06
-2.23453e-05
-1.01678e-06
-2.33761e-05
1.73596e-06
-2.44852e-05
4.56771e-06
-2.56733e-05
7.55321e-06
-2.69436e-05
1.0717e-05
-2.82746e-05
1.41269e-05
-2.96323e-05
1.78403e-05
-3.09523e-05
2.19292e-05
-3.21343e-05
2.64637e-05
-3.30288e-05
3.15076e-05
-3.34271e-05
3.71018e-05
-3.30545e-05
4.32401e-05
-3.1578e-05
4.98353e-05
-2.86406e-05
5.66769e-05
-2.39389e-05
6.33911e-05
-1.73539e-05
6.94088e-05
-9.04647e-06
7.38931e-05
7.40847e-05
-1.92229e-05
-2.82056e-06
-2.01108e-05
-1.28955e-07
-2.10501e-05
2.67529e-06
-2.20407e-05
5.55827e-06
-2.30754e-05
8.58797e-06
-2.41469e-05
1.17885e-05
-2.52286e-05
1.52086e-05
-2.62802e-05
1.88919e-05
-2.72367e-05
2.28858e-05
-2.80043e-05
2.72312e-05
-2.84528e-05
3.19561e-05
-2.84124e-05
3.70615e-05
-2.76756e-05
4.25033e-05
-2.60105e-05
4.81702e-05
-2.31938e-05
5.38601e-05
-1.90662e-05
5.92635e-05
-1.36122e-05
6.39548e-05
-7.04132e-06
6.73223e-05
6.70434e-05
-1.70121e-05
-2.03409e-06
-1.78388e-05
6.9775e-07
-1.86842e-05
3.52072e-06
-1.95591e-05
6.43308e-06
-2.04499e-05
9.47878e-06
-2.13423e-05
1.26809e-05
-2.22078e-05
1.60742e-05
-2.30053e-05
1.96894e-05
-2.36742e-05
2.35547e-05
-2.41322e-05
2.76893e-05
-2.42717e-05
3.20956e-05
-2.396e-05
3.67498e-05
-2.30451e-05
4.15884e-05
-2.13698e-05
4.64949e-05
-1.87983e-05
5.12886e-05
-1.52536e-05
5.57188e-05
-1.07664e-05
5.94676e-05
-5.5312e-06
6.20871e-05
6.15122e-05
-1.4784e-05
-1.306e-06
-1.55362e-05
1.4499e-06
-1.62974e-05
4.28193e-06
-1.70664e-05
7.20206e-06
-1.78287e-05
1.02412e-05
-1.85672e-05
1.34194e-05
-1.9254e-05
1.67609e-05
-1.98503e-05
2.02857e-05
-2.03032e-05
2.40076e-05
-2.05435e-05
2.79296e-05
-2.04853e-05
3.20374e-05
-2.0028e-05
3.62925e-05
-1.90628e-05
4.06232e-05
-1.74854e-05
4.49176e-05
-1.52157e-05
4.90188e-05
-1.2222e-05
5.27252e-05
-8.55204e-06
5.57977e-05
-4.36784e-06
5.79029e-05
5.71444e-05
-1.25376e-05
-6.33008e-07
-1.32201e-05
2.13239e-06
-1.38992e-05
4.96108e-06
-1.45671e-05
7.86996e-06
-1.52083e-05
1.08824e-05
-1.58051e-05
1.40162e-05
-1.63327e-05
1.72886e-05
-1.67586e-05
2.07115e-05
-1.70395e-05
2.42886e-05
-1.71214e-05
2.80115e-05
-1.69392e-05
3.18552e-05
-1.64196e-05
3.57729e-05
-1.54875e-05
3.96911e-05
-1.40758e-05
4.35059e-05
-1.21392e-05
4.70823e-05
-9.67131e-06
5.02573e-05
-6.72145e-06
5.28478e-05
-3.41625e-06
5.45977e-05
5.37281e-05
-1.02854e-05
-1.70675e-09
-1.09233e-05
2.7703e-06
-1.15485e-05
5.58633e-06
-1.21521e-05
8.47353e-06
-1.27174e-05
1.14476e-05
-1.32259e-05
1.45247e-05
-1.36549e-05
1.77176e-05
-1.39763e-05
2.10329e-05
-1.41555e-05
2.44678e-05
-1.4151e-05
2.80069e-05
-1.3915e-05
3.16192e-05
-1.33964e-05
3.52543e-05
-1.25454e-05
3.884e-05
-1.13204e-05
4.22809e-05
-9.69742e-06
4.54593e-05
-7.68008e-06
4.82399e-05
-5.30948e-06
5.04772e-05
-2.68493e-06
5.19732e-05
5.10432e-05
-7.99344e-06
5.52878e-07
-8.52656e-06
3.30341e-06
-9.03504e-06
6.09481e-06
-9.50874e-06
8.94723e-06
-9.93535e-06
1.18742e-05
-1.0303e-05
1.48924e-05
-1.05968e-05
1.80115e-05
-1.07975e-05
2.12336e-05
-1.08805e-05
2.45507e-05
-1.0816e-05
2.79424e-05
-1.05706e-05
3.13738e-05
-1.01093e-05
3.47931e-05
-9.39979e-06
3.81305e-05
-8.41715e-06
4.12983e-05
-7.1514e-06
4.41935e-05
-5.6162e-06
4.67047e-05
-3.85894e-06
4.872e-05
-1.94336e-06
5.00576e-05
4.90998e-05
-6.00072e-06
1.2931e-06
-6.66689e-06
3.96958e-06
-7.24524e-06
6.67315e-06
-7.72503e-06
9.42701e-06
-8.11336e-06
1.22626e-05
-8.41359e-06
1.51926e-05
-8.6234e-06
1.82213e-05
-8.73492e-06
2.13452e-05
-8.73636e-06
2.45522e-05
-8.61258e-06
2.78186e-05
-8.34587e-06
3.11071e-05
-7.91741e-06
3.43646e-05
-7.31016e-06
3.75232e-05
-6.51212e-06
4.05002e-05
-5.51941e-06
4.32008e-05
-4.33834e-06
4.55236e-05
-2.98492e-06
4.73665e-05
-1.49651e-06
4.85692e-05
4.76033e-05
-2.72655e-06
-3.13661e-06
-3.565e-06
-3.97154e-06
-4.32453e-06
-4.60458e-06
-4.80127e-06
-4.90926e-06
-4.9252e-06
-4.8464e-06
-4.67028e-06
-4.39488e-06
-4.01888e-06
-3.54245e-06
-2.96839e-06
-2.30237e-06
-1.5657e-06
-7.79306e-07
)
;

boundaryField
{
    leftWall
    {
        type            fixedValue;
        value           nonuniform 0();
    }
    rightWall
    {
        type            fixedValue;
        value           uniform 0;
    }
    lowerWall
    {
        type            fixedValue;
        value           nonuniform 0();
    }
    atmosphere
    {
        type            calculated;
        value           nonuniform List<scalar> 
23
(
-1.8279e-06
-1.25373e-06
-7.0472e-07
-1.74538e-07
1.62513e-06
4.37964e-06
7.10153e-06
9.83355e-06
1.26155e-05
1.54726e-05
1.84179e-05
2.14531e-05
2.45681e-05
2.77398e-05
3.09309e-05
3.40892e-05
3.71472e-05
4.00238e-05
4.26267e-05
4.48576e-05
4.66298e-05
4.77828e-05
4.6824e-05
)
;
    }
    defaultFaces
    {
        type            empty;
        value           nonuniform 0();
    }
    procBoundary3to1
    {
        type            processor;
        value           nonuniform List<scalar> 
23
(
1.34975e-06
8.6418e-07
-2.61081e-07
-6.32062e-07
-3.06057e-06
-4.75452e-06
-6.10798e-06
-3.50794e-06
-1.10315e-06
1.95038e-06
6.28063e-06
9.87008e-06
1.53921e-05
1.99291e-05
2.3396e-05
3.29206e-05
2.60431e-05
4.01323e-05
8.93229e-07
-8.59092e-05
-0.000270289
-0.000505972
-0.000516243
)
;
    }
    procBoundary3to2
    {
        type            processor;
        value           nonuniform List<scalar> 
25
(
5.21972e-05
5.7183e-05
4.99194e-05
4.91318e-05
4.5328e-05
4.22035e-05
3.93048e-05
3.71118e-05
3.50553e-05
3.30424e-05
3.10475e-05
2.90602e-05
2.708e-05
2.50954e-05
2.31029e-05
2.10942e-05
1.90696e-05
1.70266e-05
1.49656e-05
1.28835e-05
1.07793e-05
8.64348e-06
6.49722e-06
4.19243e-06
2.15136e-06
)
;
    }
}


// ************************************************************************* //
