/*--------------------------------*- C++ -*----------------------------------*\
| =========                 |                                                 |
| \\      /  F ield         | OpenFOAM: The Open Source CFD Toolbox           |
|  \\    /   O peration     | Version:  2.4.0                                 |
|   \\  /    A nd           | Web:      www.OpenFOAM.org                      |
|    \\/     M anipulation  |                                                 |
\*---------------------------------------------------------------------------*/
FoamFile
{
    version     2.0;
    format      ascii;
    class       surfaceScalarField;
    location    "0.3";
    object      phi.water;
}
// * * * * * * * * * * * * * * * * * * * * * * * * * * * * * * * * * * * * * //

dimensions      [0 3 -1 0 0 0 0];

internalField   nonuniform List<scalar> 
1102
(
-5.05992e-05
-2.93413e-06
-4.94515e-05
-2.01539e-06
-4.78753e-05
-1.31571e-06
-6.95414e-07
-4.65539e-05
-5.596e-05
-4.14261e-06
-5.44475e-05
-3.52672e-06
-5.25376e-05
-3.22488e-06
-2.54922e-06
-5.06843e-05
-4.91858e-05
-4.86234e-06
-4.81389e-05
-4.5724e-06
-4.73486e-05
-4.01494e-06
-3.3771e-06
-4.65209e-05
-4.81978e-05
-5.78449e-06
-4.72729e-05
-5.49647e-06
-4.63871e-05
-4.90028e-06
-4.46778e-06
-4.52968e-05
-4.46908e-05
-6.41106e-06
-4.40611e-05
-6.12506e-06
-4.34397e-05
-5.52175e-06
-5.21773e-06
-4.26899e-05
-4.18429e-05
-6.76282e-06
-4.14744e-05
-6.49305e-06
-4.1126e-05
-5.87008e-06
-5.44093e-06
-4.0903e-05
-3.92602e-05
-6.79946e-06
-3.92196e-05
-6.53294e-06
-3.91634e-05
-5.92642e-06
-5.41141e-06
-3.91931e-05
-3.72622e-05
-6.64271e-06
-3.74428e-05
-6.35208e-06
-3.75234e-05
-5.84574e-06
-5.37957e-06
-3.75556e-05
-3.52565e-05
-6.43597e-06
-3.55261e-05
-6.08182e-06
-3.57041e-05
-5.66799e-06
-5.19986e-06
-3.5884e-05
-3.33283e-05
-6.1457e-06
-3.36214e-05
-5.7886e-06
-3.39075e-05
-5.38192e-06
-4.95676e-06
-3.41508e-05
-3.1357e-05
-5.83233e-06
-3.16988e-05
-5.44636e-06
-3.2028e-05
-5.05303e-06
-4.64139e-06
-3.23435e-05
-2.93985e-05
-5.49123e-06
-2.9757e-05
-5.08771e-06
-3.01215e-05
-4.68855e-06
-4.28168e-06
-3.04815e-05
-2.74322e-05
-5.13653e-06
-2.78051e-05
-4.7145e-06
-2.81913e-05
-4.30262e-06
-3.89498e-06
-2.85782e-05
-2.54553e-05
-4.77493e-06
-2.58312e-05
-4.33864e-06
-2.62224e-05
-3.91148e-06
-3.49442e-06
-2.66232e-05
-2.34641e-05
-4.41232e-06
-2.38362e-05
-3.96638e-06
-2.42227e-05
-3.5252e-06
-3.09565e-06
-2.46216e-05
-2.14502e-05
-4.05549e-06
-2.18138e-05
-3.60286e-06
-2.21886e-05
-3.1505e-06
-2.7066e-06
-2.25778e-05
-1.94144e-05
-3.70993e-06
-1.97639e-05
-3.25337e-06
-2.01229e-05
-2.79172e-06
-2.33824e-06
-2.04913e-05
-1.73538e-05
-3.38251e-06
-1.76868e-05
-2.92046e-06
-1.80256e-05
-2.45298e-06
-1.98999e-06
-1.8374e-05
-1.52739e-05
-3.07403e-06
-1.55853e-05
-2.6091e-06
-1.59011e-05
-2.13737e-06
-1.66543e-06
-1.62257e-05
-1.31695e-05
-2.78816e-06
-1.34599e-05
-2.31886e-06
-1.37546e-05
-1.84272e-06
-1.36405e-06
-1.40561e-05
-1.10428e-05
-2.52476e-06
-1.13117e-05
-2.05004e-06
-1.15858e-05
-1.5688e-06
-1.08511e-06
-1.18649e-05
-8.8869e-06
-2.28164e-06
-9.13748e-06
-1.79957e-06
-9.3937e-06
-1.31268e-06
-8.24539e-07
-9.65437e-06
-6.72778e-06
-2.0513e-06
-6.96126e-06
-1.56614e-06
-7.19754e-06
-1.07653e-06
-5.83003e-07
-7.43912e-06
-4.42374e-06
-1.82029e-06
-4.68999e-06
-1.30002e-06
-4.97295e-06
-7.93632e-07
-2.95296e-07
-5.26071e-06
-2.14253e-06
-2.18749e-06
-2.27512e-06
-2.3946e-06
-4.45857e-05
1.08254e-06
-4.20974e-05
2.25074e-06
-3.73013e-05
1.29758e-06
-3.32591e-05
-5.55639e-07
-3.03938e-05
-1.78239e-06
-2.73287e-05
-5.04102e-06
-2.46399e-05
-8.99237e-06
-2.22681e-05
-1.22685e-05
-1.94006e-05
-1.82844e-05
-1.63161e-05
-2.30424e-05
-1.07886e-05
-2.89517e-05
-5.55095e-06
-3.81902e-05
3.99983e-06
-3.56248e-05
1.72803e-05
-5.34466e-05
3.56048e-05
-1.9252e-05
8.09373e-05
4.05253e-05
5.93115e-05
0.000262017
5.25621e-05
0.000536839
0.000498076
-4.60154e-05
-3.58613e-06
-4.19697e-05
-1.79447e-06
-3.81042e-05
-2.56719e-06
-3.50542e-05
-3.60542e-06
-3.25739e-05
-4.26192e-06
-3.00698e-05
-7.54402e-06
-2.82005e-05
-1.08598e-05
-2.61386e-05
-1.43285e-05
-2.39116e-05
-2.05093e-05
-2.09493e-05
-2.60033e-05
-1.59129e-05
-3.39869e-05
-1.03884e-05
-4.37141e-05
1.8941e-06
-4.79075e-05
1.96192e-05
-7.11714e-05
4.97666e-05
-4.94031e-05
0.000106994
-1.66994e-05
8.7824e-05
0.000262082
7.25275e-05
0.000633714
0.000513001
-4.37898e-05
-6.31708e-06
-4.07756e-05
-4.80802e-06
-3.85182e-05
-4.82375e-06
-3.66134e-05
-5.50946e-06
-3.4437e-05
-6.43721e-06
-3.27225e-05
-9.257e-06
-3.18206e-05
-1.17597e-05
-3.01622e-05
-1.59848e-05
-2.90938e-05
-2.15758e-05
-2.70809e-05
-2.80147e-05
-2.39401e-05
-3.71265e-05
-1.89596e-05
-4.8694e-05
-5.19258e-06
-6.16741e-05
1.17374e-05
-8.8102e-05
5.19673e-05
-8.96362e-05
0.000108358
-7.30876e-05
0.000143059
0.00020729
0.000103398
0.000768006
0.000578221
-4.27421e-05
-8.87149e-06
-4.05522e-05
-6.99723e-06
-3.90332e-05
-6.34175e-06
-3.76033e-05
-6.93825e-06
-3.60253e-05
-8.01384e-06
-3.54172e-05
-9.86334e-06
-3.49544e-05
-1.22204e-05
-3.44749e-05
-1.64623e-05
-3.46229e-05
-2.14259e-05
-3.43396e-05
-2.82965e-05
-3.37141e-05
-3.77508e-05
-3.16165e-05
-5.07908e-05
-2.39692e-05
-6.93211e-05
-1.2753e-05
-9.93182e-05
2.17359e-05
-0.000124128
6.96342e-05
-0.000120996
0.000157918
0.000103842
0.000141764
0.000794603
0.000746
-4.0996e-05
-1.05652e-05
-4.00988e-05
-7.89383e-06
-3.92163e-05
-7.22303e-06
-3.81501e-05
-8.00326e-06
-3.76158e-05
-8.54649e-06
-3.77929e-05
-9.6844e-06
-3.78262e-05
-1.2185e-05
-3.87601e-05
-1.55265e-05
-4.01355e-05
-2.00487e-05
-4.2027e-05
-2.64037e-05
-4.45341e-05
-3.52426e-05
-4.73998e-05
-4.79243e-05
-4.97369e-05
-6.69832e-05
-5.22464e-05
-9.68081e-05
-4.13537e-05
-0.000135023
-9.41212e-06
-0.000152946
8.75686e-05
6.6878e-06
0.000196805
0.000696366
0.00102506
-4.0249e-05
-1.12192e-05
-3.9692e-05
-8.44996e-06
-3.90994e-05
-7.81455e-06
-3.85532e-05
-8.548e-06
-3.88405e-05
-8.25754e-06
-3.95121e-05
-9.01078e-06
-4.04563e-05
-1.12387e-05
-4.24954e-05
-1.34855e-05
-4.52025e-05
-1.734e-05
-4.91708e-05
-2.2434e-05
-5.4778e-05
-2.96341e-05
-6.2822e-05
-3.98793e-05
-7.48283e-05
-5.49757e-05
-9.37179e-05
-7.79173e-05
-0.000117277
-0.000111462
-0.00013842
-0.000131781
-0.0001185
-9.79502e-06
0.000381637
0.000643613
0.00128975
-3.92272e-05
-1.11851e-05
-3.88095e-05
-8.86686e-06
-3.86184e-05
-8.00461e-06
-3.88741e-05
-8.2907e-06
-3.96524e-05
-7.4775e-06
-4.07835e-05
-7.87772e-06
-4.26392e-05
-9.38098e-06
-4.54133e-05
-1.07095e-05
-4.93153e-05
-1.34364e-05
-5.48943e-05
-1.68536e-05
-6.286e-05
-2.16672e-05
-7.45772e-05
-2.81609e-05
-9.25135e-05
-3.7038e-05
-0.000121166
-4.92628e-05
-0.000167144
-6.54809e-05
-0.000227139
-7.1719e-05
-0.000190853
2.75662e-05
0.00012485
0.000617876
0.00114718
-3.7817e-05
-1.09235e-05
-3.7792e-05
-8.89124e-06
-3.80076e-05
-7.78784e-06
-3.88714e-05
-7.42538e-06
-3.99774e-05
-6.3696e-06
-4.1516e-05
-6.33708e-06
-4.40335e-05
-6.86154e-06
-4.73649e-05
-7.37637e-06
-5.20737e-05
-8.72607e-06
-5.86076e-05
-1.03184e-05
-6.78131e-05
-1.24605e-05
-8.10556e-05
-1.49171e-05
-0.000100708
-1.73843e-05
-0.00013108
-1.88899e-05
-0.000179307
-1.72366e-05
-0.000242182
-2.21175e-06
-0.000234436
9.3156e-05
-0.000165274
0.000490486
0.000661632
-3.63291e-05
-1.04784e-05
-3.66416e-05
-8.57812e-06
-3.72219e-05
-7.20637e-06
-3.84068e-05
-6.23896e-06
-3.98249e-05
-4.94962e-06
-4.17412e-05
-4.41886e-06
-4.45784e-05
-4.02235e-06
-4.82543e-05
-3.69875e-06
-5.33119e-05
-3.66704e-06
-6.01238e-05
-3.50522e-06
-6.94324e-05
-3.15081e-06
-8.22972e-05
-2.05116e-06
-0.000100374
6.93254e-07
-0.000126161
6.89844e-06
-0.000163465
2.00716e-05
-0.000213439
4.86871e-05
-0.000245001
0.000119092
-0.000194676
0.000299551
0.000407005
-3.47083e-05
-9.92088e-06
-3.53615e-05
-7.9243e-06
-3.62354e-05
-6.33145e-06
-3.75861e-05
-4.88669e-06
-3.91996e-05
-3.3342e-06
-4.13701e-05
-2.24642e-06
-4.43103e-05
-1.08027e-06
-4.80881e-05
8.06619e-08
-5.30945e-05
1.34063e-06
-5.9628e-05
3.02937e-06
-6.82182e-05
5.44048e-06
-7.95237e-05
9.25527e-06
-9.43686e-05
1.55391e-05
-0.000113636
2.61666e-05
-0.000137863
4.42994e-05
-0.00016465
7.54741e-05
-0.000177678
0.00013105
-0.000125925
0.000228568
0.000280425
-3.30612e-05
-9.20319e-06
-3.39043e-05
-7.08058e-06
-3.49881e-05
-5.24668e-06
-3.64208e-05
-3.45241e-06
-3.81522e-05
-1.60096e-06
-4.04146e-05
1.78451e-08
-4.33103e-05
1.81724e-06
-4.69662e-05
3.73797e-06
-5.1628e-05
6.00354e-06
-5.75019e-05
8.90425e-06
-6.48851e-05
1.28245e-05
-7.40552e-05
1.84261e-05
-8.52008e-05
2.66853e-05
-9.81412e-05
3.91075e-05
-0.000111699
5.78579e-05
-0.000121997
8.57719e-05
-0.000117356
0.000126409
-7.25609e-05
0.000183762
0.000207864
-3.13232e-05
-8.3615e-06
-3.22917e-05
-6.11157e-06
-3.34892e-05
-4.04812e-06
-3.49574e-05
-1.98269e-06
-3.67221e-05
1.65548e-07
-3.89455e-05
2.24294e-06
-4.16823e-05
4.55559e-06
-4.50508e-05
7.10768e-06
-4.91843e-05
1.0138e-05
-5.41903e-05
1.39111e-05
-6.01713e-05
1.88062e-05
-6.71278e-05
2.53833e-05
-7.48454e-05
3.44035e-05
-8.26214e-05
4.68839e-05
-8.87937e-05
6.40304e-05
-8.99396e-05
8.69177e-05
-7.92656e-05
0.000115735
-4.52936e-05
0.00014979
0.00016257
-2.94972e-05
-7.44248e-06
-3.05319e-05
-5.07644e-06
-3.17657e-05
-2.81329e-06
-3.3227e-05
-5.2002e-07
-3.49525e-05
1.89278e-06
-3.70479e-05
4.33984e-06
-3.95469e-05
7.05591e-06
-4.25281e-05
1.00898e-05
-4.60452e-05
1.36558e-05
-5.01198e-05
1.79864e-05
-5.47176e-05
2.34047e-05
-5.96703e-05
3.03365e-05
-6.45703e-05
3.9304e-05
-6.8585e-05
5.0899e-05
-7.02023e-05
6.56479e-05
-6.6961e-05
8.36764e-05
-5.52891e-05
0.000104063
-3.04475e-05
0.000124948
0.000132123
-2.75827e-05
-6.48292e-06
-2.86409e-05
-4.01779e-06
-2.98601e-05
-1.59316e-06
-3.12771e-05
8.98334e-07
-3.2903e-05
3.52004e-06
-3.4816e-05
6.25418e-06
-3.70294e-05
9.27036e-06
-3.95799e-05
1.26411e-05
-4.24665e-05
1.65431e-05
-4.5648e-05
2.11685e-05
-4.90087e-05
2.67659e-05
-5.23013e-05
3.36297e-05
-5.5074e-05
4.20772e-05
-5.65671e-05
5.23924e-05
-5.56114e-05
6.46925e-05
-5.06171e-05
7.86823e-05
-3.9819e-05
9.32653e-05
-2.14909e-05
0.00010662
0.000110632
-2.55871e-05
-5.51741e-06
-2.66304e-05
-2.974e-06
-2.78077e-05
-4.15052e-07
-2.91393e-05
2.23109e-06
-3.06344e-05
5.01635e-06
-3.23373e-05
7.95808e-06
-3.42468e-05
1.11806e-05
-3.6366e-05
1.47609e-05
-3.8659e-05
1.88366e-05
-4.10461e-05
2.35561e-05
-4.33741e-05
2.90944e-05
-4.538e-05
3.5636e-05
-4.66473e-05
4.33449e-05
-4.65614e-05
5.23068e-05
-4.42949e-05
6.24264e-05
-3.88871e-05
7.32746e-05
-2.95164e-05
8.38948e-05
-1.57095e-05
9.28129e-05
9.49224e-05
-2.35195e-05
-4.5757e-06
-2.45231e-05
-1.96992e-06
-2.56393e-05
7.01902e-07
-2.68625e-05
3.45523e-06
-2.82066e-05
6.36144e-06
-2.96904e-05
9.44259e-06
-3.13004e-05
1.27913e-05
-3.30165e-05
1.64775e-05
-3.47829e-05
2.06034e-05
-3.65018e-05
2.52756e-05
-3.80134e-05
3.06065e-05
-3.90737e-05
3.66968e-05
-3.93342e-05
4.36058e-05
-3.83318e-05
5.13048e-05
-3.55126e-05
5.96074e-05
-3.03238e-05
6.80862e-05
-2.24163e-05
7.59874e-05
-1.17973e-05
8.21943e-05
8.3125e-05
-2.1395e-05
-3.67206e-06
-2.2345e-05
-1.01956e-06
-2.33755e-05
1.73304e-06
-2.44841e-05
4.5646e-06
-2.56718e-05
7.54983e-06
-2.69419e-05
1.07132e-05
-2.82728e-05
1.41226e-05
-2.96305e-05
1.78356e-05
-3.09506e-05
2.1924e-05
-3.21326e-05
2.64581e-05
-3.30273e-05
3.15017e-05
-3.34258e-05
3.70957e-05
-3.30534e-05
4.32338e-05
-3.15771e-05
4.98289e-05
-2.864e-05
5.66706e-05
-2.39384e-05
6.33848e-05
-1.73536e-05
6.94027e-05
-9.04638e-06
7.3887e-05
7.40788e-05
-1.9223e-05
-2.8231e-06
-2.01106e-05
-1.31607e-07
-2.10496e-05
2.67252e-06
-2.20397e-05
5.55533e-06
-2.30742e-05
8.58476e-06
-2.41455e-05
1.17849e-05
-2.52272e-05
1.52046e-05
-2.62788e-05
1.88875e-05
-2.72354e-05
2.2881e-05
-2.80029e-05
2.72261e-05
-2.84515e-05
3.19507e-05
-2.84112e-05
3.70559e-05
-2.76745e-05
4.24975e-05
-2.60096e-05
4.81644e-05
-2.3193e-05
5.38542e-05
-1.90657e-05
5.92577e-05
-1.36119e-05
6.3949e-05
-7.04109e-06
6.73166e-05
6.70376e-05
-1.70122e-05
-2.03662e-06
-1.78387e-05
6.95144e-07
-1.86839e-05
3.51802e-06
-1.95584e-05
6.43023e-06
-2.04489e-05
9.47565e-06
-2.13412e-05
1.26775e-05
-2.22068e-05
1.60704e-05
-2.30042e-05
1.96852e-05
-2.36731e-05
2.35503e-05
-2.41311e-05
2.76845e-05
-2.42705e-05
3.20907e-05
-2.39589e-05
3.67446e-05
-2.30441e-05
4.1583e-05
-2.13689e-05
4.64895e-05
-1.87976e-05
5.12831e-05
-1.52531e-05
5.57133e-05
-1.0766e-05
5.9462e-05
-5.53105e-06
6.20815e-05
6.15067e-05
-1.47842e-05
-1.30858e-06
-1.55362e-05
1.44728e-06
-1.62971e-05
4.27923e-06
-1.70659e-05
7.19922e-06
-1.78281e-05
1.02381e-05
-1.85665e-05
1.34161e-05
-1.92532e-05
1.67573e-05
-1.98495e-05
2.02818e-05
-2.03023e-05
2.40035e-05
-2.05425e-05
2.79252e-05
-2.04843e-05
3.20328e-05
-2.0027e-05
3.62877e-05
-1.90618e-05
4.06182e-05
-1.74846e-05
4.49125e-05
-1.5215e-05
4.90135e-05
-1.22215e-05
5.27198e-05
-8.5517e-06
5.57922e-05
-4.36758e-06
5.78976e-05
5.7139e-05
-1.25378e-05
-6.35669e-07
-1.32201e-05
2.12972e-06
-1.38991e-05
4.95835e-06
-1.45668e-05
7.86711e-06
-1.52079e-05
1.08793e-05
-1.58046e-05
1.4013e-05
-1.63322e-05
1.72851e-05
-1.67579e-05
2.07078e-05
-1.70388e-05
2.42847e-05
-1.71206e-05
2.80074e-05
-1.69383e-05
3.18509e-05
-1.64187e-05
3.57684e-05
-1.54867e-05
3.96863e-05
-1.40751e-05
4.3501e-05
-1.21386e-05
4.70772e-05
-9.67081e-06
5.0252e-05
-6.721e-06
5.28426e-05
-3.41607e-06
5.45924e-05
5.37228e-05
-1.02856e-05
-4.45534e-09
-1.09234e-05
2.76757e-06
-1.15485e-05
5.58358e-06
-1.21519e-05
8.4707e-06
-1.27171e-05
1.14447e-05
-1.32256e-05
1.45216e-05
-1.36545e-05
1.77144e-05
-1.39759e-05
2.10295e-05
-1.4155e-05
2.44642e-05
-1.41503e-05
2.80031e-05
-1.39143e-05
3.16152e-05
-1.33957e-05
3.52501e-05
-1.25447e-05
3.88355e-05
-1.13198e-05
4.22762e-05
-9.69691e-06
4.54544e-05
-7.67959e-06
4.82349e-05
-5.30912e-06
5.0472e-05
-2.6848e-06
5.19679e-05
5.10379e-05
-7.99365e-06
5.50053e-07
-8.52667e-06
3.30066e-06
-9.03507e-06
6.09208e-06
-9.50868e-06
8.94449e-06
-9.93523e-06
1.18714e-05
-1.03028e-05
1.48895e-05
-1.05966e-05
1.80085e-05
-1.07972e-05
2.12305e-05
-1.08801e-05
2.45474e-05
-1.08156e-05
2.79389e-05
-1.05701e-05
3.13701e-05
-1.01089e-05
3.47891e-05
-9.39933e-06
3.81263e-05
-8.41672e-06
4.12939e-05
-7.15101e-06
4.41889e-05
-5.61581e-06
4.66999e-05
-3.85868e-06
4.8715e-05
-1.94321e-06
5.00526e-05
4.90947e-05
-6.00087e-06
1.29023e-06
-6.66699e-06
3.96682e-06
-7.24528e-06
6.67047e-06
-7.72502e-06
9.42436e-06
-8.11331e-06
1.22599e-05
-8.41351e-06
1.51899e-05
-8.62327e-06
1.82185e-05
-8.73474e-06
2.13423e-05
-8.73613e-06
2.45491e-05
-8.61231e-06
2.78154e-05
-8.34558e-06
3.11036e-05
-7.91712e-06
3.43609e-05
-7.30988e-06
3.75193e-05
-6.51186e-06
4.04961e-05
-5.51915e-06
4.31965e-05
-4.33812e-06
4.55191e-05
-2.98471e-06
4.73618e-05
-1.4964e-06
4.85643e-05
4.75984e-05
-2.7266e-06
-3.13664e-06
-3.56501e-06
-3.97154e-06
-4.32451e-06
-4.60456e-06
-4.80123e-06
-4.9092e-06
-4.92513e-06
-4.84631e-06
-4.67018e-06
-4.39479e-06
-4.01879e-06
-3.54236e-06
-2.96831e-06
-2.30228e-06
-1.56562e-06
-7.79265e-07
)
;

boundaryField
{
    leftWall
    {
        type            fixedValue;
        value           nonuniform 0();
    }
    rightWall
    {
        type            fixedValue;
        value           uniform 0;
    }
    lowerWall
    {
        type            fixedValue;
        value           nonuniform 0();
    }
    atmosphere
    {
        type            calculated;
        value           nonuniform List<scalar> 
23
(
-1.82934e-06
-1.25511e-06
-7.06054e-07
-1.75826e-07
1.62225e-06
4.37689e-06
7.09887e-06
9.83093e-06
1.26129e-05
1.547e-05
1.84152e-05
2.14503e-05
2.45651e-05
2.77367e-05
3.09276e-05
3.40856e-05
3.71434e-05
4.00198e-05
4.26225e-05
4.48531e-05
4.66252e-05
4.7778e-05
4.68191e-05
)
;
    }
    defaultFaces
    {
        type            empty;
        value           nonuniform 0();
    }
    procBoundary3to1
    {
        type            processor;
        value           nonuniform List<scalar> 
23
(
1.3535e-06
8.67833e-07
-2.5676e-07
-6.27743e-07
-3.04734e-06
-4.74056e-06
-6.08948e-06
-3.48858e-06
-1.07931e-06
1.97485e-06
6.30879e-06
9.89831e-06
1.5423e-05
1.99596e-05
2.34285e-05
3.29525e-05
2.60764e-05
4.01644e-05
9.27382e-07
-8.5869e-05
-0.000270442
-0.000480198
-0.000506572
)
;
    }
    procBoundary3to2
    {
        type            processor;
        value           nonuniform List<scalar> 
25
(
5.21847e-05
5.71709e-05
4.99088e-05
4.91221e-05
4.53199e-05
4.21962e-05
3.92988e-05
3.71065e-05
3.50512e-05
3.30388e-05
3.10448e-05
2.90579e-05
2.70783e-05
2.5094e-05
2.3102e-05
2.10935e-05
1.90692e-05
1.70263e-05
1.49655e-05
1.28835e-05
1.07794e-05
8.64358e-06
6.49738e-06
4.19251e-06
2.15135e-06
)
;
    }
}


// ************************************************************************* //
