/*--------------------------------*- C++ -*----------------------------------*\
| =========                 |                                                 |
| \\      /  F ield         | OpenFOAM: The Open Source CFD Toolbox           |
|  \\    /   O peration     | Version:  2.4.0                                 |
|   \\  /    A nd           | Web:      www.OpenFOAM.org                      |
|    \\/     M anipulation  |                                                 |
\*---------------------------------------------------------------------------*/
FoamFile
{
    version     2.0;
    format      ascii;
    class       volVectorField;
    location    "0.3";
    object      U;
}
// * * * * * * * * * * * * * * * * * * * * * * * * * * * * * * * * * * * * * //

dimensions      [0 1 -1 0 0 0 0];

internalField   nonuniform List<vector> 
575
(
(-0.274962 -0.0571074 0)
(-0.268675 -0.0406124 0)
(-0.265662 -0.0201679 0)
(-0.251863 -0.00764578 0)
(-0.30369 -0.0209643 0)
(-0.298368 -0.0142709 0)
(-0.288151 -0.0166952 0)
(-0.278442 -0.0127548 0)
(-0.266086 -0.0638884 0)
(-0.263129 -0.0576681 0)
(-0.257393 -0.0493363 0)
(-0.25259 -0.0392543 0)
(-0.261522 -0.0546443 0)
(-0.255458 -0.0535608 0)
(-0.252566 -0.0479962 0)
(-0.243427 -0.0424463 0)
(-0.240078 -0.0723979 0)
(-0.239977 -0.0674797 0)
(-0.236602 -0.0603708 0)
(-0.230115 -0.0565931 0)
(-0.224329 -0.0759203 0)
(-0.223601 -0.073283 0)
(-0.223563 -0.0662294 0)
(-0.219596 -0.0631562 0)
(-0.209413 -0.0785025 0)
(-0.209937 -0.0749327 0)
(-0.211582 -0.0676648 0)
(-0.211234 -0.060795 0)
(-0.199222 -0.0765446 0)
(-0.199143 -0.0741684 0)
(-0.201902 -0.067281 0)
(-0.202527 -0.0623184 0)
(-0.188163 -0.0750635 0)
(-0.189153 -0.0707942 0)
(-0.191094 -0.0661361 0)
(-0.19321 -0.0603617 0)
(-0.178045 -0.0718144 0)
(-0.17901 -0.0679701 0)
(-0.180735 -0.0631337 0)
(-0.183614 -0.0581936 0)
(-0.167464 -0.0684623 0)
(-0.168827 -0.0641553 0)
(-0.170356 -0.0596801 0)
(-0.173435 -0.0548754 0)
(-0.156952 -0.0646623 0)
(-0.158548 -0.0601682 0)
(-0.159999 -0.0556477 0)
(-0.163061 -0.0510222 0)
(-0.146371 -0.0606987 0)
(-0.14818 -0.0559542 0)
(-0.14966 -0.0513278 0)
(-0.152545 -0.0467081 0)
(-0.135731 -0.0566104 0)
(-0.137667 -0.0516912 0)
(-0.139206 -0.0468923 0)
(-0.141843 -0.0421848 0)
(-0.125026 -0.0524659 0)
(-0.127015 -0.0474215 0)
(-0.128622 -0.0424552 0)
(-0.130992 -0.0376143 0)
(-0.114218 -0.0483469 0)
(-0.116194 -0.0432129 0)
(-0.117861 -0.0381004 0)
(-0.119988 -0.0331083 0)
(-0.103313 -0.0443346 0)
(-0.105222 -0.0391355 0)
(-0.106917 -0.0339099 0)
(-0.108827 -0.0287737 0)
(-0.092295 -0.0404872 0)
(-0.0940975 -0.0352391 0)
(-0.0957881 -0.0299288 0)
(-0.0975281 -0.0246672 0)
(-0.0811804 -0.0368509 0)
(-0.0828553 -0.0315586 0)
(-0.0844927 -0.0261867 0)
(-0.0860903 -0.0208287 0)
(-0.0699438 -0.0334524 0)
(-0.0714868 -0.0281101 0)
(-0.0730536 -0.0226874 0)
(-0.0745442 -0.0172532 0)
(-0.0585871 -0.0303549 0)
(-0.0600041 -0.0249599 0)
(-0.0614789 -0.0194874 0)
(-0.06288 -0.0139878 0)
(-0.0470634 -0.0272572 0)
(-0.0483821 -0.0218089 0)
(-0.04976 -0.0163099 0)
(-0.051097 -0.0107781 0)
(-0.0355165 -0.0251371 0)
(-0.0367412 -0.0195573 0)
(-0.038027 -0.0139092 0)
(-0.0392865 -0.00824724 0)
(-0.0230343 -0.0213429 0)
(-0.024476 -0.0158701 0)
(-0.0259427 -0.0103854 0)
(-0.0274781 -0.00488537 0)
(-0.0115059 -0.0208607 0)
(-0.0115782 -0.0143078 0)
(-0.0119497 -0.0080427 0)
(-0.0124949 -0.001993 0)
(-0.245283 0.0111756 0)
(-0.235115 0.0201433 0)
(-0.213719 0.0193983 0)
(-0.186308 0.00617422 0)
(-0.171399 -0.00350912 0)
(-0.155431 -0.0179754 0)
(-0.135582 -0.0377305 0)
(-0.129093 -0.054523 0)
(-0.107439 -0.0824275 0)
(-0.0984019 -0.105058 0)
(-0.0638274 -0.128309 0)
(-0.0752539 -0.174103 0)
(0.038121 -0.15063 0)
(-0.0187081 -0.229622 0)
(0.262172 -0.0361768 0)
(0.0170092 0.322868 0)
(1.05809 1.31925 0)
(-0.489152 2.53412 0)
(0.545289 2.48642 0)
(-0.258386 -0.00369569 0)
(-0.239856 0.000861711 0)
(-0.211738 -0.00583919 0)
(-0.196392 -0.011241 0)
(-0.181483 -0.0137258 0)
(-0.167724 -0.0310254 0)
(-0.154095 -0.0496511 0)
(-0.147525 -0.0644306 0)
(-0.131086 -0.0952444 0)
(-0.120986 -0.119697 0)
(-0.0963294 -0.154058 0)
(-0.0885688 -0.20088 0)
(0.00485294 -0.206369 0)
(0.00182121 -0.308274 0)
(0.271092 -0.167997 0)
(0.121422 0.053755 0)
(1.31817 1.31051 0)
(-0.578739 3.11172 0)
(0.738958 2.50158 0)
(-0.245877 -0.0275148 0)
(-0.22595 -0.0174016 0)
(-0.21163 -0.0187387 0)
(-0.201877 -0.0236178 0)
(-0.191152 -0.0271891 0)
(-0.177158 -0.0417276 0)
(-0.175121 -0.0553282 0)
(-0.164092 -0.0740387 0)
(-0.158182 -0.102951 0)
(-0.149475 -0.131924 0)
(-0.134799 -0.17404 0)
(-0.118442 -0.226644 0)
(-0.05644 -0.271332 0)
(-0.0222892 -0.394429 0)
(0.188228 -0.356642 0)
(0.234326 -0.246277 0)
(1.20634 1.13394 0)
(0.0861489 3.58518 0)
(0.944266 2.69817 0)
(-0.235432 -0.0364619 0)
(-0.221014 -0.0302334 0)
(-0.213282 -0.027974 0)
(-0.206902 -0.0294847 0)
(-0.197008 -0.0352644 0)
(-0.189435 -0.047671 0)
(-0.190776 -0.0578913 0)
(-0.183657 -0.0798523 0)
(-0.185155 -0.104633 0)
(-0.18294 -0.137607 0)
(-0.179963 -0.182991 0)
(-0.172185 -0.243878 0)
(-0.143976 -0.323335 0)
(-0.110032 -0.46345 0)
(0.0163636 -0.542565 0)
(0.171415 -0.512456 0)
(0.672643 0.694025 0)
(1.02169 3.83455 0)
(1.25548 3.2632 0)
(-0.22501 -0.0483681 0)
(-0.216591 -0.0371697 0)
(-0.213226 -0.0331931 0)
(-0.208076 -0.0372 0)
(-0.200579 -0.0416046 0)
(-0.20468 -0.0472189 0)
(-0.200635 -0.0595592 0)
(-0.205403 -0.0782373 0)
(-0.210391 -0.100881 0)
(-0.218617 -0.133431 0)
(-0.229071 -0.178025 0)
(-0.241286 -0.241313 0)
(-0.251274 -0.334335 0)
(-0.256793 -0.483079 0)
(-0.239513 -0.64959 0)
(-0.176155 -0.698746 0)
(0.0169275 0.151469 0)
(0.847917 3.73539 0)
(1.84586 4.47498 0)
(-0.21476 -0.0542169 0)
(-0.215468 -0.039177 0)
(-0.21198 -0.0366618 0)
(-0.208115 -0.0403055 0)
(-0.205343 -0.0411146 0)
(-0.212652 -0.0456847 0)
(-0.211714 -0.0573649 0)
(-0.223377 -0.0705026 0)
(-0.233563 -0.0909565 0)
(-0.251796 -0.118752 0)
(-0.275835 -0.157712 0)
(-0.310211 -0.213481 0)
(-0.358354 -0.296668 0)
(-0.424672 -0.425697 0)
(-0.538214 -0.606737 0)
(-0.723924 -0.702925 0)
(-0.815301 -0.065265 0)
(-0.885159 2.93832 0)
(1.85219 5.02865 0)
(-0.208129 -0.0544238 0)
(-0.210505 -0.0426233 0)
(-0.208394 -0.0389629 0)
(-0.205552 -0.0417851 0)
(-0.211819 -0.0381913 0)
(-0.215609 -0.0408072 0)
(-0.222626 -0.0503852 0)
(-0.23645 -0.0586355 0)
(-0.252746 -0.0747192 0)
(-0.278417 -0.0951664 0)
(-0.313344 -0.124126 0)
(-0.364441 -0.164241 0)
(-0.439771 -0.221305 0)
(-0.553533 -0.304319 0)
(-0.741441 -0.420591 0)
(-1.08514 -0.485496 0)
(-1.49038 -0.012525 0)
(-1.73746 2.18424 0)
(0.795153 4.6955 0)
(-0.200127 -0.0539838 0)
(-0.203401 -0.0431454 0)
(-0.204633 -0.0385252 0)
(-0.20328 -0.0384917 0)
(-0.21402 -0.0338091 0)
(-0.216922 -0.0346693 0)
(-0.229666 -0.0394416 0)
(-0.244853 -0.0437821 0)
(-0.265871 -0.0535937 0)
(-0.295986 -0.0654931 0)
(-0.337268 -0.0819878 0)
(-0.39638 -0.10283 0)
(-0.482158 -0.128434 0)
(-0.610549 -0.15762 0)
(-0.813191 -0.184952 0)
(-1.16561 -0.158078 0)
(-1.6376 0.196766 0)
(-1.70355 1.68395 0)
(-0.688603 3.65688 0)
(-0.192804 -0.0519183 0)
(-0.195185 -0.0428837 0)
(-0.200087 -0.0365771 0)
(-0.200214 -0.0331312 0)
(-0.212191 -0.0275381 0)
(-0.217172 -0.0262528 0)
(-0.232048 -0.0263136 0)
(-0.248583 -0.026751 0)
(-0.271957 -0.0297507 0)
(-0.30364 -0.0329653 0)
(-0.346367 -0.0368461 0)
(-0.405294 -0.039202 0)
(-0.487284 -0.036851 0)
(-0.603154 -0.0223533 0)
(-0.769846 0.0196519 0)
(-1.02287 0.131932 0)
(-1.35129 0.462747 0)
(-1.28341 1.37284 0)
(-0.821559 2.31477 0)
(-0.184386 -0.0496821 0)
(-0.187041 -0.0401665 0)
(-0.193761 -0.0330815 0)
(-0.196303 -0.0270101 0)
(-0.207485 -0.0201725 0)
(-0.215108 -0.016243 0)
(-0.230237 -0.0122693 0)
(-0.247537 -0.00862459 0)
(-0.271181 -0.00528748 0)
(-0.302 -0.000562724 0)
(-0.342352 0.00655126 0)
(-0.395551 0.0191528 0)
(-0.465499 0.0420814 0)
(-0.556932 0.0845267 0)
(-0.673512 0.162766 0)
(-0.81738 0.308858 0)
(-0.966031 0.602339 0)
(-0.824672 1.1859 0)
(-0.47508 1.55993 0)
(-0.175689 -0.0465026 0)
(-0.178675 -0.0365065 0)
(-0.186141 -0.0281772 0)
(-0.190571 -0.0202466 0)
(-0.200926 -0.0120146 0)
(-0.21025 -0.00541392 0)
(-0.224863 0.00188599 0)
(-0.24201 0.00942979 0)
(-0.264406 0.0181508 0)
(-0.292593 0.0294783 0)
(-0.328105 0.0451339 0)
(-0.372529 0.0683953 0)
(-0.42714 0.10425 0)
(-0.492128 0.160855 0)
(-0.563918 0.250847 0)
(-0.631485 0.393155 0)
(-0.670813 0.619713 0)
(-0.516209 0.978709 0)
(-0.244187 1.14736 0)
(-0.166374 -0.0427112 0)
(-0.169841 -0.0320573 0)
(-0.177477 -0.0225927 0)
(-0.183085 -0.0131883 0)
(-0.19282 -0.00350892 0)
(-0.202789 0.00549296 0)
(-0.216485 0.0155344 0)
(-0.232639 0.0264617 0)
(-0.252824 0.0394352 0)
(-0.277316 0.0557694 0)
(-0.306813 0.0773486 0)
(-0.341607 0.107125 0)
(-0.381166 0.149287 0)
(-0.423194 0.209849 0)
(-0.461564 0.296723 0)
(-0.48342 0.41876 0)
(-0.470091 0.583547 0)
(-0.337661 0.79737 0)
(-0.140088 0.883397 0)
(-0.156538 -0.0384162 0)
(-0.160425 -0.0271632 0)
(-0.16788 -0.016673 0)
(-0.174105 -0.00606439 0)
(-0.183254 0.00495265 0)
(-0.193128 0.0159664 0)
(-0.205641 0.028218 0)
(-0.220236 0.0418377 0)
(-0.237707 0.0579293 0)
(-0.258077 0.0776862 0)
(-0.281389 0.102818 0)
(-0.307112 0.135695 0)
(-0.333757 0.179393 0)
(-0.358124 0.237727 0)
(-0.374073 0.314749 0)
(-0.371083 0.41315 0)
(-0.336717 0.530726 0)
(-0.231725 0.660255 0)
(-0.0897168 0.707573 0)
(-0.146184 -0.0338216 0)
(-0.150409 -0.0220578 0)
(-0.157504 -0.0106777 0)
(-0.163939 0.000908795 0)
(-0.172437 0.0130809 0)
(-0.18174 0.0256856 0)
(-0.192897 0.0396311 0)
(-0.205631 0.0552224 0)
(-0.220241 0.0734003 0)
(-0.236536 0.0951885 0)
(-0.254139 0.121969 0)
(-0.272092 0.15547 0)
(-0.288569 0.197699 0)
(-0.30039 0.250727 0)
(-0.302443 0.316054 0)
(-0.287276 0.39321 0)
(-0.24735 0.477182 0)
(-0.165459 0.558457 0)
(-0.0613422 0.585151 0)
(-0.135405 -0.0291382 0)
(-0.139827 -0.0169598 0)
(-0.146466 -0.00484115 0)
(-0.152808 0.0075414 0)
(-0.160571 0.0206534 0)
(-0.169057 0.0344506 0)
(-0.178787 0.0496158 0)
(-0.189576 0.0665185 0)
(-0.201429 0.0859127 0)
(-0.214005 0.10862 0)
(-0.226706 0.13566 0)
(-0.238433 0.168181 0)
(-0.24739 0.207334 0)
(-0.250841 0.253991 0)
(-0.244932 0.308185 0)
(-0.224783 0.368148 0)
(-0.186108 0.428841 0)
(-0.122048 0.482005 0)
(-0.0437343 0.496632 0)
(-0.124277 -0.0244821 0)
(-0.128761 -0.0119736 0)
(-0.134896 0.000700052 0)
(-0.140948 0.0137346 0)
(-0.147927 0.0275426 0)
(-0.155471 0.0421751 0)
(-0.163786 0.0581402 0)
(-0.172703 0.075797 0)
(-0.182057 0.0957207 0)
(-0.191429 0.118525 0)
(-0.200144 0.144903 0)
(-0.207131 0.175537 0)
(-0.210812 0.21096 0)
(-0.20902 0.251302 0)
(-0.199015 0.295875 0)
(-0.177763 0.342598 0)
(-0.142941 0.387272 0)
(-0.0924192 0.423539 0)
(-0.0321456 0.430793 0)
(-0.112872 -0.0199908 0)
(-0.11732 -0.00721688 0)
(-0.122912 0.00586362 0)
(-0.128532 0.0193913 0)
(-0.134734 0.0336867 0)
(-0.14131 0.0488525 0)
(-0.148292 0.065266 0)
(-0.155504 0.0832372 0)
(-0.162697 0.103184 0)
(-0.169431 0.125531 0)
(-0.175045 0.150704 0)
(-0.178584 0.17904 0)
(-0.178756 0.210666 0)
(-0.173929 0.245297 0)
(-0.162234 0.281971 0)
(-0.141855 0.318733 0)
(-0.111601 0.352348 0)
(-0.0714159 0.378069 0)
(-0.0241943 0.380727 0)
(-0.101258 -0.0157363 0)
(-0.105571 -0.00273723 0)
(-0.110633 0.0106333 0)
(-0.115753 0.0244863 0)
(-0.1212 0.039082 0)
(-0.126844 0.0545333 0)
(-0.132619 0.0711153 0)
(-0.138343 0.0890729 0)
(-0.143738 0.108692 0)
(-0.148383 0.130241 0)
(-0.15168 0.15394 0)
(-0.152829 0.179889 0)
(-0.150817 0.207964 0)
(-0.144459 0.237684 0)
(-0.132518 0.268046 0)
(-0.113937 0.297381 0)
(-0.0881905 0.323269 0)
(-0.0558125 0.342212 0)
(-0.0187357 0.341958 0)
(-0.0894722 -0.0117649 0)
(-0.0935929 0.00138226 0)
(-0.0981619 0.014958 0)
(-0.102757 0.0290127 0)
(-0.107496 0.0437553 0)
(-0.112277 0.0592976 0)
(-0.116991 0.0758377 0)
(-0.121453 0.0935554 0)
(-0.125393 0.112632 0)
(-0.128432 0.133213 0)
(-0.130062 0.155371 0)
(-0.129639 0.179048 0)
(-0.126397 0.203984 0)
(-0.119501 0.229625 0)
(-0.108152 0.255039 0)
(-0.0917586 0.278858 0)
(-0.0701571 0.29928 0)
(-0.0439934 0.313754 0)
(-0.0146822 0.311659 0)
(-0.077601 -0.0080782 0)
(-0.0814657 0.0051656 0)
(-0.0855629 0.0188638 0)
(-0.0896665 0.0330143 0)
(-0.0937721 0.0477818 0)
(-0.0977979 0.0632692 0)
(-0.101618 0.0796162 0)
(-0.105061 0.0969453 0)
(-0.107881 0.115358 0)
(-0.109753 0.134906 0)
(-0.110261 0.155562 0)
(-0.108906 0.177174 0)
(-0.105121 0.199414 0)
(-0.0983313 0.221728 0)
(-0.0880312 0.243291 0)
(-0.0739089 0.263004 0)
(-0.0559784 0.279519 0)
(-0.0348522 0.290946 0)
(-0.0115682 0.2877 0)
(-0.0656437 -0.00470921 0)
(-0.0692402 0.00862263 0)
(-0.0729067 0.0223438 0)
(-0.0765273 0.0364852 0)
(-0.0800356 0.0511705 0)
(-0.0833554 0.0664915 0)
(-0.0863676 0.0825464 0)
(-0.0889241 0.0994125 0)
(-0.0908226 0.117131 0)
(-0.0918037 0.135689 0)
(-0.0915475 0.15499 0)
(-0.0896822 0.174825 0)
(-0.085807 0.194843 0)
(-0.0795357 0.214516 0)
(-0.0705599 0.233132 0)
(-0.0587326 0.249805 0)
(-0.0441521 0.263518 0)
(-0.0273336 0.272862 0)
(-0.00903217 0.268913 0)
(-0.0536319 -0.00146845 0)
(-0.0570325 0.0118735 0)
(-0.0604237 0.0255646 0)
(-0.0637304 0.0396291 0)
(-0.0668656 0.0541571 0)
(-0.0697476 0.069231 0)
(-0.0722615 0.0849227 0)
(-0.0742752 0.101277 0)
(-0.0756208 0.118295 0)
(-0.0760946 0.13592 0)
(-0.0754573 0.154016 0)
(-0.0734429 0.172347 0)
(-0.0697784 0.19056 0)
(-0.0642157 0.208171 0)
(-0.0565754 0.224568 0)
(-0.0467984 0.239029 0)
(-0.034992 0.250752 0)
(-0.0215541 0.258614 0)
(-0.00707652 0.254229 0)
(-0.0415382 0.00128234 0)
(-0.0444675 0.0146505 0)
(-0.0472525 0.0282644 0)
(-0.0498866 0.0421923 0)
(-0.0522949 0.0565089 0)
(-0.054422 0.0712949 0)
(-0.0561933 0.0866061 0)
(-0.0575194 0.102464 0)
(-0.0582827 0.118841 0)
(-0.0583369 0.135651 0)
(-0.057512 0.152734 0)
(-0.0556234 0.169838 0)
(-0.0524884 0.186617 0)
(-0.0479504 0.202621 0)
(-0.0419116 0.217312 0)
(-0.0343776 0.23008 0)
(-0.0254822 0.240303 0)
(-0.0156454 0.247166 0)
(-0.00511586 0.242614 0)
(-0.0303161 0.00436427 0)
(-0.0341404 0.0175243 0)
(-0.0375407 0.0308321 0)
(-0.0403404 0.0444554 0)
(-0.0426481 0.0584862 0)
(-0.0444809 0.0729768 0)
(-0.0458424 0.0879496 0)
(-0.0466997 0.103398 0)
(-0.0469998 0.119271 0)
(-0.0466709 0.135465 0)
(-0.0456246 0.151809 0)
(-0.0437615 0.168052 0)
(-0.0409836 0.183861 0)
(-0.037211 0.198823 0)
(-0.0324006 0.212463 0)
(-0.0265679 0.224279 0)
(-0.0197487 0.233761 0)
(-0.0121296 0.239964 0)
(-0.00390541 0.235253 0)
(-0.0137047 0.00788848 0)
(-0.0157398 0.0212591 0)
(-0.0179917 0.0344734 0)
(-0.0203013 0.0477381 0)
(-0.022369 0.0612468 0)
(-0.0240815 0.0751204 0)
(-0.0253611 0.0894223 0)
(-0.0261757 0.10416 0)
(-0.0265042 0.119286 0)
(-0.0263313 0.134688 0)
(-0.0256434 0.150185 0)
(-0.0244282 0.165522 0)
(-0.0226764 0.180374 0)
(-0.020384 0.194346 0)
(-0.0175582 0.206989 0)
(-0.0142361 0.217826 0)
(-0.010385 0.226436 0)
(-0.00637374 0.232038 0)
(-0.00199995 0.227384 0)
)
;

boundaryField
{
    leftWall
    {
        type            calculated;
        value           nonuniform 0();
    }
    rightWall
    {
        type            calculated;
        value           uniform (0 0 0);
    }
    lowerWall
    {
        type            calculated;
        value           nonuniform 0();
    }
    atmosphere
    {
        type            calculated;
        value           nonuniform List<vector> 
23
(
(-0.0115059 -0.0208669 0)
(-0.0115782 -0.0143123 0)
(-0.0119497 -0.00804492 0)
(-0.0124949 -0.00199248 0)
(-0.0137047 0.00789139 0)
(-0.0157398 0.0212668 0)
(-0.0179917 0.0344839 0)
(-0.0203013 0.0477502 0)
(-0.022369 0.0612591 0)
(-0.0240815 0.0751327 0)
(-0.0253611 0.0894346 0)
(-0.0261757 0.104173 0)
(-0.0265042 0.119299 0)
(-0.0263313 0.1347 0)
(-0.0256434 0.150196 0)
(-0.0244282 0.165532 0)
(-0.0226764 0.180381 0)
(-0.020384 0.194349 0)
(-0.0175582 0.206989 0)
(-0.0142361 0.217822 0)
(-0.010385 0.226427 0)
(-0.00637374 0.232026 0)
(-0.00199995 0.22737 0)
)
;
    }
    defaultFaces
    {
        type            empty;
    }
    procBoundary3to1
    {
        type            processor;
        value           nonuniform List<vector> 
23
(
(-0.378104 0.0361526 0)
(-0.354185 0.0287052 0)
(-0.342555 0.0304881 0)
(-0.31734 0.0284079 0)
(-0.282231 0.0251547 0)
(-0.240355 0.0236222 0)
(-0.211749 0.0355723 0)
(-0.181103 0.0263088 0)
(-0.159928 0.0140988 0)
(-0.139191 -0.00135949 0)
(-0.118039 -0.0238803 0)
(-0.10983 -0.0421474 0)
(-0.0859035 -0.0678549 0)
(-0.0817211 -0.0910242 0)
(-0.0365469 -0.103033 0)
(-0.0725325 -0.150066 0)
(0.053257 -0.113907 0)
(-0.0546299 -0.174037 0)
(0.196533 0.0249508 0)
(-0.094552 0.479422 0)
(0.499449 1.33441 0)
(-0.326789 2.31992 0)
(0.360818 2.5368 0)
)
;
    }
    procBoundary3to2
    {
        type            processor;
        value           nonuniform List<vector> 
25
(
(-0.295064 -0.11868 0)
(-0.305821 -0.0280782 0)
(-0.269929 -0.0884171 0)
(-0.266118 -0.0582512 0)
(-0.2472 -0.0754169 0)
(-0.228857 -0.0767761 0)
(-0.213764 -0.0802747 0)
(-0.199573 -0.0820757 0)
(-0.188701 -0.0808711 0)
(-0.176695 -0.078958 0)
(-0.165722 -0.0758887 0)
(-0.154703 -0.0724389 0)
(-0.143861 -0.06861 0)
(-0.133062 -0.0645915 0)
(-0.122282 -0.0604854 0)
(-0.111473 -0.0563992 0)
(-0.100622 -0.0524218 0)
(-0.0897086 -0.0486167 0)
(-0.0787234 -0.0450365 0)
(-0.0676461 -0.041708 0)
(-0.0564574 -0.0387054 0)
(-0.0451276 -0.0356812 0)
(-0.0336063 -0.0339192 0)
(-0.0215065 -0.0297496 0)
(-0.0116533 -0.0310579 0)
)
;
    }
}


// ************************************************************************* //
