/*--------------------------------*- C++ -*----------------------------------*\
| =========                 |                                                 |
| \\      /  F ield         | OpenFOAM: The Open Source CFD Toolbox           |
|  \\    /   O peration     | Version:  2.4.0                                 |
|   \\  /    A nd           | Web:      www.OpenFOAM.org                      |
|    \\/     M anipulation  |                                                 |
\*---------------------------------------------------------------------------*/
FoamFile
{
    version     2.0;
    format      ascii;
    class       volVectorField;
    location    "0.3";
    object      U.oil;
}
// * * * * * * * * * * * * * * * * * * * * * * * * * * * * * * * * * * * * * //

dimensions      [0 1 -1 0 0 0 0];

internalField   nonuniform List<vector> 
575
(
(-0.274896 -0.0572846 0)
(-0.268597 -0.0407516 0)
(-0.265577 -0.020278 0)
(-0.251774 -0.00774145 0)
(-0.303624 -0.0210526 0)
(-0.298292 -0.0143516 0)
(-0.288069 -0.0167678 0)
(-0.27836 -0.0128252 0)
(-0.266026 -0.0639448 0)
(-0.263059 -0.0577216 0)
(-0.257319 -0.0493883 0)
(-0.252517 -0.0393068 0)
(-0.261467 -0.0546857 0)
(-0.255395 -0.0536017 0)
(-0.2525 -0.0480375 0)
(-0.243363 -0.0424897 0)
(-0.240029 -0.072427 0)
(-0.23992 -0.067511 0)
(-0.236544 -0.0604046 0)
(-0.230059 -0.0566302 0)
(-0.224285 -0.0759428 0)
(-0.223553 -0.0733085 0)
(-0.223513 -0.0662581 0)
(-0.219548 -0.0631886 0)
(-0.209376 -0.0785215 0)
(-0.209895 -0.0749549 0)
(-0.21154 -0.0676902 0)
(-0.211194 -0.0608239 0)
(-0.199191 -0.0765617 0)
(-0.199109 -0.0741884 0)
(-0.201867 -0.0673039 0)
(-0.202494 -0.0623446 0)
(-0.188138 -0.0750791 0)
(-0.189123 -0.0708125 0)
(-0.191064 -0.066157 0)
(-0.193183 -0.0603855 0)
(-0.178024 -0.0718288 0)
(-0.178987 -0.0679868 0)
(-0.180711 -0.0631528 0)
(-0.183592 -0.0582151 0)
(-0.167448 -0.0684757 0)
(-0.168807 -0.0641707 0)
(-0.170337 -0.0596975 0)
(-0.173418 -0.0548949 0)
(-0.156938 -0.0646747 0)
(-0.158533 -0.0601823 0)
(-0.159984 -0.0556636 0)
(-0.163048 -0.0510398 0)
(-0.146361 -0.0607102 0)
(-0.148168 -0.0559672 0)
(-0.149649 -0.0513423 0)
(-0.152535 -0.0467242 0)
(-0.135723 -0.0566212 0)
(-0.137658 -0.0517032 0)
(-0.139197 -0.0469057 0)
(-0.141836 -0.0421995 0)
(-0.125021 -0.0524762 0)
(-0.127008 -0.0474329 0)
(-0.128616 -0.0424677 0)
(-0.130987 -0.0376278 0)
(-0.114214 -0.0483569 0)
(-0.11619 -0.0432237 0)
(-0.117857 -0.0381122 0)
(-0.119985 -0.033121 0)
(-0.10331 -0.0443445 0)
(-0.105219 -0.0391461 0)
(-0.106915 -0.0339213 0)
(-0.108826 -0.0287858 0)
(-0.0922933 -0.0404972 0)
(-0.0940959 -0.0352497 0)
(-0.095787 -0.02994 0)
(-0.0975277 -0.024679 0)
(-0.0811799 -0.0368613 0)
(-0.0828545 -0.0315696 0)
(-0.0844924 -0.0261981 0)
(-0.0860908 -0.0208405 0)
(-0.0699438 -0.0334635 0)
(-0.0714871 -0.0281216 0)
(-0.0730542 -0.0226992 0)
(-0.0745452 -0.0172653 0)
(-0.0585877 -0.0303669 0)
(-0.0600047 -0.0249721 0)
(-0.0614799 -0.0194998 0)
(-0.0628814 -0.0140004 0)
(-0.0470642 -0.0272701 0)
(-0.0483832 -0.021822 0)
(-0.0497613 -0.0163231 0)
(-0.0510984 -0.0107912 0)
(-0.0355174 -0.0251508 0)
(-0.0367421 -0.019571 0)
(-0.0380282 -0.013923 0)
(-0.0392879 -0.00826095 0)
(-0.0230351 -0.0213574 0)
(-0.0244771 -0.0158846 0)
(-0.0259439 -0.0103998 0)
(-0.0274792 -0.00489957 0)
(-0.0115062 -0.0208765 0)
(-0.0115788 -0.0143231 0)
(-0.0119502 -0.00805768 0)
(-0.0124954 -0.00200758 0)
(-0.245196 0.0110777 0)
(-0.235026 0.0200567 0)
(-0.21363 0.0192941 0)
(-0.186224 0.00605033 0)
(-0.171322 -0.00365927 0)
(-0.155363 -0.0181428 0)
(-0.135519 -0.0379141 0)
(-0.12903 -0.0547058 0)
(-0.107371 -0.0826033 0)
(-0.0983309 -0.105242 0)
(-0.0638232 -0.128635 0)
(-0.0752292 -0.175083 0)
(0.0367192 -0.155649 0)
(-0.0166742 -0.248978 0)
(0.259919 -0.0908953 0)
(0.0489753 0.186707 0)
(0.77598 1.52681 0)
(0.0507323 2.46297 0)
(0.549401 2.48503 0)
(-0.258305 -0.00376599 0)
(-0.239776 0.000790273 0)
(-0.21166 -0.00591989 0)
(-0.196316 -0.0113388 0)
(-0.181412 -0.0138362 0)
(-0.167658 -0.0311504 0)
(-0.15403 -0.0497833 0)
(-0.147459 -0.0645696 0)
(-0.131017 -0.0953823 0)
(-0.120918 -0.119849 0)
(-0.0963149 -0.154314 0)
(-0.0886661 -0.201699 0)
(0.00257271 -0.211151 0)
(-0.00137 -0.327061 0)
(0.245054 -0.233956 0)
(0.144174 -0.0925002 0)
(1.13215 1.24826 0)
(0.0772524 2.88218 0)
(0.745908 2.49647 0)
(-0.245806 -0.0275713 0)
(-0.225881 -0.0174638 0)
(-0.211561 -0.0188113 0)
(-0.20181 -0.0237028 0)
(-0.191088 -0.0272846 0)
(-0.177096 -0.0418329 0)
(-0.175058 -0.0554403 0)
(-0.164028 -0.0741569 0)
(-0.158115 -0.103073 0)
(-0.149411 -0.132059 0)
(-0.134777 -0.174246 0)
(-0.118679 -0.2273 0)
(-0.0594696 -0.275558 0)
(-0.0330999 -0.410394 0)
(0.138074 -0.4192 0)
(0.188918 -0.377932 0)
(1.03256 0.856594 0)
(0.137634 3.53127 0)
(0.958065 2.68185 0)
(-0.235371 -0.0365106 0)
(-0.220954 -0.0302895 0)
(-0.213223 -0.0280405 0)
(-0.206845 -0.0295615 0)
(-0.196952 -0.0353504 0)
(-0.189379 -0.0477649 0)
(-0.190718 -0.0579916 0)
(-0.183597 -0.0799585 0)
(-0.185093 -0.104746 0)
(-0.182879 -0.137729 0)
(-0.179934 -0.183158 0)
(-0.17246 -0.244342 0)
(-0.147069 -0.32613 0)
(-0.125334 -0.474018 0)
(-0.0492458 -0.583527 0)
(0.0315111 -0.590531 0)
(0.423554 0.385817 0)
(0.222018 4.28883 0)
(1.26147 3.23404 0)
(-0.224956 -0.048411 0)
(-0.21654 -0.0372209 0)
(-0.213176 -0.0332536 0)
(-0.208027 -0.0372699 0)
(-0.200529 -0.0416826 0)
(-0.204629 -0.047304 0)
(-0.200582 -0.0596505 0)
(-0.205349 -0.0783345 0)
(-0.210335 -0.100984 0)
(-0.218562 -0.133543 0)
(-0.229034 -0.178161 0)
(-0.241449 -0.241587 0)
(-0.253269 -0.335392 0)
(-0.272364 -0.486876 0)
(-0.303113 -0.658856 0)
(-0.357982 -0.688664 0)
(-0.246567 0.218112 0)
(0.20911 4.61822 0)
(1.84001 4.59484 0)
(-0.214715 -0.0542551 0)
(-0.215425 -0.0392234 0)
(-0.211938 -0.0367166 0)
(-0.208072 -0.0403689 0)
(-0.2053 -0.0411852 0)
(-0.212607 -0.0457619 0)
(-0.211666 -0.057448 0)
(-0.223328 -0.0705915 0)
(-0.233513 -0.0910518 0)
(-0.251747 -0.118855 0)
(-0.275793 -0.157828 0)
(-0.310234 -0.213647 0)
(-0.359021 -0.297032 0)
(-0.43019 -0.425873 0)
(-0.58013 -0.595783 0)
(-0.817155 -0.574062 0)
(-0.531588 1.12182 0)
(1.72824 9.01377 0)
(2.5447 6.5475 0)
(-0.208091 -0.0544583 0)
(-0.21047 -0.0426651 0)
(-0.208358 -0.0390125 0)
(-0.205516 -0.0418421 0)
(-0.211781 -0.038255 0)
(-0.215569 -0.0408769 0)
(-0.222584 -0.0504604 0)
(-0.236406 -0.0587163 0)
(-0.252702 -0.074806 0)
(-0.278375 -0.09526 0)
(-0.313307 -0.124228 0)
(-0.364427 -0.16436 0)
(-0.439966 -0.221457 0)
(-0.555511 -0.304079 0)
(-0.759856 -0.41105 0)
(-1.12111 -0.38184 0)
(-1.21095 0.470493 0)
(2.70414 9.11253 0)
(3.05403 8.76261 0)
(-0.200096 -0.0540149 0)
(-0.203372 -0.043183 0)
(-0.204604 -0.0385697 0)
(-0.20325 -0.0385426 0)
(-0.213988 -0.0338661 0)
(-0.216887 -0.0347317 0)
(-0.229628 -0.0395091 0)
(-0.244814 -0.0438547 0)
(-0.265833 -0.0536719 0)
(-0.29595 -0.0655773 0)
(-0.337236 -0.0820786 0)
(-0.396355 -0.10293 0)
(-0.482143 -0.128558 0)
(-0.610906 -0.157772 0)
(-0.816362 -0.177423 0)
(-1.07276 0.149749 0)
(0.177949 3.70448 0)
(2.35046 9.11838 0)
(2.04291 8.43929 0)
(-0.19278 -0.0519463 0)
(-0.195162 -0.0429176 0)
(-0.200064 -0.0366168 0)
(-0.20019 -0.0331765 0)
(-0.212164 -0.0275886 0)
(-0.217141 -0.0263081 0)
(-0.232015 -0.0263735 0)
(-0.248548 -0.0268156 0)
(-0.271924 -0.0298202 0)
(-0.303609 -0.0330399 0)
(-0.346341 -0.0369259 0)
(-0.405274 -0.0392871 0)
(-0.487274 -0.0369409 0)
(-0.603157 -0.0224548 0)
(-0.770402 0.0209277 0)
(-0.976617 0.341735 0)
(-0.416504 2.58135 0)
(1.37373 7.06395 0)
(0.258218 4.72723 0)
(-0.184366 -0.0497073 0)
(-0.187023 -0.0401969 0)
(-0.193743 -0.0331167 0)
(-0.196283 -0.0270502 0)
(-0.207462 -0.0202169 0)
(-0.215082 -0.0162917 0)
(-0.230208 -0.0123219 0)
(-0.247507 -0.00868142 0)
(-0.271151 -0.00534859 0)
(-0.301973 -0.000628268 0)
(-0.34233 0.00648152 0)
(-0.395535 0.0190794 0)
(-0.465491 0.0420053 0)
(-0.556935 0.0844498 0)
(-0.673541 0.162699 0)
(-0.819044 0.313826 0)
(-0.926498 0.780151 0)
(-0.498396 2.12645 0)
(-0.401218 1.80311 0)
(-0.175674 -0.0465254 0)
(-0.178661 -0.0365335 0)
(-0.186127 -0.0282084 0)
(-0.190555 -0.0202818 0)
(-0.200906 -0.0120533 0)
(-0.210227 -0.0054562 0)
(-0.224837 0.00184017 0)
(-0.241983 0.00938022 0)
(-0.26438 0.0180973 0)
(-0.29257 0.029421 0)
(-0.328086 0.0450731 0)
(-0.372515 0.0683319 0)
(-0.427133 0.104185 0)
(-0.492129 0.160791 0)
(-0.563929 0.250782 0)
(-0.631496 0.393134 0)
(-0.670777 0.620749 0)
(-0.512594 0.998486 0)
(-0.245705 1.15861 0)
(-0.166363 -0.0427316 0)
(-0.169831 -0.0320812 0)
(-0.177466 -0.0226201 0)
(-0.183072 -0.0132188 0)
(-0.192803 -0.00354244 0)
(-0.202769 0.00545653 0)
(-0.216462 0.0154947 0)
(-0.232615 0.0264186 0)
(-0.252801 0.0393885 0)
(-0.277296 0.0557192 0)
(-0.306797 0.0772955 0)
(-0.341594 0.107069 0)
(-0.381159 0.149231 0)
(-0.423193 0.209794 0)
(-0.461569 0.296671 0)
(-0.48343 0.418709 0)
(-0.470069 0.583483 0)
(-0.337832 0.797531 0)
(-0.140455 0.884062 0)
(-0.15653 -0.0384345 0)
(-0.160418 -0.0271845 0)
(-0.167872 -0.0166969 0)
(-0.174094 -0.0060908 0)
(-0.18324 0.00492389 0)
(-0.193111 0.0159351 0)
(-0.205621 0.0281838 0)
(-0.220215 0.0418001 0)
(-0.237688 0.0578883 0)
(-0.258059 0.077642 0)
(-0.281375 0.102771 0)
(-0.307101 0.135647 0)
(-0.33375 0.179344 0)
(-0.358121 0.237678 0)
(-0.374074 0.314704 0)
(-0.371088 0.413109 0)
(-0.336722 0.53069 0)
(-0.231751 0.66023 0)
(-0.0897491 0.707604 0)
(-0.146179 -0.0338382 0)
(-0.150404 -0.0220768 0)
(-0.157499 -0.0106986 0)
(-0.16393 0.000885996 0)
(-0.172425 0.0130563 0)
(-0.181725 0.0256586 0)
(-0.19288 0.0396013 0)
(-0.205613 0.0551894 0)
(-0.220225 0.073364 0)
(-0.236521 0.0951493 0)
(-0.254126 0.121928 0)
(-0.272082 0.155427 0)
(-0.288562 0.197655 0)
(-0.300386 0.250684 0)
(-0.302442 0.316013 0)
(-0.287277 0.393171 0)
(-0.247353 0.477147 0)
(-0.165462 0.558422 0)
(-0.0613433 0.585119 0)
(-0.135402 -0.0291534 0)
(-0.139824 -0.0169767 0)
(-0.146461 -0.00485954 0)
(-0.152801 0.00752162 0)
(-0.160561 0.020632 0)
(-0.169045 0.0344271 0)
(-0.178772 0.0495896 0)
(-0.189562 0.0664892 0)
(-0.201415 0.0858804 0)
(-0.213993 0.108585 0)
(-0.226695 0.135623 0)
(-0.238423 0.168143 0)
(-0.247382 0.207295 0)
(-0.250836 0.253952 0)
(-0.244929 0.308147 0)
(-0.224783 0.368112 0)
(-0.186109 0.428807 0)
(-0.122049 0.481973 0)
(-0.0437349 0.496602 0)
(-0.124275 -0.024496 0)
(-0.128759 -0.0119889 0)
(-0.134893 0.000683719 0)
(-0.140943 0.0137172 0)
(-0.147918 0.0275237 0)
(-0.15546 0.0421542 0)
(-0.163774 0.0581166 0)
(-0.172691 0.0757706 0)
(-0.182045 0.0956915 0)
(-0.191419 0.118494 0)
(-0.200135 0.14487 0)
(-0.207122 0.175502 0)
(-0.210805 0.210925 0)
(-0.209015 0.251267 0)
(-0.199011 0.295841 0)
(-0.177761 0.342564 0)
(-0.14294 0.38724 0)
(-0.0924188 0.423508 0)
(-0.0321454 0.430763 0)
(-0.112871 -0.0200038 0)
(-0.117319 -0.00723089 0)
(-0.122909 0.00584881 0)
(-0.128527 0.0193756 0)
(-0.134727 0.0336697 0)
(-0.141301 0.0488334 0)
(-0.148282 0.0652445 0)
(-0.155495 0.0832131 0)
(-0.162688 0.103157 0)
(-0.169422 0.125503 0)
(-0.175037 0.150674 0)
(-0.178577 0.179009 0)
(-0.17875 0.210634 0)
(-0.173923 0.245265 0)
(-0.16223 0.281939 0)
(-0.141852 0.318701 0)
(-0.111599 0.352317 0)
(-0.0714148 0.378039 0)
(-0.0241941 0.380697 0)
(-0.101258 -0.0157489 0)
(-0.105571 -0.00275043 0)
(-0.110631 0.0106195 0)
(-0.11575 0.0244716 0)
(-0.121195 0.0390661 0)
(-0.126837 0.0545155 0)
(-0.132612 0.0710953 0)
(-0.138335 0.0890506 0)
(-0.143731 0.108668 0)
(-0.148375 0.130215 0)
(-0.151673 0.153913 0)
(-0.152822 0.17986 0)
(-0.150811 0.207935 0)
(-0.144453 0.237655 0)
(-0.132513 0.268017 0)
(-0.113934 0.297352 0)
(-0.0881882 0.32324 0)
(-0.0558111 0.342183 0)
(-0.0187351 0.34193 0)
(-0.0894729 -0.0117772 0)
(-0.0935931 0.00136949 0)
(-0.0981608 0.0149447 0)
(-0.102754 0.0289987 0)
(-0.107491 0.04374 0)
(-0.112272 0.0592806 0)
(-0.116985 0.0758188 0)
(-0.121447 0.0935346 0)
(-0.125387 0.11261 0)
(-0.128426 0.133189 0)
(-0.130056 0.155345 0)
(-0.129633 0.179022 0)
(-0.126392 0.203957 0)
(-0.119496 0.229598 0)
(-0.108147 0.255012 0)
(-0.0917552 0.27883 0)
(-0.0701545 0.299253 0)
(-0.0439919 0.313726 0)
(-0.0146818 0.311632 0)
(-0.0776021 -0.0080906 0)
(-0.0814663 0.00515291 0)
(-0.0855623 0.0188507 0)
(-0.0896646 0.0330005 0)
(-0.0937691 0.0477668 0)
(-0.0977943 0.0632528 0)
(-0.101614 0.0795982 0)
(-0.105056 0.0969258 0)
(-0.107876 0.115337 0)
(-0.109748 0.134884 0)
(-0.110256 0.155539 0)
(-0.1089 0.17715 0)
(-0.105116 0.199389 0)
(-0.0983267 0.221702 0)
(-0.0880272 0.243265 0)
(-0.0739056 0.262978 0)
(-0.055976 0.279493 0)
(-0.0348505 0.29092 0)
(-0.0115675 0.287673 0)
(-0.0656451 -0.00472193 0)
(-0.069241 0.00860977 0)
(-0.0729066 0.0223306 0)
(-0.0765262 0.0364714 0)
(-0.0800337 0.0511557 0)
(-0.083353 0.0664755 0)
(-0.0863649 0.0825292 0)
(-0.0889211 0.0993941 0)
(-0.0908191 0.117112 0)
(-0.0917997 0.135668 0)
(-0.0915431 0.154968 0)
(-0.0896776 0.174803 0)
(-0.0858027 0.194819 0)
(-0.0795317 0.214492 0)
(-0.0705564 0.233107 0)
(-0.0587297 0.24978 0)
(-0.0441496 0.263492 0)
(-0.027332 0.272836 0)
(-0.0090317 0.268887 0)
(-0.0536333 -0.0014816 0)
(-0.0570334 0.0118604 0)
(-0.0604239 0.0255513 0)
(-0.0637299 0.0396154 0)
(-0.0668646 0.0541426 0)
(-0.0697462 0.0692156 0)
(-0.0722598 0.0849064 0)
(-0.0742731 0.10126 0)
(-0.0756181 0.118277 0)
(-0.0760915 0.135901 0)
(-0.0754538 0.153996 0)
(-0.0734393 0.172326 0)
(-0.069775 0.190538 0)
(-0.0642125 0.208148 0)
(-0.0565725 0.224543 0)
(-0.0467957 0.239004 0)
(-0.0349897 0.250727 0)
(-0.0215527 0.258588 0)
(-0.00707615 0.254203 0)
(-0.0415395 0.0012688 0)
(-0.0444684 0.0146372 0)
(-0.0472529 0.0282511 0)
(-0.0498866 0.0421788 0)
(-0.0522945 0.056495 0)
(-0.0544213 0.0712803 0)
(-0.0561922 0.0865909 0)
(-0.057518 0.102448 0)
(-0.0582808 0.118825 0)
(-0.0583347 0.135634 0)
(-0.0575095 0.152715 0)
(-0.0556208 0.169818 0)
(-0.0524859 0.186596 0)
(-0.0479481 0.202599 0)
(-0.0419094 0.217289 0)
(-0.0343755 0.230057 0)
(-0.0254804 0.240278 0)
(-0.0156443 0.247141 0)
(-0.00511547 0.242589 0)
(-0.0303171 0.00435045 0)
(-0.0341411 0.017511 0)
(-0.037541 0.030819 0)
(-0.0403405 0.0444424 0)
(-0.042648 0.0584729 0)
(-0.0444806 0.0729632 0)
(-0.0458418 0.0879357 0)
(-0.0466989 0.103383 0)
(-0.0469987 0.119256 0)
(-0.0466696 0.135449 0)
(-0.0456231 0.151792 0)
(-0.0437599 0.168033 0)
(-0.0409821 0.183841 0)
(-0.0372096 0.198802 0)
(-0.0323993 0.212442 0)
(-0.0265666 0.224256 0)
(-0.0197476 0.233737 0)
(-0.0121287 0.23994 0)
(-0.00390511 0.235229 0)
(-0.013705 0.00787452 0)
(-0.01574 0.0212458 0)
(-0.0179919 0.0344604 0)
(-0.0203013 0.0477254 0)
(-0.022369 0.061234 0)
(-0.0240814 0.0751075 0)
(-0.0253609 0.089409 0)
(-0.0261754 0.104147 0)
(-0.0265038 0.119272 0)
(-0.0263309 0.134673 0)
(-0.0256429 0.150168 0)
(-0.0244277 0.165505 0)
(-0.0226759 0.180355 0)
(-0.0203835 0.194326 0)
(-0.0175578 0.206968 0)
(-0.0142357 0.217804 0)
(-0.0103846 0.226413 0)
(-0.00637343 0.232014 0)
(-0.00199984 0.22736 0)
)
;

boundaryField
{
    leftWall
    {
        type            fixedValue;
        value           nonuniform 0();
    }
    rightWall
    {
        type            fixedValue;
        value           uniform (0 0 0);
    }
    lowerWall
    {
        type            fixedValue;
        value           nonuniform 0();
    }
    atmosphere
    {
        type            fluxCorrectedVelocity;
        value           nonuniform List<vector> 
23
(
(-0.0115062 -0.0208669 0)
(-0.0115788 -0.0143123 0)
(-0.0119502 -0.00804492 0)
(-0.0124954 -0.00199248 0)
(-0.013705 0.00789139 0)
(-0.01574 0.0212669 0)
(-0.0179919 0.034484 0)
(-0.0203013 0.0477502 0)
(-0.022369 0.0612591 0)
(-0.0240814 0.0751327 0)
(-0.0253609 0.0894347 0)
(-0.0261754 0.104173 0)
(-0.0265038 0.119299 0)
(-0.0263309 0.1347 0)
(-0.0256429 0.150196 0)
(-0.0244277 0.165532 0)
(-0.0226759 0.180381 0)
(-0.0203835 0.194349 0)
(-0.0175578 0.206989 0)
(-0.0142357 0.217822 0)
(-0.0103846 0.226427 0)
(-0.00637343 0.232026 0)
(-0.00199984 0.22737 0)
)
;
    }
    defaultFaces
    {
        type            empty;
    }
    procBoundary3to1
    {
        type            processor;
        value           nonuniform List<vector> 
23
(
(-0.377987 0.0355884 0)
(-0.354078 0.0283085 0)
(-0.342448 0.0302467 0)
(-0.317222 0.0282333 0)
(-0.282118 0.0250116 0)
(-0.240251 0.023501 0)
(-0.21165 0.0354223 0)
(-0.181013 0.0261128 0)
(-0.15985 0.013854 0)
(-0.139128 -0.00163966 0)
(-0.117985 -0.0241757 0)
(-0.109777 -0.0424327 0)
(-0.0858435 -0.0681125 0)
(-0.081647 -0.0912717 0)
(-0.0365514 -0.103425 0)
(-0.0724163 -0.15119 0)
(0.0525462 -0.118513 0)
(-0.0503026 -0.191292 0)
(0.212819 -0.0131962 0)
(-0.0567337 0.384262 0)
(0.274472 1.88926 0)
(0.0595391 2.30025 0)
(0.364441 2.53707 0)
)
;
    }
    procBoundary3to2
    {
        type            processor;
        value           nonuniform List<vector> 
25
(
(-0.295029 -0.118917 0)
(-0.30578 -0.0282496 0)
(-0.269894 -0.0885334 0)
(-0.266083 -0.0583376 0)
(-0.247167 -0.0754696 0)
(-0.228825 -0.0768059 0)
(-0.213737 -0.0802921 0)
(-0.19955 -0.0820894 0)
(-0.188683 -0.0808837 0)
(-0.17668 -0.0789697 0)
(-0.165711 -0.0758997 0)
(-0.154694 -0.0724492 0)
(-0.143855 -0.0686197 0)
(-0.133057 -0.0646008 0)
(-0.122279 -0.0604945 0)
(-0.111471 -0.0564082 0)
(-0.100621 -0.0524308 0)
(-0.0897083 -0.0486261 0)
(-0.0787238 -0.0450464 0)
(-0.0676469 -0.0417188 0)
(-0.0564587 -0.0387171 0)
(-0.045129 -0.0356941 0)
(-0.0336077 -0.0339329 0)
(-0.0215072 -0.0297645 0)
(-0.0116535 -0.0310738 0)
)
;
    }
}


// ************************************************************************* //
