/*--------------------------------*- C++ -*----------------------------------*\
| =========                 |                                                 |
| \\      /  F ield         | OpenFOAM: The Open Source CFD Toolbox           |
|  \\    /   O peration     | Version:  2.4.0                                 |
|   \\  /    A nd           | Web:      www.OpenFOAM.org                      |
|    \\/     M anipulation  |                                                 |
\*---------------------------------------------------------------------------*/
FoamFile
{
    version     2.0;
    format      ascii;
    class       volScalarField;
    location    "0.55";
    object      alpha.water;
}
// * * * * * * * * * * * * * * * * * * * * * * * * * * * * * * * * * * * * * //

dimensions      [0 0 0 0 0 0 0];

internalField   nonuniform List<scalar> 
559
(
1.49387e-18
3.23834e-18
6.19866e-18
1.06059e-17
1.56487e-17
2.06303e-17
2.6678e-17
1.70172e-14
2.20457e-14
1.13134e-14
7.04503e-15
4.52712e-15
6.18326e-15
1.24629e-14
1.94031e-14
2.17709e-14
1.89579e-14
1.45175e-14
8.66433e-15
3.33246e-15
7.30703e-16
5.58638e-17
4.52332e-20
1.31599e-19
3.36114e-19
7.80825e-19
1.60631e-18
2.83251e-18
4.33818e-18
6.19351e-18
1.18512e-21
3.91195e-20
7.34571e-19
7.57456e-18
4.59625e-17
1.74037e-16
4.15527e-16
6.27891e-16
5.81306e-16
3.19969e-16
1.16115e-16
3.53252e-17
6.01948e-18
4.81589e-19
1.39511e-21
4.96804e-21
1.56792e-20
4.49061e-20
1.14037e-19
2.51779e-19
4.79388e-19
8.0161e-19
1.24493e-18
1.98954e-37
2.41557e-35
1.1373e-33
2.9673e-32
5.32739e-31
7.14335e-30
7.65717e-29
6.82437e-28
5.20802e-27
3.54446e-26
2.21997e-25
1.30543e-24
7.14102e-24
3.51379e-23
1.53257e-22
5.92547e-22
2.09397e-21
6.55928e-21
1.75567e-20
4.04604e-20
8.04288e-20
1.42705e-19
2.37494e-19
1.14523e-38
8.32129e-37
3.23878e-35
8.51208e-34
1.61653e-32
2.3672e-31
2.81606e-30
2.80579e-29
2.46038e-28
2.01584e-27
1.48919e-26
9.85704e-26
5.80552e-25
3.08176e-24
1.43431e-23
5.93825e-23
2.16537e-22
6.87599e-22
1.9212e-21
4.75072e-21
1.04693e-20
2.11029e-20
3.96937e-20
1.36813e-40
1.46722e-38
7.36879e-37
2.20836e-35
4.55249e-34
7.12448e-33
9.08704e-32
9.94298e-31
9.75273e-30
8.8014e-29
7.37712e-28
5.47205e-27
3.55024e-26
2.06506e-25
1.07283e-24
4.94009e-24
1.9511e-23
6.6467e-23
2.02498e-22
5.50852e-22
1.34633e-21
3.02851e-21
6.2405e-21
6.31263e-42
5.43371e-40
2.33911e-38
6.54403e-37
1.37312e-35
2.33933e-34
3.38691e-33
4.28867e-32
4.85653e-31
4.93391e-30
4.41224e-29
3.41185e-28
2.32623e-27
1.37915e-26
7.19493e-26
3.30639e-25
1.36776e-24
5.20511e-24
1.77203e-23
5.40728e-23
1.50242e-22
3.78934e-22
8.44931e-22
3.07809e-44
3.44221e-42
1.91103e-40
6.78083e-39
1.78013e-37
3.72465e-36
6.51818e-35
9.79341e-34
1.26549e-32
1.3789e-31
1.30017e-30
1.11889e-29
8.71645e-29
6.01166e-28
3.646e-27
1.96694e-26
9.49937e-26
4.00945e-25
1.48938e-24
5.03941e-24
1.55234e-23
4.2498e-23
1.02066e-22
6.50192e-46
7.42444e-44
4.21009e-42
1.57158e-40
4.35767e-39
9.58856e-38
1.73954e-36
2.69711e-35
3.65424e-34
4.42772e-33
4.81491e-32
4.60948e-31
3.84424e-30
2.85855e-29
1.86472e-28
1.06006e-27
5.37772e-27
2.48358e-26
1.0597e-25
4.07761e-25
1.38938e-24
4.15996e-24
1.09996e-23
3.88909e-48
4.87849e-46
3.05874e-44
1.27483e-42
4.05638e-41
1.06057e-39
2.35098e-38
4.45382e-37
7.24497e-36
1.01922e-34
1.23925e-33
1.29486e-32
1.17719e-31
9.41148e-31
6.82007e-30
4.58611e-29
2.79166e-28
1.51312e-27
7.15063e-27
2.9597e-26
1.09253e-25
3.60721e-25
1.05844e-24
3.32249e-50
4.92301e-48
3.6448e-46
1.78058e-44
6.42307e-43
1.81479e-41
4.21409e-40
8.26786e-39
1.39124e-37
2.03484e-36
2.65634e-35
3.17215e-34
3.46065e-33
3.37159e-32
2.8816e-31
2.10508e-30
1.34038e-29
7.60922e-29
3.92086e-28
1.83942e-27
7.67462e-27
2.81455e-26
9.44389e-26
1.27791e-52
2.1191e-50
1.77092e-48
9.9421e-47
4.25178e-45
1.47353e-43
4.25972e-42
1.04524e-40
2.20699e-39
4.02632e-38
6.28431e-37
8.33806e-36
9.4813e-35
9.45509e-34
8.41484e-33
6.8559e-32
5.11323e-31
3.42621e-30
2.02888e-29
1.04756e-28
4.77687e-28
1.99629e-27
8.35378e-27
7.93355e-55
1.54367e-52
1.48752e-50
9.4869e-49
4.48613e-47
1.67641e-45
5.13846e-44
1.32198e-42
2.90033e-41
5.50384e-40
9.20162e-39
1.38332e-37
1.8781e-36
2.28376e-35
2.47137e-34
2.34367e-33
1.92615e-32
1.38874e-31
8.89763e-31
5.14203e-30
2.71076e-29
1.38406e-28
8.46257e-28
1.87906e-57
4.24553e-55
4.87632e-53
3.7693e-51
2.19311e-49
1.01663e-47
3.86985e-46
1.23332e-44
3.33869e-43
7.75641e-42
1.55267e-40
2.67837e-39
4.00955e-38
5.2524e-37
6.06391e-36
6.23128e-35
5.75134e-34
4.75471e-33
3.50893e-32
2.32478e-31
1.46945e-30
1.06835e-29
1.13512e-28
5.80995e-60
1.57946e-57
2.1153e-55
1.88098e-53
1.24096e-51
6.46155e-50
2.75311e-48
9.8216e-47
2.97835e-45
7.76081e-44
1.75313e-42
3.45992e-41
6.01833e-40
9.25426e-39
1.25662e-37
1.50389e-36
1.58282e-35
1.47096e-34
1.22931e-33
9.76864e-33
8.66041e-32
1.09167e-30
1.91457e-29
7.77924e-63
2.70049e-60
4.46066e-58
4.87318e-56
3.94727e-54
2.52374e-52
1.31947e-50
5.74532e-49
2.11029e-47
6.60613e-46
1.77723e-44
4.13133e-43
8.31629e-42
1.45764e-40
2.23934e-39
3.03099e-38
3.63772e-37
3.92224e-36
3.96929e-35
4.35427e-34
6.63271e-33
1.42898e-31
3.43115e-30
7.9481e-66
3.75591e-63
7.73085e-61
1.02473e-58
9.90433e-57
7.47548e-55
4.60275e-53
2.37859e-51
1.04993e-49
3.98175e-48
1.29524e-46
3.61629e-45
8.69935e-44
1.8108e-42
3.27697e-41
5.18995e-40
7.29033e-39
9.46867e-38
1.29951e-36
2.41665e-35
6.45221e-34
1.96226e-32
5.75228e-31
3.70235e-69
3.37866e-66
9.18052e-64
1.48248e-61
1.69893e-59
1.50204e-57
1.08226e-55
6.6261e-54
3.50851e-52
1.61597e-50
6.47945e-49
2.25108e-47
6.73166e-46
1.72584e-44
3.79187e-43
7.22819e-42
1.24391e-40
2.18273e-39
5.00217e-38
1.6635e-36
6.47238e-35
2.4489e-33
8.45145e-32
1.05575e-72
3.67451e-69
1.35542e-66
2.63485e-64
3.54312e-62
3.64387e-60
3.01836e-58
2.08575e-56
1.23236e-54
6.32652e-53
2.85141e-51
1.13148e-49
3.94725e-48
1.20846e-46
3.24834e-45
7.82121e-44
1.84339e-42
5.34497e-41
2.24022e-39
1.13173e-37
5.61822e-36
2.54219e-34
1.02812e-32
3.45641e-75
1.84117e-71
7.18989e-69
1.43096e-66
1.93975e-64
1.99561e-62
1.64827e-60
1.13268e-58
6.65585e-57
3.41794e-55
1.55903e-53
6.37701e-52
2.34724e-50
7.79443e-49
2.38205e-47
7.1627e-46
2.57814e-44
1.36734e-42
9.31567e-41
6.35137e-39
3.90078e-37
2.11363e-35
1.01066e-33
4.30715e-76
7.34692e-73
2.29162e-70
3.82082e-68
4.36299e-66
3.79302e-64
2.65931e-62
1.56102e-60
7.89565e-59
3.52306e-57
1.4175e-55
5.24637e-54
1.8162e-52
5.9995e-51
1.99884e-49
7.84849e-48
4.46717e-46
3.50966e-44
3.04266e-42
2.54303e-40
1.93077e-38
1.28771e-36
7.46935e-35
8.38678e-77
7.6514e-74
1.83846e-71
2.49005e-69
2.34238e-67
1.68822e-65
9.89294e-64
4.88938e-62
2.09008e-60
7.89656e-59
2.69019e-57
8.47064e-56
2.5685e-54
8.17512e-53
3.21794e-51
1.82479e-49
1.40876e-47
1.25112e-45
1.1428e-43
1.02092e-41
8.72469e-40
6.96931e-38
5.01221e-36
6.84462e-78
4.28234e-75
8.66991e-73
1.03049e-70
8.60067e-69
5.51756e-67
2.88091e-65
1.27427e-63
4.92879e-62
1.71328e-60
5.50748e-59
1.72013e-57
5.77522e-56
2.42133e-54
1.35745e-52
9.30322e-51
7.01101e-49
5.56516e-47
4.62256e-45
4.00036e-43
3.53927e-41
3.11608e-39
2.65264e-37
7.02801e-80
3.77193e-77
7.54782e-75
9.18218e-73
7.9587e-71
5.33577e-69
2.91818e-67
1.3604e-65
5.6728e-64
2.28021e-62
9.98503e-61
5.3525e-59
3.49843e-57
2.53674e-55
1.89751e-53
1.4232e-51
1.06682e-49
8.04009e-48
6.14945e-46
4.82815e-44
3.94422e-42
3.38422e-40
3.01865e-38
1.86724e-82
9.37975e-80
1.90205e-77
2.36524e-75
2.10052e-73
1.44625e-71
8.15282e-70
3.93854e-68
1.72145e-66
7.43192e-65
3.61158e-63
2.16966e-61
1.54514e-59
1.17992e-57
9.11009e-56
6.99764e-54
5.35344e-52
4.10968e-50
3.19664e-48
2.54541e-46
2.0944e-44
1.79743e-42
1.62451e-40
)
;

boundaryField
{
    leftWall
    {
        type            zeroGradient;
    }
    rightWall
    {
        type            zeroGradient;
    }
    lowerWall
    {
        type            zeroGradient;
    }
    atmosphere
    {
        type            inletOutlet;
        inletValue      uniform 0;
        value           uniform 0;
    }
    defaultFaces
    {
        type            empty;
    }
    procBoundary2to0
    {
        type            processor;
        value           nonuniform List<scalar> 
24
(
2.82726e-17
5.32993e-17
8.71232e-17
1.18704e-16
1.27843e-16
1.19866e-16
1.16923e-16
2.70754e-13
3.14604e-13
1.59815e-13
1.02494e-13
7.5633e-14
7.94493e-14
1.16123e-13
1.59197e-13
1.7364e-13
1.55836e-13
1.20486e-13
7.04349e-14
2.73755e-14
6.25472e-15
5.50472e-16
3.4032e-18
3.4032e-18
)
;
    }
    procBoundary2to3
    {
        type            processor;
        value           nonuniform List<scalar> 
25
(
3.39614e-17
8.27285e-18
1.81301e-18
3.72308e-19
6.80401e-20
1.14022e-20
1.65933e-21
2.17915e-22
2.61026e-23
2.90667e-24
3.33919e-25
4.46308e-26
7.76182e-27
1.64053e-27
3.66736e-28
7.89365e-29
1.53954e-29
2.617e-30
3.69838e-31
4.26657e-32
3.7763e-33
3.1345e-34
2.11097e-35
2.70744e-36
1.5457e-38
)
;
    }
}


// ************************************************************************* //
