/*--------------------------------*- C++ -*----------------------------------*\
| =========                 |                                                 |
| \\      /  F ield         | OpenFOAM: The Open Source CFD Toolbox           |
|  \\    /   O peration     | Version:  2.4.0                                 |
|   \\  /    A nd           | Web:      www.OpenFOAM.org                      |
|    \\/     M anipulation  |                                                 |
\*---------------------------------------------------------------------------*/
FoamFile
{
    version     2.0;
    format      ascii;
    class       surfaceScalarField;
    location    "0.55";
    object      phi.water;
}
// * * * * * * * * * * * * * * * * * * * * * * * * * * * * * * * * * * * * * //

dimensions      [0 3 -1 0 0 0 0];

internalField   nonuniform List<scalar> 
1070
(
-4.50647e-06
-2.84343e-05
-7.34959e-06
-2.9031e-05
-9.71292e-06
-2.87621e-05
-1.18531e-05
-2.73673e-05
-1.41873e-05
-2.68603e-05
-1.59545e-05
-2.79057e-05
-2.81943e-05
3.6922e-07
-1.19391e-05
6.7841e-07
-1.55263e-05
8.48268e-07
-1.56634e-05
9.21709e-07
-1.58778e-05
9.10923e-07
-1.60446e-05
8.47914e-07
-1.62645e-05
8.42272e-07
-1.6586e-05
9.14807e-07
-1.69678e-05
1.07957e-06
-1.75105e-05
1.42305e-06
-1.83431e-05
1.75582e-06
-1.93544e-05
1.7543e-06
-2.05563e-05
1.26275e-06
-2.18138e-05
2.66894e-07
-2.31697e-05
-1.52078e-06
-2.43437e-05
-3.91137e-06
-2.50156e-05
-6.29863e-06
-2.60471e-05
-8.52417e-06
-2.68055e-05
-1.07664e-05
-2.65199e-05
-1.25741e-05
-2.55599e-05
-1.40398e-05
-2.53949e-05
-1.53639e-05
-2.6582e-05
-2.6905e-05
3.08708e-07
-1.22477e-05
4.04978e-07
-1.56224e-05
4.3175e-07
-1.56899e-05
4.54838e-07
-1.59007e-05
4.80798e-07
-1.60704e-05
4.99694e-07
-1.62832e-05
5.1952e-07
-1.66057e-05
5.288e-07
-1.6977e-05
5.0822e-07
-1.74898e-05
4.12692e-07
-1.82475e-05
2.14639e-07
-1.91564e-05
-2.39367e-07
-2.01024e-05
-1.06642e-06
-2.09867e-05
-2.12691e-06
-2.21092e-05
-3.47414e-06
-2.29967e-05
-4.75105e-06
-2.37386e-05
-6.36135e-06
-2.44369e-05
-8.40858e-06
-2.47584e-05
-1.02963e-05
-2.46324e-05
-1.17335e-05
-2.4123e-05
-1.29243e-05
-2.42043e-05
-1.42285e-05
-2.5278e-05
-2.56308e-05
1.73623e-07
-1.24211e-05
2.25972e-07
-1.56745e-05
2.95493e-07
-1.57593e-05
3.54974e-07
-1.596e-05
4.19251e-07
-1.61345e-05
4.92401e-07
-1.63562e-05
5.13572e-07
-1.66268e-05
4.78726e-07
-1.69421e-05
3.4892e-07
-1.73599e-05
5.05185e-08
-1.79491e-05
-3.69525e-07
-1.87363e-05
-9.86815e-07
-1.94851e-05
-1.8135e-06
-2.016e-05
-2.87216e-06
-2.10507e-05
-4.04476e-06
-2.18239e-05
-5.24079e-06
-2.25428e-05
-6.81775e-06
-2.286e-05
-8.66683e-06
-2.29095e-05
-1.03451e-05
-2.29543e-05
-1.18312e-05
-2.26371e-05
-1.31876e-05
-2.28482e-05
-1.47233e-05
-2.37426e-05
-2.39993e-05
9.83013e-08
-1.25192e-05
1.76717e-07
-1.57527e-05
2.63301e-07
-1.58457e-05
2.81777e-07
-1.59784e-05
2.85769e-07
-1.61383e-05
2.74673e-07
-1.6345e-05
2.51467e-07
-1.66035e-05
2.26969e-07
-1.69175e-05
1.644e-07
-1.72973e-05
-1.01365e-07
-1.76833e-05
-5.82651e-07
-1.82551e-05
-1.17331e-06
-1.88945e-05
-1.80828e-06
-1.95251e-05
-2.79592e-06
-2.0063e-05
-3.9631e-06
-2.06569e-05
-5.37409e-06
-2.11317e-05
-6.78429e-06
-2.14499e-05
-8.03853e-06
-2.16554e-05
-9.36538e-06
-2.16276e-05
-1.05783e-05
-2.14244e-05
-1.18167e-05
-2.161e-05
-1.34669e-05
-2.20926e-05
-2.19126e-05
8.7577e-08
-1.26066e-05
5.47651e-08
-1.57198e-05
-1.09537e-08
-1.57798e-05
-8.86666e-08
-1.59005e-05
-1.7608e-07
-1.60508e-05
-2.76695e-07
-1.62443e-05
-3.93809e-07
-1.64863e-05
-5.30081e-07
-1.67812e-05
-7.01059e-07
-1.71263e-05
-9.43981e-07
-1.74404e-05
-1.40297e-06
-1.77961e-05
-2.00177e-06
-1.82957e-05
-2.66894e-06
-1.8858e-05
-3.43178e-06
-1.93002e-05
-4.40475e-06
-1.96838e-05
-5.71525e-06
-1.98214e-05
-7.12846e-06
-2.00367e-05
-8.47502e-06
-2.03089e-05
-9.85058e-06
-2.02522e-05
-1.11525e-05
-2.01227e-05
-1.24524e-05
-2.03103e-05
-1.40545e-05
-2.04908e-05
-2.01125e-05
-1.10669e-09
-1.26054e-05
-6.99416e-08
-1.56508e-05
-1.39188e-07
-1.57105e-05
-2.23556e-07
-1.5816e-05
-3.31003e-07
-1.59433e-05
-4.74129e-07
-1.61011e-05
-6.64664e-07
-1.62957e-05
-8.96412e-07
-1.65494e-05
-1.18612e-06
-1.68366e-05
-1.54623e-06
-1.70803e-05
-2.01798e-06
-1.73244e-05
-2.61945e-06
-1.76943e-05
-3.43552e-06
-1.80419e-05
-4.29028e-06
-1.84453e-05
-5.23689e-06
-1.87374e-05
-6.08318e-06
-1.89749e-05
-6.93816e-06
-1.91819e-05
-8.15289e-06
-1.90943e-05
-9.37661e-06
-1.90286e-05
-1.05423e-05
-1.89572e-05
-1.19217e-05
-1.8931e-05
-1.36186e-05
-1.8794e-05
-1.85838e-05
3.68816e-08
-1.26422e-05
-1.56371e-08
-1.55982e-05
-9.44605e-08
-1.56316e-05
-2.00509e-07
-1.57099e-05
-3.37629e-07
-1.58061e-05
-4.99576e-07
-1.59391e-05
-6.93136e-07
-1.61021e-05
-9.5112e-07
-1.62914e-05
-1.31763e-06
-1.64701e-05
-1.70927e-06
-1.66886e-05
-2.06739e-06
-1.69663e-05
-2.55332e-06
-1.72084e-05
-3.20293e-06
-1.73923e-05
-4.07795e-06
-1.75705e-05
-5.02211e-06
-1.77929e-05
-6.03322e-06
-1.79639e-05
-7.29461e-06
-1.79204e-05
-8.50697e-06
-1.78819e-05
-9.57303e-06
-1.79627e-05
-1.06872e-05
-1.78431e-05
-1.20266e-05
-1.75918e-05
-1.34515e-05
-1.73694e-05
-1.71848e-05
-7.02498e-08
-1.25718e-05
-1.97508e-07
-1.54709e-05
-3.161e-07
-1.55129e-05
-4.54447e-07
-1.55715e-05
-6.18293e-07
-1.56422e-05
-8.2467e-07
-1.57327e-05
-1.06684e-06
-1.58599e-05
-1.3579e-06
-1.60003e-05
-1.68496e-06
-1.6143e-05
-2.09442e-06
-1.62792e-05
-2.63284e-06
-1.64279e-05
-3.24763e-06
-1.65936e-05
-3.83919e-06
-1.68008e-05
-4.57485e-06
-1.68347e-05
-5.46367e-06
-1.69043e-05
-6.38685e-06
-1.70406e-05
-7.23141e-06
-1.70759e-05
-8.04732e-06
-1.70661e-05
-9.14217e-06
-1.68679e-05
-1.0381e-05
-1.66044e-05
-1.16508e-05
-1.63222e-05
-1.29394e-05
-1.60809e-05
-1.57319e-05
-5.44705e-08
-1.25173e-05
-1.71968e-07
-1.53533e-05
-2.94932e-07
-1.53899e-05
-4.31297e-07
-1.54351e-05
-5.85175e-07
-1.54883e-05
-7.71897e-07
-1.55459e-05
-1.00752e-06
-1.56242e-05
-1.29472e-06
-1.57131e-05
-1.62877e-06
-1.58089e-05
-2.03098e-06
-1.5877e-05
-2.55122e-06
-1.59077e-05
-3.16724e-06
-1.59776e-05
-3.88114e-06
-1.60869e-05
-4.52908e-06
-1.61868e-05
-5.14214e-06
-1.62909e-05
-5.94116e-06
-1.62417e-05
-6.91266e-06
-1.61043e-05
-8.11648e-06
-1.58623e-05
-9.27959e-06
-1.57049e-05
-1.03158e-05
-1.55684e-05
-1.13261e-05
-1.5312e-05
-1.25381e-05
-1.48692e-05
-1.44251e-05
-8.51547e-08
-1.24321e-05
-2.27911e-07
-1.52105e-05
-3.81851e-07
-1.52359e-05
-5.65608e-07
-1.52513e-05
-7.79581e-07
-1.52742e-05
-1.01455e-06
-1.53109e-05
-1.29079e-06
-1.53479e-05
-1.61897e-06
-1.53849e-05
-1.99612e-06
-1.54317e-05
-2.37463e-06
-1.54985e-05
-2.73657e-06
-1.55457e-05
-3.16253e-06
-1.55517e-05
-3.74034e-06
-1.55091e-05
-4.47957e-06
-1.54474e-05
-5.42873e-06
-1.5342e-05
-6.33657e-06
-1.53335e-05
-7.18497e-06
-1.5256e-05
-7.93504e-06
-1.51123e-05
-8.72337e-06
-1.49167e-05
-9.75457e-06
-1.45373e-05
-1.09757e-05
-1.40912e-05
-1.21343e-05
-1.37106e-05
-1.3269e-05
-8.377e-08
-1.23483e-05
-2.10495e-07
-1.50837e-05
-3.36919e-07
-1.51094e-05
-4.7832e-07
-1.51098e-05
-6.46468e-07
-1.51061e-05
-8.52426e-07
-1.51049e-05
-1.09953e-06
-1.51008e-05
-1.39289e-06
-1.50915e-05
-1.75378e-06
-1.50708e-05
-2.22139e-06
-1.50308e-05
-2.78795e-06
-1.49792e-05
-3.40706e-06
-1.49326e-05
-4.00798e-06
-1.49081e-05
-4.59555e-06
-1.486e-05
-5.12557e-06
-1.48116e-05
-5.75227e-06
-1.4707e-05
-6.53957e-06
-1.44686e-05
-7.49485e-06
-1.4157e-05
-8.60184e-06
-1.38098e-05
-9.63578e-06
-1.35035e-05
-1.05456e-05
-1.31814e-05
-1.15698e-05
-1.26867e-05
-1.21232e-05
-1.07265e-07
-1.2241e-05
-2.60451e-07
-1.49305e-05
-4.20462e-07
-1.49494e-05
-6.03616e-07
-1.49266e-05
-8.09346e-07
-1.49003e-05
-1.04533e-06
-1.48689e-05
-1.31622e-06
-1.48299e-05
-1.62364e-06
-1.47841e-05
-1.96229e-06
-1.47322e-05
-2.31407e-06
-1.46791e-05
-2.66954e-06
-1.46237e-05
-3.07759e-06
-1.45245e-05
-3.5891e-06
-1.43966e-05
-4.19791e-06
-1.4251e-05
-4.95115e-06
-1.40586e-05
-5.81984e-06
-1.38381e-05
-6.65902e-06
-1.36294e-05
-7.45634e-06
-1.33598e-05
-8.20295e-06
-1.30632e-05
-9.04961e-06
-1.26569e-05
-1.00611e-05
-1.21702e-05
-1.10741e-05
-1.16736e-05
-1.11059e-05
-7.91494e-08
-1.21618e-05
-1.89393e-07
-1.48202e-05
-3.06572e-07
-1.48322e-05
-4.4747e-07
-1.47857e-05
-6.20317e-07
-1.47274e-05
-8.34153e-07
-1.4655e-05
-1.0937e-06
-1.45703e-05
-1.40133e-06
-1.44764e-05
-1.7603e-06
-1.43732e-05
-2.1806e-06
-1.42588e-05
-2.67062e-06
-1.41337e-05
-3.19944e-06
-1.39957e-05
-3.75239e-06
-1.38436e-05
-4.32971e-06
-1.36737e-05
-4.90848e-06
-1.34795e-05
-5.49465e-06
-1.3252e-05
-6.16228e-06
-1.29617e-05
-6.92075e-06
-1.26013e-05
-7.79605e-06
-1.2188e-05
-8.69149e-06
-1.17616e-05
-9.55997e-06
-1.13018e-05
-1.04781e-05
-1.07558e-05
-1.01346e-05
-8.58602e-08
-1.20759e-05
-2.10635e-07
-1.46954e-05
-3.41589e-07
-1.47012e-05
-4.95037e-07
-1.46322e-05
-6.72064e-07
-1.45504e-05
-8.77368e-07
-1.44497e-05
-1.11532e-06
-1.43323e-05
-1.39015e-06
-1.42016e-05
-1.70379e-06
-1.40596e-05
-2.05657e-06
-1.3906e-05
-2.45153e-06
-1.37388e-05
-2.88389e-06
-1.35634e-05
-3.36513e-06
-1.33624e-05
-3.90911e-06
-1.31295e-05
-4.52165e-06
-1.28672e-05
-5.20331e-06
-1.257e-05
-5.92503e-06
-1.22401e-05
-6.65059e-06
-1.18757e-05
-7.3764e-06
-1.14623e-05
-8.15243e-06
-1.09857e-05
-8.99898e-06
-1.04554e-05
-9.87542e-06
-9.87935e-06
-9.23497e-06
-4.55122e-08
-1.20304e-05
-1.38488e-07
-1.46024e-05
-2.39821e-07
-1.45998e-05
-3.64054e-07
-1.4508e-05
-5.13638e-07
-1.44008e-05
-6.94398e-07
-1.42689e-05
-9.15761e-07
-1.4111e-05
-1.18222e-06
-1.39351e-05
-1.49565e-06
-1.37461e-05
-1.85543e-06
-1.35462e-05
-2.261e-06
-1.33332e-05
-2.7183e-06
-1.31061e-05
-3.21427e-06
-1.28664e-05
-3.73873e-06
-1.26052e-05
-4.29171e-06
-1.23138e-05
-4.87368e-06
-1.19883e-05
-5.49259e-06
-1.16211e-05
-6.16273e-06
-1.12056e-05
-6.88321e-06
-1.0742e-05
-7.63519e-06
-1.02339e-05
-8.41257e-06
-9.67815e-06
-9.22619e-06
-9.06607e-06
-8.38963e-06
-2.89175e-08
-1.20014e-05
-1.19714e-07
-1.45116e-05
-2.17906e-07
-1.45016e-05
-3.3428e-07
-1.43916e-05
-4.68218e-07
-1.42668e-05
-6.19368e-07
-1.41178e-05
-7.91116e-07
-1.39392e-05
-9.9272e-07
-1.37335e-05
-1.24108e-06
-1.34977e-05
-1.55258e-06
-1.32347e-05
-1.92621e-06
-1.29596e-05
-2.35394e-06
-1.26783e-05
-2.8308e-06
-1.23895e-05
-3.34794e-06
-1.20879e-05
-3.89907e-06
-1.17629e-05
-4.47999e-06
-1.14071e-05
-5.08909e-06
-1.10119e-05
-5.71919e-06
-1.05756e-05
-6.3733e-06
-1.00879e-05
-7.06069e-06
-9.54662e-06
-7.78654e-06
-8.95249e-06
-8.54672e-06
-8.30582e-06
-7.59997e-06
1.03652e-08
-1.20118e-05
-9.39985e-08
-1.44072e-05
-2.03327e-07
-1.43923e-05
-3.21487e-07
-1.42734e-05
-4.51886e-07
-1.41364e-05
-5.92454e-07
-1.39772e-05
-7.40004e-07
-1.37916e-05
-9.05847e-07
-1.35676e-05
-1.09917e-06
-1.33044e-05
-1.32833e-06
-1.30055e-05
-1.6096e-06
-1.26783e-05
-1.95682e-06
-1.23311e-05
-2.37671e-06
-1.19696e-05
-2.87126e-06
-1.15934e-05
-3.41964e-06
-1.12141e-05
-3.99965e-06
-1.08272e-05
-4.59069e-06
-1.04208e-05
-5.1933e-06
-9.97307e-06
-5.81391e-06
-9.46743e-06
-6.45711e-06
-8.90357e-06
-7.12728e-06
-8.2824e-06
-7.8313e-06
-7.60222e-06
-6.86323e-06
2.40511e-08
-1.20358e-05
-1.34757e-07
-1.42484e-05
-2.98713e-07
-1.42283e-05
-4.54502e-07
-1.41176e-05
-6.11661e-07
-1.39792e-05
-7.7418e-07
-1.38146e-05
-9.40097e-07
-1.36257e-05
-1.10848e-06
-1.33992e-05
-1.28253e-06
-1.31304e-05
-1.46704e-06
-1.2821e-05
-1.67429e-06
-1.24711e-05
-1.91576e-06
-1.20897e-05
-2.1979e-06
-1.16875e-05
-2.53397e-06
-1.12571e-05
-2.93528e-06
-1.08132e-05
-3.41641e-06
-1.03457e-05
-3.97756e-06
-9.85984e-06
-4.58701e-06
-9.36368e-06
-5.199e-06
-8.85563e-06
-5.80777e-06
-8.29495e-06
-6.42937e-06
-7.66108e-06
-7.08022e-06
-6.95123e-06
-6.17937e-06
-1.08207e-08
-1.2025e-05
-2.85037e-07
-1.39742e-05
-5.61599e-07
-1.39517e-05
-8.10106e-07
-1.38691e-05
-1.04049e-06
-1.37488e-05
-1.2575e-06
-1.35976e-05
-1.46159e-06
-1.34216e-05
-1.64826e-06
-1.32125e-05
-1.81511e-06
-1.29635e-05
-1.96498e-06
-1.26711e-05
-2.10921e-06
-1.23269e-05
-2.26445e-06
-1.19344e-05
-2.4455e-06
-1.15064e-05
-2.64743e-06
-1.10554e-05
-2.88834e-06
-1.05718e-05
-3.17342e-06
-1.0061e-05
-3.51639e-06
-9.51685e-06
-3.94454e-06
-8.93567e-06
-4.47181e-06
-8.32856e-06
-5.06477e-06
-7.70222e-06
-5.67351e-06
-7.05243e-06
-6.28453e-06
-6.34072e-06
-5.54462e-06
-1.00367e-07
-1.19246e-05
-5.45784e-07
-1.35288e-05
-9.86927e-07
-1.35106e-05
-1.38783e-06
-1.34682e-05
-1.75065e-06
-1.3386e-05
-2.07983e-06
-1.32684e-05
-2.37526e-06
-1.31262e-05
-2.63042e-06
-1.29574e-05
-2.83862e-06
-1.27553e-05
-2.98958e-06
-1.25202e-05
-3.08071e-06
-1.22357e-05
-3.12743e-06
-1.18877e-05
-3.15857e-06
-1.14753e-05
-3.19995e-06
-1.10138e-05
-3.27543e-06
-1.04967e-05
-3.3962e-06
-9.93995e-06
-3.55245e-06
-9.36075e-06
-3.73784e-06
-8.75054e-06
-3.98409e-06
-8.08255e-06
-4.33634e-06
-7.35026e-06
-4.82913e-06
-6.56005e-06
-5.40696e-06
-5.76256e-06
-4.93545e-06
-2.27682e-07
-1.1697e-05
-8.39149e-07
-1.29173e-05
-1.43809e-06
-1.29116e-05
-1.99815e-06
-1.29082e-05
-2.51266e-06
-1.28715e-05
-2.97226e-06
-1.28088e-05
-3.38376e-06
-1.27147e-05
-3.75047e-06
-1.25907e-05
-4.06338e-06
-1.24424e-05
-4.31597e-06
-1.22676e-05
-4.49362e-06
-1.20581e-05
-4.58172e-06
-1.17996e-05
-4.57505e-06
-1.14819e-05
-4.48731e-06
-1.11016e-05
-4.33306e-06
-1.06504e-05
-4.1554e-06
-1.01179e-05
-4.02161e-06
-9.49477e-06
-3.97536e-06
-8.79716e-06
-4.00315e-06
-8.05525e-06
-4.08022e-06
-7.27371e-06
-4.23835e-06
-6.40203e-06
-4.55944e-06
-5.44168e-06
-4.42622e-06
-3.37598e-07
-1.13594e-05
-1.01652e-06
-1.22384e-05
-1.6773e-06
-1.22509e-05
-2.31148e-06
-1.2274e-05
-2.90717e-06
-1.22758e-05
-3.4503e-06
-1.22657e-05
-3.93182e-06
-1.22331e-05
-4.34216e-06
-1.21803e-05
-4.68138e-06
-1.21032e-05
-4.96243e-06
-1.19865e-05
-5.1874e-06
-1.18331e-05
-5.35131e-06
-1.16357e-05
-5.4501e-06
-1.13831e-05
-5.4814e-06
-1.107e-05
-5.44028e-06
-1.0692e-05
-5.31104e-06
-1.02473e-05
-5.08269e-06
-9.72375e-06
-4.77831e-06
-9.10234e-06
-4.46985e-06
-8.36456e-06
-4.2433e-06
-7.50107e-06
-4.12708e-06
-6.51858e-06
-4.12287e-06
-5.44627e-06
-4.29848e-06
-3.8705e-07
-1.09723e-05
-1.01676e-06
-1.16087e-05
-1.62862e-06
-1.1639e-05
-2.22446e-06
-1.16781e-05
-2.79881e-06
-1.17015e-05
-3.34537e-06
-1.17191e-05
-3.85291e-06
-1.17256e-05
-4.31598e-06
-1.17173e-05
-4.73081e-06
-1.16884e-05
-5.08284e-06
-1.16345e-05
-5.36661e-06
-1.15494e-05
-5.57547e-06
-1.14269e-05
-5.70443e-06
-1.12541e-05
-5.76096e-06
-1.10138e-05
-5.75259e-06
-1.07004e-05
-5.67524e-06
-1.03252e-05
-5.52954e-06
-9.87015e-06
-5.31714e-06
-9.3155e-06
-5.03799e-06
-8.64456e-06
-4.69281e-06
-7.84685e-06
-4.31438e-06
-6.8979e-06
-3.99175e-06
-5.76909e-06
-4.487e-06
-4.24471e-07
-1.02043e-06
-1.61871e-06
-2.20762e-06
-2.77701e-06
-3.319e-06
-3.82662e-06
-4.29262e-06
-4.70929e-06
-5.07121e-06
-5.37313e-06
-5.61112e-06
-5.77665e-06
-5.85367e-06
-5.83562e-06
-5.7383e-06
-5.57109e-06
-5.34126e-06
-5.05817e-06
-4.73779e-06
-4.39095e-06
-4.02798e-06
)
;

boundaryField
{
    leftWall
    {
        type            fixedValue;
        value           uniform 0;
    }
    rightWall
    {
        type            fixedValue;
        value           nonuniform 0();
    }
    lowerWall
    {
        type            fixedValue;
        value           nonuniform 0();
    }
    atmosphere
    {
        type            calculated;
        value           nonuniform List<scalar> 
23
(
-1.05479e-05
-1.10128e-05
-1.10408e-05
-1.10893e-05
-1.11321e-05
-1.11772e-05
-1.12181e-05
-1.12513e-05
-1.12717e-05
-1.12727e-05
-1.12475e-05
-1.11889e-05
-1.10886e-05
-1.09368e-05
-1.07187e-05
-1.04228e-05
-1.00376e-05
-9.54562e-06
-8.92792e-06
-8.1676e-06
-7.24494e-06
-6.13244e-06
-4.81651e-06
)
;
    }
    defaultFaces
    {
        type            empty;
        value           nonuniform 0();
    }
    procBoundary2to0
    {
        type            processor;
        value           nonuniform List<scalar> 
24
(
3.15264e-05
3.18739e-05
3.11254e-05
2.95068e-05
2.91945e-05
2.9672e-05
2.93045e-05
1.15706e-05
1.52177e-05
1.5494e-05
1.58048e-05
1.60557e-05
1.63278e-05
1.65919e-05
1.68955e-05
1.73459e-05
1.79997e-05
1.90217e-05
2.05579e-05
2.23053e-05
2.41654e-05
2.61316e-05
1.4138e-06
2.74058e-05
)
;
    }
    procBoundary2to3
    {
        type            processor;
        value           nonuniform List<scalar> 
25
(
-1.70651e-05
-1.66536e-05
-1.55032e-05
-1.63551e-05
-1.55539e-05
-1.58547e-05
-1.51477e-05
-1.48506e-05
-1.43927e-05
-1.38449e-05
-1.32908e-05
-1.27155e-05
-1.20917e-05
-1.14493e-05
-1.07754e-05
-1.00713e-05
-9.33673e-06
-8.56783e-06
-7.7645e-06
-6.91895e-06
-6.01654e-06
-5.06834e-06
-4.25051e-06
-3.80413e-06
-3.69872e-06
)
;
    }
}


// ************************************************************************* //
