/*--------------------------------*- C++ -*----------------------------------*\
| =========                 |                                                 |
| \\      /  F ield         | OpenFOAM: The Open Source CFD Toolbox           |
|  \\    /   O peration     | Version:  2.4.0                                 |
|   \\  /    A nd           | Web:      www.OpenFOAM.org                      |
|    \\/     M anipulation  |                                                 |
\*---------------------------------------------------------------------------*/
FoamFile
{
    version     2.0;
    format      ascii;
    class       surfaceScalarField;
    location    "0.55";
    object      phi.air;
}
// * * * * * * * * * * * * * * * * * * * * * * * * * * * * * * * * * * * * * //

dimensions      [0 3 -1 0 0 0 0];

internalField   nonuniform List<scalar> 
1070
(
-4.5049e-06
-2.84368e-05
-7.34787e-06
-2.90339e-05
-9.71115e-06
-2.87654e-05
-1.18509e-05
-2.7371e-05
-1.41852e-05
-2.68646e-05
-1.5952e-05
-2.79105e-05
-2.81998e-05
3.69087e-07
-1.19406e-05
6.78203e-07
-1.55277e-05
8.47996e-07
-1.56647e-05
9.21427e-07
-1.58791e-05
9.10657e-07
-1.60459e-05
8.47704e-07
-1.62658e-05
8.42125e-07
-1.65873e-05
9.14753e-07
-1.69692e-05
1.07962e-06
-1.75118e-05
1.42323e-06
-1.83445e-05
1.75614e-06
-1.9356e-05
1.75477e-06
-2.0558e-05
1.26331e-06
-2.18156e-05
2.67697e-07
-2.31717e-05
-1.52002e-06
-2.43459e-05
-3.91034e-06
-2.5018e-05
-6.29745e-06
-2.60497e-05
-8.52287e-06
-2.68085e-05
-1.07651e-05
-2.65233e-05
-1.25725e-05
-2.55636e-05
-1.40381e-05
-2.5399e-05
-1.53621e-05
-2.65865e-05
-2.691e-05
3.08628e-07
-1.22492e-05
4.04809e-07
-1.56239e-05
4.3151e-07
-1.56914e-05
4.5458e-07
-1.59022e-05
4.80541e-07
-1.60718e-05
4.99477e-07
-1.62847e-05
5.1935e-07
-1.66072e-05
5.28703e-07
-1.69785e-05
5.08202e-07
-1.74913e-05
4.12782e-07
-1.82491e-05
2.14846e-07
-1.9158e-05
-2.39029e-07
-2.01042e-05
-1.06598e-06
-2.09886e-05
-2.12639e-06
-2.21113e-05
-3.47346e-06
-2.29989e-05
-4.75034e-06
-2.37411e-05
-6.36049e-06
-2.44396e-05
-8.40763e-06
-2.47613e-05
-1.02953e-05
-2.46356e-05
-1.17323e-05
-2.41266e-05
-1.2923e-05
-2.42082e-05
-1.42273e-05
-2.52823e-05
-2.56355e-05
1.73535e-07
-1.24227e-05
2.2581e-07
-1.56761e-05
2.95274e-07
-1.57609e-05
3.54718e-07
-1.59617e-05
4.18986e-07
-1.61361e-05
4.92151e-07
-1.63578e-05
5.13363e-07
-1.66284e-05
4.78572e-07
-1.69437e-05
3.48837e-07
-1.73616e-05
5.05185e-08
-1.79508e-05
-3.69416e-07
-1.87381e-05
-9.86593e-07
-1.9487e-05
-1.81321e-06
-2.0162e-05
-2.87173e-06
-2.10527e-05
-4.04437e-06
-2.18262e-05
-5.24027e-06
-2.25452e-05
-6.81719e-06
-2.28627e-05
-8.66619e-06
-2.29123e-05
-1.03444e-05
-2.29574e-05
-1.18304e-05
-2.26406e-05
-1.31867e-05
-2.28519e-05
-1.47224e-05
-2.37466e-05
-2.40036e-05
9.82292e-08
-1.2521e-05
1.76572e-07
-1.57545e-05
2.63102e-07
-1.58474e-05
2.81533e-07
-1.59801e-05
2.85507e-07
-1.61401e-05
2.7441e-07
-1.63467e-05
2.51225e-07
-1.66052e-05
2.26767e-07
-1.69193e-05
1.64257e-07
-1.72991e-05
-1.01431e-07
-1.76851e-05
-5.82625e-07
-1.82569e-05
-1.1732e-06
-1.88964e-05
-1.80808e-06
-1.95271e-05
-2.79572e-06
-2.00651e-05
-3.9628e-06
-2.06591e-05
-5.37381e-06
-2.11341e-05
-6.78398e-06
-2.14525e-05
-8.03814e-06
-2.16582e-05
-9.36493e-06
-2.16306e-05
-1.05778e-05
-2.14277e-05
-1.18162e-05
-2.16136e-05
-1.34664e-05
-2.20964e-05
-2.19166e-05
8.75003e-08
-1.26085e-05
5.46265e-08
-1.57216e-05
-1.11427e-08
-1.57816e-05
-8.88948e-08
-1.59023e-05
-1.7633e-07
-1.60526e-05
-2.76953e-07
-1.62461e-05
-3.9406e-07
-1.64881e-05
-5.30308e-07
-1.6783e-05
-7.01244e-07
-1.71281e-05
-9.44105e-07
-1.74422e-05
-1.40302e-06
-1.7798e-05
-2.00174e-06
-1.82977e-05
-2.66887e-06
-1.886e-05
-3.43165e-06
-1.93023e-05
-4.40469e-06
-1.96861e-05
-5.71514e-06
-1.98237e-05
-7.12834e-06
-2.00393e-05
-8.47487e-06
-2.03116e-05
-9.85038e-06
-2.02551e-05
-1.11522e-05
-2.01258e-05
-1.24522e-05
-2.03136e-05
-1.40542e-05
-2.04944e-05
-2.01164e-05
-1.16722e-09
-1.26073e-05
-7.00611e-08
-1.56527e-05
-1.39358e-07
-1.57123e-05
-2.23765e-07
-1.58179e-05
-3.31242e-07
-1.59452e-05
-4.74385e-07
-1.6103e-05
-6.64921e-07
-1.62975e-05
-8.96655e-07
-1.65513e-05
-1.18633e-06
-1.68385e-05
-1.5464e-06
-1.70822e-05
-2.01808e-06
-1.73263e-05
-2.61949e-06
-1.76963e-05
-3.43552e-06
-1.8044e-05
-4.29033e-06
-1.84475e-05
-5.23686e-06
-1.87395e-05
-6.08328e-06
-1.89772e-05
-6.93821e-06
-1.91843e-05
-8.15294e-06
-1.90969e-05
-9.37662e-06
-1.90314e-05
-1.05423e-05
-1.89601e-05
-1.19217e-05
-1.89342e-05
-1.36186e-05
-1.87974e-05
-1.85873e-05
3.68169e-08
-1.26441e-05
-1.57499e-08
-1.56001e-05
-9.46164e-08
-1.56335e-05
-2.00702e-07
-1.57118e-05
-3.37855e-07
-1.5808e-05
-4.99823e-07
-1.5941e-05
-6.93394e-07
-1.6104e-05
-9.51374e-07
-1.62933e-05
-1.31787e-06
-1.6472e-05
-1.70947e-06
-1.66906e-05
-2.06754e-06
-1.69682e-05
-2.55342e-06
-1.72104e-05
-3.20304e-06
-1.73943e-05
-4.07799e-06
-1.75725e-05
-5.02231e-06
-1.77952e-05
-6.03339e-06
-1.79662e-05
-7.29484e-06
-1.79228e-05
-8.5072e-06
-1.78845e-05
-9.57323e-06
-1.79654e-05
-1.06874e-05
-1.7846e-05
-1.20268e-05
-1.75948e-05
-1.34517e-05
-1.73725e-05
-1.71881e-05
-7.03036e-08
-1.25738e-05
-1.9761e-07
-1.54728e-05
-3.16244e-07
-1.55148e-05
-4.54629e-07
-1.55734e-05
-6.18507e-07
-1.56441e-05
-8.24911e-07
-1.57346e-05
-1.0671e-06
-1.58618e-05
-1.35817e-06
-1.60022e-05
-1.68522e-06
-1.61449e-05
-2.09465e-06
-1.62811e-05
-2.63303e-06
-1.64299e-05
-3.24779e-06
-1.65956e-05
-3.83932e-06
-1.68028e-05
-4.57506e-06
-1.68368e-05
-5.46386e-06
-1.69064e-05
-6.38717e-06
-1.70428e-05
-7.23178e-06
-1.70782e-05
-8.04769e-06
-1.70686e-05
-9.14253e-06
-1.68705e-05
-1.03814e-05
-1.66071e-05
-1.16511e-05
-1.63251e-05
-1.29398e-05
-1.60839e-05
-1.57349e-05
-5.45187e-08
-1.25193e-05
-1.72064e-07
-1.53553e-05
-2.9507e-07
-1.53918e-05
-4.31472e-07
-1.5437e-05
-5.85384e-07
-1.54902e-05
-7.72135e-07
-1.55478e-05
-1.00778e-06
-1.56261e-05
-1.29498e-06
-1.5715e-05
-1.62904e-06
-1.58109e-05
-2.03124e-06
-1.58789e-05
-2.55145e-06
-1.59096e-05
-3.16744e-06
-1.59796e-05
-3.88135e-06
-1.60889e-05
-4.52928e-06
-1.61888e-05
-5.14251e-06
-1.62931e-05
-5.94154e-06
-1.62438e-05
-6.91312e-06
-1.61066e-05
-8.11697e-06
-1.58647e-05
-9.28008e-06
-1.57074e-05
-1.03163e-05
-1.55709e-05
-1.13266e-05
-1.53147e-05
-1.25385e-05
-1.48719e-05
-1.4428e-05
-8.51979e-08
-1.24341e-05
-2.28e-07
-1.52125e-05
-3.8198e-07
-1.52378e-05
-5.65775e-07
-1.52532e-05
-7.7978e-07
-1.52762e-05
-1.01478e-06
-1.53128e-05
-1.29104e-06
-1.53499e-05
-1.61923e-06
-1.53868e-05
-1.99639e-06
-1.54337e-05
-2.37489e-06
-1.55004e-05
-2.73682e-06
-1.55477e-05
-3.16276e-06
-1.55537e-05
-3.74058e-06
-1.55111e-05
-4.47993e-06
-1.54495e-05
-5.42904e-06
-1.5344e-05
-6.33709e-06
-1.53357e-05
-7.18551e-06
-1.52582e-05
-7.93564e-06
-1.51146e-05
-8.72395e-06
-1.49191e-05
-9.75515e-06
-1.45397e-05
-1.09762e-05
-1.40937e-05
-1.21349e-05
-1.37132e-05
-1.32716e-05
-8.38109e-08
-1.23503e-05
-2.10578e-07
-1.50857e-05
-3.37042e-07
-1.51114e-05
-4.7848e-07
-1.51118e-05
-6.46662e-07
-1.5108e-05
-8.5265e-07
-1.51069e-05
-1.09978e-06
-1.51027e-05
-1.39315e-06
-1.50934e-05
-1.75406e-06
-1.50728e-05
-2.22168e-06
-1.50328e-05
-2.78822e-06
-1.49812e-05
-3.40732e-06
-1.49346e-05
-4.0083e-06
-1.49101e-05
-4.59584e-06
-1.48619e-05
-5.12609e-06
-1.48138e-05
-5.75278e-06
-1.47091e-05
-6.5402e-06
-1.44708e-05
-7.49552e-06
-1.41592e-05
-8.60251e-06
-1.38121e-05
-9.63643e-06
-1.35058e-05
-1.05463e-05
-1.31838e-05
-1.15704e-05
-1.26891e-05
-1.21257e-05
-1.07306e-07
-1.22429e-05
-2.6053e-07
-1.49325e-05
-4.20579e-07
-1.49513e-05
-6.03769e-07
-1.49286e-05
-8.09532e-07
-1.49022e-05
-1.04555e-06
-1.48708e-05
-1.31646e-06
-1.48318e-05
-1.62391e-06
-1.4786e-05
-1.96257e-06
-1.47341e-05
-2.31436e-06
-1.4681e-05
-2.66983e-06
-1.46257e-05
-3.0779e-06
-1.45265e-05
-3.5894e-06
-1.43986e-05
-4.19835e-06
-1.4253e-05
-4.95158e-06
-1.40605e-05
-5.82046e-06
-1.38402e-05
-6.65972e-06
-1.36315e-05
-7.45706e-06
-1.33619e-05
-8.20369e-06
-1.30654e-05
-9.05032e-06
-1.26592e-05
-1.00617e-05
-1.21724e-05
-1.10748e-05
-1.16759e-05
-1.11082e-05
-7.91845e-08
-1.21638e-05
-1.89466e-07
-1.48222e-05
-3.06682e-07
-1.48341e-05
-4.47615e-07
-1.47877e-05
-6.20496e-07
-1.47294e-05
-8.34364e-07
-1.4657e-05
-1.09394e-06
-1.45722e-05
-1.40159e-06
-1.44783e-05
-1.76059e-06
-1.43751e-05
-2.1809e-06
-1.42607e-05
-2.67092e-06
-1.41356e-05
-3.19976e-06
-1.39976e-05
-3.75275e-06
-1.38456e-05
-4.33009e-06
-1.36756e-05
-4.90907e-06
-1.34815e-05
-5.49527e-06
-1.3254e-05
-6.163e-06
-1.29638e-05
-6.92152e-06
-1.26034e-05
-7.79682e-06
-1.21901e-05
-8.69223e-06
-1.17637e-05
-9.56072e-06
-1.13039e-05
-1.04787e-05
-1.07579e-05
-1.01368e-05
-8.58985e-08
-1.20779e-05
-2.10705e-07
-1.46974e-05
-3.41692e-07
-1.47031e-05
-4.95173e-07
-1.46342e-05
-6.72233e-07
-1.45523e-05
-8.77568e-07
-1.44516e-05
-1.11555e-06
-1.43343e-05
-1.39041e-06
-1.42035e-05
-1.70407e-06
-1.40614e-05
-2.05688e-06
-1.39079e-05
-2.45184e-06
-1.37407e-05
-2.88422e-06
-1.35653e-05
-3.36549e-06
-1.33643e-05
-3.90963e-06
-1.31315e-05
-4.52213e-06
-1.2869e-05
-5.20403e-06
-1.25721e-05
-5.92577e-06
-1.2242e-05
-6.6514e-06
-1.18777e-05
-7.37718e-06
-1.14644e-05
-8.1532e-06
-1.09877e-05
-8.99967e-06
-1.04574e-05
-9.87618e-06
-9.88141e-06
-9.23693e-06
-4.55419e-08
-1.20323e-05
-1.3855e-07
-1.46044e-05
-2.39916e-07
-1.46018e-05
-3.6418e-07
-1.45099e-05
-5.13796e-07
-1.44027e-05
-6.94587e-07
-1.42708e-05
-9.15982e-07
-1.41129e-05
-1.18247e-06
-1.3937e-05
-1.49593e-06
-1.3748e-05
-1.85573e-06
-1.35481e-05
-2.26132e-06
-1.33351e-05
-2.71865e-06
-1.31079e-05
-3.21469e-06
-1.28682e-05
-3.73912e-06
-1.26071e-05
-4.29238e-06
-1.23158e-05
-4.87433e-06
-1.19901e-05
-5.49337e-06
-1.1623e-05
-6.16354e-06
-1.12076e-05
-6.884e-06
-1.07439e-05
-7.63594e-06
-1.02358e-05
-8.41333e-06
-9.68006e-06
-9.22684e-06
-9.0679e-06
-8.39155e-06
-2.89519e-08
-1.20034e-05
-1.19774e-07
-1.45135e-05
-2.17994e-07
-1.45035e-05
-3.34397e-07
-1.43935e-05
-4.68366e-07
-1.42687e-05
-6.19547e-07
-1.41196e-05
-7.91326e-07
-1.39411e-05
-9.92961e-07
-1.37353e-05
-1.24135e-06
-1.34996e-05
-1.55288e-06
-1.32365e-05
-1.92653e-06
-1.29614e-05
-2.35429e-06
-1.26802e-05
-2.83118e-06
-1.23914e-05
-3.34848e-06
-1.20898e-05
-3.8996e-06
-1.17647e-05
-4.48071e-06
-1.1409e-05
-5.08989e-06
-1.10138e-05
-5.71998e-06
-1.05775e-05
-6.37409e-06
-1.00898e-05
-7.06142e-06
-9.54845e-06
-7.78721e-06
-8.95427e-06
-8.54746e-06
-8.30763e-06
-7.60164e-06
1.03419e-08
-1.20137e-05
-9.40503e-08
-1.44092e-05
-2.03407e-07
-1.43942e-05
-3.21595e-07
-1.42753e-05
-4.52024e-07
-1.41383e-05
-5.92623e-07
-1.3979e-05
-7.40204e-07
-1.37935e-05
-9.0608e-07
-1.35694e-05
-1.09943e-06
-1.33062e-05
-1.32862e-06
-1.30073e-05
-1.60992e-06
-1.26801e-05
-1.95717e-06
-1.23329e-05
-2.37713e-06
-1.19714e-05
-2.8717e-06
-1.15952e-05
-3.42031e-06
-1.1216e-05
-4.00034e-06
-1.0829e-05
-4.59147e-06
-1.04227e-05
-5.19409e-06
-9.97489e-06
-5.81465e-06
-9.46922e-06
-6.4578e-06
-8.9053e-06
-7.12799e-06
-8.28408e-06
-7.8319e-06
-7.60373e-06
-6.86482e-06
2.40243e-08
-1.20377e-05
-1.34806e-07
-1.42503e-05
-2.98786e-07
-1.42302e-05
-4.54601e-07
-1.41195e-05
-6.11788e-07
-1.39811e-05
-7.74336e-07
-1.38165e-05
-9.40284e-07
-1.36276e-05
-1.1087e-06
-1.3401e-05
-1.28279e-06
-1.31322e-05
-1.46733e-06
-1.28228e-05
-1.67461e-06
-1.24728e-05
-1.91611e-06
-1.20914e-05
-2.1983e-06
-1.16892e-05
-2.53456e-06
-1.12589e-05
-2.93581e-06
-1.08148e-05
-3.41719e-06
-1.03476e-05
-3.97831e-06
-9.86158e-06
-4.58777e-06
-9.36543e-06
-5.19968e-06
-8.85733e-06
-5.8084e-06
-8.29657e-06
-6.42991e-06
-7.66258e-06
-7.0809e-06
-6.95272e-06
-6.18063e-06
-1.08339e-08
-1.20269e-05
-2.85076e-07
-1.39761e-05
-5.61662e-07
-1.39536e-05
-8.10194e-07
-1.3871e-05
-1.0406e-06
-1.37507e-05
-1.25765e-06
-1.35995e-05
-1.46176e-06
-1.34234e-05
-1.64847e-06
-1.32143e-05
-1.81535e-06
-1.29653e-05
-1.96525e-06
-1.26729e-05
-2.10952e-06
-1.23286e-05
-2.26479e-06
-1.19361e-05
-2.44595e-06
-1.1508e-05
-2.64787e-06
-1.1057e-05
-2.8891e-06
-1.05736e-05
-3.1741e-06
-1.00626e-05
-3.51715e-06
-9.51855e-06
-3.94524e-06
-8.93735e-06
-4.47242e-06
-8.33015e-06
-5.06527e-06
-7.70372e-06
-5.67405e-06
-7.0538e-06
-6.28498e-06
-6.3418e-06
-5.5458e-06
-1.00388e-07
-1.19265e-05
-5.45822e-07
-1.35306e-05
-9.86983e-07
-1.35124e-05
-1.3879e-06
-1.34701e-05
-1.75075e-06
-1.33878e-05
-2.07995e-06
-1.32703e-05
-2.37541e-06
-1.3128e-05
-2.6306e-06
-1.29591e-05
-2.83883e-06
-1.2757e-05
-2.98982e-06
-1.25219e-05
-3.08099e-06
-1.22374e-05
-3.12777e-06
-1.18893e-05
-3.15895e-06
-1.14768e-05
-3.20057e-06
-1.10154e-05
-3.276e-06
-1.04981e-05
-3.39699e-06
-9.94162e-06
-3.55319e-06
-9.36235e-06
-3.73846e-06
-8.75208e-06
-3.98459e-06
-8.08403e-06
-4.33672e-06
-7.3516e-06
-4.82937e-06
-6.56116e-06
-5.4075e-06
-5.76365e-06
-4.93627e-06
-2.2769e-07
-1.16988e-05
-8.39175e-07
-1.29192e-05
-1.43814e-06
-1.29135e-05
-1.99821e-06
-1.291e-05
-2.51274e-06
-1.28733e-05
-2.97236e-06
-1.28106e-05
-3.38389e-06
-1.27165e-05
-3.75062e-06
-1.25924e-05
-4.06356e-06
-1.24441e-05
-4.31618e-06
-1.22692e-05
-4.49386e-06
-1.20597e-05
-4.58201e-06
-1.18012e-05
-4.57546e-06
-1.14834e-05
-4.48776e-06
-1.11031e-05
-4.33385e-06
-1.0652e-05
-4.15613e-06
-1.01193e-05
-4.0223e-06
-9.49618e-06
-3.97592e-06
-8.79847e-06
-4.00351e-06
-8.05644e-06
-4.08036e-06
-7.27475e-06
-4.23857e-06
-6.40295e-06
-4.55972e-06
-5.4425e-06
-4.42694e-06
-3.37609e-07
-1.13612e-05
-1.01654e-06
-1.22402e-05
-1.67733e-06
-1.22527e-05
-2.31153e-06
-1.22758e-05
-2.90723e-06
-1.22776e-05
-3.45038e-06
-1.22675e-05
-3.93191e-06
-1.22349e-05
-4.34227e-06
-1.2182e-05
-4.68152e-06
-1.21049e-05
-4.96259e-06
-1.19882e-05
-5.18759e-06
-1.18347e-05
-5.35155e-06
-1.16372e-05
-5.45042e-06
-1.13845e-05
-5.48201e-06
-1.10715e-05
-5.44086e-06
-1.06932e-05
-5.31176e-06
-1.02485e-05
-5.08329e-06
-9.72466e-06
-4.77874e-06
-9.10304e-06
-4.47008e-06
-8.36511e-06
-4.24333e-06
-7.5015e-06
-4.12719e-06
-6.51909e-06
-4.12304e-06
-5.44665e-06
-4.29906e-06
-3.87058e-07
-1.09741e-05
-1.01677e-06
-1.16105e-05
-1.62864e-06
-1.16408e-05
-2.22449e-06
-1.16799e-05
-2.79885e-06
-1.17032e-05
-3.34542e-06
-1.17209e-05
-3.85297e-06
-1.17274e-05
-4.31605e-06
-1.1719e-05
-4.73089e-06
-1.169e-05
-5.08294e-06
-1.16361e-05
-5.36674e-06
-1.15509e-05
-5.57565e-06
-1.14283e-05
-5.70473e-06
-1.12554e-05
-5.76131e-06
-1.10149e-05
-5.7531e-06
-1.07014e-05
-5.67572e-06
-1.03258e-05
-5.52993e-06
-9.87046e-06
-5.31741e-06
-9.31556e-06
-5.03809e-06
-8.64443e-06
-4.69291e-06
-7.84669e-06
-4.31437e-06
-6.89765e-06
-3.99211e-06
-5.76891e-06
-4.48661e-06
-4.24474e-07
-1.02044e-06
-1.61871e-06
-2.20763e-06
-2.77702e-06
-3.31902e-06
-3.82664e-06
-4.29264e-06
-4.70932e-06
-5.07124e-06
-5.37318e-06
-5.61118e-06
-5.77675e-06
-5.85382e-06
-5.83579e-06
-5.73846e-06
-5.57122e-06
-5.34135e-06
-5.05824e-06
-4.73781e-06
-4.39102e-06
-4.02813e-06
)
;

boundaryField
{
    leftWall
    {
        type            fixedValue;
        value           uniform 0;
    }
    rightWall
    {
        type            fixedValue;
        value           nonuniform 0();
    }
    lowerWall
    {
        type            fixedValue;
        value           nonuniform 0();
    }
    atmosphere
    {
        type            calculated;
        value           nonuniform List<scalar> 
23
(
-1.05497e-05
-1.10145e-05
-1.10425e-05
-1.1091e-05
-1.11339e-05
-1.11789e-05
-1.12197e-05
-1.1253e-05
-1.12733e-05
-1.12742e-05
-1.1249e-05
-1.11903e-05
-1.10899e-05
-1.09378e-05
-1.07194e-05
-1.04232e-05
-1.00377e-05
-9.54544e-06
-8.92756e-06
-8.16713e-06
-7.24444e-06
-6.13181e-06
-4.8156e-06
)
;
    }
    defaultFaces
    {
        type            empty;
        value           nonuniform 0();
    }
    procBoundary2to0
    {
        type            processor;
        value           nonuniform List<scalar> 
24
(
3.15291e-05
3.18768e-05
3.11287e-05
2.95108e-05
2.91989e-05
2.96773e-05
2.93105e-05
1.15715e-05
1.52186e-05
1.54949e-05
1.58057e-05
1.60566e-05
1.63287e-05
1.65929e-05
1.68965e-05
1.7347e-05
1.80009e-05
1.90231e-05
2.05594e-05
2.2307e-05
2.41673e-05
2.61336e-05
1.4127e-06
2.74083e-05
)
;
    }
    procBoundary2to3
    {
        type            processor;
        value           nonuniform List<scalar> 
25
(
-1.70627e-05
-1.66519e-05
-1.55019e-05
-1.63543e-05
-1.55534e-05
-1.58545e-05
-1.51477e-05
-1.48508e-05
-1.4393e-05
-1.38455e-05
-1.32913e-05
-1.27163e-05
-1.20924e-05
-1.14501e-05
-1.07761e-05
-1.00722e-05
-9.33738e-06
-8.56871e-06
-7.76511e-06
-6.9198e-06
-6.01704e-06
-5.06905e-06
-4.25092e-06
-3.80457e-06
-3.69915e-06
)
;
    }
}


// ************************************************************************* //
