/*--------------------------------*- C++ -*----------------------------------*\
| =========                 |                                                 |
| \\      /  F ield         | OpenFOAM: The Open Source CFD Toolbox           |
|  \\    /   O peration     | Version:  2.4.0                                 |
|   \\  /    A nd           | Web:      www.OpenFOAM.org                      |
|    \\/     M anipulation  |                                                 |
\*---------------------------------------------------------------------------*/
FoamFile
{
    version     2.0;
    format      ascii;
    class       volVectorField;
    location    "0.55";
    object      U;
}
// * * * * * * * * * * * * * * * * * * * * * * * * * * * * * * * * * * * * * //

dimensions      [0 1 -1 0 0 0 0];

internalField   nonuniform List<vector> 
559
(
(-0.0169093 -0.160542 0)
(-0.0325444 -0.161415 0)
(-0.0454708 -0.15996 0)
(-0.0582096 -0.151522 0)
(-0.0691473 -0.148807 0)
(-0.0822268 -0.153162 0)
(-0.0883577 -0.1539 0)
(0.00103537 -0.0631082 0)
(0.00287597 -0.0828286 0)
(0.00432464 -0.0842241 0)
(0.00475707 -0.0857811 0)
(0.00511653 -0.0870339 0)
(0.00467425 -0.0885278 0)
(0.00440388 -0.089988 0)
(0.00467464 -0.0918344 0)
(0.00509298 -0.0945455 0)
(0.00666191 -0.0988471 0)
(0.00852991 -0.104429 0)
(0.0103381 -0.111639 0)
(0.0083352 -0.119284 0)
(0.00537334 -0.128717 0)
(-0.00259075 -0.136893 0)
(-0.0138957 -0.140357 0)
(-0.0280131 -0.146353 0)
(-0.0404076 -0.151158 0)
(-0.0514649 -0.150052 0)
(-0.0637794 -0.143817 0)
(-0.0713785 -0.141147 0)
(-0.0793659 -0.148115 0)
(-0.0847532 -0.150178 0)
(0.00111983 -0.0651898 0)
(0.0021718 -0.0840182 0)
(0.00217009 -0.0842605 0)
(0.00239195 -0.0852829 0)
(0.00249808 -0.0864277 0)
(0.00262897 -0.0876519 0)
(0.00275122 -0.0894924 0)
(0.00283735 -0.0915008 0)
(0.00284936 -0.0945258 0)
(0.00268859 -0.098796 0)
(0.00169751 -0.10355 0)
(0.000584989 -0.108944 0)
(-0.00328962 -0.115398 0)
(-0.00844636 -0.122041 0)
(-0.0149337 -0.126781 0)
(-0.0222308 -0.131017 0)
(-0.029417 -0.136878 0)
(-0.0392234 -0.140175 0)
(-0.0513569 -0.137799 0)
(-0.0598793 -0.133431 0)
(-0.0655876 -0.133464 0)
(-0.0732021 -0.139398 0)
(-0.0792557 -0.141244 0)
(0.000715588 -0.0665286 0)
(0.00110439 -0.0840731 0)
(0.00132106 -0.0845932 0)
(0.00181615 -0.0857186 0)
(0.00199552 -0.0866255 0)
(0.00249249 -0.0877069 0)
(0.00279133 -0.0892809 0)
(0.00272165 -0.0910102 0)
(0.00243097 -0.0933666 0)
(0.00141548 -0.0969612 0)
(-0.000908774 -0.102237 0)
(-0.00321729 -0.107662 0)
(-0.00723031 -0.111133 0)
(-0.0126877 -0.116357 0)
(-0.0184481 -0.120926 0)
(-0.0252239 -0.125576 0)
(-0.0316124 -0.126767 0)
(-0.0416806 -0.127156 0)
(-0.0518167 -0.127664 0)
(-0.0599025 -0.125939 0)
(-0.0674153 -0.127178 0)
(-0.0745688 -0.132486 0)
(-0.0830012 -0.133942 0)
(0.00041756 -0.0671073 0)
(0.0006153 -0.0847107 0)
(0.00129395 -0.0852457 0)
(0.0014928 -0.0862908 0)
(0.00154809 -0.0871382 0)
(0.00152929 -0.088283 0)
(0.00140773 -0.0896203 0)
(0.00129534 -0.0913642 0)
(0.00118071 -0.0937294 0)
(0.000557927 -0.0962954 0)
(-0.00177677 -0.0996679 0)
(-0.00468705 -0.103138 0)
(-0.00762565 -0.106477 0)
(-0.0122254 -0.110783 0)
(-0.0179541 -0.114806 0)
(-0.025117 -0.118411 0)
(-0.0327905 -0.120524 0)
(-0.0399576 -0.120993 0)
(-0.046952 -0.121658 0)
(-0.0535772 -0.119556 0)
(-0.0607282 -0.120494 0)
(-0.0665761 -0.124767 0)
(-0.0774264 -0.125444 0)
(0.000390676 -0.0676891 0)
(0.000533665 -0.0846947 0)
(6.75795e-05 -0.0851233 0)
(-0.000230329 -0.085667 0)
(-0.000672497 -0.0867151 0)
(-0.00118002 -0.0880935 0)
(-0.00173275 -0.0895639 0)
(-0.00238986 -0.0911372 0)
(-0.00326915 -0.0925709 0)
(-0.00443074 -0.094285 0)
(-0.00569872 -0.0964234 0)
(-0.00920294 -0.0993652 0)
(-0.0126052 -0.103466 0)
(-0.0162121 -0.105439 0)
(-0.0208151 -0.107984 0)
(-0.0267233 -0.109161 0)
(-0.0346835 -0.110507 0)
(-0.0424622 -0.112564 0)
(-0.0491145 -0.111702 0)
(-0.056574 -0.111122 0)
(-0.0636823 -0.112005 0)
(-0.0707265 -0.113172 0)
(-0.0800476 -0.111282 0)
(0.000111143 -0.0678445 0)
(-0.000138605 -0.0845137 0)
(-0.000572709 -0.0848572 0)
(-0.000921917 -0.0855711 0)
(-0.00146304 -0.0862672 0)
(-0.00205816 -0.0870388 0)
(-0.00296612 -0.0882214 0)
(-0.00414663 -0.0898064 0)
(-0.00555575 -0.0917584 0)
(-0.00725617 -0.0929794 0)
(-0.00946273 -0.095035 0)
(-0.0121577 -0.0980573 0)
(-0.0162251 -0.0998629 0)
(-0.0206458 -0.1024 0)
(-0.0257238 -0.104346 0)
(-0.0306365 -0.105043 0)
(-0.0348278 -0.106451 0)
(-0.0402071 -0.10741 0)
(-0.0473961 -0.10681 0)
(-0.0539381 -0.106911 0)
(-0.0594749 -0.10715 0)
(-0.069398 -0.107476 0)
(-0.0769778 -0.105152 0)
(0.000216392 -0.0682126 0)
(0.000167383 -0.0842857 0)
(-0.000309744 -0.0844518 0)
(-0.000741043 -0.0848681 0)
(-0.00138333 -0.0854287 0)
(-0.00222491 -0.0862756 0)
(-0.00315665 -0.0872156 0)
(-0.00432869 -0.0882977 0)
(-0.00591475 -0.0894842 0)
(-0.00830264 -0.0913565 0)
(-0.0102718 -0.0927574 0)
(-0.0120611 -0.0937285 0)
(-0.0151906 -0.095222 0)
(-0.0194483 -0.097164 0)
(-0.0244763 -0.0983618 0)
(-0.0293215 -0.0996145 0)
(-0.0359288 -0.100256 0)
(-0.042704 -0.0986725 0)
(-0.0490545 -0.099291 0)
(-0.0538993 -0.0984043 0)
(-0.0611494 -0.0981512 0)
(-0.0687394 -0.096305 0)
(-0.0760411 -0.0961502 0)
(-9.26141e-05 -0.067756 0)
(-0.000691735 -0.0835928 0)
(-0.00139609 -0.083876 0)
(-0.00202665 -0.0843216 0)
(-0.00283353 -0.0848356 0)
(-0.00384447 -0.0854977 0)
(-0.00502516 -0.0862985 0)
(-0.00646519 -0.0872203 0)
(-0.00817572 -0.0880563 0)
(-0.0100706 -0.08857 0)
(-0.0124296 -0.0895594 0)
(-0.0159342 -0.0910573 0)
(-0.0191492 -0.0920145 0)
(-0.0222629 -0.092167 0)
(-0.0266536 -0.0930696 0)
(-0.0321885 -0.0943751 0)
(-0.0367658 -0.0938626 0)
(-0.0412547 -0.0950374 0)
(-0.0454383 -0.0947612 0)
(-0.0526915 -0.0935091 0)
(-0.0590346 -0.0908897 0)
(-0.0666419 -0.0903546 0)
(-0.0729642 -0.0893582 0)
(-8.03807e-05 -0.0678125 0)
(-0.000530592 -0.0832737 0)
(-0.00128227 -0.0834679 0)
(-0.00192794 -0.0837388 0)
(-0.00272758 -0.0840291 0)
(-0.00357742 -0.0842831 0)
(-0.00472502 -0.0847689 0)
(-0.00615637 -0.0853498 0)
(-0.00782572 -0.0860128 0)
(-0.00966568 -0.086755 0)
(-0.0122305 -0.0875337 0)
(-0.0153344 -0.0879778 0)
(-0.0187312 -0.0890168 0)
(-0.0229565 -0.0894376 0)
(-0.0260606 -0.0902112 0)
(-0.0291882 -0.0897086 0)
(-0.0345536 -0.0896913 0)
(-0.0401633 -0.0886606 0)
(-0.0468743 -0.0868297 0)
(-0.0531373 -0.086291 0)
(-0.05804 -0.0864091 0)
(-0.0638789 -0.084082 0)
(-0.0713441 -0.0807888 0)
(-0.000166558 -0.0670777 0)
(-0.000772244 -0.0821884 0)
(-0.00164244 -0.0823636 0)
(-0.00250056 -0.082547 0)
(-0.00360343 -0.0828273 0)
(-0.00478687 -0.0832247 0)
(-0.00614704 -0.0836318 0)
(-0.0077675 -0.0840155 0)
(-0.00967546 -0.0844438 0)
(-0.0117964 -0.0847537 0)
(-0.0138445 -0.0845609 0)
(-0.0155944 -0.0848714 0)
(-0.0184922 -0.0850234 0)
(-0.0217643 -0.0854075 0)
(-0.0263988 -0.0847779 0)
(-0.0318443 -0.0849088 0)
(-0.0365133 -0.0844505 0)
(-0.0408588 -0.0832334 0)
(-0.0447956 -0.0837119 0)
(-0.0487842 -0.0822088 0)
(-0.055746 -0.0785098 0)
(-0.0627085 -0.0766694 0)
(-0.0681214 -0.0752152 0)
(-0.0001895 -0.0669845 0)
(-0.000732837 -0.0818829 0)
(-0.00149833 -0.0820058 0)
(-0.00216325 -0.0820122 0)
(-0.00298183 -0.0819762 0)
(-0.00399167 -0.0819846 0)
(-0.00521161 -0.0820186 0)
(-0.00665425 -0.0820838 0)
(-0.00837208 -0.0821612 0)
(-0.0105105 -0.0823274 0)
(-0.0132771 -0.0826197 0)
(-0.0167601 -0.0824369 0)
(-0.0199203 -0.0821475 0)
(-0.023189 -0.0816795 0)
(-0.0262786 -0.0817417 0)
(-0.0290673 -0.0816842 0)
(-0.0326696 -0.0807728 0)
(-0.03757 -0.0797206 0)
(-0.0431433 -0.0765522 0)
(-0.0494457 -0.07481 0)
(-0.0541502 -0.074272 0)
(-0.0593002 -0.0716871 0)
(-0.0654964 -0.0682858 0)
(-0.000249568 -0.0661357 0)
(-0.000923575 -0.0807455 0)
(-0.00184282 -0.0808923 0)
(-0.00271812 -0.0808772 0)
(-0.00377439 -0.0808703 0)
(-0.00495413 -0.0808428 0)
(-0.00631305 -0.080738 0)
(-0.00786241 -0.0805545 0)
(-0.00960322 -0.0802949 0)
(-0.0115017 -0.0799323 0)
(-0.0134335 -0.0794626 0)
(-0.0152775 -0.079183 0)
(-0.01778 -0.0789998 0)
(-0.0208105 -0.0785444 0)
(-0.0243615 -0.0775303 0)
(-0.0288832 -0.0761751 0)
(-0.033706 -0.0750186 0)
(-0.038042 -0.0735638 0)
(-0.0421232 -0.0731699 0)
(-0.0459897 -0.0713467 0)
(-0.0512621 -0.0681897 0)
(-0.0570537 -0.0656282 0)
(-0.0622954 -0.0628263 0)
(-0.000209998 -0.0659545 0)
(-0.000653778 -0.080379 0)
(-0.00135315 -0.0804529 0)
(-0.00198281 -0.0802562 0)
(-0.00283541 -0.0800119 0)
(-0.00386025 -0.0797298 0)
(-0.00512579 -0.0794258 0)
(-0.00664668 -0.079115 0)
(-0.00843266 -0.0787949 0)
(-0.0105006 -0.0784715 0)
(-0.0129258 -0.0781037 0)
(-0.015753 -0.0773229 0)
(-0.0186613 -0.0764151 0)
(-0.0216986 -0.0755909 0)
(-0.0248588 -0.0747223 0)
(-0.0279373 -0.07383 0)
(-0.0311637 -0.072541 0)
(-0.0350021 -0.070596 0)
(-0.0394792 -0.0678987 0)
(-0.0443679 -0.0655851 0)
(-0.0489876 -0.0635367 0)
(-0.0538512 -0.0606777 0)
(-0.059036 -0.057307 0)
(-0.000204909 -0.0652156 0)
(-0.000730537 -0.0794411 0)
(-0.00150364 -0.0794923 0)
(-0.00220828 -0.0791697 0)
(-0.00311161 -0.0787757 0)
(-0.00412876 -0.0782774 0)
(-0.00531276 -0.0776828 0)
(-0.00668559 -0.0770181 0)
(-0.00826129 -0.0762903 0)
(-0.0100517 -0.0754994 0)
(-0.012071 -0.0746981 0)
(-0.0142674 -0.0740443 0)
(-0.0167067 -0.0732179 0)
(-0.0194609 -0.0721026 0)
(-0.0225562 -0.0708195 0)
(-0.0260541 -0.0692681 0)
(-0.0298927 -0.0675454 0)
(-0.0338099 -0.0658198 0)
(-0.0376649 -0.064001 0)
(-0.0416148 -0.0616117 0)
(-0.0460008 -0.0587268 0)
(-0.0507703 -0.0557139 0)
(-0.0555611 -0.0523109 0)
(-9.46987e-05 -0.0650997 0)
(-0.000409242 -0.079193 0)
(-0.00104695 -0.0792092 0)
(-0.00157281 -0.0787953 0)
(-0.00232819 -0.0783045 0)
(-0.00320206 -0.077709 0)
(-0.00427622 -0.0770354 0)
(-0.00557947 -0.0762936 0)
(-0.00713161 -0.0754809 0)
(-0.00894181 -0.0745722 0)
(-0.0109784 -0.0734826 0)
(-0.0133111 -0.0722343 0)
(-0.0158959 -0.0709718 0)
(-0.0186401 -0.0696619 0)
(-0.0215347 -0.0681754 0)
(-0.0245823 -0.0665375 0)
(-0.027785 -0.0646754 0)
(-0.0312396 -0.0624517 0)
(-0.0350076 -0.0599209 0)
(-0.0389749 -0.0572436 0)
(-0.0430535 -0.054393 0)
(-0.0473884 -0.0511822 0)
(-0.0519059 -0.0475795 0)
(-1.3102e-05 -0.064765 0)
(-0.000307608 -0.0784068 0)
(-0.00094999 -0.0783666 0)
(-0.00143375 -0.0777939 0)
(-0.00213871 -0.077144 0)
(-0.00290838 -0.0763585 0)
(-0.0037697 -0.075404 0)
(-0.00474392 -0.0743044 0)
(-0.00592229 -0.0731118 0)
(-0.00740791 -0.071894 0)
(-0.00926376 -0.0707241 0)
(-0.0114296 -0.0695473 0)
(-0.0138615 -0.0682318 0)
(-0.0165397 -0.0666915 0)
(-0.0194202 -0.0649917 0)
(-0.0224648 -0.0630966 0)
(-0.0256689 -0.0610162 0)
(-0.0290035 -0.0587629 0)
(-0.0324472 -0.0562584 0)
(-0.0360387 -0.0534362 0)
(-0.0398246 -0.0503076 0)
(-0.043865 -0.0469125 0)
(-0.0480799 -0.0431678 0)
(0.000213703 -0.0648501 0)
(-0.000105867 -0.0782346 0)
(-0.000874338 -0.0781722 0)
(-0.00135689 -0.0775455 0)
(-0.00207621 -0.0768364 0)
(-0.00280945 -0.0759874 0)
(-0.00356186 -0.0749331 0)
(-0.0043872 -0.0737206 0)
(-0.00535132 -0.0723348 0)
(-0.00646898 -0.0707475 0)
(-0.0078155 -0.0690165 0)
(-0.00948168 -0.0672123 0)
(-0.0115173 -0.0654327 0)
(-0.0140114 -0.0637753 0)
(-0.0168395 -0.0620668 0)
(-0.0199078 -0.0602188 0)
(-0.023038 -0.0580535 0)
(-0.0262515 -0.0555772 0)
(-0.0295362 -0.0528183 0)
(-0.0329258 -0.0498145 0)
(-0.0364387 -0.0465363 0)
(-0.0401515 -0.042953 0)
(-0.0440682 -0.0390381 0)
(0.000358722 -0.064725 0)
(-0.000109877 -0.0772063 0)
(-0.00129657 -0.0771082 0)
(-0.00197145 -0.0764622 0)
(-0.00288245 -0.075695 0)
(-0.00371249 -0.0748053 0)
(-0.00460785 -0.0738336 0)
(-0.00550994 -0.0726439 0)
(-0.00642126 -0.0711967 0)
(-0.007374 -0.0695251 0)
(-0.00840248 -0.0676804 0)
(-0.00958701 -0.0657172 0)
(-0.011001 -0.063647 0)
(-0.0126416 -0.0613892 0)
(-0.014594 -0.059064 0)
(-0.0169162 -0.056729 0)
(-0.0197471 -0.0545142 0)
(-0.0229868 -0.0522363 0)
(-0.0262884 -0.0495989 0)
(-0.0295332 -0.0465197 0)
(-0.0328287 -0.0430663 0)
(-0.0362485 -0.0392978 0)
(-0.0398719 -0.0352042 0)
(0.000404811 -0.0648696 0)
(-0.000532776 -0.0762254 0)
(-0.00246645 -0.0761051 0)
(-0.00364321 -0.0755802 0)
(-0.00501592 -0.0748816 0)
(-0.00618693 -0.0740589 0)
(-0.00733114 -0.0730778 0)
(-0.00838516 -0.0718992 0)
(-0.00933838 -0.070489 0)
(-0.0101791 -0.0688353 0)
(-0.010946 -0.0669129 0)
(-0.0117292 -0.0647791 0)
(-0.0126259 -0.062498 0)
(-0.013639 -0.0600414 0)
(-0.0148053 -0.057535 0)
(-0.0162172 -0.0548716 0)
(-0.0179059 -0.0519912 0)
(-0.0198763 -0.0489698 0)
(-0.0224542 -0.0461045 0)
(-0.0255389 -0.0431464 0)
(-0.0288608 -0.0398148 0)
(-0.0320767 -0.0359606 0)
(-0.0354517 -0.0316784 0)
(0.000323682 -0.0649072 0)
(-0.00143508 -0.0745918 0)
(-0.00434287 -0.074468 0)
(-0.00635224 -0.0741337 0)
(-0.0085078 -0.0735842 0)
(-0.0103157 -0.0728216 0)
(-0.0120157 -0.0719305 0)
(-0.0134924 -0.0708893 0)
(-0.0147661 -0.0696803 0)
(-0.0157427 -0.0682448 0)
(-0.0163881 -0.0664998 0)
(-0.0167223 -0.0644041 0)
(-0.0168689 -0.0620122 0)
(-0.0170334 -0.0594557 0)
(-0.0173366 -0.0566664 0)
(-0.0178509 -0.0537644 0)
(-0.0186324 -0.0507278 0)
(-0.0195175 -0.0475157 0)
(-0.0206412 -0.0439409 0)
(-0.0221504 -0.0401893 0)
(-0.0244048 -0.0364528 0)
(-0.027378 -0.0326044 0)
(-0.0307256 -0.0282926 0)
(5.56115e-05 -0.0645236 0)
(-0.0025627 -0.0722239 0)
(-0.00633528 -0.0721489 0)
(-0.00921833 -0.0720248 0)
(-0.0121919 -0.0716731 0)
(-0.014785 -0.0711293 0)
(-0.0171255 -0.0704276 0)
(-0.0191963 -0.0695531 0)
(-0.0210538 -0.0684603 0)
(-0.0225868 -0.067273 0)
(-0.0237679 -0.0658911 0)
(-0.0244942 -0.0642141 0)
(-0.0247089 -0.0621937 0)
(-0.0244397 -0.0598206 0)
(-0.0237545 -0.0570497 0)
(-0.022786 -0.0538977 0)
(-0.0217848 -0.050438 0)
(-0.0213303 -0.0468131 0)
(-0.021318 -0.043085 0)
(-0.021717 -0.0390805 0)
(-0.022163 -0.034555 0)
(-0.0232157 -0.0296649 0)
(-0.0257407 -0.0248755 0)
(-0.000373509 -0.0625404 0)
(-0.00336023 -0.0682609 0)
(-0.00740883 -0.0682832 0)
(-0.0107002 -0.0683396 0)
(-0.0140608 -0.0682492 0)
(-0.0171356 -0.0680621 0)
(-0.0198907 -0.0676855 0)
(-0.0223337 -0.067173 0)
(-0.0242878 -0.066573 0)
(-0.0259575 -0.0657242 0)
(-0.0273231 -0.0646678 0)
(-0.028372 -0.0633563 0)
(-0.0290913 -0.0617501 0)
(-0.0294484 -0.0598839 0)
(-0.0294222 -0.0576994 0)
(-0.0289713 -0.055094 0)
(-0.0280442 -0.051992 0)
(-0.0265342 -0.0482925 0)
(-0.02475 -0.044013 0)
(-0.0231421 -0.0392149 0)
(-0.0222323 -0.0341028 0)
(-0.0221323 -0.0287944 0)
(-0.0222465 -0.0230855 0)
(-0.000664416 -0.0591583 0)
(-0.00359868 -0.0629121 0)
(-0.007213 -0.0630578 0)
(-0.0103248 -0.0632486 0)
(-0.013526 -0.0633442 0)
(-0.0165378 -0.0634051 0)
(-0.0193851 -0.0634084 0)
(-0.0219885 -0.0633281 0)
(-0.0243685 -0.06312 0)
(-0.0264355 -0.0627788 0)
(-0.0281467 -0.0622792 0)
(-0.0294835 -0.0616017 0)
(-0.0303952 -0.0606703 0)
(-0.0308839 -0.0594042 0)
(-0.0309995 -0.0577721 0)
(-0.0307663 -0.0557283 0)
(-0.0301624 -0.0532138 0)
(-0.0291857 -0.0501391 0)
(-0.0278448 -0.0464211 0)
(-0.0261702 -0.0420084 0)
(-0.0241754 -0.0367161 0)
(-0.0221398 -0.0304264 0)
(-0.0205142 -0.0235525 0)
(-0.000786192 -0.0569511 0)
(-0.00370817 -0.0594753 0)
(-0.00720975 -0.059627 0)
(-0.0102544 -0.0598877 0)
(-0.0134233 -0.0601166 0)
(-0.0164034 -0.0603565 0)
(-0.0192315 -0.0605728 0)
(-0.0218493 -0.0607473 0)
(-0.0242238 -0.0608522 0)
(-0.0263173 -0.0608516 0)
(-0.0281029 -0.06071 0)
(-0.0295627 -0.0603878 0)
(-0.0306571 -0.0598409 0)
(-0.031303 -0.0590163 0)
(-0.0314472 -0.0578347 0)
(-0.0311333 -0.0562332 0)
(-0.0304154 -0.05415 0)
(-0.0293359 -0.0514905 0)
(-0.0279386 -0.0481533 0)
(-0.0262924 -0.0440476 0)
(-0.0244668 -0.039068 0)
(-0.0225314 -0.033065 0)
(-0.020435 -0.0259644 0)
)
;

boundaryField
{
    leftWall
    {
        type            calculated;
        value           uniform (0 0 0);
    }
    rightWall
    {
        type            calculated;
        value           nonuniform 0();
    }
    lowerWall
    {
        type            calculated;
        value           nonuniform 0();
    }
    atmosphere
    {
        type            calculated;
        value           nonuniform List<vector> 
23
(
(-0.000786192 -0.0569156 0)
(-0.00370817 -0.0594236 0)
(-0.00720975 -0.0595747 0)
(-0.0102544 -0.0598362 0)
(-0.0134233 -0.0600672 0)
(-0.0164034 -0.0603102 0)
(-0.0192315 -0.0605306 0)
(-0.0218493 -0.0607098 0)
(-0.0242238 -0.0608197 0)
(-0.0263173 -0.0608244 0)
(-0.0281029 -0.0606884 0)
(-0.0295627 -0.0603717 0)
(-0.0306571 -0.05983 0)
(-0.031303 -0.0590097 0)
(-0.0314472 -0.0578314 0)
(-0.0311332 -0.0562331 0)
(-0.0304154 -0.0541535 0)
(-0.0293359 -0.0514977 0)
(-0.0279386 -0.0481642 0)
(-0.0262924 -0.0440617 0)
(-0.0244668 -0.0390838 0)
(-0.0225314 -0.0330812 0)
(-0.020435 -0.0259802 0)
)
;
    }
    defaultFaces
    {
        type            empty;
    }
    procBoundary2to0
    {
        type            processor;
        value           nonuniform List<vector> 
24
(
(-0.0122124 -0.180618 0)
(-0.0289772 -0.18404 0)
(-0.0438883 -0.177388 0)
(-0.0545949 -0.167481 0)
(-0.0705487 -0.165633 0)
(-0.0820009 -0.166418 0)
(-0.088679 -0.162618 0)
(0.00139604 -0.0615261 0)
(0.00310295 -0.0813988 0)
(0.00459327 -0.0830032 0)
(0.00577687 -0.0847707 0)
(0.00639758 -0.0864963 0)
(0.00706091 -0.0879461 0)
(0.00821528 -0.0892972 0)
(0.0102663 -0.0906333 0)
(0.0127958 -0.0927615 0)
(0.0167138 -0.0946471 0)
(0.0232595 -0.100582 0)
(0.0274513 -0.110629 0)
(0.0271276 -0.121864 0)
(0.0223373 -0.132174 0)
(0.0133298 -0.145687 0)
(0.00173166 -0.15533 0)
(0.00173166 -0.15533 0)
)
;
    }
    procBoundary2to3
    {
        type            processor;
        value           nonuniform List<vector> 
25
(
(-0.0928069 -0.151448 0)
(-0.0912609 -0.148259 0)
(-0.0852876 -0.136959 0)
(-0.090086 -0.127836 0)
(-0.0859873 -0.120597 0)
(-0.0870452 -0.10815 0)
(-0.0828061 -0.102717 0)
(-0.0811625 -0.095324 0)
(-0.0789094 -0.0862765 0)
(-0.075642 -0.0806043 0)
(-0.0728627 -0.0726527 0)
(-0.0696221 -0.0666196 0)
(-0.0662566 -0.0603305 0)
(-0.0627223 -0.054791 0)
(-0.0590342 -0.0495421 0)
(-0.0551792 -0.0446883 0)
(-0.0511621 -0.0401504 0)
(-0.0469653 -0.0359054 0)
(-0.042586 -0.0319437 0)
(-0.0379819 -0.028266 0)
(-0.0330814 -0.024788 0)
(-0.0279406 -0.0214615 0)
(-0.0230564 -0.0188284 0)
(-0.020328 -0.0184205 0)
(-0.0195094 -0.020384 0)
)
;
    }
}


// ************************************************************************* //
