/*--------------------------------*- C++ -*----------------------------------*\
| =========                 |                                                 |
| \\      /  F ield         | OpenFOAM: The Open Source CFD Toolbox           |
|  \\    /   O peration     | Version:  2.4.0                                 |
|   \\  /    A nd           | Web:      www.OpenFOAM.org                      |
|    \\/     M anipulation  |                                                 |
\*---------------------------------------------------------------------------*/
FoamFile
{
    version     2.0;
    format      ascii;
    class       volVectorField;
    location    "0.55";
    object      U.mercury;
}
// * * * * * * * * * * * * * * * * * * * * * * * * * * * * * * * * * * * * * //

dimensions      [0 1 -1 0 0 0 0];

internalField   nonuniform List<vector> 
559
(
(-0.0169164 -0.160528 0)
(-0.0325533 -0.161399 0)
(-0.0454801 -0.159942 0)
(-0.0582201 -0.151501 0)
(-0.0691589 -0.148784 0)
(-0.0822393 -0.153135 0)
(-0.0883707 -0.153869 0)
(0.00103573 -0.0631021 0)
(0.00287689 -0.0828225 0)
(0.00432593 -0.084218 0)
(0.00475857 -0.0857752 0)
(0.00511801 -0.087028 0)
(0.00467554 -0.0885219 0)
(0.00440483 -0.089982 0)
(0.00467518 -0.0918281 0)
(0.00509298 -0.0945389 0)
(0.00666129 -0.0988399 0)
(0.00852858 -0.104421 0)
(0.010336 -0.111631 0)
(0.00833244 -0.119275 0)
(0.00536969 -0.128706 0)
(-0.00259494 -0.136882 0)
(-0.0139005 -0.140345 0)
(-0.028019 -0.146339 0)
(-0.0404142 -0.151142 0)
(-0.0514721 -0.150034 0)
(-0.0637874 -0.143797 0)
(-0.0713873 -0.141125 0)
(-0.0793753 -0.14809 0)
(-0.0847628 -0.15015 0)
(0.00112005 -0.065182 0)
(0.00217247 -0.0840105 0)
(0.00217118 -0.0842529 0)
(0.00239329 -0.0852755 0)
(0.00249947 -0.0864203 0)
(0.00263026 -0.0876445 0)
(0.00275223 -0.089485 0)
(0.00283806 -0.0914932 0)
(0.00284965 -0.0945179 0)
(0.00268841 -0.0987877 0)
(0.00169672 -0.103541 0)
(0.000583527 -0.108935 0)
(-0.00329173 -0.115388 0)
(-0.00844894 -0.12203 0)
(-0.0149369 -0.126769 0)
(-0.0222345 -0.131004 0)
(-0.0294212 -0.136864 0)
(-0.0392283 -0.140159 0)
(-0.0513622 -0.137781 0)
(-0.0598852 -0.133411 0)
(-0.0655942 -0.133443 0)
(-0.0732088 -0.139374 0)
(-0.0792626 -0.141218 0)
(0.000715828 -0.06652 0)
(0.00110507 -0.0840647 0)
(0.00132206 -0.0845849 0)
(0.00181743 -0.0857102 0)
(0.00199692 -0.0866172 0)
(0.00249389 -0.0876985 0)
(0.00279254 -0.0892726 0)
(0.00272262 -0.0910017 0)
(0.00243159 -0.0933579 0)
(0.00141569 -0.0969522 0)
(-0.00090909 -0.102227 0)
(-0.00321818 -0.107652 0)
(-0.00723168 -0.111122 0)
(-0.0126897 -0.116346 0)
(-0.0184503 -0.120914 0)
(-0.0252263 -0.125563 0)
(-0.0316153 -0.126753 0)
(-0.0416838 -0.12714 0)
(-0.0518205 -0.127646 0)
(-0.0599067 -0.12592 0)
(-0.0674198 -0.127158 0)
(-0.0745735 -0.132464 0)
(-0.0830058 -0.133917 0)
(0.000417757 -0.0670981 0)
(0.000615881 -0.0847016 0)
(0.00129487 -0.0852366 0)
(0.00149399 -0.0862818 0)
(0.00154945 -0.0871292 0)
(0.00153069 -0.088274 0)
(0.00140909 -0.0896112 0)
(0.00129654 -0.091355 0)
(0.00118164 -0.0937202 0)
(0.000558486 -0.0962859 0)
(-0.00177667 -0.0996581 0)
(-0.00468743 -0.103128 0)
(-0.00762651 -0.106466 0)
(-0.0122265 -0.110772 0)
(-0.0179554 -0.114794 0)
(-0.0251186 -0.118398 0)
(-0.0327921 -0.12051 0)
(-0.0399596 -0.120978 0)
(-0.0469543 -0.121641 0)
(-0.0535799 -0.119539 0)
(-0.0607311 -0.120475 0)
(-0.066579 -0.124746 0)
(-0.0774294 -0.125422 0)
(0.000390882 -0.0676794 0)
(0.000534243 -0.0846851 0)
(6.84605e-05 -0.0851137 0)
(-0.00022922 -0.0856574 0)
(-0.000671208 -0.0867056 0)
(-0.00117866 -0.088084 0)
(-0.00173139 -0.0895544 0)
(-0.00238858 -0.0911276 0)
(-0.00326805 -0.0925612 0)
(-0.00442991 -0.0942751 0)
(-0.00569827 -0.0964132 0)
(-0.00920289 -0.0993547 0)
(-0.0126055 -0.103455 0)
(-0.0162127 -0.105428 0)
(-0.0208156 -0.107972 0)
(-0.0267238 -0.109148 0)
(-0.0346842 -0.110493 0)
(-0.042463 -0.112549 0)
(-0.0491155 -0.111686 0)
(-0.0565753 -0.111105 0)
(-0.0636838 -0.111987 0)
(-0.0707281 -0.113153 0)
(-0.080049 -0.11126 0)
(0.000111307 -0.0678344 0)
(-0.000138123 -0.0845038 0)
(-0.000571937 -0.0848473 0)
(-0.000920912 -0.0855612 0)
(-0.00146183 -0.0862573 0)
(-0.00205682 -0.0870289 0)
(-0.00296475 -0.0882115 0)
(-0.00414529 -0.0897965 0)
(-0.00555452 -0.0917484 0)
(-0.00725514 -0.0929692 0)
(-0.00946202 -0.0950246 0)
(-0.0121573 -0.0980466 0)
(-0.016225 -0.0998519 0)
(-0.0206457 -0.102389 0)
(-0.0257237 -0.104335 0)
(-0.0306363 -0.105031 0)
(-0.0348274 -0.106437 0)
(-0.0402068 -0.107396 0)
(-0.0473959 -0.106795 0)
(-0.0539381 -0.106895 0)
(-0.0594752 -0.107133 0)
(-0.0693982 -0.107457 0)
(-0.0769779 -0.105132 0)
(0.000216567 -0.0682023 0)
(0.000167861 -0.0842754 0)
(-0.000309027 -0.0844415 0)
(-0.00074011 -0.0848579 0)
(-0.0013822 -0.0854185 0)
(-0.00222364 -0.0862655 0)
(-0.00315529 -0.0872055 0)
(-0.00432732 -0.0882875 0)
(-0.00591343 -0.089474 0)
(-0.00830146 -0.0913461 0)
(-0.0102708 -0.0927469 0)
(-0.0120605 -0.0937178 0)
(-0.0151901 -0.0952109 0)
(-0.0194479 -0.0971526 0)
(-0.0244757 -0.09835 0)
(-0.0293205 -0.099602 0)
(-0.0359277 -0.100243 0)
(-0.0427028 -0.0986587 0)
(-0.0490535 -0.0992765 0)
(-0.0538984 -0.0983888 0)
(-0.0611485 -0.0981348 0)
(-0.0687387 -0.0962877 0)
(-0.0760401 -0.0961319 0)
(-9.24726e-05 -0.0677455 0)
(-0.000691317 -0.0835824 0)
(-0.00139543 -0.0838656 0)
(-0.00202577 -0.0843113 0)
(-0.00283247 -0.0848252 0)
(-0.00384325 -0.0854874 0)
(-0.00502383 -0.0862882 0)
(-0.0064638 -0.08721 0)
(-0.00817434 -0.0880459 0)
(-0.0100693 -0.0885595 0)
(-0.0124285 -0.0895488 0)
(-0.0159333 -0.0910465 0)
(-0.0191484 -0.0920035 0)
(-0.0222619 -0.0921557 0)
(-0.0266525 -0.0930578 0)
(-0.0321871 -0.094363 0)
(-0.036764 -0.0938498 0)
(-0.0412527 -0.095024 0)
(-0.0454364 -0.0947472 0)
(-0.0526897 -0.0934943 0)
(-0.0590329 -0.0908742 0)
(-0.0666402 -0.0903383 0)
(-0.0729625 -0.0893411 0)
(-8.02543e-05 -0.067802 0)
(-0.000530208 -0.0832631 0)
(-0.00128164 -0.0834574 0)
(-0.0019271 -0.0837283 0)
(-0.00272655 -0.0840186 0)
(-0.00357623 -0.0842727 0)
(-0.00472369 -0.0847585 0)
(-0.00615496 -0.0853394 0)
(-0.00782428 -0.0860024 0)
(-0.00966428 -0.0867445 0)
(-0.0122292 -0.087523 0)
(-0.0153332 -0.087967 0)
(-0.0187301 -0.0890058 0)
(-0.0229554 -0.0894263 0)
(-0.0260591 -0.0901996 0)
(-0.0291862 -0.0896967 0)
(-0.0345514 -0.0896788 0)
(-0.0401607 -0.0886477 0)
(-0.0468717 -0.0868162 0)
(-0.0531348 -0.0862769 0)
(-0.0580375 -0.0863944 0)
(-0.0638766 -0.0840668 0)
(-0.0713416 -0.080773 0)
(-0.000166443 -0.067067 0)
(-0.000771892 -0.0821778 0)
(-0.00164185 -0.082353 0)
(-0.00249977 -0.0825365 0)
(-0.00360244 -0.0828168 0)
(-0.00478572 -0.0832142 0)
(-0.00614575 -0.0836214 0)
(-0.00776611 -0.0840051 0)
(-0.00967401 -0.0844333 0)
(-0.011795 -0.0847431 0)
(-0.0138431 -0.0845503 0)
(-0.0155931 -0.0848607 0)
(-0.0184909 -0.0850125 0)
(-0.0217627 -0.0853963 0)
(-0.026397 -0.0847665 0)
(-0.0318421 -0.084897 0)
(-0.0365105 -0.0844384 0)
(-0.0408557 -0.0832209 0)
(-0.0447925 -0.0836989 0)
(-0.0487812 -0.0821954 0)
(-0.0557431 -0.0784959 0)
(-0.0627056 -0.0766551 0)
(-0.0681185 -0.0752005 0)
(-0.00018939 -0.0669739 0)
(-0.000732504 -0.0818722 0)
(-0.00149777 -0.0819952 0)
(-0.00216249 -0.0820016 0)
(-0.00298087 -0.0819656 0)
(-0.00399055 -0.0819741 0)
(-0.00521034 -0.0820081 0)
(-0.00665287 -0.0820733 0)
(-0.0083706 -0.0821508 0)
(-0.0105089 -0.0823169 0)
(-0.0132756 -0.0826091 0)
(-0.0167586 -0.0824263 0)
(-0.0199187 -0.0821366 0)
(-0.0231873 -0.0816685 0)
(-0.0262765 -0.0817305 0)
(-0.0290646 -0.0816727 0)
(-0.0326666 -0.0807611 0)
(-0.0375665 -0.0797085 0)
(-0.0431397 -0.0765397 0)
(-0.0494423 -0.0747972 0)
(-0.0541468 -0.0742588 0)
(-0.059297 -0.0716736 0)
(-0.065493 -0.0682721 0)
(-0.000249458 -0.0661251 0)
(-0.000923251 -0.0807349 0)
(-0.00184229 -0.0808817 0)
(-0.0027174 -0.0808666 0)
(-0.00377348 -0.0808598 0)
(-0.00495305 -0.0808323 0)
(-0.00631182 -0.0807276 0)
(-0.00786104 -0.080544 0)
(-0.00960174 -0.0802844 0)
(-0.0115002 -0.0799218 0)
(-0.0134319 -0.0794521 0)
(-0.0152759 -0.0791725 0)
(-0.0177784 -0.0789891 0)
(-0.0208085 -0.0785336 0)
(-0.0243592 -0.0775193 0)
(-0.0288804 -0.0761639 0)
(-0.0337025 -0.0750071 0)
(-0.0380382 -0.073552 0)
(-0.0421193 -0.0731579 0)
(-0.0459858 -0.0713344 0)
(-0.0512585 -0.0681772 0)
(-0.0570501 -0.0656155 0)
(-0.0622919 -0.0628135 0)
(-0.000209904 -0.0659439 0)
(-0.000653488 -0.0803684 0)
(-0.00135266 -0.0804424 0)
(-0.00198213 -0.0802457 0)
(-0.00283454 -0.0800015 0)
(-0.00385921 -0.0797194 0)
(-0.00512458 -0.0794154 0)
(-0.00664533 -0.0791046 0)
(-0.00843118 -0.0787845 0)
(-0.010499 -0.0784611 0)
(-0.0129242 -0.0780933 0)
(-0.0157513 -0.0773125 0)
(-0.0186594 -0.0764045 0)
(-0.0216966 -0.0755802 0)
(-0.0248562 -0.0747114 0)
(-0.027934 -0.073819 0)
(-0.0311601 -0.0725298 0)
(-0.0349981 -0.0705847 0)
(-0.0394751 -0.0678871 0)
(-0.0443638 -0.0655735 0)
(-0.0489836 -0.0635249 0)
(-0.0538475 -0.0606658 0)
(-0.0590321 -0.0572951 0)
(-0.000204806 -0.0652051 0)
(-0.000730246 -0.0794306 0)
(-0.00150317 -0.0794818 0)
(-0.00220764 -0.0791593 0)
(-0.0031108 -0.0787652 0)
(-0.00412777 -0.078267 0)
(-0.0053116 -0.0776725 0)
(-0.00668427 -0.0770077 0)
(-0.00825983 -0.07628 0)
(-0.0100502 -0.0754892 0)
(-0.0120694 -0.0746878 0)
(-0.0142657 -0.0740339 0)
(-0.0167048 -0.0732075 0)
(-0.0194585 -0.0720921 0)
(-0.0225535 -0.0708089 0)
(-0.0260509 -0.0692574 0)
(-0.0298888 -0.0675346 0)
(-0.0338058 -0.0658089 0)
(-0.0376606 -0.0639899 0)
(-0.0416107 -0.0616005 0)
(-0.0459969 -0.0587156 0)
(-0.0507665 -0.0557028 0)
(-0.0555573 -0.0522997 0)
(-9.46194e-05 -0.0650893 0)
(-0.000408994 -0.0791825 0)
(-0.00104653 -0.0791987 0)
(-0.00157221 -0.0787848 0)
(-0.00232743 -0.0782942 0)
(-0.00320112 -0.0776987 0)
(-0.00427512 -0.0770252 0)
(-0.00557821 -0.0762834 0)
(-0.00713019 -0.0754707 0)
(-0.00894024 -0.0745621 0)
(-0.0109767 -0.0734725 0)
(-0.0133093 -0.0722241 0)
(-0.0158938 -0.0709615 0)
(-0.0186379 -0.0696516 0)
(-0.0215319 -0.068165 0)
(-0.0245788 -0.066527 0)
(-0.0277812 -0.0646649 0)
(-0.0312353 -0.062441 0)
(-0.0350033 -0.0599103 0)
(-0.0389708 -0.057233 0)
(-0.0430495 -0.0543824 0)
(-0.0473847 -0.0511718 0)
(-0.0519018 -0.0475691 0)
(-1.30101e-05 -0.0647546 0)
(-0.000307354 -0.0783963 0)
(-0.000949592 -0.0783562 0)
(-0.0014332 -0.0777836 0)
(-0.002138 -0.0771337 0)
(-0.0029075 -0.0763483 0)
(-0.00376865 -0.0753938 0)
(-0.00474271 -0.0742943 0)
(-0.00592092 -0.0731018 0)
(-0.00740638 -0.071884 0)
(-0.0092621 -0.0707141 0)
(-0.0114278 -0.0695373 0)
(-0.0138595 -0.0682218 0)
(-0.0165373 -0.0666815 0)
(-0.0194173 -0.0649815 0)
(-0.0224614 -0.0630865 0)
(-0.0256648 -0.0610059 0)
(-0.0289992 -0.0587527 0)
(-0.0324429 -0.0562482 0)
(-0.0360347 -0.0534261 0)
(-0.0398209 -0.0502977 0)
(-0.0438612 -0.0469027 0)
(-0.0480762 -0.0431581 0)
(0.000213763 -0.0648398 0)
(-0.000105666 -0.0782243 0)
(-0.000873983 -0.0781619 0)
(-0.00135639 -0.0775352 0)
(-0.00207555 -0.0768262 0)
(-0.00280862 -0.0759772 0)
(-0.00356087 -0.074923 0)
(-0.00438603 -0.0737106 0)
(-0.00534999 -0.0723248 0)
(-0.00646749 -0.0707376 0)
(-0.00781384 -0.0690067 0)
(-0.00947986 -0.0672025 0)
(-0.0115153 -0.0654229 0)
(-0.014009 -0.0637655 0)
(-0.0168364 -0.0620569 0)
(-0.0199041 -0.0602089 0)
(-0.023034 -0.0580434 0)
(-0.0262473 -0.0555673 0)
(-0.0295321 -0.0528085 0)
(-0.032922 -0.0498049 0)
(-0.036435 -0.046527 0)
(-0.040148 -0.042944 0)
(-0.0440643 -0.0390293 0)
(0.000358791 -0.0647148 0)
(-0.000109674 -0.0771961 0)
(-0.00129624 -0.077098 0)
(-0.00197099 -0.0764521 0)
(-0.00288185 -0.0756849 0)
(-0.00371174 -0.0747953 0)
(-0.00460693 -0.0738236 0)
(-0.00550885 -0.072634 0)
(-0.00641999 -0.071187 0)
(-0.00737255 -0.0695154 0)
(-0.00840086 -0.0676708 0)
(-0.00958521 -0.0657076 0)
(-0.010999 -0.0636375 0)
(-0.012639 -0.0613796 0)
(-0.014591 -0.0590544 0)
(-0.0169127 -0.0567193 0)
(-0.019743 -0.0545045 0)
(-0.0229827 -0.0522267 0)
(-0.0262845 -0.0495895 0)
(-0.0295297 -0.0465107 0)
(-0.0328255 -0.0430578 0)
(-0.0362452 -0.0392898 0)
(-0.0398685 -0.0351965 0)
(0.000404845 -0.0648595 0)
(-0.000532636 -0.0762153 0)
(-0.00246618 -0.076095 0)
(-0.0036428 -0.0755701 0)
(-0.00501537 -0.0748716 0)
(-0.00618624 -0.074049 0)
(-0.0073303 -0.0730679 0)
(-0.00838415 -0.0718895 0)
(-0.0093372 -0.0704794 0)
(-0.0101777 -0.0688258 0)
(-0.0109444 -0.0669035 0)
(-0.0117274 -0.0647699 0)
(-0.0126238 -0.0624888 0)
(-0.0136366 -0.0600323 0)
(-0.0148021 -0.0575258 0)
(-0.0162134 -0.0548623 0)
(-0.017902 -0.051982 0)
(-0.0198724 -0.0489606 0)
(-0.0224507 -0.0460956 0)
(-0.025536 -0.043138 0)
(-0.028858 -0.0398071 0)
(-0.0320741 -0.0359537 0)
(-0.0354482 -0.0316719 0)
(0.000323738 -0.0648971 0)
(-0.00143492 -0.0745818 0)
(-0.00434262 -0.074458 0)
(-0.00635189 -0.0741237 0)
(-0.00850733 -0.0735743 0)
(-0.0103151 -0.0728118 0)
(-0.012015 -0.0719208 0)
(-0.0134915 -0.0708798 0)
(-0.014765 -0.0696709 0)
(-0.0157415 -0.0682355 0)
(-0.0163867 -0.0664907 0)
(-0.0167207 -0.0643952 0)
(-0.016867 -0.0620034 0)
(-0.0170307 -0.059447 0)
(-0.0173334 -0.0566577 0)
(-0.0178473 -0.0537557 0)
(-0.0186283 -0.050719 0)
(-0.0195139 -0.0475071 0)
(-0.0206382 -0.0439326 0)
(-0.0221481 -0.0401817 0)
(-0.0244032 -0.0364461 0)
(-0.0273759 -0.0325986 0)
(-0.0307228 -0.0282872 0)
(5.56336e-05 -0.0645136 0)
(-0.00256261 -0.0722139 0)
(-0.00633509 -0.072139 0)
(-0.00921805 -0.0720149 0)
(-0.0121915 -0.0716632 0)
(-0.0147845 -0.0711195 0)
(-0.0171249 -0.070418 0)
(-0.0191956 -0.0695437 0)
(-0.021053 -0.068451 0)
(-0.0225858 -0.067264 0)
(-0.0237667 -0.0658822 0)
(-0.0244927 -0.0642054 0)
(-0.024707 -0.0621853 0)
(-0.0244374 -0.0598123 0)
(-0.0237512 -0.0570415 0)
(-0.0227819 -0.0538894 0)
(-0.021781 -0.0504299 0)
(-0.0213269 -0.0468054 0)
(-0.0213156 -0.0430778 0)
(-0.0217156 -0.0390741 0)
(-0.022162 -0.0345495 0)
(-0.0232144 -0.0296597 0)
(-0.0257381 -0.0248714 0)
(-0.000373479 -0.0625304 0)
(-0.00336015 -0.068251 0)
(-0.00740869 -0.0682733 0)
(-0.0107 -0.0683297 0)
(-0.0140606 -0.0682394 0)
(-0.0171352 -0.0680524 0)
(-0.0198903 -0.0676759 0)
(-0.0223331 -0.0671636 0)
(-0.0242871 -0.0665638 0)
(-0.0259567 -0.0657152 0)
(-0.0273222 -0.0646591 0)
(-0.0283708 -0.0633478 0)
(-0.0290898 -0.061742 0)
(-0.0294459 -0.0598761 0)
(-0.0294191 -0.0576917 0)
(-0.0289678 -0.0550871 0)
(-0.0280407 -0.0519858 0)
(-0.0265315 -0.0482871 0)
(-0.0247483 -0.0440083 0)
(-0.0231414 -0.0392109 0)
(-0.0222319 -0.0340989 0)
(-0.0221315 -0.0287912 0)
(-0.0222449 -0.023082 0)
(-0.000664394 -0.0591484 0)
(-0.00359862 -0.0629022 0)
(-0.00721291 -0.0630479 0)
(-0.0103247 -0.0632389 0)
(-0.0135258 -0.0633345 0)
(-0.0165376 -0.0633955 0)
(-0.0193848 -0.063399 0)
(-0.0219882 -0.0633188 0)
(-0.0243681 -0.063111 0)
(-0.026435 -0.0627701 0)
(-0.0281461 -0.0622708 0)
(-0.0294827 -0.0615937 0)
(-0.0303939 -0.0606627 0)
(-0.0308821 -0.0593972 0)
(-0.0309972 -0.0577663 0)
(-0.0307637 -0.0557235 0)
(-0.0301601 -0.0532105 0)
(-0.029184 -0.0501371 0)
(-0.0278438 -0.0464199 0)
(-0.0261696 -0.0420077 0)
(-0.0241751 -0.0367154 0)
(-0.0221389 -0.0304258 0)
(-0.0205121 -0.023552 0)
(-0.000786183 -0.0569414 0)
(-0.00370815 -0.0594655 0)
(-0.00720972 -0.0596173 0)
(-0.0102544 -0.0598781 0)
(-0.0134232 -0.0601071 0)
(-0.0164034 -0.0603471 0)
(-0.0192314 -0.0605636 0)
(-0.0218492 -0.0607383 0)
(-0.0242237 -0.0608435 0)
(-0.0263171 -0.0608431 0)
(-0.0281026 -0.0607019 0)
(-0.0295624 -0.0603802 0)
(-0.0306567 -0.059834 0)
(-0.0313023 -0.0590104 0)
(-0.0314463 -0.0578301 0)
(-0.0311323 -0.0562305 0)
(-0.0304146 -0.054149 0)
(-0.0293353 -0.0514909 0)
(-0.0279381 -0.0481546 0)
(-0.0262922 -0.0440494 0)
(-0.0244666 -0.03907 0)
(-0.0225308 -0.0330672 0)
(-0.0204334 -0.0259679 0)
)
;

boundaryField
{
    leftWall
    {
        type            fixedValue;
        value           uniform (0 0 0);
    }
    rightWall
    {
        type            fixedValue;
        value           nonuniform 0();
    }
    lowerWall
    {
        type            fixedValue;
        value           nonuniform 0();
    }
    atmosphere
    {
        type            fluxCorrectedVelocity;
        value           nonuniform List<vector> 
23
(
(-0.000786183 -0.0569156 0)
(-0.00370815 -0.0594236 0)
(-0.00720972 -0.0595747 0)
(-0.0102544 -0.0598362 0)
(-0.0134232 -0.0600672 0)
(-0.0164034 -0.0603102 0)
(-0.0192314 -0.0605306 0)
(-0.0218492 -0.0607098 0)
(-0.0242237 -0.0608197 0)
(-0.0263171 -0.0608244 0)
(-0.0281026 -0.0606884 0)
(-0.0295624 -0.0603717 0)
(-0.0306567 -0.05983 0)
(-0.0313023 -0.0590097 0)
(-0.0314463 -0.0578314 0)
(-0.0311323 -0.0562331 0)
(-0.0304146 -0.0541535 0)
(-0.0293353 -0.0514977 0)
(-0.0279381 -0.0481642 0)
(-0.0262922 -0.0440617 0)
(-0.0244666 -0.0390838 0)
(-0.0225308 -0.0330812 0)
(-0.0204334 -0.0259802 0)
)
;
    }
    defaultFaces
    {
        type            empty;
    }
    procBoundary2to0
    {
        type            processor;
        value           nonuniform List<vector> 
24
(
(-0.012222 -0.180604 0)
(-0.0289878 -0.184025 0)
(-0.0439005 -0.17737 0)
(-0.0546083 -0.16746 0)
(-0.0705638 -0.165609 0)
(-0.0820177 -0.16639 0)
(-0.0886963 -0.162586 0)
(0.00139621 -0.0615216 0)
(0.00310365 -0.0813944 0)
(0.00459453 -0.0829989 0)
(0.00577832 -0.0847665 0)
(0.00639896 -0.0864923 0)
(0.00706204 -0.0879419 0)
(0.00821606 -0.0892928 0)
(0.0102665 -0.0906285 0)
(0.0127953 -0.0927562 0)
(0.0167125 -0.0946411 0)
(0.0232573 -0.100576 0)
(0.0274482 -0.110622 0)
(0.0271237 -0.121855 0)
(0.0223329 -0.132164 0)
(0.0133241 -0.145676 0)
(0.00172537 -0.155318 0)
(0.00172537 -0.155318 0)
)
;
    }
    procBoundary2to3
    {
        type            processor;
        value           nonuniform List<vector> 
25
(
(-0.0928211 -0.151414 0)
(-0.0912723 -0.148229 0)
(-0.085296 -0.136931 0)
(-0.0900919 -0.127811 0)
(-0.0859913 -0.120573 0)
(-0.0870472 -0.108128 0)
(-0.0828071 -0.102696 0)
(-0.0811621 -0.0953048 0)
(-0.0789084 -0.0862587 0)
(-0.0756399 -0.080588 0)
(-0.0728605 -0.0726377 0)
(-0.069619 -0.0666056 0)
(-0.0662537 -0.0603175 0)
(-0.0627186 -0.0547788 0)
(-0.059031 -0.0495309 0)
(-0.0551753 -0.044678 0)
(-0.0511589 -0.0401407 0)
(-0.0469615 -0.0358967 0)
(-0.0425831 -0.031936 0)
(-0.0379782 -0.0282596 0)
(-0.0330788 -0.024783 0)
(-0.0279373 -0.0214576 0)
(-0.0230543 -0.0188254 0)
(-0.0203258 -0.0184199 0)
(-0.0195084 -0.0203891 0)
)
;
    }
}


// ************************************************************************* //
