/*--------------------------------*- C++ -*----------------------------------*\
| =========                 |                                                 |
| \\      /  F ield         | OpenFOAM: The Open Source CFD Toolbox           |
|  \\    /   O peration     | Version:  2.4.0                                 |
|   \\  /    A nd           | Web:      www.OpenFOAM.org                      |
|    \\/     M anipulation  |                                                 |
\*---------------------------------------------------------------------------*/
FoamFile
{
    version     2.0;
    format      ascii;
    class       volScalarField;
    location    "0.65";
    object      alpha.mercury;
}
// * * * * * * * * * * * * * * * * * * * * * * * * * * * * * * * * * * * * * //

dimensions      [0 0 0 0 0 0 0];

internalField   nonuniform List<scalar> 
2268
(
1
1
1
1
1
1
1
1
1
1
1
1
1
1
1
1
1
1
1
1
1
0.999998
0.99999
0.999997
0.999996
0.999998
0.999996
0.999995
0.999997
0.999998
0.999998
0.999998
0.999999
1
1
1
1
1
1
1
1
1
1
1
0.999998
0.999987
0.995018
0.994637
0.995725
0.994479
0.994056
0.995145
0.995644
0.99649
0.997151
0.998855
0.99986
0.999984
0.999997
0.999999
0.999999
1
1
1
1
1
1
0.999999
0.999988
0.696668
0.692524
0.700833
0.687365
0.676622
0.681136
0.686954
0.701059
0.726758
0.787032
0.890412
0.980676
0.999156
0.999975
0.999998
0.999999
1
1
1
1
1
0.999999
0.999988
0.0142889
0.0133853
0.0140962
0.0122988
0.0108655
0.0100153
0.00888594
0.00933617
0.0103383
0.01483
0.0381634
0.208594
0.549196
0.927378
0.997848
0.999922
0.999994
0.999999
0.999999
0.999999
0.999999
0.999999
0.999988
5.63009e-06
5.56623e-06
5.52828e-06
5.21368e-06
5.12648e-06
5.12328e-06
5.15225e-06
5.18046e-06
5.20467e-06
5.23498e-06
1.82014e-05
0.00185945
0.0349238
0.383175
0.948689
0.998938
0.999929
0.999986
0.999994
0.999994
0.999997
0.999997
0.999986
6.63503e-06
6.5106e-06
6.34917e-06
6.31721e-06
5.75932e-06
5.12442e-06
5.29527e-06
5.33275e-06
5.3511e-06
5.47791e-06
5.72269e-06
5.77823e-06
0.000318523
0.0563365
0.65347
0.987788
0.999528
0.99988
0.999928
0.999975
0.999994
0.999995
0.999984
8.05828e-06
7.68698e-06
7.05761e-06
6.9228e-06
5.72195e-06
4.77715e-06
5.1134e-06
5.1979e-06
5.08307e-06
5.38905e-06
6.06026e-06
6.34083e-06
3.56234e-05
0.013768
0.305576
0.896485
0.998208
0.99997
0.99997
0.999973
0.999071
0.997719
0.999795
0.615051
0.69229
0.698511
0.700199
0.701714
0.702354
0.702687
0.703413
0.704846
0.706013
0.706699
0.706702
0.707313
0.708163
0.709097
0.709599
0.709876
0.710078
0.710213
0.186517
0.273431
0.591681
0.693695
0.698339
0.701257
0.695316
0.65518
0.584637
0.540344
0.536035
0.550488
0.582091
0.609058
0.635833
0.685718
0.710127
0.711005
0.711268
0.060787
0.218757
0.453613
0.573533
0.57124
0.548663
0.479812
0.397463
0.330102
0.299695
0.27804
0.266577
0.268762
0.274526
0.259469
0.327594
0.637656
0.712052
0.712327
0.0747442
0.320749
0.432563
0.354692
0.260032
0.208751
0.153218
0.109717
0.105122
0.10854
0.116925
0.113842
0.0926791
0.0925514
0.077283
0.0650739
0.430101
0.712543
0.712397
0.212419
0.402482
0.379022
0.185811
0.0728939
0.0440161
0.0227738
0.00396529
0.00203556
0.00396731
0.0251972
0.0405394
0.043229
0.0496721
0.046194
0.034144
0.20212
0.667959
0.619319
0.407621
0.416538
0.269228
0.0824881
0.0561874
0.0117653
0.00332719
0.000316731
6.45198e-05
6.44242e-05
0.000282456
0.0182688
0.0372796
0.0369007
0.0346547
0.0334769
0.0718284
0.425492
0.380359
0.451076
0.415526
0.154953
0.0353626
0.00915067
0.0111472
0.00147303
0.000224571
8.80001e-05
6.43452e-05
6.32928e-05
0.00152526
0.0213614
0.0253134
0.0274555
0.0325656
0.034598
0.145117
0.271056
0.416716
0.267463
0.0912191
0.0111385
0.00104016
0.000223796
0.000359377
0.000155401
0.000126553
8.58713e-05
6.32941e-05
0.000112202
0.00131865
0.00757165
0.024447
0.0331273
0.0324572
0.052797
0.229928
4.40185e-06
3.98408e-06
3.43054e-06
3.28902e-06
2.92121e-06
1.95911e-06
2.17283e-06
2.11615e-06
2.19931e-06
2.61888e-06
3.80637e-06
5.0403e-06
7.47347e-06
0.00111484
0.0466408
0.313001
0.757173
0.93858
0.918816
0.843899
0.771027
0.746098
0.793809
5.83515e-07
5.3755e-07
4.87753e-07
3.96372e-07
3.0276e-07
1.7253e-07
1.68973e-07
1.85661e-07
2.33481e-07
3.12356e-07
4.97329e-07
7.27713e-07
2.07756e-06
7.45356e-05
0.00100147
0.0155956
0.0666959
0.137436
0.205193
0.183883
0.127047
0.104916
0.110295
8.7388e-08
6.97832e-08
4.46913e-08
2.63442e-08
1.6907e-08
6.49937e-09
6.25001e-09
7.34303e-09
1.11425e-08
1.70326e-08
2.58304e-08
3.4308e-08
1.02613e-07
3.22439e-06
7.6564e-05
0.000161739
0.00112619
0.0026677
0.00222038
0.0016319
0.000883747
0.00046272
0.000260232
5.36903e-09
3.22741e-09
1.34989e-09
6.17427e-10
3.87778e-10
1.26024e-10
1.17297e-10
1.64219e-10
3.0673e-10
4.6889e-10
6.75086e-10
9.23712e-10
2.08148e-09
8.1304e-09
3.17062e-07
8.55131e-06
6.59842e-05
8.18284e-05
5.75972e-05
2.85439e-05
1.6088e-05
1.22118e-05
1.03793e-05
1.49799e-10
5.49405e-11
1.48525e-11
5.10443e-12
2.58772e-12
2.43313e-12
3.80113e-12
8.74675e-12
1.92249e-11
3.17874e-11
3.00349e-11
1.69341e-11
1.76631e-11
3.58431e-11
9.92707e-11
6.46613e-09
6.20897e-08
7.15747e-08
1.69581e-07
3.79161e-07
8.26185e-07
1.34764e-06
1.40835e-06
1.46509e-12
1.14386e-11
3.93007e-12
1.22396e-12
7.2193e-13
4.13514e-13
5.42205e-13
6.87655e-13
1.04587e-12
1.56426e-12
2.04418e-12
2.53513e-12
3.22683e-12
4.30073e-12
5.58205e-12
7.5468e-12
1.19966e-11
8.03762e-11
4.76189e-10
2.51748e-09
9.7564e-09
1.64284e-08
9.52386e-09
7.44957e-13
3.85732e-12
2.76693e-12
7.05885e-13
3.44758e-13
8.70257e-14
3.61689e-14
2.58937e-14
1.51791e-13
1.0004e-12
1.52155e-12
1.77072e-12
1.9707e-12
3.05933e-12
4.8009e-12
8.04763e-12
1.47656e-11
1.06767e-11
4.54295e-12
8.05417e-13
8.66799e-13
1.68735e-12
3.6799e-12
4.42842e-13
1.16033e-12
1.23954e-12
3.71838e-13
1.225e-13
3.18218e-14
7.64344e-15
1.34413e-14
2.03512e-13
4.10844e-13
5.2482e-13
2.74868e-14
3.39331e-14
1.30805e-13
4.91963e-13
1.17937e-12
1.84904e-12
1.14846e-12
1.3694e-12
4.61313e-13
2.5377e-13
1.79525e-13
4.17686e-13
1.72993e-13
2.30161e-13
1.48945e-13
7.97026e-14
1.15604e-14
1.56679e-15
1.11729e-15
1.37901e-14
1.32382e-13
1.27708e-13
4.67336e-14
1.3554e-14
2.46322e-14
3.42537e-14
7.28539e-15
3.60287e-15
2.2418e-15
1.71912e-15
2.0814e-15
3.28945e-15
5.88123e-15
1.27479e-14
9.65226e-14
6.54017e-14
2.78109e-14
4.22521e-15
1.90377e-15
4.50562e-17
8.12292e-17
1.0033e-15
1.54824e-14
6.69785e-14
5.16306e-14
1.97651e-14
7.58568e-15
2.11243e-15
3.76574e-16
5.81415e-17
1.55022e-17
2.78801e-17
6.94883e-17
2.18077e-16
4.67029e-16
1.2128e-15
9.97003e-15
1.29203e-13
1.873e-14
3.98437e-15
3.36047e-16
2.21462e-17
1.38606e-18
1.92614e-17
6.57867e-16
1.12558e-14
2.61889e-14
1.85171e-14
7.59552e-15
2.45263e-15
5.33248e-16
7.10566e-17
7.1974e-18
6.86299e-18
2.96288e-17
1.11154e-16
3.2725e-16
8.09389e-16
2.183e-15
1.02765e-14
9.9401e-14
3.64782e-15
5.00979e-16
3.04388e-17
1.06563e-18
2.3785e-20
9.21742e-19
1.02012e-16
1.89297e-15
5.81139e-15
3.82942e-15
1.4081e-15
3.07895e-16
5.27098e-17
7.47565e-18
2.08527e-18
1.08299e-17
5.94652e-17
2.49247e-16
8.71681e-16
3.0755e-15
1.28694e-14
6.28748e-14
3.42141e-13
4.45376e-16
4.41909e-17
2.26175e-18
7.82584e-20
1.94931e-21
3.65437e-23
7.19207e-19
4.50591e-17
4.11253e-16
4.55605e-16
1.56052e-16
1.74812e-17
9.25355e-19
2.63929e-19
2.48757e-18
1.80319e-17
9.38287e-17
4.06077e-16
1.58155e-15
6.07091e-15
2.4685e-14
1.06542e-13
4.74051e-13
3.43198e-17
2.44541e-18
9.31734e-20
2.28147e-21
3.439e-23
2.71173e-25
3.18197e-21
6.43259e-19
1.10481e-17
2.75916e-17
9.414e-18
5.8112e-19
2.89027e-20
2.68983e-19
2.73368e-18
1.83409e-17
8.64822e-17
3.41011e-16
1.23566e-15
4.33354e-15
1.57478e-14
6.17424e-14
2.61353e-13
1.73099e-18
8.5108e-20
2.44207e-21
4.51612e-23
5.10029e-25
4.01976e-27
1.6089e-23
6.88887e-21
1.87628e-19
8.85639e-19
3.03827e-19
1.46501e-20
1.6874e-20
1.46836e-19
1.14415e-18
6.75853e-18
2.95125e-17
1.15822e-16
4.31331e-16
1.55875e-15
5.66853e-15
2.19496e-14
9.2096e-14
6.16962e-20
2.01141e-21
4.45616e-23
6.51531e-25
5.97338e-27
4.4031e-28
8.69521e-26
5.79256e-23
2.23911e-21
1.76695e-20
5.92838e-21
9.62054e-22
5.49792e-21
3.2194e-20
1.52175e-19
6.86039e-19
3.31144e-18
1.45105e-17
6.21945e-17
2.57042e-16
1.02337e-15
4.34296e-15
2.0106e-14
1.63781e-21
3.52959e-23
6.2649e-25
7.54814e-27
6.59551e-29
1.36855e-28
2.22601e-27
4.1172e-25
2.02578e-23
2.35629e-22
9.66637e-23
1.70115e-22
8.96638e-22
4.21695e-21
1.6533e-20
6.13262e-20
2.89242e-19
1.37892e-18
6.18059e-18
2.75152e-17
1.16315e-16
5.42893e-16
2.93241e-15
3.41043e-23
4.82677e-25
7.00868e-27
7.20419e-29
1.8846e-30
2.56036e-29
3.71087e-28
6.66648e-27
1.87302e-25
2.58634e-24
4.07206e-24
2.0037e-23
9.40681e-23
3.88467e-22
1.36896e-21
5.73674e-21
2.67649e-20
1.11356e-19
4.65063e-19
2.07037e-18
9.26978e-18
5.03978e-17
3.50768e-16
5.75709e-25
5.3145e-27
6.35753e-29
5.6898e-31
1.56962e-31
3.12616e-30
4.84778e-29
6.03135e-28
6.564e-27
5.89193e-26
2.92525e-25
1.59281e-24
8.18305e-24
3.91834e-23
2.12417e-22
1.12206e-21
4.67363e-21
1.68505e-20
5.63294e-20
1.90462e-19
7.76091e-19
5.01662e-18
4.68884e-17
8.04351e-27
4.83048e-29
4.74417e-31
4.22524e-33
1.5836e-32
3.15654e-31
4.62424e-30
5.29579e-29
4.8863e-28
3.70807e-27
2.43889e-26
1.55429e-25
9.89419e-25
6.19071e-24
3.41408e-23
1.58441e-22
6.43377e-22
2.32617e-21
7.3458e-21
2.15875e-20
7.72666e-20
5.6066e-19
6.57218e-18
9.45846e-29
3.70012e-31
3.00674e-33
5.98902e-35
1.03202e-33
1.97382e-32
2.88929e-31
3.4518e-30
3.43884e-29
2.96238e-28
2.30812e-27
1.70824e-26
1.25902e-25
8.23244e-25
4.58067e-24
2.20697e-23
9.5378e-23
3.52091e-22
1.09985e-21
3.14871e-21
1.123e-20
9.28855e-20
1.24496e-18
9.55632e-31
2.45333e-33
1.6469e-35
2.09256e-36
5.18611e-35
1.01793e-33
1.59374e-32
2.07184e-31
2.29767e-30
2.27943e-29
1.99812e-28
1.59483e-27
1.19184e-26
8.03604e-26
4.67843e-25
2.38307e-24
1.04621e-23
3.91954e-23
1.28794e-22
3.86989e-22
1.29501e-21
9.59432e-21
1.43869e-19
8.40093e-33
1.43335e-35
7.9578e-38
8.73817e-38
2.35376e-36
4.84968e-35
8.02984e-34
1.10722e-32
1.32373e-31
1.44231e-30
1.44153e-29
1.27428e-28
9.961e-28
6.9682e-27
4.31184e-26
2.36235e-25
1.09462e-24
4.3887e-24
1.5717e-23
5.08222e-23
1.73148e-22
1.13443e-21
1.63324e-20
6.48153e-35
7.42257e-38
4.17694e-40
3.76898e-39
1.05501e-37
2.2934e-36
4.06861e-35
6.12223e-34
8.1776e-33
9.85896e-32
1.06039e-30
9.85884e-30
8.06614e-29
5.71435e-28
3.56579e-27
1.96511e-26
9.5393e-26
4.20081e-25
1.64814e-24
5.82455e-24
2.04528e-23
1.09362e-22
1.35789e-21
4.43333e-37
3.56175e-40
4.26499e-42
1.23529e-40
3.60813e-39
8.30552e-38
1.58125e-36
2.58497e-35
3.75883e-34
4.782e-33
5.30275e-32
5.1981e-31
4.57973e-30
3.55413e-29
2.45958e-28
1.50745e-27
8.25348e-27
3.97789e-26
1.68397e-25
6.5288e-25
2.47431e-24
1.19712e-23
1.15736e-22
2.6979e-39
1.49499e-42
8.44442e-44
3.42341e-42
1.07143e-40
2.66429e-39
5.49726e-38
9.77408e-37
1.53627e-35
2.11184e-34
2.55999e-33
2.7468e-32
2.60312e-31
2.20125e-30
1.63066e-29
1.0629e-28
6.1983e-28
3.20644e-27
1.51374e-26
6.65791e-26
2.95393e-25
1.62832e-24
1.37958e-23
1.47599e-41
5.9369e-45
1.79176e-45
8.03561e-44
2.69436e-42
7.2256e-41
1.61301e-39
3.11164e-38
5.27508e-37
7.88318e-36
1.04632e-34
1.21618e-33
1.23524e-32
1.1215e-31
8.96869e-31
6.46774e-30
4.21553e-29
2.46491e-28
1.31055e-27
6.73977e-27
3.94681e-26
3.05042e-25
2.88966e-24
7.27889e-44
2.18357e-47
3.37846e-47
1.62926e-45
5.88641e-44
1.71059e-42
4.16118e-41
8.75028e-40
1.60604e-38
2.59202e-37
3.7205e-36
4.71372e-35
5.31158e-34
5.36952e-33
4.81096e-32
3.79643e-31
2.67834e-30
1.7185e-29
1.06034e-28
7.46298e-28
6.8782e-27
7.61593e-26
8.69665e-25
3.25225e-46
7.98862e-50
5.52218e-49
2.86735e-47
1.12025e-45
3.52788e-44
9.36753e-43
2.15421e-41
4.32742e-40
7.66605e-39
1.2128e-37
1.69795e-36
2.0987e-35
2.29775e-34
2.21751e-33
1.88925e-32
1.49492e-31
1.15474e-30
1.00719e-29
1.13018e-28
1.52849e-27
2.16808e-26
2.90385e-25
1.32047e-48
3.22079e-52
7.81542e-51
4.37797e-49
1.85474e-47
6.35822e-46
1.84998e-44
4.6724e-43
1.03442e-41
2.02264e-40
3.49485e-39
5.31594e-38
7.12886e-37
8.54682e-36
9.18004e-35
8.98812e-34
8.58786e-33
9.18949e-32
1.27672e-30
2.21513e-29
4.02986e-28
6.7909e-27
1.03009e-25
4.8911e-51
1.80604e-54
9.65722e-53
5.84357e-51
2.69e-49
1.00802e-47
3.22151e-46
8.94575e-45
2.1802e-43
4.69087e-42
8.90969e-41
1.49638e-39
2.2248e-38
2.96268e-37
3.59008e-36
4.1776e-35
5.50188e-34
9.88581e-33
2.25466e-31
5.24513e-30
1.1202e-28
2.1551e-27
3.70007e-26
1.65343e-53
1.32272e-56
1.04101e-54
6.80672e-53
3.4076e-51
1.39984e-49
4.92682e-48
1.50975e-46
4.06774e-45
9.67961e-44
2.03138e-42
3.76798e-41
6.20491e-40
9.26439e-39
1.33659e-37
2.22052e-36
5.16684e-35
1.51636e-33
4.52249e-32
1.24722e-30
3.08501e-29
6.74668e-28
1.30455e-26
5.11442e-56
1.05763e-58
9.80532e-57
6.92669e-55
3.77156e-53
1.69978e-51
6.59521e-50
2.23476e-48
6.66783e-47
1.75587e-45
4.08266e-44
8.42187e-43
1.56177e-41
2.77324e-40
5.64282e-39
1.64305e-37
6.29218e-36
2.48222e-34
8.96323e-33
2.86104e-31
8.03344e-30
1.98791e-28
4.34125e-27
1.44611e-58
7.94464e-61
8.05328e-59
6.14665e-57
3.64158e-55
1.80137e-53
7.71328e-52
2.89395e-50
9.57747e-49
2.7946e-47
7.23209e-46
1.67057e-44
3.60362e-43
8.67499e-42
3.1051e-40
1.56792e-38
8.24056e-37
3.91233e-35
1.62736e-33
5.92318e-32
1.89344e-30
5.32032e-29
1.31293e-27
3.74292e-61
5.36075e-63
5.78506e-61
4.77143e-59
3.07499e-57
1.66693e-55
7.8579e-54
3.25792e-52
1.19701e-50
3.8824e-49
1.12571e-47
2.95999e-46
7.91273e-45
3.04682e-43
1.96546e-41
1.44478e-39
9.49584e-38
5.32411e-36
2.5621e-34
1.06915e-32
3.89526e-31
1.24387e-29
3.47845e-28
8.87632e-64
3.21653e-65
3.66149e-63
3.26255e-61
2.28762e-59
1.35695e-57
7.02165e-56
3.21027e-54
1.30715e-52
4.7261e-51
1.54998e-49
4.8423e-48
1.85662e-46
1.258e-44
1.18739e-42
1.08895e-40
8.67385e-39
5.84439e-37
3.31467e-35
1.59988e-33
6.67658e-32
2.43038e-30
7.71649e-29
1.94626e-66
1.74559e-67
2.11638e-65
2.04526e-63
1.56555e-61
1.01654e-59
5.76958e-58
2.90767e-56
1.31509e-54
5.40188e-53
2.15626e-51
1.00571e-49
7.2928e-48
7.46019e-46
8.00066e-44
7.83793e-42
6.76093e-40
5.09584e-38
3.35038e-36
1.90549e-34
9.30566e-33
3.90594e-31
1.41817e-29
4.05553e-69
9.00646e-70
1.19166e-67
1.26911e-65
1.08031e-63
7.90408e-62
5.20142e-60
3.23425e-58
2.01962e-56
1.35506e-54
1.02734e-52
8.76438e-51
8.09544e-49
7.68978e-47
7.236e-45
6.48851e-43
5.40875e-41
4.1312e-39
2.87018e-37
1.8053e-35
1.01698e-33
5.00082e-32
2.10719e-30
8.60089e-72
1.11735e-71
2.69806e-69
4.88127e-67
7.21825e-65
9.09565e-63
9.95574e-61
9.6043e-59
8.30223e-57
6.57142e-55
4.85751e-53
3.41678e-51
2.34342e-49
1.60319e-47
1.10615e-45
7.74274e-44
5.45891e-42
3.82013e-40
2.59107e-38
1.66861e-36
1.00562e-34
5.53844e-33
2.70532e-31
2.30298e-74
2.23227e-72
7.93927e-70
1.77361e-67
2.90592e-65
3.7631e-63
4.04699e-61
3.74914e-59
3.08052e-57
2.29484e-55
1.579e-53
1.02218e-51
6.33498e-50
3.81938e-48
2.26885e-46
1.34285e-44
7.97149e-43
4.768e-41
2.87701e-39
1.74165e-37
1.03856e-35
5.95103e-34
3.17465e-32
4.46413e-76
4.04448e-73
1.58421e-70
3.83862e-68
6.71845e-66
9.18197e-64
1.03097e-61
9.85801e-60
8.24142e-58
6.14458e-56
4.16949e-54
2.62242e-52
1.5551e-50
8.84207e-49
4.88541e-47
2.65891e-45
1.43774e-43
7.8019e-42
4.25401e-40
2.33593e-38
1.2921e-36
7.18262e-35
3.95253e-33
2.75646e-77
2.53555e-74
9.7889e-72
2.35291e-69
4.08844e-67
5.55514e-65
6.20581e-63
5.90684e-61
4.92584e-59
3.68741e-57
2.53273e-55
1.62837e-53
9.9839e-52
5.93732e-50
3.47132e-48
2.02102e-46
1.18047e-44
6.91078e-43
4.04874e-41
2.36526e-39
1.372e-37
7.8948e-36
4.50646e-34
0.769902
0.751906
0.711093
0.674863
0.111784
0.106408
0.0902224
0.0678748
0.000169553
0.000147918
0.000130893
0.000113749
9.61169e-06
9.19689e-06
8.20145e-06
6.58226e-06
1.30531e-06
1.00938e-06
5.18727e-07
1.7227e-07
2.92335e-09
6.09065e-10
5.83564e-10
4.45993e-10
6.16891e-12
4.7944e-12
5.05466e-12
5.30223e-12
2.38224e-12
4.53916e-12
7.25113e-12
1.0665e-11
9.81228e-13
3.55685e-12
9.74465e-12
2.47104e-11
1.38495e-12
6.06119e-12
2.10909e-11
6.78935e-11
1.1211e-12
5.70258e-12
2.32891e-11
8.22134e-11
2.08338e-12
7.14289e-12
2.33191e-11
7.09362e-11
2.21629e-12
5.87747e-12
1.52416e-11
3.99815e-11
1.18984e-12
3.09906e-12
7.65153e-12
1.81916e-11
4.15363e-13
1.0917e-12
2.72346e-12
6.36992e-12
9.85356e-14
2.77965e-13
7.55328e-13
1.93851e-12
1.676e-14
5.35084e-14
1.66705e-13
4.93548e-13
2.62788e-15
1.03797e-14
3.97621e-14
1.41394e-13
4.6738e-16
2.26495e-15
1.03044e-14
4.23987e-14
8.23467e-17
4.75529e-16
2.50933e-15
1.17793e-14
1.70291e-17
1.06023e-16
5.99302e-16
3.04012e-15
2.2746e-18
1.60924e-17
1.03478e-16
6.04818e-16
2.75964e-19
2.16927e-18
1.56152e-17
1.03225e-16
2.41906e-20
2.15502e-19
1.78012e-18
1.35992e-17
1.92647e-21
1.82877e-20
1.67335e-19
1.43894e-18
1.73198e-22
1.43243e-21
1.30486e-20
1.20617e-19
2.9842e-23
1.77901e-22
1.20715e-21
9.53973e-21
9.4802e-24
5.1942e-23
2.78416e-22
1.52128e-21
3.52389e-24
2.08207e-23
1.15675e-22
6.06296e-22
1.40141e-24
9.11951e-24
5.54442e-23
3.14449e-22
5.62753e-25
4.05399e-24
2.72264e-23
1.70436e-22
2.22553e-25
1.78327e-24
1.3323e-23
9.28729e-23
8.32507e-26
7.45157e-25
6.22814e-24
4.86861e-23
2.83599e-26
2.84315e-25
2.6669e-24
2.34843e-23
8.48304e-27
9.55046e-26
1.00832e-24
1.00316e-23
2.1282e-27
2.69398e-26
3.19282e-25
3.56135e-24
4.44534e-28
6.34677e-27
8.45091e-26
1.05124e-24
7.56953e-29
1.22575e-27
1.83949e-26
2.55693e-25
1.1257e-29
2.09241e-28
3.57639e-27
5.6087e-26
1.52358e-30
3.28698e-29
6.55578e-28
1.19944e-26
2.0942e-31
5.06176e-30
1.15596e-28
2.47523e-27
2.52426e-32
6.42948e-31
1.54638e-29
3.47577e-28
0.440206
0.1248
0.0215871
0.00191082
0.000303283
7.82446e-05
5.10938e-05
0.000109948
0.000121813
8.83481e-05
6.35216e-05
6.46661e-05
0.000122399
0.00319967
0.0101779
0.0278008
0.0323236
0.0367768
0.191561
0.0274245
0.00427544
0.000628477
0.000105479
3.68876e-05
2.82887e-05
2.43352e-05
2.99786e-05
3.34197e-05
4.81758e-05
5.31314e-05
5.23386e-05
5.58785e-05
0.00176535
0.00118372
0.00558156
0.0241429
0.0310148
0.146177
0.000106365
6.26321e-05
2.60692e-05
6.79249e-06
2.9293e-06
5.16346e-06
1.29476e-05
2.90175e-05
3.44383e-05
4.66029e-05
5.5588e-05
5.5554e-05
4.98446e-05
0.00016523
0.00020532
0.000302321
0.00794468
0.0118966
0.0945407
3.70059e-06
6.75189e-07
1.61383e-07
2.51427e-07
4.76014e-07
1.14752e-06
2.81352e-06
7.66991e-06
2.46509e-05
4.5e-05
4.23298e-05
4.23823e-05
4.78306e-05
3.79983e-05
3.78551e-05
4.60029e-05
0.00090893
0.00215766
0.0538879
1.87559e-08
1.38472e-09
1.14732e-08
4.01275e-07
3.88106e-06
1.00578e-05
1.35064e-05
1.0256e-05
9.87463e-06
1.18153e-05
1.94007e-05
3.63706e-05
3.71964e-05
3.85857e-05
4.61539e-05
5.83925e-05
8.92322e-05
0.000464961
0.026316
6.3995e-11
1.2035e-10
2.43465e-08
7.40214e-07
5.23894e-06
1.45519e-05
2.2604e-05
2.66159e-05
2.44748e-05
1.03195e-05
1.01952e-05
1.16166e-05
2.74973e-05
3.51777e-05
3.87959e-05
4.36984e-05
6.12407e-05
0.000927734
0.00853365
5.37967e-12
8.44095e-11
8.11067e-09
3.34811e-07
3.45907e-06
1.17577e-05
2.1105e-05
2.78232e-05
3.20977e-05
3.44449e-05
2.02602e-05
1.46167e-05
1.06608e-05
2.47633e-05
3.9053e-05
3.88652e-05
6.44851e-05
0.00154736
0.00135583
1.44336e-11
7.1398e-11
8.16076e-10
2.51235e-08
4.18097e-07
3.09379e-06
1.09663e-05
2.33809e-05
3.20388e-05
3.66689e-05
3.82169e-05
2.37755e-05
2.68114e-06
5.20479e-06
3.35509e-05
3.32319e-05
0.000110067
0.00251405
0.0176817
6.1543e-11
1.30402e-10
4.30769e-10
1.44953e-09
7.09819e-09
9.36255e-08
2.36894e-06
1.72097e-05
3.30995e-05
3.93857e-05
4.19113e-05
3.62955e-05
1.87484e-06
1.90789e-06
1.38814e-05
3.31349e-05
6.78106e-05
0.0022964
0.032267
1.60905e-10
5.0297e-10
8.92066e-10
1.378e-09
1.80184e-09
3.24292e-09
2.08164e-07
8.9099e-06
3.41424e-05
4.31151e-05
4.63449e-05
4.69222e-05
8.67925e-06
1.86755e-06
5.7539e-06
3.17396e-05
3.16022e-05
0.000493839
0.0315455
2.23695e-10
8.76823e-10
1.79495e-09
3.09803e-09
3.72365e-09
3.38358e-09
6.05501e-08
5.92328e-06
3.32912e-05
4.53096e-05
4.96367e-05
5.12603e-05
2.71563e-05
2.21245e-06
2.06225e-06
1.58409e-05
3.88987e-05
0.000147792
0.026207
1.98614e-10
7.22916e-10
1.43296e-09
2.63603e-09
3.4138e-09
3.56038e-09
1.44466e-07
7.11273e-06
3.37007e-05
4.59099e-05
5.05732e-05
5.08843e-05
1.27467e-05
2.06439e-06
2.06308e-06
4.37744e-06
5.72038e-05
0.000140483
0.0184403
1.07071e-10
3.85156e-10
7.8649e-10
1.48997e-09
2.55548e-09
4.45538e-09
5.70773e-07
1.10935e-05
3.58393e-05
4.53824e-05
4.79213e-05
3.88516e-05
4.61672e-06
2.06273e-06
2.06255e-06
2.2655e-06
4.64491e-05
0.000112566
0.0136046
4.21852e-11
1.53113e-10
3.66383e-10
8.11472e-10
1.35855e-09
6.50602e-09
8.49251e-07
1.30307e-05
3.72738e-05
4.79175e-05
5.1044e-05
4.04611e-05
5.11231e-06
2.06268e-06
2.06498e-06
2.48011e-06
6.32773e-05
0.000222849
0.0117918
1.35576e-11
4.6376e-11
1.39562e-10
4.50186e-10
7.08034e-10
4.69897e-09
5.96709e-07
1.03608e-05
3.64258e-05
5.07283e-05
5.56568e-05
5.53101e-05
2.42808e-05
3.8361e-06
3.56384e-06
1.90357e-05
0.000132159
0.000834778
0.0107496
4.5276e-12
1.76667e-11
6.63213e-11
2.31271e-10
6.77649e-10
7.78705e-10
4.38973e-08
2.39573e-06
2.18168e-05
5.35371e-05
6.46265e-05
7.42116e-05
8.19415e-05
6.68721e-05
7.29338e-05
0.0001747
0.000463903
0.00198592
0.0098262
1.33236e-12
6.25171e-12
2.69339e-11
1.08941e-10
3.86663e-10
9.51348e-10
1.10708e-09
6.8323e-08
3.56268e-06
3.24361e-05
7.58547e-05
9.15572e-05
8.79002e-05
0.000134795
0.000202417
0.000281129
0.000684329
0.0029364
0.00834027
4.54222e-13
2.5023e-12
1.17459e-11
4.7287e-11
2.06387e-10
6.0058e-10
1.16429e-09
1.97393e-09
2.39459e-08
2.4326e-06
3.38814e-05
0.000103516
0.000146919
0.00014961
0.000189806
0.000543476
0.00178937
0.00472089
0.00845661
1.53786e-13
9.64744e-13
5.18701e-12
2.41175e-11
9.57024e-11
3.37399e-10
8.55848e-10
1.44145e-09
1.84049e-09
6.1573e-09
4.69623e-07
1.21277e-05
6.6222e-05
0.000168588
0.000351648
0.000775234
0.00154631
0.0025816
0.00352124
4.82647e-14
3.46877e-13
2.12446e-12
1.104e-11
4.73198e-11
1.55558e-10
4.84284e-10
1.09461e-09
2.13745e-09
2.61707e-09
4.70675e-09
7.38991e-08
3.90173e-06
2.9953e-05
7.66814e-05
0.000120648
0.000155473
0.000265126
0.000469655
1.34474e-14
1.06561e-13
7.37162e-13
4.3164e-12
2.06861e-11
7.67078e-11
2.75017e-10
7.36167e-10
1.75803e-09
3.61719e-09
4.66776e-09
4.80304e-09
7.11633e-09
5.70174e-08
1.57896e-07
1.76122e-07
7.66441e-08
3.4912e-07
2.25159e-06
3.10815e-15
2.89986e-14
2.34541e-13
1.58505e-12
8.80396e-12
4.08142e-11
1.59511e-10
5.04999e-10
1.34342e-09
3.36967e-09
7.11229e-09
5.51548e-09
4.78871e-09
4.79874e-09
9.92778e-09
1.31135e-08
1.06829e-08
2.99049e-09
1.04658e-09
5.99227e-16
6.42096e-15
6.00524e-14
4.71906e-13
3.1041e-12
1.72258e-11
8.0897e-11
3.2669e-10
1.10154e-09
3.30247e-09
7.4446e-09
6.91417e-09
4.81376e-09
4.76561e-09
6.69021e-09
1.24944e-08
1.11049e-08
4.63058e-09
7.79537e-10
9.18057e-17
1.15956e-15
1.28423e-14
1.21524e-13
9.89273e-13
7.05705e-12
4.32082e-11
2.27803e-10
9.87212e-10
3.24044e-09
7.91971e-09
1.1312e-08
6.22292e-09
4.76517e-09
5.27318e-09
1.07771e-08
1.00327e-08
6.54123e-09
1.30123e-09
1.10855e-17
1.63584e-16
2.15151e-15
2.49985e-14
2.60818e-13
2.46347e-12
2.0051e-11
1.38462e-10
7.8538e-10
2.99959e-09
8.15116e-09
1.51999e-08
1.19299e-08
5.47454e-09
6.7576e-09
1.0806e-08
8.91211e-09
5.04713e-09
1.48123e-09
1.04467e-18
1.7899e-17
2.80575e-16
4.03528e-15
5.45334e-14
6.71059e-13
7.38438e-12
7.07044e-11
5.57364e-10
2.58693e-09
7.84844e-09
1.53446e-08
1.62968e-08
9.89472e-09
1.09591e-08
1.06535e-08
6.78342e-09
4.2173e-09
1.33985e-09
8.1471e-20
1.48697e-18
2.65635e-17
4.59118e-16
7.88569e-15
1.27205e-13
1.94742e-12
2.6045e-11
2.57963e-10
1.55898e-09
5.68748e-09
1.24394e-08
1.62997e-08
1.36056e-08
1.08443e-08
7.36305e-09
2.99052e-09
3.48893e-09
7.62539e-10
8.98065e-21
1.26401e-19
2.11181e-18
4.04991e-17
8.64978e-16
1.78649e-14
3.3356e-13
5.13236e-12
5.87771e-11
4.6737e-10
2.4183e-09
7.6066e-09
1.33463e-08
1.02555e-08
6.91686e-09
1.37465e-09
1.63332e-09
3.03869e-09
3.75233e-10
3.02226e-21
2.91163e-20
2.8795e-19
3.5855e-18
6.65597e-17
1.48544e-15
3.13525e-14
5.46201e-13
7.13493e-12
6.60903e-11
5.04267e-10
2.2327e-09
6.02647e-09
4.79797e-09
8.7081e-10
1.48188e-10
1.21692e-09
2.53882e-09
1.28253e-10
1.66746e-21
1.63733e-20
1.41908e-19
1.11615e-18
9.01386e-18
1.02852e-16
1.75866e-15
3.21281e-14
4.87179e-13
4.98223e-12
4.79105e-11
3.93025e-10
1.20711e-09
3.26325e-10
6.97983e-11
2.64522e-10
1.44412e-09
1.63521e-09
4.39688e-11
9.99038e-22
1.08758e-20
1.03101e-19
8.47908e-19
6.04128e-18
3.76919e-17
2.23759e-16
1.60682e-15
1.71116e-14
2.28449e-13
2.91721e-12
3.37097e-11
1.42771e-10
2.23546e-11
1.16885e-10
8.95533e-10
1.12034e-09
3.36619e-10
1.32595e-11
6.07936e-22
7.46439e-21
7.97409e-20
7.37515e-19
5.87601e-18
4.00362e-17
2.31352e-16
1.13493e-15
4.9123e-15
2.31715e-14
1.81991e-13
1.87347e-12
8.52171e-12
2.32516e-11
2.56207e-10
4.51739e-10
1.46855e-10
1.92527e-11
8.00043e-12
3.58859e-22
5.01967e-21
6.13268e-20
6.52548e-19
6.02227e-18
4.78827e-17
3.26047e-16
1.89529e-15
9.37122e-15
3.99292e-14
1.58526e-13
7.60477e-13
5.83667e-12
4.27729e-11
1.94541e-10
1.688e-10
1.37815e-11
3.96048e-12
7.72824e-12
1.96076e-22
3.15086e-21
4.45893e-20
5.55419e-19
6.08404e-18
5.82838e-17
4.84039e-16
3.44655e-15
2.08748e-14
1.08604e-13
5.11697e-13
2.37366e-12
1.08263e-11
6.07352e-11
1.22948e-10
2.32647e-11
2.35123e-12
3.04339e-12
6.99485e-12
9.51234e-23
1.75975e-21
2.89994e-20
4.2906e-19
5.73708e-18
6.92458e-17
7.44209e-16
6.93696e-15
5.4171e-14
3.40915e-13
1.66096e-12
5.99999e-12
1.67102e-11
5.10913e-11
7.0385e-11
4.22679e-12
1.85757e-12
2.26788e-12
5.99894e-12
3.7708e-23
7.78686e-22
1.42071e-20
2.31188e-19
3.3826e-18
4.4496e-17
5.18931e-16
5.21111e-15
4.32263e-14
2.81032e-13
1.35358e-12
4.71831e-12
1.24944e-11
2.6401e-11
2.709e-11
3.46144e-12
1.99911e-12
1.61788e-12
4.85923e-12
1.22851e-23
2.76848e-22
5.40057e-21
9.1851e-20
1.37403e-18
1.81759e-17
2.11823e-16
2.13557e-15
1.80203e-14
1.217e-13
6.27443e-13
2.39608e-12
6.8014e-12
1.44366e-11
1.49801e-11
5.67081e-12
2.35601e-12
1.24868e-12
3.68797e-12
3.29852e-24
8.0975e-23
1.68237e-21
2.9677e-20
4.47282e-19
5.79983e-18
6.50484e-17
6.29749e-16
5.18016e-15
3.51131e-14
1.88638e-13
7.84856e-13
2.74459e-12
6.37413e-12
6.42179e-12
3.44583e-12
1.80779e-12
9.7464e-13
2.61072e-12
8.07295e-25
2.18484e-23
4.90106e-22
9.11393e-21
1.40538e-19
1.80215e-18
1.93202e-17
1.744e-16
1.3313e-15
8.54011e-15
4.50083e-14
1.95014e-13
7.87368e-13
2.06577e-12
1.92086e-12
1.20736e-12
8.52822e-13
6.56044e-13
1.67669e-12
2.0002e-25
6.17647e-24
1.54613e-22
3.13498e-21
5.13828e-20
6.78864e-19
7.21354e-18
6.16558e-17
4.26267e-16
2.40658e-15
1.11441e-14
4.25932e-14
1.5833e-13
3.97043e-13
2.8892e-13
2.87744e-13
3.55298e-13
3.97966e-13
1.04046e-12
4.9302e-26
1.87432e-24
5.759e-23
1.40854e-21
2.71286e-20
4.08211e-19
4.76373e-18
4.28492e-17
2.96682e-16
1.58641e-15
6.58044e-15
2.14109e-14
5.5622e-14
9.74823e-14
1.25369e-13
8.44421e-14
1.84306e-13
2.17824e-13
6.54376e-13
7.18699e-27
2.96104e-25
1.01554e-23
2.83579e-22
6.36792e-21
1.14016e-19
1.61176e-18
1.77511e-17
1.49504e-16
9.39763e-16
4.2976e-15
1.40753e-14
3.3201e-14
3.69241e-14
4.88503e-14
6.19349e-15
7.82965e-14
7.74184e-14
2.99948e-13
)
;

boundaryField
{
    leftWall
    {
        type            zeroGradient;
    }
    rightWall
    {
        type            zeroGradient;
    }
    lowerWall
    {
        type            zeroGradient;
    }
    atmosphere
    {
        type            inletOutlet;
        inletValue      uniform 0;
        value           nonuniform List<scalar> 
46
(
2.75646e-77
2.53555e-74
9.7889e-72
2.35291e-69
4.08844e-67
5.55514e-65
6.20581e-63
5.90684e-61
4.92584e-59
3.68741e-57
2.53273e-55
1.62837e-53
9.9839e-52
5.93732e-50
3.47132e-48
2.02102e-46
1.18047e-44
6.91078e-43
4.04874e-41
2.36526e-39
1.372e-37
7.8948e-36
4.50646e-34
2.52426e-32
6.42948e-31
1.54638e-29
3.47577e-28
7.18699e-27
2.96104e-25
1.01554e-23
2.83579e-22
6.36792e-21
1.14016e-19
1.61176e-18
1.77511e-17
1.49504e-16
9.39763e-16
4.2976e-15
1.40753e-14
0
0
0
0
0
0
0
)
;
    }
    defaultFaces
    {
        type            empty;
    }
}


// ************************************************************************* //
