/*--------------------------------*- C++ -*----------------------------------*\
| =========                 |                                                 |
| \\      /  F ield         | OpenFOAM: The Open Source CFD Toolbox           |
|  \\    /   O peration     | Version:  2.4.0                                 |
|   \\  /    A nd           | Web:      www.OpenFOAM.org                      |
|    \\/     M anipulation  |                                                 |
\*---------------------------------------------------------------------------*/
FoamFile
{
    version     2.0;
    format      ascii;
    class       volScalarField;
    location    "0.65";
    object      alpha.water;
}
// * * * * * * * * * * * * * * * * * * * * * * * * * * * * * * * * * * * * * //

dimensions      [0 0 0 0 0 0 0];

internalField   nonuniform List<scalar> 
2268
(
1.9026e-08
1.38826e-08
9.86e-09
1.40737e-08
1.48628e-08
1.31744e-08
1.33673e-08
1.44537e-08
1.92514e-08
1.95012e-08
1.50716e-08
1.19744e-08
8.87942e-09
8.43934e-09
8.2624e-09
7.87415e-09
5.97964e-09
3.65674e-09
2.79571e-09
2.79933e-09
2.59778e-09
1.11634e-09
2.45443e-10
3.15392e-06
3.97919e-06
1.84247e-06
4.20634e-06
4.85148e-06
2.56908e-06
2.09737e-06
1.3881e-06
1.48792e-06
6.48814e-07
1.71348e-07
5.39117e-08
4.59766e-08
4.17785e-08
3.67824e-08
3.1862e-08
2.42324e-08
1.70459e-08
1.12795e-08
9.25069e-09
6.14263e-09
1.73427e-09
4.42578e-10
0.00498184
0.00536289
0.00427478
0.00552063
0.00594384
0.0048547
0.00435581
0.00350956
0.00284911
0.00114452
0.00013992
1.57893e-05
2.55567e-06
1.31198e-06
5.28888e-07
1.77002e-07
5.94621e-08
3.72027e-08
2.61739e-08
2.59012e-08
2.54004e-08
6.83799e-09
2.08034e-09
0.303332
0.307476
0.299167
0.312634
0.323377
0.318864
0.313046
0.29894
0.273242
0.212968
0.109588
0.0193242
0.000844164
2.54104e-05
2.05247e-06
4.68808e-07
2.06852e-07
1.47289e-07
1.39074e-07
1.84613e-07
1.17929e-07
4.31553e-08
7.52995e-09
0.985711
0.986614
0.985904
0.987701
0.989134
0.989985
0.991114
0.990664
0.989662
0.98517
0.961836
0.791406
0.450805
0.0726221
0.00215183
7.74915e-05
6.23985e-06
7.33034e-07
4.31276e-07
5.86204e-07
3.87368e-07
1.24681e-07
1.9766e-08
0.999994
0.999994
0.999994
0.999995
0.999995
0.999995
0.999995
0.999995
0.999995
0.999995
0.999982
0.998141
0.965076
0.616825
0.0513116
0.00106169
7.13521e-05
1.41383e-05
5.73105e-06
5.56762e-06
1.72943e-06
3.94537e-07
4.67747e-08
0.999993
0.999993
0.999993
0.999993
0.999994
0.999995
0.999995
0.999995
0.999995
0.999994
0.999994
0.999994
0.999681
0.943663
0.34653
0.0122119
0.000471286
0.000119564
7.03125e-05
2.28003e-05
3.13564e-06
1.61777e-06
6.26329e-07
0.999992
0.999992
0.999993
0.999993
0.999994
0.999995
0.999995
0.999995
0.999995
0.999994
0.999994
0.999994
0.999964
0.986232
0.694423
0.103512
0.00178763
1.83795e-05
1.09523e-05
1.06453e-05
0.000914259
0.0022773
0.00020188
1.48248e-05
0.000143045
0.000487919
0.000103449
2.15257e-05
6.74089e-06
3.73108e-06
2.44716e-06
1.99953e-06
2.00554e-06
2.11337e-06
2.34738e-06
3.24351e-06
8.65426e-06
4.4902e-05
0.000185115
0.000386251
0.000457018
0.000497103
2.30974e-05
0.00129647
0.0119538
0.00535264
0.00196001
0.000406269
4.23702e-05
2.87996e-06
7.90236e-07
6.77035e-07
6.60782e-07
7.81906e-07
1.58846e-06
8.03083e-06
4.55904e-05
0.000211089
0.000479761
0.000652918
0.000600514
1.70347e-05
0.00357193
0.0603737
0.0750861
0.0564712
0.0220363
0.0047303
0.000568057
3.75549e-05
3.9751e-06
7.91249e-07
8.20742e-07
7.96572e-06
7.61037e-05
0.000333709
0.000858239
0.000740927
0.000730486
0.000683025
1.1565e-05
0.0202614
0.162447
0.345726
0.366938
0.265322
0.131997
0.0510172
0.0108844
0.00180022
0.000207188
1.90951e-05
4.71614e-05
0.000285486
0.00111103
0.00196274
0.00161215
0.000887591
0.000852498
0.000826404
0.094335
0.351722
0.673361
0.755593
0.701433
0.592114
0.447199
0.229988
0.0677138
0.0174337
0.00132551
0.000227116
0.00065621
0.00271281
0.0037826
0.00317612
0.00173721
0.00308027
0.0459155
0.278458
0.581801
0.817151
0.826732
0.816663
0.775718
0.741366
0.599056
0.341874
0.0936956
0.0219316
0.00228569
0.00265887
0.00641484
0.00568693
0.00514543
0.00460136
0.0108558
0.327021
0.472165
0.732733
0.826732
0.826739
0.826739
0.808864
0.801708
0.6933
0.464373
0.190621
0.0494006
0.0181553
0.0136383
0.0117522
0.0060695
0.0081739
0.00963407
0.0194344
0.524189
0.6654
0.79387
0.810136
0.819848
0.82673
0.826725
0.741874
0.691294
0.535559
0.297383
0.116166
0.0547512
0.0336726
0.01448
0.00607935
0.0124183
0.0164752
0.0228899
0.999995
0.999996
0.999996
0.999997
0.999996
0.999991
0.999971
0.999957
0.999979
0.999989
0.999994
0.999994
0.999992
0.998885
0.953358
0.686989
0.242757
0.0612637
0.0808969
0.155568
0.228407
0.253484
0.205794
0.999999
0.999999
0.999999
0.999998
0.999936
0.997281
0.99391
0.994148
0.996767
0.998188
0.999209
0.999658
0.99992
0.999919
0.998997
0.984401
0.933289
0.862501
0.794394
0.814605
0.870199
0.88852
0.874837
0.999999
0.999999
0.999984
0.998384
0.983536
0.889523
0.844941
0.872735
0.920978
0.950866
0.974444
0.988211
0.997365
0.999477
0.999769
0.999767
0.998849
0.997257
0.99718
0.995218
0.986997
0.966763
0.931891
0.999999
0.999948
0.994066
0.904273
0.691744
0.376514
0.292041
0.320583
0.393081
0.45433
0.558793
0.688133
0.863466
0.9561
0.986837
0.995221
0.995696
0.979099
0.95443
0.894531
0.810842
0.718896
0.623551
0.94111
0.922226
0.855172
0.474631
0.123168
0.0218614
0.0180627
0.0388867
0.066197
0.0922919
0.102275
0.107232
0.186893
0.3669
0.49653
0.601102
0.701033
0.603256
0.560686
0.490903
0.374802
0.253712
0.153733
0.106609
0.0727838
0.0553641
0.0498473
0.0139353
0.000364609
2.70573e-05
6.66202e-05
0.000114115
0.000290526
0.000697626
0.0015989
0.00402205
0.00961873
0.0194666
0.0376539
0.0577521
0.0431003
0.0569181
0.0349749
0.012344
0.00250655
0.000366523
0.00016486
0.000255639
0.000250901
0.00031322
0.000103529
1.30987e-06
1.79028e-08
9.48529e-09
9.36718e-09
4.13263e-08
2.59678e-07
9.22097e-07
5.58927e-06
1.89029e-05
3.41636e-05
4.45481e-05
2.85147e-05
1.12237e-05
7.74367e-06
2.32354e-06
4.25482e-07
3.10794e-08
9.58338e-09
1.35864e-07
7.26948e-08
9.42687e-08
1.61598e-07
7.163e-08
1.08877e-08
1.23876e-09
1.32375e-08
7.47702e-09
4.27945e-09
2.40116e-09
2.38426e-09
2.16049e-09
1.13014e-09
2.86246e-10
9.02854e-11
9.05967e-10
1.47154e-09
1.87529e-09
6.909e-09
3.50319e-09
2.32503e-09
1.639e-09
5.24217e-08
3.19486e-08
2.72591e-08
1.88359e-08
4.04403e-09
5.83681e-10
6.48009e-10
8.91974e-09
7.7393e-09
3.85698e-09
2.25441e-09
2.25383e-09
2.65054e-09
1.43912e-09
3.93e-10
8.49414e-11
2.68258e-11
1.372e-11
9.25942e-12
6.47546e-12
5.24866e-12
6.6038e-12
3.7259e-11
3.61961e-08
3.20686e-08
1.78979e-08
4.17639e-09
5.45326e-10
5.17991e-10
1.00486e-09
6.6399e-09
5.6186e-09
3.41385e-09
2.77136e-09
4.43445e-09
5.58129e-09
3.72693e-09
9.4356e-10
1.42438e-10
2.73824e-11
1.20793e-11
7.56146e-12
6.05427e-12
5.14647e-12
3.74193e-12
3.8072e-12
5.36728e-08
3.83048e-08
1.85726e-08
5.11122e-09
5.17541e-10
3.90592e-10
8.99808e-10
3.49592e-09
2.92621e-09
2.86995e-09
3.17897e-09
6.0862e-09
5.67042e-09
1.59081e-09
1.64789e-10
4.80778e-11
1.79617e-11
6.65499e-12
3.51342e-12
2.69491e-12
2.5198e-12
2.04162e-12
1.52858e-12
5.27126e-08
2.39411e-08
6.26888e-09
3.17068e-10
1.0586e-10
1.05874e-10
3.64311e-10
1.35268e-09
2.70578e-09
4.20954e-09
6.98984e-09
7.26585e-09
3.23056e-09
2.9484e-10
9.05624e-12
2.07638e-12
8.15396e-13
5.03987e-13
4.10863e-13
3.54417e-13
4.09177e-13
4.96564e-13
7.63249e-13
2.55235e-08
9.51862e-09
6.48682e-10
3.64201e-11
3.00009e-11
2.98487e-11
2.87071e-11
8.17621e-11
4.99772e-10
3.11883e-09
2.86328e-09
8.26182e-10
3.84362e-11
5.90955e-12
1.03989e-12
2.21078e-13
7.55339e-14
4.17601e-14
3.75402e-14
4.27963e-14
6.58899e-14
1.5095e-13
5.02009e-13
4.79933e-09
5.88876e-10
3.93187e-11
1.99709e-11
1.20995e-11
1.23065e-11
1.66409e-11
1.86808e-11
1.864e-11
2.45186e-10
1.10093e-10
1.08269e-11
3.67969e-12
1.01103e-12
1.03791e-13
5.44642e-15
2.97549e-15
4.47612e-15
6.97638e-15
1.02282e-14
1.74104e-14
4.5789e-14
1.70262e-13
8.71887e-11
2.31867e-11
1.44793e-11
7.45704e-12
4.66081e-12
4.57259e-12
5.8711e-12
7.78098e-12
7.90695e-12
1.11193e-11
8.06194e-12
3.73907e-12
1.47693e-12
3.4955e-13
3.00539e-14
7.62126e-16
8.01944e-16
1.44822e-15
2.19874e-15
2.79981e-15
3.63906e-15
7.79667e-15
2.85052e-14
1.02738e-11
8.23333e-12
4.54619e-12
2.44339e-12
1.63102e-12
1.53731e-12
1.87678e-12
2.45158e-12
2.58446e-12
2.7596e-12
2.01891e-12
1.12141e-12
4.52032e-13
1.24206e-13
1.90642e-14
1.09016e-15
1.43242e-16
2.4964e-16
3.92817e-16
5.11894e-16
5.75185e-16
8.81177e-16
2.79793e-15
2.37491e-12
2.05595e-12
1.08813e-12
6.29475e-13
4.36644e-13
4.09705e-13
5.07167e-13
6.51921e-13
6.86877e-13
6.57347e-13
5.01575e-13
2.92568e-13
1.23994e-13
3.67583e-14
6.43019e-15
5.14228e-16
2.13211e-17
2.88465e-17
5.10881e-17
7.63157e-17
8.93562e-17
1.11168e-16
2.47846e-16
4.35217e-13
3.54104e-13
1.80026e-13
1.06324e-13
7.33135e-14
7.12158e-14
9.74931e-14
1.31619e-13
1.42894e-13
1.30321e-13
9.98029e-14
5.87672e-14
2.47375e-14
6.76754e-15
9.4978e-16
3.82911e-17
1.07446e-18
2.4463e-18
5.24533e-18
9.87509e-18
1.44045e-17
1.93345e-17
3.4503e-17
4.90753e-14
3.38684e-14
1.67668e-14
9.67418e-15
6.14373e-15
6.83254e-15
1.17306e-14
1.73809e-14
1.91321e-14
1.64265e-14
1.21005e-14
6.92724e-15
2.67135e-15
5.99079e-16
4.99243e-17
5.23305e-19
1.17571e-19
3.15248e-19
7.67496e-19
1.6024e-18
2.69124e-18
3.98901e-18
7.10476e-18
3.07108e-15
1.37977e-15
6.50794e-16
3.59896e-16
2.40995e-16
3.48906e-16
6.7367e-16
9.87459e-16
9.87899e-16
6.85752e-16
3.90381e-16
1.82544e-16
5.80845e-17
1.09043e-17
8.06004e-19
8.66537e-21
1.55704e-20
4.64251e-20
1.2032e-19
2.65155e-19
4.8086e-19
7.761e-19
1.47064e-18
1.20151e-16
3.23675e-17
1.45906e-17
7.74455e-18
5.59107e-18
9.5154e-18
1.86824e-17
2.648e-17
2.45064e-17
1.47215e-17
6.77769e-18
2.66317e-18
7.27436e-19
1.15651e-19
7.87062e-21
6.50253e-22
2.30109e-21
7.27439e-21
1.93489e-20
4.40521e-20
8.43862e-20
1.47845e-19
3.13635e-19
3.27224e-18
5.0917e-19
2.19407e-19
1.1248e-19
8.73411e-20
1.63445e-19
3.17337e-19
4.3312e-19
3.77406e-19
2.04495e-19
7.97308e-20
2.69442e-20
6.46894e-21
8.85569e-22
6.93665e-23
7.04166e-23
2.65175e-22
8.53908e-22
2.39048e-21
5.86843e-21
1.23777e-20
2.42192e-20
5.37425e-20
6.65223e-20
5.83466e-21
2.4086e-21
1.20754e-21
1.00123e-21
1.98501e-21
3.75876e-21
4.9093e-21
4.04701e-21
2.03434e-21
7.00776e-22
2.06765e-22
4.3682e-23
5.51773e-24
1.78646e-24
7.0211e-24
2.77943e-23
9.47691e-23
2.86837e-22
7.62068e-22
1.78071e-21
3.85977e-21
8.8408e-21
1.05747e-21
5.19314e-23
2.06177e-23
1.01469e-23
8.92287e-24
1.83316e-23
3.36918e-23
4.20935e-23
3.29357e-23
1.54886e-23
4.84068e-24
1.27355e-24
2.42073e-25
4.76609e-26
1.22736e-25
5.74063e-25
2.37385e-24
8.85436e-24
2.93123e-23
8.58864e-23
2.25299e-22
5.36284e-22
1.24349e-21
1.3628e-23
3.73219e-25
1.42414e-25
6.89825e-26
6.41135e-26
1.34686e-25
2.40256e-25
2.87655e-25
2.147e-25
9.49746e-26
2.72583e-26
6.52873e-27
1.30677e-27
1.44818e-27
7.96394e-27
4.15506e-26
1.93458e-25
7.94206e-25
2.84839e-24
9.18221e-24
2.65024e-23
6.80703e-23
1.66049e-22
1.45543e-25
2.21557e-27
8.1426e-28
3.89371e-28
3.81189e-28
8.11289e-28
1.40332e-27
1.61487e-27
1.15819e-27
4.82963e-28
1.27667e-28
2.90907e-29
1.49677e-29
7.76509e-29
4.91507e-28
2.74721e-27
1.37481e-26
6.08564e-26
2.42995e-25
8.69495e-25
2.75451e-24
7.79284e-24
2.20787e-23
1.31939e-27
1.11759e-29
3.9331e-30
1.86235e-30
1.91348e-30
4.10535e-30
6.89217e-30
7.64011e-30
5.27285e-30
2.08626e-30
5.18558e-31
1.55998e-31
4.82116e-31
3.66372e-30
2.5234e-29
1.56633e-28
8.78587e-28
4.38732e-27
1.93642e-26
7.48482e-26
2.59043e-25
8.57753e-25
3.28688e-24
1.02841e-29
4.85539e-32
1.62911e-32
7.65334e-33
8.21737e-33
1.77034e-32
2.89062e-32
3.09354e-32
2.05714e-32
7.75404e-33
1.96448e-33
2.23324e-33
1.84993e-32
1.61148e-31
1.25019e-30
8.56956e-30
5.2251e-29
2.8243e-28
1.34132e-27
5.76727e-27
2.34744e-26
1.05648e-25
6.6942e-25
6.98207e-32
1.85057e-34
5.85851e-35
2.73999e-35
3.06614e-35
6.61013e-35
1.05187e-34
1.08966e-34
7.0068e-35
2.53962e-35
1.05711e-35
6.3374e-35
6.71102e-34
6.41466e-33
5.41181e-32
4.00543e-31
2.68515e-30
1.60754e-29
8.63922e-29
4.35487e-28
2.36755e-27
1.78976e-26
1.884e-25
4.16665e-34
6.2464e-37
1.84141e-37
8.592e-38
9.99736e-38
2.15428e-37
3.34609e-37
3.3611e-37
2.10186e-37
8.07161e-38
1.51128e-37
1.81278e-36
2.12364e-35
2.22899e-34
2.08402e-33
1.7316e-32
1.29088e-31
8.62807e-31
5.37419e-30
3.62661e-29
3.44066e-28
4.52934e-27
6.46346e-26
2.20499e-36
1.92452e-39
5.10772e-40
2.38332e-40
2.87821e-40
6.19705e-40
9.41187e-40
9.18185e-40
5.66463e-40
3.75398e-40
3.24518e-39
4.71799e-38
6.1508e-37
7.16385e-36
7.4357e-35
6.83374e-34
5.62964e-33
4.37893e-32
3.74958e-31
4.55024e-30
7.61284e-29
1.37893e-27
2.34524e-26
1.03922e-38
5.44482e-42
1.25293e-42
5.86261e-43
7.3388e-43
1.58012e-42
2.35367e-42
2.24171e-42
1.49882e-42
4.12084e-42
6.80881e-41
1.1075e-39
1.59999e-38
2.05926e-37
2.36238e-36
2.43037e-35
2.3626e-34
2.55997e-33
3.96833e-32
8.5915e-31
2.00427e-29
4.34259e-28
8.41015e-27
4.38729e-41
1.49927e-44
2.73544e-45
1.28699e-45
1.66795e-45
3.59223e-45
5.25982e-45
4.97176e-45
5.54676e-45
6.3717e-44
1.28129e-42
2.3202e-41
3.72732e-40
5.3374e-39
6.86823e-38
8.29564e-37
1.11563e-35
2.21151e-34
6.24367e-33
1.88102e-31
5.23173e-30
1.29592e-28
2.83902e-27
1.66146e-43
4.03622e-47
5.32379e-48
2.52506e-48
3.38521e-48
7.29921e-48
1.05587e-47
1.08088e-47
4.24054e-47
9.45885e-46
2.14468e-44
4.32479e-43
7.74533e-42
1.24658e-40
1.8706e-39
3.07897e-38
7.60304e-37
2.76249e-35
1.08047e-33
3.89186e-32
1.2445e-30
3.50546e-29
8.67543e-28
5.66033e-46
1.10426e-49
9.27929e-51
4.44576e-51
6.15697e-51
1.32924e-50
1.92468e-50
3.04287e-50
4.48639e-49
1.24894e-47
3.17487e-46
7.16668e-45
1.44015e-43
2.65695e-42
5.13408e-41
1.47553e-39
6.8707e-38
3.56847e-36
1.69505e-34
7.0698e-33
2.58044e-31
8.25825e-30
2.31464e-28
1.73562e-48
2.87423e-52
1.45759e-53
7.06126e-54
1.00827e-53
2.18146e-53
3.36531e-53
1.55238e-52
4.60038e-51
1.4541e-49
4.151e-48
1.05655e-46
2.41726e-45
5.39494e-44
1.58162e-42
8.40545e-41
5.89462e-39
3.88881e-37
2.20143e-35
1.06394e-33
4.44765e-32
1.62181e-30
5.15802e-29
4.80597e-51
6.50353e-55
2.08801e-56
1.02126e-56
1.5001e-56
3.27759e-56
6.96563e-56
1.14626e-54
4.37286e-53
1.54535e-51
4.95593e-50
1.4348e-48
3.92472e-47
1.26173e-45
6.80177e-44
5.45355e-42
4.52812e-40
3.39537e-38
2.23385e-36
1.27237e-34
6.2228e-33
2.61542e-31
9.50796e-30
1.21063e-53
1.17282e-57
2.78102e-59
1.36848e-59
2.05857e-59
4.74501e-59
2.50413e-58
9.31215e-57
4.06096e-55
1.62381e-53
6.1127e-52
2.29985e-50
1.01927e-48
6.30916e-47
5.07814e-45
4.37354e-43
3.61649e-41
2.76058e-39
1.91976e-37
1.20896e-35
6.81839e-34
3.35638e-32
1.41562e-30
2.81145e-56
2.0451e-60
3.52389e-62
1.73676e-62
2.69426e-62
9.37211e-62
2.53158e-60
1.54297e-58
9.6424e-57
6.08692e-55
3.88909e-53
2.50464e-51
1.63515e-49
1.09145e-47
7.45108e-46
5.19551e-44
3.65961e-42
2.56147e-40
1.73841e-38
1.12034e-36
6.75719e-35
3.7244e-33
1.82056e-31
6.1245e-59
3.50719e-63
4.32484e-65
2.15708e-65
6.61785e-65
3.41119e-63
3.11783e-61
2.6919e-59
2.13965e-57
1.56918e-55
1.07154e-53
6.91007e-52
4.27386e-50
2.57391e-48
1.52806e-46
9.04077e-45
5.36575e-43
3.20926e-41
1.93667e-39
1.17269e-37
6.99545e-36
4.0103e-34
2.14046e-32
1.26514e-61
5.95168e-66
5.18644e-68
5.9006e-68
5.10935e-66
6.483e-64
7.08376e-62
6.70225e-60
5.58095e-58
4.15514e-56
2.8183e-54
1.77244e-52
1.0511e-50
5.97656e-49
3.30211e-47
1.79705e-45
9.71579e-44
5.27138e-42
2.8738e-40
1.5779e-38
8.72823e-37
4.8527e-35
2.6712e-33
2.4928e-64
9.93106e-69
6.89132e-71
1.85856e-69
2.9211e-67
3.8331e-65
4.22531e-63
4.00214e-61
3.33197e-59
2.49317e-57
1.71246e-55
1.10116e-53
6.7526e-52
4.0163e-50
2.34843e-48
1.36735e-46
7.98674e-45
4.67564e-43
2.73925e-41
1.60029e-39
9.28322e-38
5.34243e-36
3.05012e-34
0.229208
0.246652
0.285799
0.319555
0.860792
0.85227
0.846697
0.845317
0.889798
0.851031
0.804802
0.756824
0.552337
0.502044
0.431505
0.332744
0.0947757
0.0533147
0.0163656
0.00257061
3.61019e-06
6.29367e-06
8.88555e-06
3.01619e-06
4.21668e-09
2.91169e-09
3.72265e-09
1.35654e-09
2.8756e-09
1.42362e-09
1.01799e-09
6.13108e-10
2.97131e-10
5.94965e-10
7.16229e-10
5.88886e-10
1.99096e-11
5.42415e-11
2.38828e-10
4.04745e-10
4.26913e-12
1.67449e-11
7.18199e-11
2.50949e-10
3.20999e-12
1.15725e-11
4.01992e-11
1.17092e-10
2.17749e-12
5.90165e-12
1.59981e-11
3.76362e-11
6.95913e-13
1.67292e-12
3.93308e-12
8.6393e-12
1.13598e-13
2.6363e-13
5.84492e-13
1.21288e-12
1.12872e-14
2.69576e-14
6.25493e-14
1.4054e-13
9.48197e-16
2.58402e-15
7.45384e-15
2.19954e-14
1.21399e-16
4.28209e-16
1.72281e-15
6.81297e-15
2.65348e-17
1.14287e-16
5.51785e-16
2.50958e-15
6.06153e-18
3.02765e-17
1.68152e-16
8.63954e-16
1.52069e-18
8.32793e-18
4.9492e-17
2.73193e-16
2.51958e-19
1.49025e-18
1.00482e-17
6.41099e-17
3.84995e-20
2.36089e-19
1.76074e-18
1.26583e-17
4.64648e-21
2.74137e-20
2.25221e-19
1.85438e-18
5.79524e-22
2.95762e-21
2.41526e-20
2.15509e-19
8.73639e-23
3.75604e-22
2.49198e-21
2.08821e-20
1.8836e-23
8.40863e-23
4.34024e-22
2.60689e-21
5.85822e-24
3.01709e-23
1.53496e-22
7.62896e-22
2.1561e-24
1.26255e-23
7.00095e-23
3.65218e-22
8.71251e-25
5.68155e-24
3.46787e-23
1.97488e-22
3.57416e-25
2.58522e-24
1.74393e-23
1.09671e-22
1.44026e-25
1.15875e-24
8.69412e-24
6.08805e-23
5.46409e-26
4.9087e-25
4.11892e-24
3.23372e-23
1.87958e-26
1.8901e-25
1.77886e-24
1.57215e-23
5.65803e-27
6.3852e-26
6.75869e-25
6.7416e-24
1.42504e-27
1.80706e-26
2.14571e-25
2.39796e-24
2.98404e-28
4.2657e-27
5.6874e-26
7.08459e-25
5.08984e-29
8.24921e-28
1.23907e-26
1.72398e-25
7.58049e-30
1.4099e-28
2.41128e-27
3.78385e-26
1.02782e-30
2.21853e-29
4.42688e-28
8.10303e-27
1.41589e-31
3.42373e-30
7.82231e-29
1.67574e-27
1.70896e-32
4.35411e-31
1.04755e-29
2.35532e-28
0.517715
0.715724
0.722547
0.679005
0.673416
0.714991
0.771864
0.717855
0.679153
0.617296
0.455098
0.283776
0.174397
0.0552829
0.0129201
0.011124
0.0170711
0.0182458
0.0244464
0.803407
0.711962
0.554435
0.421775
0.459937
0.524767
0.531154
0.629599
0.67896
0.678892
0.602447
0.441605
0.350612
0.107771
0.0437939
0.0832326
0.0480445
0.0244084
0.0302691
0.623809
0.369997
0.127995
0.0301767
0.0218396
0.0417014
0.158193
0.381964
0.477151
0.598749
0.603582
0.595345
0.517022
0.220621
0.198121
0.268583
0.225624
0.103343
0.0560588
0.153784
0.0118969
0.000223334
4.70592e-05
2.19936e-05
5.09026e-05
0.000788812
0.00761914
0.134884
0.368665
0.472419
0.513832
0.53854
0.526247
0.508928
0.531589
0.481484
0.258011
0.112876
0.00132931
9.58863e-05
3.86973e-06
4.12007e-06
4.23515e-06
5.88499e-06
7.67835e-06
2.57958e-05
0.00051955
0.0126342
0.136775
0.393054
0.451552
0.506804
0.562061
0.577674
0.566727
0.349537
0.141267
1.10178e-06
1.31783e-07
1.04956e-06
6.31098e-06
1.03027e-05
1.03121e-05
8.66395e-06
8.9334e-06
1.75256e-05
3.77871e-05
0.0312475
0.0783087
0.273296
0.40249
0.43967
0.531697
0.540354
0.369896
0.111628
6.81341e-10
8.44703e-09
5.66653e-07
2.97609e-06
4.80483e-06
5.97162e-06
9.58671e-06
2.17825e-05
3.39292e-05
3.3152e-05
0.000171331
0.0400022
0.0506118
0.192644
0.392614
0.441363
0.397243
0.158702
0.027258
6.18506e-10
1.21066e-09
4.21354e-08
1.15433e-07
3.04564e-07
7.36961e-07
3.99761e-06
3.48852e-05
9.91979e-05
0.000126343
0.000121778
0.00188798
0.00174257
0.0177821
0.194229
0.410267
0.168218
0.0254838
0.0335478
6.25596e-10
6.92779e-10
4.59226e-09
2.70146e-09
1.12796e-09
8.34807e-09
1.80877e-06
5.89333e-05
0.000262165
0.000345872
0.000279348
0.000111507
7.07055e-05
0.000331314
0.0638738
0.346734
0.102
0.0250023
0.175632
6.3963e-10
1.01049e-09
2.21198e-09
2.31288e-09
9.55718e-10
6.67669e-10
7.50814e-07
8.79037e-05
0.000676065
0.000958725
0.000751293
0.000387648
6.8001e-05
7.75941e-05
0.0181977
0.168585
0.135129
0.0414158
0.320983
6.1189e-10
1.48041e-09
2.5294e-09
2.73091e-09
1.61127e-09
6.74357e-10
3.47956e-07
0.000116684
0.00123012
0.0018957
0.00167006
0.000698534
8.91509e-05
5.14916e-05
0.00118571
0.0514142
0.211742
0.264938
0.341707
3.42847e-10
9.12354e-10
1.42419e-09
1.29663e-09
8.30793e-10
9.62346e-10
2.2899e-06
0.000256422
0.00192377
0.00292763
0.00280408
0.000914514
9.52535e-05
4.84895e-05
6.03551e-05
0.00693799
0.153886
0.341707
0.341707
8.41047e-11
2.56675e-10
3.11957e-10
2.4185e-10
2.59168e-10
1.75132e-08
1.40022e-05
0.000592593
0.00299807
0.00427157
0.00396049
0.00137223
7.43323e-05
4.84554e-05
5.15291e-05
0.000650054
0.061339
0.314987
0.326984
1.68386e-11
4.12113e-11
4.66723e-11
5.69782e-11
8.42803e-11
4.94164e-08
2.29421e-05
0.000787245
0.00403098
0.0069452
0.00792781
0.00354719
0.000136729
4.84489e-05
5.04389e-05
0.000408533
0.0381966
0.229839
0.291197
2.25691e-12
5.10545e-12
8.70471e-12
2.27205e-11
4.66612e-11
5.39064e-08
2.20866e-05
0.000745736
0.00445323
0.00895546
0.0125754
0.0127905
0.00339449
0.000180384
8.92157e-05
0.00161753
0.0460446
0.174135
0.255491
2.96528e-13
9.77204e-13
3.56408e-12
1.46931e-11
5.33176e-11
1.71933e-09
1.26568e-06
0.000147964
0.00246682
0.00986821
0.0161156
0.0252119
0.0284537
0.0253441
0.0354291
0.0688285
0.108383
0.172766
0.22608
6.23214e-14
3.25918e-13
1.66151e-12
7.94392e-12
3.13315e-11
8.72466e-11
3.04064e-09
3.65311e-06
0.00036023
0.00502018
0.01708
0.0288564
0.0356553
0.0664621
0.0882957
0.106681
0.130202
0.164456
0.183335
2.47503e-14
1.61378e-13
9.06848e-13
4.41588e-12
1.78886e-11
5.50491e-11
1.35005e-10
1.11552e-09
3.12248e-06
0.000348544
0.00492412
0.0173183
0.0311027
0.0395521
0.0559642
0.0690073
0.073948
0.0753579
0.0740685
1.00699e-14
7.1478e-14
4.36265e-13
2.29891e-12
9.99889e-12
3.48682e-11
9.763e-11
1.72732e-10
3.1667e-10
9.8852e-07
0.000157466
0.00239601
0.0084193
0.0144085
0.0178584
0.0165547
0.00792079
0.00469743
0.00448916
3.88116e-15
3.09956e-14
2.10515e-13
1.20327e-12
5.63037e-12
2.13416e-11
6.62673e-11
1.60961e-10
3.20381e-10
4.96767e-10
1.92244e-07
2.2274e-05
0.000288823
0.000809427
0.000948492
0.000408209
5.50072e-05
2.59747e-05
4.51617e-05
1.3189e-15
1.15402e-14
8.81325e-14
5.6624e-13
2.96977e-12
1.2761e-11
4.56628e-11
1.3485e-10
3.47769e-10
7.73282e-10
7.91348e-10
8.45864e-09
6.28191e-08
4.09822e-07
7.12565e-07
6.39085e-07
1.70719e-08
1.62423e-09
1.20698e-08
3.61147e-16
3.72606e-15
3.31161e-14
2.44733e-13
1.48621e-12
7.54207e-12
3.19395e-11
1.09824e-10
3.19975e-10
8.50984e-10
1.5325e-09
1.25038e-09
1.20251e-09
1.71055e-09
2.28668e-09
2.83709e-09
1.46283e-09
1.61736e-10
1.7859e-11
8.03728e-17
9.51357e-16
9.77899e-15
8.42562e-14
6.0776e-13
3.68645e-12
1.87777e-11
7.90793e-11
2.83462e-10
8.82481e-10
1.99979e-09
1.6974e-09
1.1432e-09
9.71216e-10
1.48116e-09
3.2803e-09
2.30884e-09
6.90934e-10
2.21856e-11
1.36474e-17
1.89604e-16
2.29858e-15
2.37587e-14
2.10961e-13
1.63207e-12
1.07115e-11
5.81849e-11
2.63017e-10
8.89115e-10
2.20831e-09
2.52478e-09
1.45954e-09
9.52372e-10
1.30557e-09
3.06357e-09
2.58959e-09
7.55974e-10
1.69846e-11
1.78419e-18
2.87333e-17
4.11981e-16
5.20325e-15
5.86076e-14
5.92023e-13
5.11144e-12
3.70495e-11
2.13976e-10
8.33142e-10
2.27728e-09
3.76744e-09
2.57842e-09
1.17211e-09
1.97967e-09
3.06959e-09
2.4346e-09
6.60968e-10
1.93045e-11
1.82621e-19
3.30918e-18
5.57204e-17
8.62288e-16
1.24814e-14
1.63444e-13
1.89882e-12
1.89866e-11
1.54098e-10
7.23075e-10
2.18359e-09
4.16055e-09
4.30061e-09
2.56541e-09
3.10376e-09
3.05588e-09
1.92561e-09
4.64465e-10
1.55208e-11
1.8478e-20
3.13015e-19
5.66389e-18
1.02777e-16
1.86756e-15
3.18478e-14
5.12721e-13
7.1199e-12
7.20254e-11
4.38486e-10
1.59706e-09
3.45815e-09
4.48134e-09
3.69179e-09
3.11966e-09
2.20303e-09
7.32329e-10
2.29504e-10
9.47527e-12
3.81086e-21
4.20762e-20
5.70459e-19
1.00313e-17
2.1469e-16
4.60077e-15
8.96549e-14
1.42958e-12
1.6657e-11
1.32775e-10
6.86759e-10
2.1281e-09
3.70555e-09
2.91684e-09
2.00621e-09
4.4363e-10
2.20189e-10
5.58809e-11
5.92648e-12
1.79156e-21
1.64319e-20
1.42933e-19
1.3924e-18
2.03145e-17
4.16012e-16
8.71106e-15
1.52963e-13
2.017e-12
1.8873e-11
1.45649e-10
6.514e-10
1.71434e-09
1.3936e-09
2.64488e-10
3.35472e-11
2.06592e-11
1.38406e-11
4.66234e-12
1.05109e-21
1.03467e-20
8.93469e-20
6.84227e-19
4.94878e-18
4.27199e-17
5.69182e-16
9.49464e-15
1.41533e-13
1.6209e-12
1.35067e-11
1.13689e-10
3.5393e-10
1.0113e-10
1.51636e-11
4.33122e-12
9.53708e-12
7.43941e-12
5.06486e-12
6.4596e-22
7.07176e-21
6.74351e-20
5.57754e-19
3.98774e-18
2.46584e-17
1.37263e-16
8.18729e-16
7.12069e-15
8.63504e-14
1.08273e-12
1.03719e-11
4.15539e-11
5.69254e-12
2.47903e-12
3.52056e-12
4.90384e-12
3.89987e-12
5.68787e-12
4.00497e-22
4.947e-21
5.32036e-20
4.9573e-19
3.98089e-18
2.7333e-17
1.58872e-16
7.78774e-16
3.27888e-15
1.35232e-14
8.12751e-14
7.1949e-13
3.64716e-12
1.25223e-12
1.74505e-12
2.69808e-12
2.6416e-12
2.64906e-12
5.94769e-12
2.39505e-22
3.36943e-21
4.14135e-20
4.43084e-19
4.10272e-18
3.25613e-17
2.19123e-16
1.23684e-15
5.76261e-15
2.19227e-14
6.92403e-14
2.0294e-13
6.72992e-13
9.48689e-13
1.60061e-12
2.14564e-12
1.83486e-12
2.38241e-12
5.90516e-12
1.31767e-22
2.12528e-21
3.01299e-20
3.74159e-19
4.04656e-18
3.76483e-17
2.9615e-16
1.92689e-15
1.01237e-14
4.21571e-14
1.39192e-13
3.62709e-13
7.17881e-13
1.04711e-12
1.50274e-12
1.7734e-12
1.45769e-12
2.09241e-12
5.40195e-12
6.4059e-23
1.18514e-21
1.94194e-20
2.82304e-19
3.63435e-18
4.1037e-17
3.98328e-16
3.2199e-15
2.07399e-14
1.00301e-13
3.36547e-13
7.09445e-13
9.61333e-13
1.15126e-12
1.44075e-12
1.59583e-12
1.20569e-12
1.63074e-12
4.62241e-12
2.54279e-23
5.25021e-22
9.53293e-21
1.52874e-19
2.16784e-18
2.70029e-17
2.90118e-16
2.60359e-15
1.85992e-14
9.85324e-14
3.5181e-13
7.79365e-13
1.09946e-12
1.24594e-12
1.42881e-12
1.57643e-12
1.0535e-12
1.16969e-12
3.7084e-12
8.28992e-24
1.8693e-22
3.64023e-21
6.14637e-20
9.03109e-19
1.1536e-17
1.26914e-16
1.17642e-15
8.8562e-15
5.12891e-14
2.12743e-13
5.8532e-13
1.02496e-12
1.27458e-12
1.44271e-12
1.43051e-12
9.68745e-13
8.49661e-13
2.78717e-12
2.2262e-24
5.4698e-23
1.1365e-21
2.00028e-20
2.99222e-19
3.81247e-18
4.13402e-17
3.78503e-16
2.86826e-15
1.73799e-14
8.02546e-14
2.69356e-13
6.63154e-13
1.05517e-12
1.21956e-12
1.03397e-12
7.55586e-13
6.36277e-13
1.9585e-12
5.44993e-25
1.47598e-23
3.31271e-22
6.1595e-21
9.4794e-20
1.20801e-18
1.27612e-17
1.1186e-16
8.11774e-16
4.82286e-15
2.28571e-14
8.55209e-14
2.73413e-13
5.7634e-13
6.38063e-13
5.15518e-13
4.46608e-13
4.50416e-13
1.25082e-12
1.35188e-25
4.17646e-24
1.04596e-22
2.12155e-21
3.47716e-20
4.58909e-19
4.85896e-18
4.11591e-17
2.7908e-16
1.51878e-15
6.62344e-15
2.3194e-14
7.4958e-14
1.71118e-13
1.58379e-13
1.75522e-13
2.32126e-13
2.89257e-13
7.75726e-13
3.33935e-26
1.27017e-24
3.90472e-23
9.55512e-22
1.84121e-20
2.77158e-19
3.23467e-18
2.90776e-17
2.00887e-16
1.06851e-15
4.38777e-15
1.40766e-14
3.57405e-14
6.53745e-14
8.6225e-14
5.78798e-14
1.28272e-13
1.60778e-13
4.88221e-13
4.87189e-27
2.00803e-25
6.88979e-24
1.92483e-22
4.32454e-21
7.74725e-20
1.0958e-18
1.20751e-17
1.01744e-16
6.39656e-16
2.92482e-15
9.58009e-15
2.26343e-14
2.53049e-14
3.35699e-14
4.25187e-15
5.44621e-14
5.69145e-14
2.23667e-13
)
;

boundaryField
{
    leftWall
    {
        type            zeroGradient;
    }
    rightWall
    {
        type            zeroGradient;
    }
    lowerWall
    {
        type            zeroGradient;
    }
    atmosphere
    {
        type            inletOutlet;
        inletValue      uniform 0;
        value           nonuniform List<scalar> 
46
(
2.4928e-64
9.93106e-69
6.89132e-71
1.85856e-69
2.9211e-67
3.8331e-65
4.22531e-63
4.00214e-61
3.33197e-59
2.49317e-57
1.71246e-55
1.10116e-53
6.7526e-52
4.0163e-50
2.34843e-48
1.36735e-46
7.98674e-45
4.67564e-43
2.73925e-41
1.60029e-39
9.28322e-38
5.34243e-36
3.05012e-34
1.70896e-32
4.35411e-31
1.04755e-29
2.35532e-28
4.87189e-27
2.00803e-25
6.88979e-24
1.92483e-22
4.32454e-21
7.74725e-20
1.0958e-18
1.20751e-17
1.01744e-16
6.39656e-16
2.92482e-15
9.58009e-15
0
0
0
0
0
0
0
)
;
    }
    defaultFaces
    {
        type            empty;
    }
}


// ************************************************************************* //
