/*--------------------------------*- C++ -*----------------------------------*\
| =========                 |                                                 |
| \\      /  F ield         | OpenFOAM: The Open Source CFD Toolbox           |
|  \\    /   O peration     | Version:  2.4.0                                 |
|   \\  /    A nd           | Web:      www.OpenFOAM.org                      |
|    \\/     M anipulation  |                                                 |
\*---------------------------------------------------------------------------*/
FoamFile
{
    version     2.0;
    format      ascii;
    class       volScalarField;
    location    "0.65";
    object      alphas;
}
// * * * * * * * * * * * * * * * * * * * * * * * * * * * * * * * * * * * * * //

dimensions      [0 0 0 0 0 0 0];

internalField   nonuniform List<scalar> 
2268
(
2
2
2
2
2
2
2
2
2
2
2
2
2
2
2
2
2
2
2
2
2
2
1.99999
1.99999
1.99999
2
1.99999
1.99999
1.99999
2
2
2
2
2
2
2
2
2
2
2
2
2
2
2
2
1.99999
1.99004
1.98927
1.99145
1.98896
1.98811
1.99029
1.99129
1.99298
1.9943
1.99771
1.99972
1.99997
1.99999
2
2
2
2
2
2
2
2
2
1.99999
1.39334
1.38505
1.40167
1.37473
1.35324
1.36227
1.37391
1.40212
1.45352
1.57406
1.78082
1.96135
1.99831
1.99995
2
2
2
2
2
2
2
2
1.99999
0.0285778
0.0267707
0.0281924
0.0245975
0.0217311
0.0200306
0.0177719
0.0186723
0.0206767
0.0296601
0.0763269
0.417189
1.09839
1.85476
1.9957
1.99984
1.99999
2
2
2
2
2
1.99999
1.12603e-05
1.11326e-05
1.10567e-05
1.04276e-05
1.02531e-05
1.02467e-05
1.03053e-05
1.03615e-05
1.04102e-05
1.04708e-05
3.64032e-05
0.00371891
0.0698476
0.766349
1.89738
1.99788
1.99986
1.99997
1.99999
1.99999
2
2
1.99999
1.32702e-05
1.30214e-05
1.26985e-05
1.26346e-05
1.15188e-05
1.0254e-05
1.05973e-05
1.06698e-05
1.07279e-05
1.09789e-05
1.14508e-05
1.15589e-05
0.000637046
0.112673
1.30694
1.97558
1.99906
1.99976
1.99986
1.99995
1.99999
1.99999
1.99998
1.61167e-05
1.53741e-05
1.41154e-05
1.38458e-05
1.14443e-05
9.96346e-06
1.03139e-05
1.04095e-05
1.03165e-05
1.10589e-05
1.22649e-05
1.26886e-05
7.12507e-05
0.0275361
0.611153
1.79297
1.99642
1.99995
1.99996
1.99996
1.99816
1.99544
1.99959
1.61504
1.69216
1.69803
1.7001
1.7017
1.70235
1.70269
1.70343
1.70486
1.70603
1.70681
1.70701
1.70758
1.7083
1.70913
1.70944
1.70952
1.70965
1.70976
1.18661
1.27293
1.57993
1.68836
1.69638
1.70085
1.69528
1.65518
1.58464
1.54035
1.53604
1.5505
1.58222
1.60967
1.63642
1.68571
1.70968
1.71039
1.71076
1.06383
1.22714
1.39689
1.4991
1.51496
1.52688
1.4752
1.39691
1.33007
1.2997
1.27804
1.26658
1.26878
1.2746
1.25945
1.32807
1.63727
1.71161
1.71173
1.07707
1.31946
1.28908
1.01892
0.905828
0.978957
1.05335
1.06579
1.09587
1.10705
1.11674
1.11383
1.09264
1.09227
1.07619
1.06555
1.43178
1.71195
1.71163
1.21214
1.30888
1.03857
0.534691
0.417205
0.528552
0.616422
0.661686
0.785033
0.936613
1.00785
1.03922
1.04301
1.04902
1.04349
1.03098
1.20226
1.66648
1.61649
1.36184
1.1387
0.688371
0.26928
0.265062
0.34249
0.413579
0.317678
0.405123
0.658245
0.906594
0.996343
1.035
1.03425
1.02825
1.02786
1.07
1.42273
1.36987
1.12691
0.945207
0.423178
0.209624
0.184043
0.224479
0.312017
0.264671
0.314792
0.535869
0.809454
0.952173
1.00328
1.0117
1.01571
1.02652
1.02974
1.1388
1.25205
0.912292
0.607892
0.298322
0.20199
0.182207
0.175534
0.20859
0.441262
0.378248
0.467186
0.702744
0.884045
0.946637
0.973915
1.00997
1.02706
1.02195
1.03964
1.20827
8.90091e-06
8.06588e-06
6.93173e-06
6.63124e-06
6.72074e-06
1.04134e-05
3.06246e-05
4.5391e-05
2.36164e-05
1.33977e-05
1.00275e-05
1.12854e-05
1.53297e-05
0.00222982
0.0932824
0.626012
1.51442
1.87732
1.83792
1.68833
1.54262
1.49261
1.58802
2.14473e-06
1.99757e-06
1.8504e-06
2.36345e-06
6.47546e-05
0.0027194
0.00608965
0.00585247
0.00323281
0.00181236
0.000791768
0.000342705
8.26307e-05
0.000155887
0.00200412
0.031194
0.133407
0.274934
0.410799
0.369278
0.256848
0.216397
0.235468
2.58423e-06
2.47152e-06
1.6625e-05
0.00161849
0.0164661
0.110479
0.155063
0.127266
0.0790222
0.0491339
0.0255557
0.0117887
0.00263541
0.000526059
0.000307393
0.000394655
0.0022771
0.00541103
0.00504139
0.00641554
0.0138898
0.033716
0.0685175
2.42315e-06
0.000127696
0.00693316
0.0961254
0.308404
0.626012
0.711923
0.679455
0.606923
0.545671
0.441208
0.311867
0.136534
0.0438998
0.0131635
0.00478774
0.00437134
0.0210386
0.0458114
0.106428
0.192078
0.292603
0.423039
0.176671
0.232546
0.301054
0.580799
0.936852
1.17437
1.18529
1.09647
1.01363
0.936254
0.90599
0.900148
0.823802
0.638232
0.507498
0.402621
0.307324
0.432857
0.502228
0.642314
0.883564
1.24593
1.63862
2.68017
2.78121
2.78846
2.61489
2.65405
2.90147
2.83323
2.47573
2.111
1.87174
1.77592
1.66486
1.4204
1.25408
1.22692
1.20444
1.3201
1.63408
1.82614
2.17027
2.52711
2.81361
2.9785
2.9995
2.99916
2.99781
2.99551
2.99692
2.99983
3
3
3
2.99994
2.99979
2.996
2.96926
2.911
2.88369
2.87995
2.943
2.98438
2.99655
2.99975
2.99999
2.99999
2.99998
3
3
2.99999
2.99999
3
3
3
3
3
3
3
3
3
3
3
3
3
3
3
3
3
3
2.99999
3
3
3
3
3
3
3
3
3
3
3
3
3
3
3
3
3
3
3
3
3
3
2.99999
3
3
3
3
3
3
3
3
3
3
3
3
3
3
3
3
3
3
3
3
3
3
3
3
3
3
3
3
3
3
3
3
3
3
3
3
3
3
3
3
3
3
3
3
3
3
3
3
3
3
3
3
3
3
3
3
3
3
3
3
3
3
3
3
3
3
3
3
3
3
3
3
3
3
3
3
3
3
3
3
3
3
3
3
3
3
3
3
3
3
3
3
3
3
3
3
3
3
3
3
3
3
3
3
3
3
3
3
3
3
3
3
3
3
3
3
3
3
3
3
3
3
3
3
3
3
3
3
3
3
3
3
3
3
3
3
3
3
3
3
3
3
3
3
3
3
3
3
3
3
3
3
3
3
3
3
3
3
3
3
2.99999
3
3
3
3
3
3
3
3
3
3
3
3
3
3
3
3
3
3
3
3
3
3
3
3
3
3
3
3
3
3
3
3
3
3
3
3
3
3
3
3
3
3
3
3
3
2.99999
3
3
3
3
3
3
3
3
3
3
3
3
3
3
3
3
3
3
3
3
3
3
3
3
3
3
3
3
3
3
3
3
3
3
3
3
3
3
3
3
3
3
3
3
3
3
3
3
3
3
3
3
3
3
3
3
3
3
3
3
3
3
3
3
3
3
3
3
3
3
3
3
3
3
3
3
3
3
3
3
3
3
3
3
3
3
3
3
3
3
3
3
3
3
3
3
3
3
3
3
3
3
3
3
3
3
3
3
3
3
3
3
3
3
3
3
3
3
3
3
3
3
3
3
3
3
3
3
3
3
3
3
3
3
3
2.99999
2.99999
2.99999
3
3
3
3
3
3
3
3
3
3
3
3
3
3
3
3
3
3
3
2.99999
2.99999
2.99999
2.99999
3
3
3
3
3
3
3
3
3
3
3
3
3
3
3
3
3
3
3
3
2.99999
2.99999
2.99999
3
3
3
3
3
3
3
3
3
3
3
3
3
3
3
3
3
3
3
3
2.99999
2.99999
2.99999
3
3
3
3
3
3
3
3
3
3
3
3
3
3
3
3
3
3
3
3
2.99999
2.99999
2.99999
3
3
3
3
3
3
3
3
3
3
3
3
3
3
3
3
3
3
3
3
3
2.99999
2.99999
3
3
3
3
3
3
3
3
3
3
3
3
3
3
3
3
3
3
3
3
3
3
2.99999
3
3
3
3
3
3
3
3
3
3
3
3
3
3
3
3
3
3
3
3
3
2.99999
2.99999
3
3
3
3
3
3
3
3
3
3
3
3
3
3
3
3
3
3
3
3
3
3
2.99999
3
3
3
3
3
3
3
3
3
3
3
3
3
3
3
3
3
3
3
3
3
3
3
3
3
3
3
3
3
3
3
3
3
3
3
3
3
3
3
3
3
3
3
3
3
2.99999
3
3
3
3
3
3
3
3
3
3
3
3
3
3
3
3
3
3
3
3
3
3
3
3
3
3
3
3
3
3
3
3
3
3
3
3
3
3
3
3
3
3
3
3
3
3
3
3
3
3
3
3
3
3
3
3
3
3
3
3
3
3
3
3
3
3
3
3
3
3
3
3
3
3
3
3
3
3
3
3
3
3
3
3
3
3
3
3
3
3
3
3
3
3
3
3
3
3
3
3
3
3
3
3
3
3
3
3
3
3
3
3
3
3
3
3
3
3
3
3
3
3
3
3
3
3
3
3
3
3
3
3
3
3
3
3
3
3
3
3
3
3
3
3
3
3
3
3
3
3
3
3
3
3
3
3
3
3
3
3
3
3
3
3
3
3
3
3
3
3
3
3
3
3
3
3
3
3
3
3
3
3
3
3
1.54069
1.50526
1.4253
1.35531
0.251034
0.254262
0.24393
0.223256
0.110845
0.150396
0.199465
0.253799
0.535324
0.656309
0.868094
1.16424
1.91574
2.15538
2.5079
2.80574
2.9994
2.99932
2.99749
2.99713
2.99997
2.99998
2.99998
2.99998
2.99998
2.99998
2.99998
2.99998
2.99999
2.99998
2.99998
2.99998
2.99999
2.99999
2.99999
2.99999
2.99999
2.99999
2.99999
2.99999
2.99999
2.99999
2.99999
2.99999
3
3
2.99999
2.99999
2.99999
2.99999
2.99999
2.99999
2.99999
3
2.99999
2.99999
2.99999
2.99999
2.99999
2.99999
2.99999
3
2.99999
2.99999
3
2.99999
3
2.99999
3
2.99999
2.99999
2.99999
3
3
2.99999
2.99999
3
3
2.99999
2.99999
3
3
2.99999
2.99999
2.99999
2.99999
2.99999
2.99999
2.99999
2.99999
2.99999
2.99999
2.99999
2.99999
2.99999
2.99999
2.99999
2.99999
2.99999
2.99999
2.99999
2.99999
2.99999
2.99999
2.99999
2.99999
2.99999
2.99999
2.99999
2.99999
2.99999
2.99999
2.99999
2.99999
2.99998
2.99999
2.99999
2.99998
2.99999
2.99999
2.99999
2.99999
2.99998
2.99999
2.99999
2.99999
2.99999
2.99999
2.99999
2.99999
2.99999
2.99999
2.99999
2.99999
2.99999
2.99999
2.99999
3
2.99999
2.99999
2.99999
2.99999
2.99999
2.99999
3
3
2.99999
2.99999
2.99999
2.99999
3
2.99999
3
3
2.99999
2.99999
2.99999
2.99999
2.99999
2.99999
2.99999
3
3
3
0.925995
0.422905
0.30324
0.325985
0.328528
0.286697
0.255866
0.48571
0.52469
0.435606
0.54676
0.716419
0.832778
1.21556
1.02949
1.01669
1.01545
1.02033
1.17462
0.225906
0.333976
0.589804
0.844972
0.727251
0.531497
0.510751
0.407981
0.379819
0.354129
0.400407
0.558795
0.807344
1.9148
1.91419
1.03184
0.976641
1.00772
1.13034
0.458616
1.22092
2.05596
2.68829
2.60709
2.06992
1.36794
0.696639
0.536486
0.408456
0.399554
0.405335
0.713175
1.79115
1.85337
1.46504
0.842211
0.911611
1.04243
1.8326
2.50046
2.78506
2.77382
2.70376
2.72099
2.45406
1.81967
1.43942
0.737424
0.530355
0.486822
0.54162
0.807048
0.927313
0.859309
0.652414
0.7503
0.944367
2.97084
2.94315
2.47995
1.57104
1.39501
1.45148
1.60889
2.06996
2.11326
2.06484
1.45851
0.684172
0.576261
0.523154
0.49803
0.4982
0.471534
0.656511
0.888676
2.99947
2.98056
2.49294
1.3728
1.06179
1.03347
1.03264
1.04883
1.1739
1.92053
2.08957
2.002
1.01648
0.628012
0.564387
0.472373
0.509404
0.755558
1.09068
2.99998
2.99614
2.89726
2.40923
1.66855
1.22233
1.02885
1.00141
1.00129
1.01178
1.81495
2.06441
1.78115
1.25692
0.65679
0.566821
1.15103
2.13477
2.35763
2.99999
2.99965
2.99602
2.97032
2.82679
2.34446
1.53462
1.03821
1.00102
1.00087
1.01713
1.76689
2.72055
2.06002
1.25216
0.633797
2.27017
2.80628
2.76696
2.99999
2.99998
2.99994
2.9998
2.99852
2.97213
2.6316
1.44484
1.0216
1.00061
1.03428
1.75985
2.87526
2.8369
1.67369
0.824803
2.49912
2.80761
2.07915
2.99999
3
3
3.00001
3.00001
2.99993
2.96567
2.19041
1.09744
1.00063
1.05391
1.80342
2.87797
2.93685
2.49228
1.35878
2.08313
2.75971
1.30217
3
3
3
3.00001
3.00001
3
2.98603
2.44043
1.15279
1.0016
1.07556
1.79049
2.82295
2.93693
2.913
1.98914
1.35047
1.85836
0.89202
3
3
3.00001
3.00001
3.00001
2.99977
2.95538
2.271
1.13665
1.0029
1.17035
2.11303
2.86663
2.937
2.93701
2.72436
1.40979
0.915005
0.697857
3
3
3
3
3
2.99705
2.82647
1.81371
1.0585
1.00347
1.24129
2.35921
2.92863
2.9369
2.937
2.93252
1.94664
0.700615
0.686945
3
3
3
3
2.99999
2.99367
2.73759
1.609
1.03029
1.00044
1.14205
2.18489
2.92818
2.93689
2.93692
2.92762
1.98261
0.773048
0.720687
2.99999
3
2.99999
3
2.99999
2.99427
2.78591
1.88976
1.12463
1.00159
1.02281
1.47653
2.68624
2.93682
2.93697
2.50559
1.23506
0.827696
0.75535
2.99999
2.99999
3
2.99999
2.99999
2.99978
2.98435
2.72994
1.81771
1.11759
1.01722
1.01513
1.29242
1.67046
1.42242
1.03474
0.916413
0.829422
0.783818
2.99999
2.99999
2.99999
3
2.99999
3
2.99985
2.98636
2.76091
1.84915
1.10938
0.992653
0.972906
0.943201
0.917642
0.894683
0.870768
0.838559
0.825084
2.99999
2.99999
2.99999
2.99999
3
3
3
2.99992
2.99196
2.81706
1.97549
1.1532
0.985845
0.961775
0.94526
0.932673
0.934034
0.939283
0.941175
2.99999
2.99999
2.99999
2.99999
3
3
3
3
2.99998
2.99809
2.92116
2.31333
1.45279
1.12251
1.09396
1.16147
1.25368
1.26271
1.13869
2.99999
2.99999
2.99999
2.99999
3
3
3
3
3
2.99999
2.99889
2.98166
2.87702
2.68105
2.61551
2.77908
2.89338
2.74183
2.17163
2.99999
2.99999
2.99999
2.99999
3
3
3
3
3
3
3
2.99991
2.99963
2.99935
2.99927
2.99972
2.99996
2.98685
2.68892
2.99999
2.99999
2.99999
2.99999
3
3
3
3
3
3
3
3
3
3
3
3
3
2.99995
2.41128
2.99999
2.99999
2.99999
2.99999
3
3
3
3
3
3
3
3
3
3
3
3
3
3
2.31383
2.99999
2.99999
2.99999
3
3
3
3
3
3
3
3
3
3
3
3
3
3
2.99989
2.8082
2.99999
2.99999
2.99999
3
3
3
3
3
3
3
3
3
3
3
3
3
3
2.99971
2.98571
2.99999
2.99999
2.99999
3
3
3
3
3
3
3
3
3
3
3
3
3
3
2.99997
2.99805
2.99999
2.99999
2.99999
3
3
3
3
3
3
3
3
3
3
3
3
3
3
2.99991
2.99955
2.99999
2.99999
2.99999
3
3
3
3
3
3
3
3
3
3
3
3
3
3
2.9995
2.99954
2.99999
2.99999
2.99999
2.99999
3
3
3
3
3
3
3
3
3
3
3
3
2.99995
2.99939
2.99951
2.99999
2.99999
2.99999
2.99999
3
3
3
3
3
3
3
3
3
3
3
3
2.99989
2.9992
2.99666
2.99999
2.99999
2.99999
2.99999
3
3
3
3
3
3
3
3
3
2.99997
2.99977
2.99844
2.99525
2.9623
2.85468
2.99999
2.99999
2.99999
2.99999
3
3
3
3
3
3
3
3
3
2.99996
2.99943
2.98083
2.82008
2.46002
1.94899
2.99999
2.99999
2.99999
2.99999
3
3
3
3
3
3
3
3
3
2.99998
2.99927
2.962
2.52201
1.55572
1.10872
2.99999
2.99999
2.99999
3
3
3
3
3
3
3
3
3
3
3
2.99933
2.96561
2.55551
1.36192
1.02835
2.99999
2.99999
2.99999
3
3
3
3
3
3
3
3
3
3
3
2.99962
2.99163
2.8993
2.13622
1.02835
2.99999
2.99999
3
3
3
3
3
3
3
3
3
3
3
3
2.99987
2.99963
2.99651
2.89009
1.04197
2.99999
3
3
3
3
3
3
3
3
3
3
3
3
3
2.99998
3
3
2.99371
1.24269
3
3
3
3
3
3
3
3
3
3
3
3
3
3
3
3
3
2.99877
2.11699
3
3
3
3
3
3
3
3
3
3
3
3
3
3
3
3
3
2.99981
2.89975
3
3
3
3
3
3
3
3
3
3
3
3
3
3
3
3
3
2.99999
2.9974
3
3
3
3
3
3
3
3
3
3
3
3
3
3
3
3
3
3
2.99993
3
3
3
3
3
3
3
3
3
3
3
3
3
3
3
3
3
3
3
)
;

boundaryField
{
    leftWall
    {
        type            zeroGradient;
    }
    rightWall
    {
        type            zeroGradient;
    }
    lowerWall
    {
        type            zeroGradient;
    }
    atmosphere
    {
        type            zeroGradient;
    }
    defaultFaces
    {
        type            empty;
    }
}


// ************************************************************************* //
