/*--------------------------------*- C++ -*----------------------------------*\
| =========                 |                                                 |
| \\      /  F ield         | OpenFOAM: The Open Source CFD Toolbox           |
|  \\    /   O peration     | Version:  2.4.0                                 |
|   \\  /    A nd           | Web:      www.OpenFOAM.org                      |
|    \\/     M anipulation  |                                                 |
\*---------------------------------------------------------------------------*/
FoamFile
{
    version     2.0;
    format      ascii;
    class       volScalarField;
    location    "0.65";
    object      alpha.air;
}
// * * * * * * * * * * * * * * * * * * * * * * * * * * * * * * * * * * * * * //

dimensions      [0 0 0 0 0 0 0];

internalField   nonuniform List<scalar> 
2268
(
1.76905e-12
2.15973e-12
1.22984e-12
2.36803e-12
2.41959e-12
1.64686e-12
1.48138e-12
1.36476e-12
1.52645e-12
1.21787e-12
6.53244e-13
3.36641e-13
1.78592e-13
1.08622e-13
7.77563e-14
5.6555e-14
3.6397e-14
1.97419e-14
9.98114e-15
6.54615e-15
5.45018e-15
1.99343e-15
1.18229e-15
1.63952e-11
1.85292e-11
1.32009e-11
1.94157e-11
1.98759e-11
1.56878e-11
1.4702e-11
1.36204e-11
1.36577e-11
1.03504e-11
5.97867e-12
3.17459e-12
1.62955e-12
8.95717e-13
5.43446e-13
3.51718e-13
2.13328e-13
1.20241e-13
6.53464e-14
4.76942e-14
3.9041e-14
1.35431e-14
8.03403e-15
6.93144e-11
7.46513e-11
6.47899e-11
7.75264e-11
7.91444e-11
6.94825e-11
6.36773e-11
5.62972e-11
5.08032e-11
3.70858e-11
2.25351e-11
1.4429e-11
8.27193e-12
4.44248e-12
2.35753e-12
1.29377e-12
6.8905e-13
3.72391e-13
2.25031e-13
1.94306e-13
1.62839e-13
6.33708e-14
2.69623e-14
2.27286e-10
2.27076e-10
2.27349e-10
2.26989e-10
2.27272e-10
2.26897e-10
2.27126e-10
2.23003e-10
2.03889e-10
1.87855e-10
1.42032e-10
5.3971e-11
1.84347e-11
9.49286e-12
4.95516e-12
2.78925e-12
1.54708e-12
9.00185e-13
6.07797e-13
5.43334e-13
4.14647e-13
1.63118e-13
5.12785e-14
1.17897e-10
1.40898e-10
1.32166e-10
1.64859e-10
1.65942e-10
1.1604e-10
9.24647e-11
8.34976e-11
8.6887e-11
1.17106e-10
1.5953e-10
1.59619e-10
1.32188e-10
6.02621e-11
1.73086e-11
6.25404e-12
3.11759e-12
1.79042e-12
1.24641e-12
1.06237e-12
7.29339e-13
3.0114e-13
7.91147e-14
5.6768e-11
5.68836e-11
5.7587e-11
6.97227e-11
5.5356e-11
5.82937e-11
7.11677e-11
8.3801e-11
1.18341e-10
1.65764e-10
1.21023e-10
7.68482e-11
7.12218e-11
7.12234e-11
2.12528e-11
9.55808e-12
4.8831e-12
2.89661e-12
2.11239e-12
1.6537e-12
1.0341e-12
5.07875e-13
1.19988e-13
5.65432e-11
5.67908e-11
5.74775e-11
6.11919e-11
5.88367e-11
1.72014e-10
1.60565e-10
2.01364e-10
5.50478e-10
9.15797e-10
1.02175e-09
8.1286e-10
1.78512e-10
5.06219e-11
2.66006e-11
1.36137e-11
7.38348e-12
4.3023e-12
3.13167e-12
2.19902e-12
1.44038e-12
8.91696e-13
3.15515e-13
5.67922e-11
5.7042e-11
5.72885e-11
5.75479e-11
1.17457e-10
2.03001e-09
7.48993e-10
6.12561e-10
8.88956e-10
1.3055e-09
1.86514e-09
2.31259e-09
1.17385e-09
6.36573e-11
3.53364e-11
5.04534e-12
4.97547e-12
5.59205e-12
5.43173e-12
3.49173e-12
9.70084e-13
7.52377e-13
5.33464e-13
3.53976e-06
3.53556e-06
2.99807e-06
1.31697e-06
1.31699e-06
1.31701e-06
2.70684e-06
6.84905e-06
5.38851e-06
7.48705e-06
5.53569e-05
0.000154801
0.00013582
7.2099e-05
4.04582e-05
1.44448e-05
1.17139e-05
1.1714e-05
2.07902e-05
5.90069e-05
0.000396577
0.000103391
1.07828e-05
2.10498e-06
1.31706e-06
1.53611e-06
1.01488e-06
1.015e-06
1.18971e-06
2.35907e-06
5.26205e-06
6.58388e-05
0.000311651
0.000316851
9.81205e-05
1.40258e-05
1.68285e-05
4.3723e-05
0.00152929
0.0059785
0.00182746
0.000323512
9.56837e-05
0.000127248
5.74283e-05
6.2104e-06
2.38152e-06
4.945e-06
1.2107e-06
1.14268e-06
1.04286e-05
7.45569e-05
0.000158022
0.000664876
0.000176529
0.000145125
4.01715e-05
0.00116885
0.00948361
0.00948345
0.00497806
0.00636685
0.0177631
0.0160623
0.00354396
0.000815926
0.000153601
1.21492e-05
1.01743e-06
1.01478e-06
1.4539e-06
8.01649e-06
0.00121777
0.0016436
0.000145752
4.01834e-05
0.000273038
0.00036565
0.00563401
0.0111205
0.049952
0.0929842
0.0928802
0.0524594
0.00649176
0.000178746
4.11239e-05
1.90501e-06
1.01478e-06
1.01479e-06
1.6914e-06
0.000307001
0.00165633
0.000126372
0.000125091
6.48493e-05
0.000309702
0.000472183
0.00197163
0.0178032
0.0736934
0.0929842
0.0293627
0.0020566
2.64506e-05
2.74642e-06
2.10636e-06
2.60335e-06
3.04223e-06
2.70576e-06
3.17828e-05
0.00165729
0.000916217
0.000184226
0.00142883
0.000922599
0.000478947
0.000497046
0.000816007
0.0200355
0.0597038
0.0330769
0.00400162
8.7813e-05
5.16712e-06
2.32481e-05
3.45194e-05
1.35677e-05
2.78087e-06
9.34624e-06
0.00165633
0.00165729
0.000214549
0.00988232
0.00291437
0.000486393
0.000493789
0.000507141
0.00101997
0.0174778
0.09149
0.0347076
0.00132887
3.09335e-05
4.84848e-05
3.41958e-05
7.47792e-06
2.79033e-06
4.0219e-06
0.000954699
0.00165635
0.000617143
3.24031e-08
3.25723e-08
2.34948e-08
9.60391e-09
8.73892e-09
6.59614e-09
2.02767e-09
1.05034e-09
1.0462e-09
1.35535e-09
2.36416e-09
3.64761e-09
3.6518e-09
2.25924e-09
1.18978e-09
7.88224e-10
4.05699e-10
3.21002e-11
1.66694e-11
7.48192e-12
5.18967e-10
5.11518e-09
2.09308e-08
3.259e-07
3.07024e-07
2.51519e-07
1.09063e-07
3.72032e-08
2.4655e-08
1.02314e-08
4.29924e-09
2.38429e-09
1.60711e-09
1.65857e-09
1.82802e-09
2.79056e-09
5.97238e-09
5.9083e-09
5.17015e-09
2.73983e-09
7.15701e-10
9.59525e-10
8.58157e-10
1.27918e-07
7.00409e-07
5.06088e-06
8.03078e-07
7.62755e-07
5.92872e-07
1.28247e-06
8.60746e-07
1.04707e-06
1.81917e-06
3.33531e-07
1.09413e-07
5.06296e-08
1.88469e-08
4.71507e-09
2.84904e-09
4.22214e-09
5.32844e-09
5.95121e-09
5.15645e-09
3.61957e-08
2.84499e-07
6.41656e-07
1.58148e-06
7.94165e-06
7.43206e-05
8.03092e-07
3.77462e-05
0.00049974
0.000199476
7.42479e-05
0.00126304
0.00198207
1.89141e-05
1.75588e-06
4.7028e-07
1.46076e-07
3.17144e-08
2.85668e-09
3.23536e-09
3.90292e-09
3.6397e-08
7.62031e-07
2.76817e-05
9.18833e-05
0.000465466
0.00145175
0.00574346
0.0232896
0.0588905
0.0773864
0.0781129
0.0277149
0.0300102
0.0981142
0.101678
0.0676779
0.0399144
0.0142727
0.00413275
0.00368993
0.00534758
0.0025662
0.00201399
0.00186161
0.00417823
0.0180564
0.0314572
0.0666085
0.129183
0.249821
0.396174
0.89339
0.926999
0.921912
0.832367
0.833993
0.95092
0.916628
0.737897
0.555555
0.436014
0.388308
0.333228
0.212212
0.131848
0.123196
0.121047
0.188925
0.33859
0.441529
0.602621
0.769726
0.90806
0.989436
0.999834
0.999709
0.999032
0.997913
0.998512
0.999916
0.999999
0.999999
0.999998
0.999968
0.999893
0.998002
0.984631
0.95551
0.941864
0.939998
0.971517
0.992195
0.998277
0.999878
0.999993
0.999995
0.999991
0.999999
0.999999
0.999998
0.999997
0.999998
0.999999
0.999999
0.999999
1
0.999999
0.999999
0.999999
0.999999
0.999999
1
1
1
1
1
1
1
1
0.999998
0.999999
0.999999
0.999999
0.999999
0.999999
0.999999
0.999999
1
1
1
0.999999
0.999999
0.999999
0.999999
0.999999
0.999999
0.999999
0.999999
1
1
1
1
0.999998
0.999999
0.999999
0.999999
0.999999
0.999999
0.999999
1
1
1
1
0.999999
0.999999
0.999999
0.999999
0.999999
0.999999
0.999999
0.999999
1
1
1
0.999999
0.999999
0.999999
0.999999
0.999999
0.999999
0.999999
0.999999
0.999999
1
1
1
0.999999
0.999999
0.999999
0.999999
0.999999
0.999999
1
1
1
1
1
1
0.999998
0.999999
0.999998
0.999999
0.999999
0.999999
0.999999
0.999999
0.999999
1
0.999999
0.999999
0.999999
1
0.999999
1
1
1
1
1
1
1
0.999999
0.999999
0.999998
0.999999
0.999999
0.999999
0.999999
0.999999
0.999999
1
1
0.999999
1
1
1
1
1
1
1
1
1
1
1
1
0.999999
0.999999
0.999999
0.999999
0.999999
0.999999
0.999999
0.999999
1
1
1
1
1
1
1
1
1
1
1
1
1
1
0.999999
0.999999
0.999999
0.999999
0.999999
0.999999
0.999999
0.999999
1
1
1
1
1
1
1
1
1
1
1
1
1
1
1
0.999999
0.999999
0.999999
0.999999
0.999999
0.999999
0.999999
1
1
1
1
1
1
1
1
1
0.999999
1
1
1
1
1
0.999999
0.999999
0.999998
0.999999
0.999999
0.999999
0.999999
0.999999
1
1
1
1
1
1
1
1
0.999999
1
0.999999
1
1
1
1
1
0.999999
0.999999
0.999999
0.999999
0.999999
0.999999
1
1
1
1
1
1
1
1
1
1
0.999999
1
1
1
1
1
1
1
0.999998
0.999999
0.999999
0.999999
0.999999
1
1
1
1
1
1
1
1
1
0.999999
1
0.999999
1
1
1
1
1
1
1
0.999999
0.999999
0.999999
0.999999
1
1
1
1
1
1
1
1
1
1
0.999999
1
1
1
1
1
1
1
1
0.999999
0.999999
0.999999
0.999999
1
1
1
1
1
1
1
1
1
0.999999
1
0.999999
0.999999
0.999999
1
1
1
0.999999
1
0.999999
0.999999
0.999999
1
1
1
1
1
1
1
1
1
1
1
0.999999
1
0.999999
0.999999
0.999999
0.999999
0.999999
0.999999
0.999999
0.999999
0.999999
0.999999
1
1
1
1
1
1
1
1
1
1
1
1
0.999999
0.999999
0.999999
0.999999
0.999999
0.999999
0.999998
0.999999
0.999999
0.999999
0.999999
1
1
1
1
1
1
1
1
1
1
1
0.999999
1
0.999999
0.999999
0.999998
0.999998
0.999998
0.999998
0.999998
0.999999
0.999999
0.999999
1
1
1
1
1
1
1
1
1
1
1
1
0.999999
0.999999
0.999999
0.999999
0.999998
0.999998
0.999998
0.999998
0.999999
0.999999
1
1
1
1
1
1
1
1
1
1
1
1
1
1
0.999999
0.999999
0.999999
0.999998
0.999998
0.999998
0.999997
0.999999
0.999999
1
1
1
1
1
1
1
1
1
1
1
1
1
1
1
0.999999
0.999999
0.999999
0.999998
0.999997
0.999997
1
1
1
1
1
1
1
1
1
1
1
1
1
1
1
1
1
0.999999
0.999999
0.999999
0.999998
0.999998
0.999997
0.999999
1
1
1
1
1
1
1
1
1
1
1
1
1
1
1
1
1
0.999999
0.999999
0.999999
0.999998
0.999997
1
1
1
1
1
1
1
1
1
1
1
1
1
1
1
1
1
1
1
0.999999
0.999999
0.999998
0.999997
0.999999
1
1
1
1
1
1
1
1
1
1
1
1
1
1
1
1
1
1
1
0.999999
0.999998
0.999998
1
1
1
1
1
1
1
1
1
1
1
1
1
1
1
1
1
1
1
1
0.999999
0.999999
0.999998
1
1
1
1
1
1
1
1
1
1
1
1
1
1
1
1
1
1
1
1
1
0.999999
0.999999
1
1
1
1
1
1
1
1
1
1
1
1
1
1
1
1
1
0.999999
1
1
1
1
0.999998
1
1
1
1
1
1
1
1
1
1
1
1
1
1
1
0.999999
0.999999
0.999999
0.999999
1
1
0.999999
0.999999
1
1
1
1
1
1
1
1
1
1
1
1
1
1
0.999999
1
0.999999
0.999999
0.999999
1
0.999999
1
0.999998
1
1
1
1
1
1
1
1
1
1
1
1
1
1
1
0.999999
0.999999
0.999999
0.999999
0.999999
1
0.999999
1
1
1
1
1
1
1
1
1
1
1
1
1
1
1
0.999999
1
0.999999
0.999999
0.999999
0.999999
0.999999
1
0.999999
1
1
1
1
1
1
1
1
1
1
1
1
1
1
1
0.999999
0.999999
0.999999
0.999999
0.999999
1
1
1
1
1
1
1
1
1
1
1
1
1
1
1
1
1
1
1
0.999999
0.999999
0.999999
0.999999
1
0.999999
1
1
1
1
1
1
1
1
1
1
1
1
1
1
1
1
0.999999
0.999999
0.999999
0.999999
0.999999
0.999999
1
0.999999
1
1
1
1
1
1
1
1
1
1
1
1
1
1
1
1
1
1
1
1
1
1
1
1.22639e-07
3.96394e-07
1.43126e-06
2.53223e-06
2.08849e-05
6.19705e-05
0.000202003
0.000349576
0.000237088
0.000639723
0.00206797
0.00525469
0.0438261
0.0791725
0.149796
0.248491
0.505256
0.604347
0.762133
0.904156
0.999706
0.999668
0.99875
0.998566
0.999991
0.999992
0.999993
0.999993
0.999994
0.999993
0.999993
0.999994
0.999996
0.999994
0.999993
0.999995
0.999996
0.999995
0.999995
0.999996
0.999998
0.999997
0.999995
0.999997
0.999997
0.999996
0.999997
0.999997
0.999999
0.999998
0.999996
0.999998
0.999998
0.999996
0.999998
0.999997
0.999998
0.999999
0.999996
0.999998
0.999998
0.999996
0.999997
0.999996
0.999996
0.999999
0.999997
0.999998
0.999999
0.999998
0.999999
0.999996
0.999999
0.999998
0.999998
0.999997
1
0.999999
0.999998
0.999997
0.999999
0.999998
0.999998
0.999998
0.999999
0.999999
0.999997
0.999998
0.999998
0.999998
0.999998
0.999997
0.999998
0.999998
0.999997
0.999997
0.999997
0.999997
0.999996
0.999997
0.999997
0.999997
0.999996
0.999997
0.999996
0.999996
0.999996
0.999996
0.999996
0.999996
0.999995
0.999996
0.999996
0.999995
0.999995
0.999996
0.999996
0.999996
0.999995
0.999996
0.999996
0.999995
0.999996
0.999995
0.999997
0.999997
0.999995
0.999996
0.999996
0.999995
0.999996
0.999996
0.999998
0.999998
0.999995
0.999997
0.999997
0.999996
0.999997
0.999996
0.999998
0.999999
0.999996
0.999997
0.999997
0.999997
0.999998
0.999997
0.999999
0.999999
0.999997
0.999998
0.999998
0.999997
0.999998
0.999998
0.999999
0.999999
0.999997
0.999998
0.999998
0.999997
0.999998
0.999998
0.999997
0.999999
0.999998
0.999999
0.00175233
0.00691465
0.00210057
0.00153963
0.000820504
0.000804867
0.0138393
0.101728
0.10186
0.0264065
0.000897057
6.41999e-05
0.00352563
0.133823
0.0161185
5.09203e-06
9.8867e-05
0.000897326
0.00375143
0.000944554
0.0208315
0.071806
0.133321
0.0935759
0.028118
0.0209404
0.0187747
0.0293727
0.0164864
0.00140027
0.000173152
0.0789499
0.510405
0.478401
0.0547433
0.000270655
0.000557545
0.00721743
0.04116
0.295425
0.591963
0.859231
0.814461
0.555806
0.263059
0.0392867
0.00680132
0.00357881
0.00153971
0.000311641
0.115073
0.505801
0.525641
0.366659
0.0299445
0.00152804
0.00197179
0.493191
0.75618
0.892637
0.886933
0.851889
0.860518
0.727419
0.413639
0.287137
0.0530216
0.00136612
0.000305405
0.0400556
0.166628
0.218102
0.195426
0.0664939
0.00307614
0.00167653
0.986085
0.971625
0.739976
0.285521
0.197502
0.225738
0.304442
0.534988
0.556882
0.538728
0.297634
0.038595
0.0138879
0.0149595
0.0300226
0.0379076
0.0190855
0.00279074
0.00181282
0.999735
0.99028
0.746468
0.186404
0.0308971
0.0167304
0.0163096
0.0244036
0.0869461
0.460278
0.560401
0.540147
0.144873
0.015233
0.00200891
0.00201307
0.0248482
0.0622628
0.0968838
0.99999
0.998071
0.948628
0.704616
0.334272
0.11116
0.0144178
0.00069982
0.000643213
0.00588935
0.407552
0.552196
0.415874
0.22477
0.0246816
0.0040718
0.274104
0.645962
0.691767
0.999995
0.999825
0.998007
0.985159
0.913391
0.672229
0.267305
0.0191101
0.0005437
0.000480647
0.00860522
0.384375
0.861146
0.538898
0.223176
0.0220144
0.71914
0.914623
0.891413
0.999997
0.999992
0.999968
0.999898
0.999258
0.986064
0.815797
0.222439
0.0109149
0.000456395
0.0172564
0.379961
0.937662
0.918614
0.368773
0.0857509
0.800524
0.915156
0.611257
0.999998
1
1
1
1
0.999961
0.982834
0.595244
0.0490409
0.000771813
0.027307
0.401879
0.939016
0.968462
0.755236
0.263666
0.609114
0.900317
0.295805
0.999999
1
1
1
1
1
0.993013
0.720267
0.0769928
0.00172657
0.0385883
0.395569
0.911505
0.968488
0.957093
0.520269
0.281084
0.561576
0.103759
0.999999
1
1
1
1
0.999884
0.977687
0.635624
0.0692687
0.00288923
0.0865502
0.556947
0.933358
0.968523
0.968533
0.865644
0.281807
0.128285
0.0105615
0.999999
1
1
1
1
0.998525
0.913242
0.407144
0.0307317
0.00384656
0.122601
0.680271
0.964349
0.968473
0.968523
0.966585
0.503966
0.00774398
0.000161457
0.999999
0.999999
1
0.999999
0.999997
0.996834
0.868803
0.304884
0.0171432
0.00366748
0.0749641
0.594199
0.964154
0.968467
0.968486
0.964011
0.510371
0.00133109
4.49116e-05
0.999997
0.999999
0.999997
0.999999
0.999995
0.997135
0.892966
0.445244
0.0645214
0.0052459
0.0176641
0.244634
0.844807
0.968496
0.96853
0.753594
0.140483
0.000497256
4.46922e-05
0.999998
0.999997
0.999998
0.999997
0.999997
0.999887
0.992175
0.865043
0.410077
0.0637019
0.016637
0.0201312
0.160395
0.347869
0.228887
0.0516953
0.0121647
0.000100223
3.46679e-05
0.999997
0.999998
0.999996
0.999999
0.999997
0.999999
0.999923
0.993178
0.880631
0.427065
0.0631903
0.0107078
0.00423606
0.00476355
0.00286687
0.000540593
0.000141552
3.84549e-05
3.82488e-05
0.999998
0.999996
0.999998
0.999996
0.999999
0.999998
1
0.999957
0.995982
0.908703
0.49019
0.0852071
0.00839917
0.000587838
0.000516314
0.000567563
0.00309519
0.00495908
0.00339277
0.999998
0.999997
0.999997
0.999997
0.999999
0.999999
1
1
0.999991
0.999043
0.960658
0.657855
0.230572
0.0683744
0.0557344
0.0886234
0.130024
0.132414
0.069828
0.999998
0.999997
0.999997
0.999997
0.999998
0.999999
1
1
1
0.999994
0.999445
0.990841
0.938652
0.840914
0.808192
0.889682
0.94664
0.870792
0.585603
0.999998
0.999997
0.999997
0.999998
0.999998
0.999999
1
1
1
1
0.999999
0.999955
0.999816
0.999675
0.999634
0.999859
0.99998
0.993425
0.844456
0.999998
0.999998
0.999998
0.999998
0.999999
1
1
1
1
1
1
1
1
1
1
1
1
0.999976
0.705637
0.999998
0.999998
0.999998
0.999998
0.999999
1
1
1
1
1
1
1
1
1
1
1
1
0.999997
0.656915
0.999998
0.999998
0.999998
0.999998
0.999999
1
1
1
1
1
1
1
1
1
1
1
1
0.999944
0.904098
0.999998
0.999998
0.999998
0.999999
0.999999
1
1
1
1
1
1
1
1
1
1
1
1
0.999853
0.992853
0.999997
0.999997
0.999998
0.999999
0.999999
1
1
1
1
1
1
1
1
1
1
1
1
0.999983
0.999022
0.999997
0.999997
0.999998
0.999999
0.999999
1
1
1
1
1
1
1
1
1
1
1
1
0.999953
0.999775
0.999997
0.999997
0.999998
0.999998
0.999999
1
1
1
1
1
1
1
1
1
1
1
0.999999
0.999752
0.999767
0.999996
0.999997
0.999997
0.999998
0.999999
1
1
1
1
1
1
1
1
1
1
1
0.999974
0.999692
0.999753
0.999996
0.999997
0.999997
0.999998
0.999999
1
1
1
1
1
1
1
1
1
0.999999
0.999999
0.999944
0.999598
0.99833
0.999996
0.999997
0.999997
0.999998
0.999999
0.999999
1
1
1
1
1
1
0.999999
0.999983
0.999886
0.999221
0.997623
0.981151
0.927336
0.999996
0.999997
0.999997
0.999998
0.999999
0.999999
1
1
1
1
1
1
0.999998
0.999979
0.999715
0.990413
0.910039
0.730007
0.474495
0.999997
0.999997
0.999998
0.999998
0.999999
0.999999
1
1
1
1
1
1
0.999998
0.999992
0.999635
0.981001
0.761005
0.27786
0.0543588
0.999997
0.999997
0.999998
0.999998
0.999999
1
1
1
1
1
1
1
1
0.999998
0.999662
0.982803
0.777752
0.180956
0.0141734
0.999997
0.999998
0.999998
0.999999
0.999999
1
1
1
1
1
1
1
1
0.999999
0.999811
0.995816
0.949651
0.568107
0.0141734
0.999998
0.999998
0.999998
0.999999
0.999999
1
1
1
1
1
1
1
1
0.999999
0.999935
0.999814
0.998256
0.945046
0.0209839
0.999998
0.999998
0.999999
0.999999
0.999999
1
1
1
1
1
1
1
1
0.999999
0.99999
0.999999
0.999999
0.996855
0.121342
0.999998
0.999999
0.999999
0.999999
0.999999
0.999999
0.999999
0.999999
0.999999
0.999999
1
1
1
1
0.999999
1
1
0.999384
0.558493
0.999999
0.999999
0.999999
0.999999
0.999999
0.999999
0.999999
0.999999
0.999999
0.999999
0.999999
1
1
1
1
1
1
0.999904
0.949874
0.999999
0.999999
0.999999
0.999999
0.999999
0.999999
0.999999
0.999999
0.999999
0.999999
0.999999
0.999999
0.999999
0.999999
0.999999
0.999999
1
0.999995
0.9987
0.999999
0.999999
0.999999
0.999999
0.999999
0.999999
0.999999
0.999999
0.999999
0.999999
0.999999
0.999999
0.999999
0.999999
0.999999
1
1
0.999999
0.999967
1
1
1
0.999999
0.999999
0.999999
0.999999
0.999999
0.999999
0.999999
0.999999
0.999999
0.999999
1
1
1
1
1
0.999999
)
;

boundaryField
{
    leftWall
    {
        type            alphaContactAngle;
        thetaProperties 6 ( ( water mercury ) 90 0 0 0 ( water air ) 90 0 0 0 ( water oil ) 90 0 0 0 ( mercury air ) 90 0 0 0 ( oil mercury ) 90 0 0 0 ( oil air ) 90 0 0 0 );
        value           nonuniform List<scalar> 
50
(
1.76905e-12
1.63952e-11
6.93144e-11
2.27286e-10
1.17897e-10
5.6768e-11
5.65432e-11
5.67922e-11
3.24031e-08
3.259e-07
8.03078e-07
8.03092e-07
0.0588905
0.89339
0.999834
0.999999
0.999999
0.999999
0.999999
0.999999
0.999998
0.999999
0.999999
0.999999
0.999999
0.999999
0.999999
0.999999
0.999999
0.999999
0.999999
0.999999
0.999999
0.999999
0.999999
1
0.999999
1
0.999999
1
1
1
1
1
1
1
1
1
1
1
)
;
    }
    rightWall
    {
        type            alphaContactAngle;
        thetaProperties 6 ( ( water mercury ) 90 0 0 0 ( water air ) 90 0 0 0 ( water oil ) 90 0 0 0 ( mercury air ) 90 0 0 0 ( oil mercury ) 90 0 0 0 ( oil air ) 90 0 0 0 );
        value           nonuniform List<scalar> 
50
(
2.07902e-05
4.3723e-05
4.01715e-05
4.01834e-05
0.000125091
0.000184226
0.000214549
0.000617143
0.00375143
0.00721743
0.00197179
0.00167653
0.00181282
0.0968838
0.691767
0.891413
0.611257
0.295805
0.103759
0.0105615
0.000161457
4.49116e-05
4.46922e-05
3.46679e-05
3.82488e-05
0.00339277
0.069828
0.585603
0.844456
0.705637
0.656915
0.904098
0.992853
0.999022
0.999775
0.999767
0.999753
0.99833
0.927336
0.474495
0.0543588
0.0141734
0.0141734
0.0209839
0.121342
0.558493
0.949874
0.9987
0.999967
0.999999
)
;
    }
    lowerWall
    {
        type            alphaContactAngle;
        thetaProperties 6 ( ( water mercury ) 90 0 0 0 ( water air ) 90 0 0 0 ( water oil ) 90 0 0 0 ( mercury air ) 90 0 0 0 ( oil mercury ) 90 0 0 0 ( oil air ) 90 0 0 0 );
        value           nonuniform List<scalar> 
62
(
1.76905e-12
2.15973e-12
1.22984e-12
2.36803e-12
2.41959e-12
1.64686e-12
1.48138e-12
1.36476e-12
1.52645e-12
1.21787e-12
6.53244e-13
3.36641e-13
1.78592e-13
1.08622e-13
7.77563e-14
5.6555e-14
3.6397e-14
1.97419e-14
9.98114e-15
6.54615e-15
5.45018e-15
1.99343e-15
1.18229e-15
1.18229e-15
8.03403e-15
2.69623e-14
5.12785e-14
7.91147e-14
1.19988e-13
3.15515e-13
5.33464e-13
1.22639e-07
3.96394e-07
1.43126e-06
2.53223e-06
3.53976e-06
5.90069e-05
0.00152929
0.00116885
0.000273038
6.48493e-05
0.00142883
0.00988232
3.53976e-06
3.53556e-06
2.99807e-06
1.31697e-06
1.31699e-06
1.31701e-06
2.70684e-06
6.84905e-06
5.38851e-06
7.48705e-06
5.53569e-05
0.000154801
0.00013582
7.2099e-05
4.04582e-05
1.44448e-05
1.17139e-05
1.1714e-05
2.07902e-05
)
;
    }
    atmosphere
    {
        type            inletOutlet;
        inletValue      uniform 1;
        value           nonuniform List<scalar> 
46
(
1
1
1
1
1
1
1
1
1
1
1
1
1
1
1
1
1
1
1
1
1
1
1
0.999997
0.999999
0.999998
0.999999
1
1
1
0.999999
0.999999
0.999999
0.999999
0.999999
0.999999
0.999999
0.999999
0.999999
1
1
1
1
1
1
1
)
;
    }
    defaultFaces
    {
        type            empty;
    }
}


// ************************************************************************* //
