/*--------------------------------*- C++ -*----------------------------------*\
| =========                 |                                                 |
| \\      /  F ield         | OpenFOAM: The Open Source CFD Toolbox           |
|  \\    /   O peration     | Version:  2.4.0                                 |
|   \\  /    A nd           | Web:      www.OpenFOAM.org                      |
|    \\/     M anipulation  |                                                 |
\*---------------------------------------------------------------------------*/
FoamFile
{
    version     2.0;
    format      ascii;
    class       volScalarField;
    location    "0.65";
    object      p;
}
// * * * * * * * * * * * * * * * * * * * * * * * * * * * * * * * * * * * * * //

dimensions      [1 -1 -2 0 0 0 0];

internalField   nonuniform List<scalar> 
2268
(
3519.84
3519.09
3508.46
3514.24
3506.23
3506.24
3527.17
3565.06
3644.7
3786.11
3985.66
4269.8
4709.36
5274.83
5884.97
6567.81
6974.09
7285.95
7504.31
7663.75
7773.87
7839.21
7867.21
2678.82
2677.15
2669.41
2672.13
2666.12
2666.49
2678.57
2700.66
2745.91
2846.95
3043.21
3362.32
3868.47
4457.3
5092.76
5773.97
6178.26
6487.14
6714.41
6878.63
6985.24
7045.45
7073.17
1957.78
1954.62
1947.87
1945.28
1933.4
1932.38
1953.84
1997.36
2089.95
2243.59
2455.57
2646.59
3027.22
3604.93
4326
5011.13
5440.22
5751.4
5959.79
6104.4
6202.79
6259.29
6284.16
1033.94
1029.72
1032.4
1021.5
1015.92
1017.97
1019.58
1032.94
1054.97
1090.29
1137.87
1481.55
2125.34
2798.71
3572.42
4233.94
4676.85
4983.47
5214.9
5334.48
5423.86
5480.3
5501.32
777.492
777.274
776.492
774.816
774.659
775.039
773.663
774.776
779.562
791.67
811.333
890.706
1052.66
1706.26
2819.76
3502.63
3959.87
4250.67
4415.63
4568.85
4649.19
4701.11
4723.08
845.522
844.967
841.932
840.559
841.305
843.293
851.864
866.732
887.938
901.633
909.022
880.27
871.131
964.12
1947.5
2779.17
3266.93
3577.92
3745.03
3821.03
3885.04
3926.31
3948.89
690.275
690.223
690.635
686.954
682.566
680.378
674.159
673.153
680.573
697.078
720.371
766.692
826.449
811.803
1174.82
2094.8
2581.27
2788.63
3005.74
3077.52
3120.56
3153.8
3180.8
696.39
694.167
687.339
686.49
686.357
685.74
702.819
725.184
737.036
744.501
743.334
730.239
752.782
766.66
765.194
1352.76
1962.44
2267.42
2338.68
2341.08
2341.98
2362.01
2420.38
2508.71
2762.61
4157.31
4430.52
3951.94
3440.41
3090.03
2850.37
2729.57
2695.11
2708.82
2721.24
2755.53
2846.7
3088.55
3513.05
4273.05
4863.7
5140.83
1540.36
1815.57
2943.63
3326.17
2907.75
2434.16
2077.21
1791.94
1596.3
1514.99
1458.54
1433.68
1437.52
1558.49
1776.91
2078.18
2922.35
3728.21
4179.41
1527.84
1630.43
2166.85
2315.83
1999.4
1641.48
1373.61
1193.09
1102.86
1089.18
1081.04
1085.89
1116
1208.17
1313.73
1456.5
2261.95
3429
3887.67
1476.98
1413.78
1604.43
1484.22
1188.17
1009.16
904.063
857.11
849.478
863.887
889.973
900.339
932.234
1001.55
1075.86
1121.23
1585.7
2674.92
3214.81
1403.63
1265.74
1192.23
1049.49
954.374
878.977
852.546
851.653
847.577
841.114
836.82
846.835
881.335
936.073
1000.75
1063.98
1193.84
1773.52
2501.04
1209.45
1069.85
893.078
827.421
827.87
815.315
805.902
813.912
810.936
812.112
802.705
805.621
827.91
868.119
922.063
983.742
1014.5
1067.17
1814.32
710.641
785.814
695.171
695.967
714.906
732.214
737.156
731.683
735.134
747.628
759.91
762.798
772.064
798.945
845.955
894.944
946.31
744.267
1369
306.72
565.676
571.015
604.34
638.828
658.395
673.18
674.008
683.187
700.937
715.066
721.692
722.465
735.709
771.728
814.051
889.711
657.001
1106.46
532.02
534.858
539.106
537.959
529.518
520.097
500.166
488.774
498.699
518.758
548.892
587.597
615.06
620.635
537.475
459.96
559.789
692.879
849.022
960.598
1066.92
1060.85
1120.31
466.256
459.944
447.717
433.875
422.718
417.689
429.518
448.123
451.788
456.591
456.41
457.981
460.551
454.593
394.989
302.477
229.817
175.518
163.302
197.908
231.074
231.48
196.881
290.321
291.267
292.741
282.805
259.119
237.609
229.408
232.784
261.305
280.641
299.233
315.546
326.877
331.597
313.612
285.799
262.467
239.242
208.298
208.102
218.715
221.286
210.363
226.346
221.826
229.156
212.136
173.566
143.112
131.87
133.51
144.494
150.668
161.316
172.046
182.75
193.163
193.56
182.747
166.57
149.586
134.973
126.597
111.891
93.9556
66.9739
34.2282
37.2517
44.3985
41.1622
31.7341
21.7115
25.8477
41.5907
58.2162
72.3011
79.8855
85.9322
93.7428
106.35
110.748
99.5676
86.7996
62.4638
47.2827
37.1636
29.6591
23.3328
11.4415
5.98126
5.69332
5.89386
6.15393
5.69497
4.83155
5.09227
5.53703
5.94215
5.30502
6.76732
10.8266
17.1896
23.0726
24.1316
22.4493
18.0379
12.4713
8.64515
6.07774
4.27475
4.5518
4.61521
4.84061
4.77175
4.80525
4.58966
4.58801
4.72927
4.694
4.63377
4.70273
4.69069
4.35932
4.18149
4.19607
4.24284
4.10668
4.05161
4.09964
4.31167
4.58063
4.90218
5.23051
5.30479
5.57131
5.0623
5.01795
5.08355
5.01345
4.94493
4.83233
4.86278
4.98767
5.0846
5.1721
5.21403
5.41396
5.47837
5.56141
5.67917
5.73968
5.84851
5.84598
5.72957
5.47711
5.19707
5.2223
5.38432
4.80644
4.71875
4.79271
4.76189
4.69292
4.63823
4.57641
4.56075
4.61698
4.54561
4.55871
4.49076
4.62738
4.71348
4.74346
4.69943
4.5914
4.51859
4.50867
4.60628
4.75066
4.91961
5.04808
4.61871
4.57656
4.6292
4.61474
4.59315
4.5701
4.52991
4.53494
4.57712
4.59332
4.61949
4.62404
4.66921
4.68626
4.70441
4.75939
4.84145
4.93494
5.00602
4.99799
4.94744
4.91845
4.90998
4.48786
4.47081
4.48378
4.47995
4.47021
4.45658
4.42313
4.45087
4.47103
4.48136
4.48917
4.49121
4.53123
4.5533
4.57562
4.61039
4.63054
4.61298
4.58633
4.57191
4.60872
4.6483
4.67342
4.354
4.34547
4.34096
4.33232
4.32569
4.32582
4.30849
4.33588
4.33432
4.34838
4.37008
4.38697
4.40122
4.41229
4.42202
4.43127
4.43842
4.43848
4.44308
4.46473
4.47057
4.47724
4.48712
4.21355
4.20925
4.2055
4.20195
4.19878
4.19421
4.18744
4.1963
4.20292
4.21303
4.22989
4.24317
4.25849
4.26872
4.28159
4.29695
4.31197
4.3235
4.32806
4.32052
4.32313
4.32558
4.32777
4.07008
4.06847
4.06409
4.06087
4.05862
4.05714
4.0556
4.06168
4.06629
4.07424
4.08588
4.09563
4.10293
4.11264
4.12119
4.12837
4.13265
4.13297
4.13734
4.14899
4.15627
4.16166
4.16504
3.92627
3.9255
3.92264
3.92071
3.91917
3.91826
3.9183
3.92285
3.9269
3.93322
3.94154
3.94935
3.95659
3.96416
3.97099
3.97757
3.98382
3.99022
3.99366
3.99672
3.99873
4.00005
4.0006
3.78249
3.78194
3.78026
3.77913
3.77834
3.77819
3.77914
3.78208
3.78565
3.79083
3.79688
3.80295
3.80891
3.81511
3.82136
3.82692
3.83181
3.83571
3.83725
3.83859
3.83895
3.83833
3.83665
3.63885
3.63851
3.6376
3.637
3.63669
3.63697
3.63806
3.64031
3.64326
3.64729
3.65179
3.65655
3.6612
3.66584
3.67019
3.67405
3.67717
3.67934
3.68019
3.68005
3.67888
3.67652
3.67276
3.4954
3.49522
3.49476
3.49449
3.49447
3.49493
3.49595
3.4977
3.50002
3.5031
3.50644
3.51003
3.51349
3.51686
3.51982
3.52226
3.52396
3.52462
3.52424
3.5227
3.51983
3.51568
3.50992
3.35207
3.35197
3.35176
3.35169
3.35182
3.35229
3.35315
3.35448
3.35623
3.3585
3.3609
3.36344
3.36579
3.36795
3.36965
3.37086
3.3713
3.37077
3.36914
3.36628
3.36202
3.35624
3.34878
3.20877
3.20873
3.20865
3.20865
3.20882
3.20922
3.20989
3.21086
3.21211
3.2136
3.21519
3.21693
3.21829
3.21936
3.22003
3.22012
3.21939
3.2178
3.21507
3.21105
3.20564
3.19852
3.18974
3.06548
3.06546
3.06543
3.06546
3.06561
3.06589
3.06635
3.06699
3.06777
3.0687
3.06962
3.07045
3.07104
3.07124
3.07103
3.07016
3.06851
3.06598
3.06227
3.05731
3.05087
3.04275
3.03302
2.92218
2.92217
2.92215
2.92216
2.92223
2.92239
2.92264
2.92298
2.92336
2.92376
2.92409
2.92422
2.92413
2.92358
2.92264
2.92093
2.91852
2.91514
2.91062
2.90499
2.89778
2.88897
2.87852
2.77889
2.77887
2.77883
2.7788
2.77879
2.7788
2.77884
2.77888
2.77893
2.7789
2.77874
2.77837
2.77762
2.77652
2.77485
2.77253
2.76948
2.76541
2.76029
2.75405
2.74636
2.73686
2.72645
2.63561
2.63557
2.63551
2.63542
2.63531
2.63518
2.63503
2.63484
2.63457
2.63418
2.63359
2.63282
2.63158
2.62994
2.62776
2.62495
2.62134
2.61679
2.61125
2.6044
2.59677
2.58704
2.57604
2.49235
2.4923
2.4922
2.49205
2.49185
2.4916
2.49128
2.49087
2.49034
2.48964
2.48874
2.48755
2.48602
2.4838
2.48131
2.47815
2.47411
2.46923
2.46336
2.45645
2.44839
2.43865
2.42762
2.34913
2.34906
2.34893
2.34872
2.34845
2.34808
2.34762
2.34703
2.34627
2.3453
2.34421
2.3427
2.34082
2.33841
2.33558
2.33207
2.32779
2.32265
2.31665
2.30964
2.30149
2.2919
2.28095
2.20598
2.2059
2.20574
2.20548
2.20513
2.20467
2.20408
2.20334
2.20242
2.20131
2.19993
2.1982
2.19613
2.19356
2.19039
2.18675
2.18235
2.17704
2.17102
2.16396
2.15582
2.14649
2.13579
2.06291
2.06282
2.06263
2.06233
2.06192
2.06138
2.0607
2.05983
2.05875
2.05759
2.056
2.05414
2.0519
2.04918
2.04596
2.04215
2.03765
2.03237
2.02623
2.01937
2.01149
2.00229
1.99182
1.91994
1.91984
1.91962
1.91929
1.91884
1.91824
1.91749
1.91656
1.91541
1.91406
1.91241
1.91045
1.90815
1.90536
1.90205
1.89815
1.89374
1.88852
1.88253
1.87575
1.86805
1.85931
1.84941
1.77708
1.77696
1.77673
1.77638
1.7759
1.77526
1.77447
1.77348
1.77229
1.77085
1.76909
1.76713
1.76491
1.76205
1.75874
1.7549
1.7505
1.74542
1.73962
1.73306
1.72566
1.71733
1.70799
1.63433
1.63421
1.63397
1.63361
1.63311
1.63245
1.63163
1.63063
1.62941
1.62796
1.62623
1.62425
1.62195
1.61918
1.61594
1.61221
1.60793
1.60305
1.59749
1.59122
1.58418
1.57631
1.56752
1.4917
1.49158
1.49134
1.49097
1.49046
1.48981
1.48899
1.48798
1.48678
1.48534
1.48365
1.48167
1.47946
1.47676
1.47365
1.47007
1.46599
1.46134
1.45608
1.45016
1.44353
1.43615
1.42793
1.34919
1.34908
1.34884
1.34847
1.34798
1.34733
1.34653
1.34555
1.34438
1.343
1.34137
1.33947
1.33731
1.33477
1.33183
1.32846
1.32461
1.32025
1.31533
1.30981
1.30365
1.29679
1.28918
1.20681
1.20669
1.20647
1.20611
1.20563
1.20501
1.20425
1.20332
1.2022
1.20089
1.19936
1.19758
1.19551
1.19317
1.19043
1.1873
1.18374
1.17972
1.17519
1.17012
1.16446
1.15817
1.1512
1.06454
1.06443
1.06422
1.06388
1.06343
1.06285
1.06213
1.06126
1.06023
1.05901
1.05759
1.05597
1.05408
1.0519
1.04941
1.04657
1.04334
1.0397
1.0356
1.03101
1.0259
1.02022
1.01393
0.92237
0.922267
0.922075
0.92177
0.921371
0.920818
0.920178
0.91939
0.918454
0.917346
0.916044
0.914665
0.912952
0.910997
0.908765
0.906224
0.903362
0.900131
0.896499
0.892438
0.887912
0.882884
0.877312
0.780308
0.780217
0.780052
0.779775
0.779415
0.778942
0.778368
0.777675
0.776851
0.775886
0.774769
0.773507
0.77203
0.77034
0.768415
0.766239
0.763764
0.760966
0.757829
0.754327
0.750424
0.746089
0.741278
0.638336
0.638255
0.638117
0.637881
0.637573
0.637174
0.636685
0.636096
0.635401
0.634589
0.633652
0.632579
0.631345
0.629933
0.628329
0.626507
0.62445
0.622138
0.619543
0.616622
0.61337
0.60976
0.605758
0.496426
0.496359
0.496246
0.496058
0.495809
0.49549
0.495098
0.494628
0.494073
0.493426
0.49268
0.491825
0.490845
0.489729
0.488459
0.487028
0.485408
0.483582
0.481528
0.47924
0.476686
0.473836
0.47067
0.354542
0.354489
0.354413
0.354275
0.354093
0.353859
0.353572
0.35323
0.352829
0.35236
0.351818
0.351199
0.350494
0.349691
0.34878
0.347744
0.346576
0.345257
0.343772
0.342112
0.340262
0.33822
0.335936
0.212665
0.212626
0.212581
0.2125
0.212393
0.212253
0.212082
0.211877
0.211636
0.211353
0.211027
0.210657
0.210237
0.209762
0.209217
0.208599
0.207895
0.207102
0.206205
0.205198
0.204077
0.202828
0.201456
0.0709302
0.0709369
0.0709212
0.0708881
0.070847
0.0707974
0.0707366
0.0706633
0.0705767
0.0704783
0.070363
0.0702291
0.0700766
0.0699044
0.0697158
0.0695053
0.0692682
0.0689975
0.0686964
0.0683573
0.0679754
0.0675451
0.0670695
1142.75
1049.57
886.117
671.529
161.502
144.811
136.732
135.006
193.578
175.484
152.76
128.888
55.7942
50.1638
41.2781
29.3205
6.91038
4.34709
3.48189
4.92967
4.62766
4.48555
4.17279
4.03108
5.68204
5.69212
5.5238
5.1823
5.49737
5.46027
5.32227
5.08013
5.08809
5.06994
4.98839
4.86044
4.87438
4.83714
4.78349
4.70965
4.66579
4.64893
4.62391
4.59105
4.48516
4.47985
4.471
4.45989
4.32595
4.32383
4.32136
4.31893
4.16483
4.16414
4.16372
4.16401
3.99971
3.99908
3.99867
3.99862
3.83421
3.83247
3.83064
3.82872
3.66851
3.66537
3.66187
3.65789
3.50388
3.49948
3.49451
3.48879
3.34124
3.33574
3.33003
3.32301
3.18117
3.17506
3.16835
3.16074
3.02383
3.01728
3.01013
3.00222
2.869
2.86226
2.85496
2.84701
2.71667
2.70986
2.70257
2.69474
2.56645
2.55979
2.55266
2.54504
2.41824
2.41178
2.40489
2.39758
2.27187
2.26566
2.25906
2.25208
2.1271
2.12118
2.11489
2.10826
1.98381
1.9782
1.9722
1.96589
1.84153
1.83624
1.83066
1.82475
1.70048
1.69545
1.69018
1.68465
1.56043
1.55569
1.55073
1.54555
1.4213
1.41686
1.41223
1.40738
1.28303
1.2789
1.2746
1.27009
1.14555
1.14176
1.1378
1.13366
1.00882
1.00539
1.0018
0.998033
0.872777
0.869728
0.866534
0.863179
0.737362
0.734724
0.731953
0.729042
0.602491
0.600291
0.597979
0.595545
0.468095
0.466357
0.464526
0.462599
0.334067
0.332812
0.33149
0.330094
0.200324
0.199554
0.198746
0.197901
0.0666933
0.066446
0.0661923
0.0659217
236.346
370.63
435.778
485.221
541.103
569.892
582.446
596.105
611.918
630.369
645.094
659.821
659.213
637.905
655.761
690.407
789.508
611.639
865.418
143.951
212.602
247.719
247.894
296.779
387.706
458.566
493.787
511.922
529.368
544.417
563.374
571.782
567.261
568.104
557.699
658.945
560.156
724.469
102.771
141.719
168.457
192.062
215.432
256.689
326.583
387.975
408.767
434.301
451.274
467.794
489.874
512.801
513.096
508.715
561.018
509.826
631.632
18.403
57.7982
116.737
166.084
202.784
231.148
256.421
289.135
326.325
326.686
331.508
356.811
385.674
427.412
437.016
438.553
466.06
448.977
546.288
4.71536
8.36226
38.0318
105.155
169.39
208.21
237.868
261.974
267.743
253.124
240.619
237.722
266.247
295.483
323.716
331.471
345.481
348.175
428.396
4.30948
3.83577
3.8483
19.8054
61.2453
118.633
176.894
233.785
227.339
196.615
158.219
131.285
133.07
156.012
203.084
208.892
166.792
97.1422
159.294
4.41695
3.23385
2.4844
5.55889
14.9098
23.2762
58.2519
117.151
136.559
126.996
81.0945
42.0988
1.78111
36.1632
99.6299
101.973
28.4994
34.8689
68.9273
4.48442
3.50604
3.10305
3.6143
4.22419
6.59605
10.7378
20.4419
49.7816
46.7206
0.112018
-34.6036
-46.7945
-40.1107
14.2767
16.8766
13.2538
20.3422
37.6086
4.53513
3.92576
3.60804
3.84974
4.17417
4.34098
4.74179
-0.120983
-4.58553
-13.1092
-53.7434
-61.4228
-54.1783
-53.7453
-35.632
-0.236515
6.21891
11.8757
23.2853
4.55077
4.26804
4.12701
4.17413
4.42979
4.35904
5.14543
2.09851
-16.2545
-43.6731
-70.3063
-64.5697
-56.3886
-55.4767
-52.8482
-30.4742
-3.0098
5.52853
8.45185
4.52611
4.42598
4.38944
4.45273
4.65637
4.55158
5.22106
3.14641
-19.92
-56.7096
-73.3128
-65.1767
-57.5923
-55.9451
-55.348
-50.5576
-19.3719
-3.01989
-0.824227
4.44049
4.42291
4.45639
4.54916
4.76228
4.76368
5.22586
0.687318
-27.2856
-61.0462
-70.037
-63.6563
-57.9679
-56.3026
-55.5575
-54.4258
-44.6206
-20.8305
-6.08319
4.31717
4.32857
4.37733
4.48463
4.65346
4.8332
4.57934
-6.02992
-39.951
-61.6765
-65.7206
-60.9161
-57.7165
-56.5058
-55.4632
-54.8618
-51.7777
-31.8514
-0.888042
4.16699
4.18227
4.22275
4.30136
4.41886
4.54277
4.00421
-6.8908
-41.7108
-58.2325
-62.2337
-59.0123
-57.4403
-56.2706
-55.2006
-54.8064
-49.4056
-15.4765
20.0996
3.99977
4.00695
4.02589
4.05858
4.08274
4.04971
3.59827
-0.214378
-21.7357
-47.2889
-57.9076
-58.9131
-56.8087
-56.5467
-56.2313
-53.8188
-33.9716
25.6864
57.9374
3.82544
3.82008
3.81385
3.79534
3.73643
3.57162
3.15639
2.85914
-3.74218
-28.2173
-42.5952
-44.8122
-40.7163
-46.8142
-47.1232
-38.4031
3.3901
66.9906
115.578
3.65006
3.63516
3.61279
3.57373
3.50063
3.36081
3.13502
3.02555
2.65712
-2.87541
-16.6566
-16.1481
-10.847
-22.868
-16.854
3.85302
46.9871
125.874
174.554
3.47774
3.4568
3.42676
3.3812
3.31157
3.20655
3.0662
2.92376
3.00413
2.67536
0.989113
-0.898288
1.75678
-2.95932
6.68865
24.1828
80.2272
184.562
245.651
3.3099
3.28578
3.25292
3.208
3.14688
3.06734
2.97084
2.88436
2.81574
2.94023
2.86983
2.39251
2.79254
3.82932
3.52318
5.14498
16.7963
59.8732
99.1284
3.1466
3.12129
3.0885
3.04669
2.99407
2.93156
2.86138
2.79686
2.74918
2.66071
2.67334
2.70516
2.49415
2.27099
2.13775
1.88516
1.63745
4.38037
22.2581
2.98765
2.96234
2.93096
2.89286
2.84734
2.79582
2.73971
2.68603
2.6353
2.59518
2.57819
2.45051
2.38286
2.29946
2.23841
2.26362
2.50082
2.25
3.20646
2.83248
2.80786
2.77836
2.74371
2.70362
2.6592
2.61056
2.56018
2.51028
2.4508
2.39634
2.3254
2.29109
2.22496
2.18551
2.2265
2.42622
2.48629
2.59283
2.68056
2.65701
2.62953
2.59791
2.56193
2.52261
2.47903
2.43236
2.37792
2.3121
2.23021
2.15826
2.14645
2.13024
2.08106
2.14061
2.35398
2.32136
2.84528
2.5314
2.50917
2.48365
2.45474
2.42161
2.38703
2.34736
2.30367
2.24573
2.17974
2.06625
1.96714
2.03465
2.09703
2.08827
2.12023
2.27858
2.27947
2.1387
2.3846
2.36375
2.34026
2.31427
2.28603
2.25328
2.21713
2.17696
2.11918
2.06116
1.91171
1.81279
1.94332
2.06528
2.1044
2.13315
2.23401
2.27291
2.21938
2.23978
2.22032
2.19866
2.17493
2.14902
2.1204
2.08894
2.05323
2.0026
1.96697
1.81292
1.76257
1.89351
2.04428
2.11862
2.15256
2.23419
2.29749
2.31454
2.09664
2.07851
2.05852
2.03689
2.01347
1.98837
1.96174
1.93271
1.90086
1.86572
1.78079
1.77817
1.88462
2.02536
2.12264
2.15921
2.23735
2.31608
2.35426
1.95493
1.93806
1.91953
1.8999
1.87846
1.85624
1.83338
1.81026
1.78774
1.76575
1.73459
1.75591
1.84896
1.96088
2.07183
2.13507
2.22785
2.34337
2.34206
1.81439
1.79871
1.78141
1.76318
1.74375
1.72374
1.70356
1.68429
1.66718
1.65398
1.64975
1.67619
1.74663
1.84044
1.94784
2.06638
2.21826
2.36979
2.34531
1.67494
1.66021
1.64411
1.62704
1.6091
1.59065
1.57186
1.55432
1.53918
1.52947
1.52962
1.55193
1.60207
1.6812
1.78621
1.94341
2.20177
2.42978
2.47255
1.53646
1.52261
1.50751
1.49136
1.47422
1.4561
1.43832
1.42087
1.40499
1.3932
1.38955
1.39931
1.42746
1.48235
1.54474
1.78085
2.35384
2.5241
2.26437
1.39889
1.38588
1.37167
1.35631
1.33983
1.32225
1.30404
1.2853
1.26654
1.24908
1.23491
1.22582
1.2257
1.21537
1.1125
1.09302
1.4261
0.803014
-0.815719
1.2622
1.25003
1.23668
1.22207
1.20613
1.18876
1.16991
1.14932
1.12668
1.10167
1.07366
1.03893
1.00374
0.912378
0.678232
0.513456
0.157888
-1.40129
-2.60641
1.12638
1.1151
1.10262
1.08881
1.07348
1.05635
1.03699
1.01451
0.98776
0.95505
0.913092
0.852802
0.78087
0.655808
0.323823
0.0123319
0.00185713
-1.00999
0.218886
0.991419
0.981093
0.96959
0.956714
0.942222
0.92573
0.90662
0.883814
0.855592
0.819099
0.768733
0.694832
0.60033
0.476635
0.166778
-0.248525
-0.0967051
-0.0736671
0.93202
0.857279
0.848012
0.837618
0.825883
0.812535
0.79717
0.77916
0.757517
0.730709
0.696514
0.649871
0.583835
0.506539
0.36861
0.0986135
-0.321637
-0.103258
-0.303694
-0.0956007
0.723913
0.715821
0.706692
0.696321
0.684444
0.670695
0.654545
0.635262
0.611899
0.583444
0.548622
0.502918
0.451921
0.32426
0.127315
-0.212281
-0.0219625
-0.217785
0.23293
0.59125
0.584446
0.576738
0.567942
0.557828
0.546096
0.532349
0.516102
0.496844
0.474347
0.449516
0.416455
0.390257
0.304051
0.198347
0.00661568
0.059084
-0.166653
0.787587
0.459195
0.453787
0.44764
0.440605
0.432499
0.423099
0.412137
0.399338
0.384535
0.367883
0.351791
0.32864
0.31468
0.277438
0.228366
0.108071
0.0481391
-0.0758273
0.260169
0.327625
0.323703
0.319234
0.314105
0.308186
0.30133
0.293384
0.284221
0.273796
0.262381
0.252693
0.236877
0.232747
0.214613
0.185205
0.111006
0.0518116
0.0107031
0.181243
0.196412
0.194044
0.191333
0.188214
0.184622
0.180465
0.175644
0.170093
0.163836
0.157158
0.151482
0.141289
0.143397
0.120922
0.0958476
0.0449123
0.0140992
0.00823074
0.108641
0.0654325
0.064632
0.0637281
0.0627112
0.0615626
0.0602275
0.0586732
0.0568484
0.0546805
0.0520769
0.0490897
0.0401577
0.0363788
0.0138094
-0.00572189
-0.0469303
-0.0568925
-0.0462625
0.0218738
)
;

boundaryField
{
    leftWall
    {
        type            fixedFluxPressure;
        gradient        uniform 0;
        value           nonuniform List<scalar> 
50
(
3519.84
2678.82
1957.78
1033.94
777.492
845.522
690.275
696.39
532.02
466.256
290.321
226.346
34.2282
5.98126
4.84061
5.0623
4.80644
4.61871
4.48786
4.354
4.21355
4.07008
3.92627
3.78249
3.63885
3.4954
3.35207
3.20877
3.06548
2.92218
2.77889
2.63561
2.49235
2.34913
2.20598
2.06291
1.91994
1.77708
1.63433
1.4917
1.34919
1.20681
1.06454
0.92237
0.780308
0.638336
0.496426
0.354542
0.212665
0.0709302
)
;
    }
    rightWall
    {
        type            fixedFluxPressure;
        gradient        uniform 0;
        value           nonuniform List<scalar> 
50
(
5140.83
4179.41
3887.67
3214.81
2501.04
1814.32
1369
1106.46
865.418
724.469
631.632
546.288
428.396
159.294
68.9273
37.6086
23.2853
8.45185
-0.824227
-6.08319
-0.888042
20.0996
57.9374
115.578
174.554
245.651
99.1284
22.2581
3.20646
2.59283
2.84528
2.1387
2.21938
2.31454
2.35426
2.34206
2.34531
2.47255
2.26437
-0.815719
-2.60641
0.218886
0.93202
-0.0956007
0.23293
0.787587
0.260169
0.181243
0.108641
0.0218738
)
;
    }
    lowerWall
    {
        type            fixedFluxPressure;
        gradient        nonuniform List<scalar> 
62
(
132719
132719
132719
132719
132719
132719
132719
132719
132719
132719
132719
132719
132719
132719
132719
132719
132719
132719
132719
132719
132719
132719
132718
0
0
0
0
0
0
0
0
41147.8
38566.3
33614.8
30347.1
0
0
0
0
0
0
0
0
17710.5
23314.8
23676
22591.3
22829.5
22698.3
22691.4
22962.3
23539.2
23908.3
24199.6
24118.9
24270.2
24276
24394
24702.4
24518.4
23972.5
23258.7
)
;
        value           nonuniform List<scalar> 
62
(
3917.99
3917.24
3906.61
3912.39
3904.38
3904.39
3925.32
3963.21
4042.85
4184.26
4383.81
4667.95
5107.51
5672.98
6283.12
6965.96
7372.24
7684.1
7902.46
8061.9
8172.02
8237.35
8265.35
7867.21
7073.17
6284.16
5501.32
4723.08
3948.89
3180.8
2420.38
1405.31
1295.66
1100.61
865.173
2508.71
1540.36
1527.84
1476.98
1403.63
1209.45
710.641
306.72
2561.84
2832.56
4228.34
4498.3
4020.43
3508.51
3158.1
2919.26
2800.19
2766.83
2781.42
2793.6
2828.34
2919.53
3161.73
3587.15
4346.6
4935.61
5210.6
)
;
    }
    atmosphere
    {
        type            totalPressure;
        U               U.air;
        phi             phi.air;
        rho             rho;
        psi             none;
        gamma           1;
        p0              uniform 0;
        value           nonuniform List<scalar> 
46
(
0
0
0
0
0
0
0
0
0
0
0
0
0
0
0
0
0
0
0
0
0
0
0
0
0
0
0
0
0
0
0
0
0
0
0
0
0
0
0
-0.000267381
-0.015456
-0.0371832
-0.0939344
-0.100069
-0.116363
-0.0738644
)
;
    }
    defaultFaces
    {
        type            empty;
    }
}


// ************************************************************************* //
