/*--------------------------------*- C++ -*----------------------------------*\
| =========                 |                                                 |
| \\      /  F ield         | OpenFOAM: The Open Source CFD Toolbox           |
|  \\    /   O peration     | Version:  2.4.0                                 |
|   \\  /    A nd           | Web:      www.OpenFOAM.org                      |
|    \\/     M anipulation  |                                                 |
\*---------------------------------------------------------------------------*/
FoamFile
{
    version     2.0;
    format      ascii;
    class       surfaceScalarField;
    location    "0.65";
    object      phi;
}
// * * * * * * * * * * * * * * * * * * * * * * * * * * * * * * * * * * * * * //

dimensions      [0 3 -1 0 0 0 0];

internalField   nonuniform List<scalar> 
4432
(
2.12208e-06
-2.12208e-06
4.51307e-06
-2.391e-06
6.02433e-06
-1.51125e-06
8.36785e-06
-2.34352e-06
1.0808e-05
-2.44016e-06
1.2376e-05
-1.56795e-06
1.38193e-05
-1.44333e-06
1.47932e-05
-9.73958e-07
1.60658e-05
-1.27257e-06
1.70815e-05
-1.01572e-06
1.65826e-05
4.98969e-07
1.41863e-05
2.39624e-06
9.76209e-06
4.42424e-06
4.70744e-06
5.05465e-06
1.56438e-07
4.551e-06
-2.86014e-06
3.01658e-06
-5.23438e-06
2.37424e-06
-6.58216e-06
1.34779e-06
-7.22843e-06
6.46262e-07
-5.92854e-06
-1.29988e-06
-3.84463e-06
-2.08392e-06
-3.10623e-06
-7.38399e-07
-3.10623e-06
2.13638e-06
-4.25846e-06
4.44973e-06
-4.70435e-06
6.16665e-06
-3.22817e-06
8.46419e-06
-4.64106e-06
1.07596e-05
-4.73554e-06
1.24676e-05
-3.27594e-06
1.40922e-05
-3.06792e-06
1.54342e-05
-2.31601e-06
1.70423e-05
-2.88062e-06
1.75882e-05
-1.56168e-06
1.63031e-05
1.78408e-06
1.34402e-05
5.25914e-06
9.49738e-06
8.36707e-06
4.39157e-06
1.01605e-05
-7.42915e-08
9.01686e-06
-2.98901e-06
5.93129e-06
-4.98905e-06
4.37428e-06
-6.40824e-06
2.76698e-06
-6.71729e-06
9.55305e-07
-5.67028e-06
-2.34689e-06
-3.74976e-06
-4.00444e-06
-2.36782e-06
-2.12034e-06
-5.47405e-06
2.14126e-06
-6.39971e-06
4.11761e-06
-6.68071e-06
6.54526e-06
-5.65582e-06
8.51746e-06
-6.61326e-06
1.02607e-05
-6.47876e-06
1.22626e-05
-5.27785e-06
1.39772e-05
-4.78251e-06
1.55653e-05
-3.90413e-06
1.61483e-05
-3.46358e-06
1.59963e-05
-1.40975e-06
1.67762e-05
1.00423e-06
1.55701e-05
6.46524e-06
1.19269e-05
1.20103e-05
6.33229e-06
1.5755e-05
6.11979e-07
1.47372e-05
-3.73079e-06
1.02741e-05
-6.36028e-06
7.00377e-06
-7.47343e-06
3.88013e-06
-7.18796e-06
6.69835e-07
-5.11722e-06
-4.41763e-06
-2.49209e-06
-6.62957e-06
-2.41018e-07
-4.37141e-06
-5.71507e-06
2.06009e-06
-8.4598e-06
3.6079e-06
-8.22851e-06
6.55419e-06
-8.60212e-06
8.10729e-06
-8.16636e-06
9.42795e-06
-7.79941e-06
1.18278e-05
-7.67769e-06
1.38828e-05
-6.83748e-06
1.59568e-05
-5.97812e-06
1.68269e-05
-4.33373e-06
1.76575e-05
-2.24032e-06
1.64692e-05
2.19254e-06
1.27971e-05
1.01373e-05
9.4156e-06
1.53918e-05
4.07198e-06
2.10986e-05
-7.96665e-07
1.96058e-05
-4.33753e-06
1.38149e-05
-6.42314e-06
9.08937e-06
-7.54961e-06
5.0066e-06
-7.09767e-06
2.17901e-07
-5.60043e-06
-5.91488e-06
-3.03604e-06
-9.19396e-06
-3.749e-07
-7.03255e-06
-6.08997e-06
1.24085e-06
-9.70065e-06
2.25527e-06
-9.24293e-06
4.26861e-06
-1.06154e-05
5.28495e-06
-9.1827e-06
5.73101e-06
-8.24547e-06
7.368e-06
-9.31468e-06
8.42214e-06
-7.89162e-06
8.82465e-06
-6.38064e-06
8.88547e-06
-4.39455e-06
9.19368e-06
-2.54854e-06
8.94397e-06
2.44225e-06
1.05794e-05
8.50192e-06
7.45984e-06
1.85113e-05
1.43137e-06
2.71271e-05
-3.073e-06
2.41102e-05
-6.01454e-06
1.67565e-05
-7.24859e-06
1.03234e-05
-7.54641e-06
5.30442e-06
-6.95974e-06
-3.68768e-07
-6.10378e-06
-6.77084e-06
-4.17238e-06
-1.11254e-05
-7.62301e-07
-1.04426e-05
-6.85227e-06
-3.37027e-07
-9.36362e-06
-2.84654e-07
-9.29531e-06
-7.74257e-07
-1.01258e-05
-6.36342e-07
-9.32061e-06
-3.31745e-07
-8.55006e-06
-5.15052e-07
-9.13137e-06
-1.04304e-06
-7.36364e-06
-1.68193e-06
-5.74175e-06
-1.49467e-06
-4.58181e-06
-3.63501e-07
-3.6797e-06
3.36273e-06
-1.28398e-06
5.97958e-06
5.88508e-06
1.46056e-06
2.30303e-05
-5.88682e-06
3.44745e-05
-8.93113e-06
2.71545e-05
-1.02025e-05
1.80278e-05
-9.63042e-06
9.75138e-06
-8.59653e-06
4.27052e-06
-6.70563e-06
-2.25966e-06
-6.26206e-06
-7.21441e-06
-5.47547e-06
-1.1912e-05
-2.20042e-06
-1.37177e-05
-9.05269e-06
-7.49235e-07
-8.61438e-06
-1.26008e-06
-8.78446e-06
-1.09394e-06
-1.0292e-05
-1.00579e-06
-9.40876e-06
-6.28738e-07
-8.92712e-06
4.27314e-07
-1.01874e-05
2.27325e-07
-7.16364e-06
-9.84005e-07
-4.53042e-06
-2.89636e-06
-2.66946e-06
-5.96437e-06
-6.11689e-07
-1.09793e-05
3.73099e-06
-1.205e-05
6.95572e-06
-8.66162e-06
1.9642e-05
-1.2632e-05
3.84449e-05
-1.76417e-05
3.21642e-05
-1.67275e-05
1.71136e-05
-1.34844e-05
6.50822e-06
-1.05133e-05
1.2994e-06
-7.9115e-06
-4.86142e-06
-7.10927e-06
-8.01664e-06
-5.80343e-06
-1.32178e-05
-2.53387e-06
-1.69872e-05
-1.15866e-05
-7.10276e-07
-7.9041e-06
-9.34394e-07
-8.56034e-06
-1.49073e-06
-9.73564e-06
-1.09564e-06
-9.80385e-06
-7.03425e-07
-9.31933e-06
-1.14329e-06
-9.74755e-06
-1.84422e-06
-6.46272e-06
-2.40103e-06
-3.9736e-06
-2.61985e-06
-2.45063e-06
-2.70769e-06
-5.23855e-07
-2.94731e-06
3.97061e-06
-7.85855e-06
1.1867e-05
-1.37564e-05
2.55399e-05
-2.17026e-05
4.63911e-05
-2.79583e-05
3.84199e-05
-2.77525e-05
1.69077e-05
-2.38367e-05
2.59241e-06
-1.71765e-05
-5.36073e-06
-1.21718e-05
-9.86614e-06
-8.57996e-06
-1.16085e-05
-5.34928e-06
-1.64485e-05
-2.00057e-06
-2.03359e-05
-1.35871e-05
-2.6745e-05
2.6745e-05
-2.13192e-05
-5.42584e-06
8.08755e-06
-2.94067e-05
3.12024e-05
-2.31148e-05
4.66862e-05
-1.54838e-05
5.66227e-05
-9.93653e-06
6.41865e-05
-7.5638e-06
6.85149e-05
-4.3284e-06
6.9719e-05
-1.2041e-06
6.91542e-05
5.6484e-07
6.76349e-05
1.51934e-06
6.41067e-05
3.52814e-06
5.7601e-05
6.50572e-06
5.18038e-05
5.7972e-06
4.5672e-05
6.13184e-06
3.10092e-05
1.46628e-05
8.26452e-06
2.27447e-05
-4.71007e-06
1.29746e-05
-4.71006e-06
-1.91166e-05
4.58616e-05
-8.47847e-07
-2.36946e-05
2.26664e-05
-5.2921e-05
3.84202e-05
-3.88686e-05
4.95858e-05
-2.66493e-05
5.65428e-05
-1.68936e-05
6.26224e-05
-1.36434e-05
6.69415e-05
-8.64753e-06
6.94477e-05
-3.71024e-06
7.19279e-05
-1.91537e-06
7.50249e-05
-1.57764e-06
7.53244e-05
3.22869e-06
7.17354e-05
1.00947e-05
6.60371e-05
1.14954e-05
6.07813e-05
1.13877e-05
4.64829e-05
2.89612e-05
2.1183e-05
4.80446e-05
1.84787e-06
3.23098e-05
-2.8622e-06
-8.49435e-06
5.4356e-05
1.60996e-05
-4.82885e-05
3.47139e-05
-7.15353e-05
4.93376e-05
-5.34923e-05
5.46476e-05
-3.19594e-05
5.56066e-05
-1.78526e-05
5.6716e-05
-1.47527e-05
5.79604e-05
-9.89194e-06
5.948e-05
-5.22982e-06
6.11249e-05
-3.56033e-06
6.1753e-05
-2.20566e-06
6.1178e-05
3.80368e-06
5.83896e-05
1.28831e-05
5.44718e-05
1.54132e-05
4.9754e-05
1.61054e-05
3.57934e-05
4.29217e-05
1.59234e-05
6.79146e-05
-2.63176e-06
5.08649e-05
-5.49395e-06
1.0385e-05
4.3971e-05
3.23949e-05
-7.02985e-05
4.44046e-05
-8.35451e-05
5.5557e-05
-6.46447e-05
5.79005e-05
-3.43029e-05
5.87845e-05
-1.87366e-05
5.69745e-05
-1.29427e-05
5.44679e-05
-7.38531e-06
5.22107e-05
-2.97273e-06
5.03104e-05
-1.66004e-06
4.96213e-05
-1.51656e-06
4.81794e-05
5.24565e-06
4.54918e-05
1.55706e-05
4.15546e-05
1.93505e-05
3.35807e-05
2.40793e-05
2.08821e-05
5.56204e-05
4.91161e-06
8.3885e-05
-7.36669e-06
6.31432e-05
-1.28606e-05
3.25132e-05
1.14578e-05
4.07858e-05
-7.85711e-05
4.54222e-05
-8.81815e-05
5.24191e-05
-7.16416e-05
6.07932e-05
-4.2677e-05
6.41244e-05
-2.20679e-05
6.2956e-05
-1.17744e-05
6.17473e-05
-6.17663e-06
5.75073e-05
1.26728e-06
4.94847e-05
6.36259e-06
4.25169e-05
5.4512e-06
3.97545e-05
8.00807e-06
3.87584e-05
1.65667e-05
3.41577e-05
2.39512e-05
2.60952e-05
3.21418e-05
1.56492e-05
6.60664e-05
-5.46396e-06
0.000104998
-1.18945e-05
6.95738e-05
-2.47551e-05
3.86862e-05
-2.72284e-05
4.36949e-05
-8.35798e-05
4.46188e-05
-8.91054e-05
4.43546e-05
-7.13774e-05
4.99862e-05
-4.83085e-05
5.43844e-05
-2.64661e-05
5.59357e-05
-1.33257e-05
5.80105e-05
-8.25139e-06
5.92698e-05
7.95439e-09
5.60195e-05
9.6129e-06
4.60876e-05
1.53831e-05
3.88326e-05
1.5263e-05
3.65134e-05
1.88859e-05
2.86144e-05
3.18502e-05
2.00862e-05
4.067e-05
1.09403e-05
7.52124e-05
-7.70145e-06
0.00012364
-1.18895e-05
7.37618e-05
-3.66446e-05
3.36444e-05
-6.08728e-05
4.02207e-05
-9.01561e-05
4.3202e-05
-9.20867e-05
4.27877e-05
-7.09631e-05
4.25011e-05
-4.8022e-05
4.48705e-05
-2.88355e-05
4.81565e-05
-1.66117e-05
4.94631e-05
-9.55797e-06
5.17616e-05
-2.29053e-06
5.07338e-05
1.06407e-05
4.56143e-05
2.05026e-05
4.05336e-05
2.03437e-05
3.70353e-05
2.23842e-05
2.59467e-05
4.29389e-05
1.71039e-05
4.95128e-05
8.91503e-06
8.34012e-05
-4.33745e-06
0.000136892
-1.03797e-05
7.98041e-05
-4.70244e-05
3.25231e-05
-9.33958e-05
4.11506e-05
-9.87837e-05
4.27898e-05
-9.37259e-05
4.21503e-05
-7.03236e-05
4.04363e-05
-4.63079e-05
4.12099e-05
-2.96092e-05
4.28637e-05
-1.82655e-05
4.30217e-05
-9.71593e-06
4.46236e-05
-3.89244e-06
4.61097e-05
9.15456e-06
4.56822e-05
2.09301e-05
4.36057e-05
2.24202e-05
3.94571e-05
2.65328e-05
2.33748e-05
5.90211e-05
9.64752e-06
6.32401e-05
5.74342e-06
8.73053e-05
-3.07484e-06
0.000145711
-5.05634e-06
8.17856e-05
-5.20807e-05
-1.96625e-06
-5.93786e-06
-3.07203e-06
-7.45456e-06
-2.43839e-06
-1.03693e-05
-3.02912e-07
-1.19393e-05
1.57357e-06
-1.11958e-05
4.47382e-06
-1.26478e-05
5.10202e-06
-7.09092e-06
8.58332e-07
2.70082e-07
-6.41033e-06
4.81803e-06
-1.53673e-05
8.43312e-06
-2.28849e-05
1.14882e-05
-2.38755e-05
1.28575e-05
-2.10955e-05
2.27599e-05
-1.64285e-05
4.17241e-05
-3.09001e-05
5.28915e-05
-4.51553e-05
3.11629e-05
-4.9136e-05
6.57311e-06
-4.90361e-05
-5.46056e-06
-4.10687e-05
-1.78336e-05
-2.5893e-05
-2.67841e-05
-7.86734e-06
-3.44742e-05
3.21181e-06
-3.14151e-05
-2.56359e-05
1.52606e-05
-1.66617e-06
-4.27169e-06
-2.42375e-06
-6.69698e-06
-1.97748e-06
-1.08156e-05
5.75411e-07
-1.44922e-05
3.4303e-06
-1.40507e-05
5.21641e-06
-1.44339e-05
4.93999e-06
-6.81449e-06
5.4205e-06
-2.10434e-07
4.84882e-06
5.38972e-06
2.55091e-06
1.0731e-05
-6.28859e-07
1.4668e-05
-3.64686e-06
1.58755e-05
-3.71937e-06
2.28324e-05
7.02356e-06
3.09811e-05
2.48717e-05
3.50434e-05
2.81224e-05
2.79122e-05
1.62826e-05
1.84129e-05
5.04219e-06
5.77986e-06
5.10381e-06
-1.78952e-05
1.6671e-05
-3.83513e-05
2.69887e-05
-4.47919e-05
3.62181e-05
-4.06445e-05
-4.11478e-05
5.173e-05
-4.51016e-06
2.38472e-07
-9.0721e-06
-2.13504e-06
-8.26582e-06
-1.16218e-05
-1.29459e-06
-2.14634e-05
4.53735e-06
-1.98826e-05
7.36965e-06
-1.72662e-05
5.83299e-06
-5.27783e-06
-8.1045e-07
6.43301e-06
-6.55147e-06
1.11307e-05
-9.63735e-06
1.38169e-05
-9.48348e-06
1.45141e-05
-7.08674e-06
1.34788e-05
1.26579e-07
1.56191e-05
1.20081e-05
1.90997e-05
2.74395e-05
1.9612e-05
4.34699e-05
1.18818e-05
5.80054e-05
3.87743e-06
7.10519e-05
-7.26671e-06
7.61969e-05
-2.30402e-05
7.79378e-05
-4.00923e-05
7.99735e-05
-4.68275e-05
9.00343e-05
-5.07053e-05
-5.25075e-05
0.000101394
-1.12874e-05
1.15259e-05
-1.79624e-05
4.53994e-06
-1.49278e-05
-1.46564e-05
-1.13464e-05
-2.50449e-05
-1.6947e-05
-1.4282e-05
-2.3669e-05
-1.05442e-05
-2.46421e-05
-4.30471e-06
-2.37142e-05
5.50511e-06
-2.1077e-05
8.4935e-06
-1.98818e-05
1.26217e-05
-1.82241e-05
1.28565e-05
-1.4776e-05
1.00307e-05
-8.61192e-06
9.45498e-06
1.44591e-06
9.04182e-06
1.44077e-05
6.65022e-06
2.82788e-05
-1.9893e-06
4.10571e-05
-8.90087e-06
5.64604e-05
-2.267e-05
6.56427e-05
-3.22225e-05
7.08284e-05
-4.52779e-05
7.79403e-05
-5.39395e-05
8.5407e-05
-5.8172e-05
-6.01357e-05
9.30352e-05
-5.05639e-06
1.65823e-05
-1.27347e-05
1.22183e-05
-3.78573e-05
1.04662e-05
-8.4479e-05
2.15767e-05
-0.000118438
1.96767e-05
-0.000127629
-1.35286e-06
-0.000120941
-1.09925e-05
-0.00010527
-1.01659e-05
-8.87601e-05
-8.01675e-06
-7.36594e-05
-2.4789e-06
-6.24846e-05
1.68161e-06
-4.83478e-05
-4.10614e-06
-3.05351e-05
-8.35772e-06
-1.35624e-05
-7.93088e-06
2.9719e-06
-9.88405e-06
1.57348e-05
-1.47522e-05
2.72534e-05
-2.04195e-05
3.63867e-05
-3.18034e-05
4.25853e-05
-3.84211e-05
4.61648e-05
-4.88574e-05
4.87067e-05
-5.64812e-05
5.70663e-05
-6.65316e-05
-6.47458e-05
6.16764e-05
6.9345e-06
9.64773e-06
-1.43687e-05
3.35215e-05
-6.82144e-05
6.43119e-05
-0.000100164
5.3526e-05
-0.000117563
3.70762e-05
-0.000140557
2.16414e-05
-0.000146904
-4.6455e-06
-0.000123244
-3.38264e-05
-0.0001095
-2.17612e-05
-0.00010975
-2.22856e-06
-0.000102344
-5.72479e-06
-8.72576e-05
-1.91921e-05
-6.8491e-05
-2.71244e-05
-5.42731e-05
-2.21488e-05
-3.92561e-05
-2.4901e-05
-2.70224e-05
-2.69859e-05
-1.53985e-05
-3.20434e-05
-2.91234e-06
-4.42895e-05
8.32862e-06
-4.96621e-05
1.45425e-05
-5.50712e-05
1.83364e-06
-4.37722e-05
-1.19266e-05
-5.27713e-05
1.15252e-05
-8.81976e-05
-9.49962e-06
1.91473e-05
-1.08379e-05
3.48597e-05
-6.56662e-06
6.00405e-05
-2.74144e-05
7.43738e-05
-2.2999e-05
3.26608e-05
4.64699e-05
-4.78274e-05
9.60732e-05
-5.42487e-05
6.96012e-05
-7.3544e-06
1.00463e-05
3.77942e-05
-3.11127e-05
3.89305e-05
-8.07478e-05
4.39103e-05
-9.40703e-05
-5.86963e-06
-7.24792e-05
-4.87154e-05
-5.58219e-05
-3.88061e-05
-5.06072e-05
-3.01156e-05
-4.5499e-05
-3.20941e-05
-5.28636e-05
-2.46787e-05
-8.02746e-05
-1.68785e-05
-0.000126275
-3.66165e-06
-0.000186316
4.96933e-06
-0.00021312
-1.69683e-05
-0.000227927
-3.79644e-05
-1.4888e-05
-0.000201513
-4.35742e-05
6.27215e-05
-3.9644e-05
3.09295e-05
-7.92514e-06
2.83216e-05
2.15791e-05
4.48696e-05
6.08325e-05
-6.59261e-06
5.4127e-05
-4.11219e-05
2.92521e-05
-2.93738e-05
-2.28459e-06
2.41824e-05
-3.13565e-05
6.68661e-05
-3.55987e-05
4.31727e-05
-1.59194e-05
2.42311e-05
1.95278e-05
-4.13167e-05
2.19013e-05
-5.10888e-05
1.41008e-05
-3.10056e-05
-1.52196e-06
-1.44927e-05
-2.55681e-05
-8.04793e-06
-4.00536e-05
-1.01933e-05
-4.75881e-05
-9.34399e-06
-4.25434e-05
-8.70642e-06
-2.06566e-05
-1.69176e-05
-2.15693e-05
-1.60557e-05
-5.07995e-05
-8.73429e-06
2.09295e-05
-8.66171e-05
-1.5558e-05
7.82795e-05
-8.44628e-06
2.38177e-05
8.71661e-06
1.11587e-05
4.20599e-05
1.15263e-05
4.92177e-05
-1.37504e-05
4.58652e-05
-3.77694e-05
3.2488e-05
-1.59966e-05
9.23899e-06
4.74314e-05
1.4516e-05
6.15891e-05
2.39877e-06
5.52899e-05
-1.07976e-05
3.74275e-05
-2.65302e-05
-2.55841e-05
-3.18852e-05
-4.57339e-05
-2.12846e-05
-4.16061e-05
-3.53253e-06
-3.22448e-05
1.55093e-05
-2.70897e-05
2.98765e-05
-2.45606e-05
3.98098e-05
-1.92773e-05
4.17297e-05
-1.06264e-05
2.59921e-05
-1.18004e-06
2.35445e-06
7.58187e-06
-2.36666e-05
1.72867e-05
3.82297e-05
-4.09669e-05
9.75749e-06
6.8522e-05
5.44919e-06
2.8126e-05
4.86148e-06
1.17465e-05
1.53873e-05
1.00053e-06
1.60965e-05
-1.44596e-05
8.00238e-06
-2.96752e-05
9.03735e-06
-1.70315e-05
1.48408e-05
4.1628e-05
2.4692e-05
5.17379e-05
3.42691e-05
4.57129e-05
5.16315e-05
2.0065e-05
4.00489e-05
-1.40015e-05
2.39162e-05
-2.96012e-05
1.59319e-05
-3.36218e-05
1.25186e-05
-2.88315e-05
8.59327e-06
-2.31644e-05
2.88351e-06
-1.88509e-05
-2.94843e-06
-1.34455e-05
-4.91016e-06
-8.66482e-06
-4.45977e-06
-1.63056e-06
-9.10823e-06
1.22302e-05
-1.76169e-05
2.57954e-05
4.10237e-05
-2.04111e-05
1.46357e-05
5.38863e-05
1.64462e-05
2.63155e-05
2.03078e-05
7.8849e-06
2.21613e-05
-8.52948e-07
1.43511e-05
-6.64937e-06
-1.51371e-06
-1.38104e-05
-5.5388e-06
-1.30064e-05
1.76113e-05
1.84779e-05
3.73793e-05
3.197e-05
5.31544e-05
2.99378e-05
5.44649e-05
1.87546e-05
3.45447e-05
5.91878e-06
1.72207e-05
-1.22772e-05
5.37948e-06
-2.17805e-05
-2.87709e-07
-2.31643e-05
-2.35521e-06
-2.1097e-05
-3.074e-06
-1.81321e-05
-2.84989e-06
-1.36697e-05
-4.40022e-06
-7.11459e-06
-9.02058e-06
2.9897e-06
-1.08436e-05
1.40531e-05
-1.25104e-05
2.7462e-05
4.05598e-05
-1.20466e-05
1.45281e-05
3.93582e-05
1.6955e-05
2.38887e-05
1.42918e-05
1.0548e-05
1.02166e-05
3.22233e-06
5.49147e-06
-1.92425e-06
-2.03424e-06
-6.28468e-06
-9.97891e-06
-5.06169e-06
3.212e-06
5.28703e-06
2.1306e-05
1.3876e-05
2.94102e-05
2.18335e-05
2.82502e-05
1.99147e-05
2.57012e-05
8.4678e-06
1.76684e-05
-4.24449e-06
8.30568e-06
-1.24177e-05
3.98016e-07
-1.52567e-05
-5.9411e-06
-1.47579e-05
-1.10388e-05
-1.30345e-05
-1.53616e-05
-9.34694e-06
-2.06049e-05
-1.87143e-06
-2.41154e-05
6.50021e-06
-2.5732e-05
1.56695e-05
-2.3855e-05
2.55851e-05
3.53485e-05
-1.86441e-05
1.01441e-05
2.92141e-05
1.45553e-05
1.94775e-05
1.49304e-05
1.01729e-05
1.26514e-05
5.50129e-06
7.82237e-06
2.90483e-06
3.73208e-07
1.1645e-06
-6.46853e-06
1.78006e-06
-7.31576e-06
6.13426e-06
-1.86454e-06
8.42478e-06
5.08634e-06
1.48826e-05
9.21957e-06
1.57814e-05
8.53012e-06
9.15726e-06
4.06389e-06
2.21731e-07
-2.2631e-06
-6.09077e-06
-7.84861e-06
-9.67122e-06
-1.26285e-05
-9.97809e-06
-1.74291e-05
-8.23387e-06
-2.18171e-05
-4.95902e-06
-2.3496e-05
-1.92476e-07
-2.42962e-05
7.30029e-06
-2.40421e-05
1.54155e-05
-2.22822e-05
2.38249e-05
3.07351e-05
-1.76687e-05
6.55698e-06
2.26572e-05
1.01924e-05
1.58421e-05
9.9082e-06
1.04571e-05
7.91341e-06
7.49609e-06
5.16845e-06
5.6498e-06
1.70528e-06
4.62768e-06
-1.64976e-06
5.13511e-06
-2.66471e-06
7.14922e-06
-2.33092e-06
8.09098e-06
1.22208e-06
1.13296e-05
4.73025e-06
1.22733e-05
4.25402e-06
9.63348e-06
7.37376e-07
3.73838e-06
-4.10659e-06
-1.24681e-06
-9.04507e-06
-4.73275e-06
-1.28918e-05
-6.1314e-06
-1.60164e-05
-5.10924e-06
-1.87065e-05
-2.26889e-06
-2.17593e-05
2.86039e-06
-2.26695e-05
8.21044e-06
-2.14396e-05
1.41855e-05
-1.83208e-05
2.07062e-05
2.62094e-05
-1.37954e-05
3.71284e-06
1.89444e-05
6.26192e-06
1.32931e-05
6.23125e-06
1.04878e-05
5.06896e-06
8.65838e-06
3.49559e-06
7.22317e-06
1.53418e-06
6.58909e-06
2.1048e-08
6.64824e-06
-3.55153e-07
7.52543e-06
-1.95935e-07
7.93176e-06
1.15962e-06
9.97408e-06
3.09738e-06
1.03355e-05
3.78497e-06
8.94589e-06
2.06587e-06
5.45748e-06
-1.41969e-06
2.23872e-06
-5.64225e-06
-5.10186e-07
-9.43153e-06
-2.34209e-06
-1.24343e-05
-2.10646e-06
-1.48795e-05
1.76394e-07
-1.65303e-05
4.5112e-06
-1.74068e-05
9.08702e-06
-1.66961e-05
1.34747e-05
-1.4446e-05
1.8456e-05
2.2999e-05
-1.12357e-05
2.34433e-06
1.66e-05
3.5843e-06
1.20531e-05
3.66213e-06
1.041e-05
3.26848e-06
9.05203e-06
2.53371e-06
7.95795e-06
1.70035e-06
7.42244e-06
1.12378e-06
7.22481e-06
1.01348e-06
7.63572e-06
1.0871e-06
7.85814e-06
2.07593e-06
8.98525e-06
3.28655e-06
9.12489e-06
4.05839e-06
8.17406e-06
3.62974e-06
5.8861e-06
1.99632e-06
3.87216e-06
-5.31732e-07
2.01788e-06
-3.74675e-06
8.72889e-07
-6.90863e-06
1.05542e-06
-9.50758e-06
2.77538e-06
-1.12866e-05
6.29018e-06
-1.26313e-05
1.04317e-05
-1.26415e-05
1.3485e-05
-1.08029e-05
1.66172e-05
2.0247e-05
-8.05072e-06
1.40316e-06
1.51969e-05
2.29486e-06
1.11614e-05
2.60549e-06
1.00994e-05
2.49849e-06
9.15902e-06
2.12753e-06
8.32891e-06
1.73223e-06
7.81773e-06
1.40705e-06
7.54998e-06
1.40017e-06
7.64259e-06
1.52478e-06
7.73353e-06
2.29963e-06
8.21039e-06
3.23182e-06
8.1927e-06
4.03753e-06
7.36834e-06
3.92044e-06
6.00319e-06
2.9029e-06
4.88968e-06
1.15726e-06
3.76342e-06
-1.38526e-06
3.41543e-06
-4.26154e-06
3.93158e-06
-6.81938e-06
5.3331e-06
-8.42668e-06
7.89743e-06
-9.46657e-06
1.14715e-05
-9.73562e-06
1.3754e-05
-8.45954e-06
1.53413e-05
1.78479e-05
-6.0607e-06
9.39125e-07
1.42577e-05
1.65903e-06
1.04415e-05
2.02824e-06
9.73014e-06
2.09227e-06
9.09499e-06
1.86677e-06
8.55441e-06
1.52394e-06
8.16055e-06
1.15493e-06
7.91899e-06
9.47065e-07
7.85045e-06
8.60889e-07
7.8197e-06
1.31288e-06
7.75839e-06
1.99276e-06
7.51281e-06
2.37274e-06
6.98836e-06
1.97386e-06
6.40204e-06
1.07632e-06
5.78718e-06
-5.03764e-07
5.34354e-06
-2.71919e-06
5.63063e-06
-4.75715e-06
5.96941e-06
-6.23777e-06
6.81362e-06
-7.21903e-06
8.87848e-06
-7.38574e-06
1.16381e-05
-6.97327e-06
1.33414e-05
-5.64484e-06
1.40127e-05
1.56716e-05
-3.46847e-06
7.08176e-07
1.35496e-05
1.26981e-06
9.87985e-06
1.51865e-06
9.48129e-06
1.5315e-06
9.08213e-06
1.32884e-06
8.75706e-06
1.00251e-06
8.48687e-06
6.66668e-07
8.25482e-06
3.98564e-07
8.11855e-06
2.21845e-07
7.99641e-06
2.17611e-07
7.76261e-06
2.68616e-07
7.4618e-06
1.31927e-07
7.12503e-06
-2.68403e-07
6.80237e-06
-9.62318e-07
6.48108e-06
-2.08733e-06
6.46836e-06
-3.29733e-06
6.84063e-06
-4.37139e-06
7.04336e-06
-5.32004e-06
7.76215e-06
-5.87487e-06
9.43317e-06
-5.58969e-06
1.13527e-05
-4.57044e-06
1.2322e-05
-3.19787e-06
1.264e-05
1.40436e-05
-1.57009e-06
5.50151e-07
1.29994e-05
8.35275e-07
9.59472e-06
9.7169e-07
9.34487e-06
1.01523e-06
9.03859e-06
9.63776e-07
8.80851e-06
8.54192e-07
8.59645e-06
7.07415e-07
8.40159e-06
5.30811e-07
8.29514e-06
3.75094e-07
8.15212e-06
1.78677e-07
7.95902e-06
-7.44319e-09
7.64791e-06
-3.13093e-07
7.43067e-06
-8.32806e-07
7.32205e-06
-1.42866e-06
7.07689e-06
-2.00622e-06
7.04597e-06
-2.33366e-06
7.16795e-06
-2.90866e-06
7.61831e-06
-3.62989e-06
8.48329e-06
-3.78338e-06
9.58655e-06
-3.29639e-06
1.08656e-05
-2.41805e-06
1.14436e-05
-1.32391e-06
1.15457e-05
1.26356e-05
8.39466e-08
3.56501e-07
1.26429e-05
5.82198e-07
9.36902e-06
7.59671e-07
9.16739e-06
8.57953e-07
8.9403e-06
9.09022e-07
8.75743e-06
9.22476e-07
8.58299e-06
8.77703e-07
8.44635e-06
8.16396e-07
8.35644e-06
7.03578e-07
8.26493e-06
5.0736e-07
8.15523e-06
2.37235e-07
7.91802e-06
-6.87454e-08
7.73663e-06
-4.54033e-07
7.70733e-06
-9.34347e-07
7.55723e-06
-1.39905e-06
7.51057e-06
-1.84103e-06
7.60998e-06
-2.38302e-06
8.16025e-06
-2.72756e-06
8.82776e-06
-2.69133e-06
9.55023e-06
-2.3072e-06
1.04813e-05
-1.66816e-06
1.08044e-05
-9.66125e-07
1.08436e-05
1.16271e-05
4.22137e-08
2.70221e-07
1.23727e-05
4.88484e-07
9.15075e-06
6.58133e-07
8.99774e-06
7.18062e-07
8.88036e-06
7.51404e-07
8.72408e-06
7.47221e-07
8.58716e-06
7.35826e-07
8.45774e-06
7.51792e-07
8.34046e-06
7.7244e-07
8.24427e-06
6.99721e-07
8.22794e-06
4.8031e-07
8.13742e-06
2.55319e-07
7.96162e-06
1.03566e-07
7.85907e-06
-2.17971e-07
7.87873e-06
-6.39788e-07
7.93245e-06
-1.18588e-06
8.15601e-06
-1.43824e-06
8.41259e-06
-1.36611e-06
8.75561e-06
-1.19267e-06
9.37671e-06
-6.61517e-07
9.9501e-06
1.40249e-08
1.01287e-05
5.92076e-07
1.02654e-05
1.0999e-05
1.22009e-06
2.29435e-07
1.21432e-05
3.33517e-07
9.04667e-06
3.89045e-07
8.9422e-06
4.18197e-07
8.8512e-06
4.20549e-07
8.72172e-06
3.92762e-07
8.61494e-06
3.46166e-07
8.50433e-06
2.92611e-07
8.39401e-06
2.38096e-07
8.29878e-06
1.9216e-07
8.27387e-06
6.39394e-08
8.26563e-06
-1.39119e-07
8.16466e-06
-3.39188e-07
8.05914e-06
-4.95118e-07
8.03468e-06
-6.97553e-07
8.13483e-06
-9.82505e-07
8.44102e-06
-1.19868e-06
8.62876e-06
-1.32283e-06
8.87975e-06
-1.19628e-06
9.25012e-06
-7.7741e-07
9.53116e-06
-2.69913e-07
9.62113e-06
2.53451e-07
9.74197e-06
1.0145e-05
1.10728e-06
1.67136e-07
1.19761e-05
2.57319e-07
8.95647e-06
3.24483e-07
8.87503e-06
3.75397e-07
8.80028e-06
3.82417e-07
8.71469e-06
3.61179e-07
8.63617e-06
3.08793e-07
8.5567e-06
2.36016e-07
8.46678e-06
1.414e-07
8.39339e-06
4.9872e-08
8.36539e-06
-4.53498e-08
8.36084e-06
-2.16142e-07
8.33544e-06
-4.82479e-07
8.32546e-06
-6.96728e-07
8.2489e-06
-8.63057e-07
8.30124e-06
-7.806e-07
8.35852e-06
-6.47512e-07
8.49572e-06
-6.07789e-07
8.84002e-06
-3.70248e-07
9.01255e-06
-1.83907e-08
9.17923e-06
3.05675e-07
9.29699e-06
7.03464e-07
9.34404e-06
9.274e-06
1.57435e-06
1.77013e-07
1.17991e-05
2.66213e-07
8.86727e-06
3.29637e-07
8.8116e-06
3.73821e-07
8.75609e-06
3.86053e-07
8.70245e-06
3.80692e-07
8.64152e-06
3.64246e-07
8.57314e-06
3.2022e-07
8.51079e-06
2.30263e-07
8.48333e-06
1.5126e-07
8.44438e-06
1.18062e-07
8.39403e-06
7.79662e-08
8.37552e-06
5.48236e-09
8.39793e-06
-1.99762e-07
8.45418e-06
-3.74461e-07
8.47588e-06
-5.45475e-07
8.52962e-06
-7.61946e-07
8.7122e-06
-6.94511e-07
8.77259e-06
-4.87644e-07
8.80567e-06
-1.98705e-07
8.89024e-06
1.10635e-07
8.98756e-06
5.87535e-07
8.8671e-06
8.62235e-06
1.23901e-06
1.03293e-07
1.16958e-05
1.51772e-07
8.81879e-06
2.02352e-07
8.76102e-06
2.33893e-07
8.72454e-06
2.43837e-07
8.6925e-06
2.28279e-07
8.65707e-06
1.93516e-07
8.60789e-06
1.38475e-07
8.56582e-06
8.28591e-08
8.53894e-06
-3.07256e-09
8.5303e-06
-1.47055e-07
8.538e-06
-2.86213e-07
8.51467e-06
-3.53703e-07
8.46542e-06
-4.50613e-07
8.55107e-06
-5.45632e-07
8.57098e-06
-5.9151e-07
8.57549e-06
-4.68879e-07
8.5896e-06
-2.86452e-07
8.59019e-06
-1.98416e-07
8.71761e-06
-5.43517e-08
8.74613e-06
2.56625e-07
8.67651e-06
6.20819e-07
8.50279e-06
8.24914e-06
9.93963e-07
1.14581e-07
1.15812e-05
1.6952e-07
8.76384e-06
2.15087e-07
8.71544e-06
2.50868e-07
8.68875e-06
2.77831e-07
8.66553e-06
2.88553e-07
8.64633e-06
2.74405e-07
8.62203e-06
2.4011e-07
8.60011e-06
2.02605e-07
8.57643e-06
1.55976e-07
8.57692e-06
7.22413e-08
8.62173e-06
-5.31966e-08
8.6401e-06
-2.11372e-07
8.62359e-06
-2.42041e-07
8.58176e-06
-2.27592e-07
8.5565e-06
-2.3905e-07
8.58702e-06
-3.04861e-07
8.65545e-06
-4.65905e-07
8.75126e-06
-4.13354e-07
8.66505e-06
-2.02545e-07
8.53528e-06
7.57433e-08
8.39814e-06
3.19716e-07
8.25877e-06
7.90658e-06
6.62135e-07
9.38648e-08
1.14873e-05
1.34748e-07
8.72295e-06
1.7172e-07
8.67846e-06
1.867e-07
8.67377e-06
1.84709e-07
8.66751e-06
1.74603e-07
8.65643e-06
1.42758e-07
8.65386e-06
8.77912e-08
8.65507e-06
1.25988e-08
8.65162e-06
-4.02781e-08
8.62978e-06
-3.11117e-08
8.61255e-06
-2.9101e-08
8.63808e-06
-9.21564e-08
8.68664e-06
-2.52982e-07
8.74257e-06
-4.70585e-07
8.77419e-06
-5.64931e-07
8.68136e-06
-5.60063e-07
8.65064e-06
-3.79624e-07
8.57084e-06
-2.20819e-07
8.50625e-06
-1.70888e-07
8.48531e-06
-1.58323e-07
8.38552e-06
4.21632e-09
8.09613e-06
7.71583e-06
1.94891e-07
9.32361e-08
1.13941e-05
1.44418e-07
8.67177e-06
2.0044e-07
8.62243e-06
2.45595e-07
8.6286e-06
2.76023e-07
8.63707e-06
2.87772e-07
8.64467e-06
2.83329e-07
8.6583e-06
2.62773e-07
8.67561e-06
2.14355e-07
8.70003e-06
1.08067e-07
8.73606e-06
-5.17218e-08
8.77233e-06
-2.03681e-07
8.79003e-06
-2.82791e-07
8.76575e-06
-2.88557e-07
8.74838e-06
-2.16841e-07
8.70244e-06
-2.13009e-07
8.67762e-06
-2.49874e-07
8.68754e-06
-3.7011e-07
8.6911e-06
-5.11327e-07
8.64746e-06
-5.04824e-07
8.47877e-06
-3.57069e-07
8.23769e-06
-2.841e-07
8.02311e-06
7.69051e-06
-2.58904e-07
7.8322e-08
1.13158e-05
1.16945e-07
8.63314e-06
1.5404e-07
8.58533e-06
1.77929e-07
8.60471e-06
1.86275e-07
8.62872e-06
1.75353e-07
8.65559e-06
1.47216e-07
8.68643e-06
1.0631e-07
8.71651e-06
6.16467e-08
8.74468e-06
3.55506e-08
8.76215e-06
3.96827e-08
8.76819e-06
3.94043e-08
8.79031e-06
-2.03635e-08
8.82552e-06
-1.20528e-07
8.84854e-06
-2.94675e-07
8.87667e-06
-4.79126e-07
8.86207e-06
-5.82875e-07
8.79133e-06
-6.07407e-07
8.71567e-06
-5.45238e-07
8.58528e-06
-5.43468e-07
8.47696e-06
-6.27272e-07
8.32144e-06
-6.6625e-07
8.062e-06
7.7269e-06
-7.02702e-07
9.92232e-08
1.12165e-05
1.68434e-07
8.56392e-06
2.36454e-07
8.51731e-06
2.88426e-07
8.55273e-06
3.23959e-07
8.59318e-06
3.35402e-07
8.64414e-06
3.20222e-07
8.7016e-06
2.77635e-07
8.75909e-06
2.08746e-07
8.81356e-06
1.09494e-07
8.86139e-06
-2.67446e-08
8.90442e-06
-1.66496e-07
8.93005e-06
-2.81489e-07
8.94052e-06
-3.69556e-07
8.93663e-06
-4.05044e-07
8.91213e-06
-4.14201e-07
8.87131e-06
-4.61431e-07
8.8386e-06
-5.46984e-07
8.80125e-06
-6.99918e-07
8.73822e-06
-8.17409e-07
8.59442e-06
-8.82613e-07
8.38658e-06
-9.80026e-07
8.15937e-06
7.87324e-06
-1.12648e-06
9.28485e-08
1.11237e-05
1.50089e-07
8.50667e-06
2.05887e-07
8.4615e-06
2.45533e-07
8.51307e-06
2.70193e-07
8.56851e-06
2.78886e-07
8.63544e-06
2.70622e-07
8.70985e-06
2.44417e-07
8.78529e-06
2.02207e-07
8.85576e-06
1.49261e-07
8.91433e-06
8.97406e-08
8.96393e-06
1.85373e-08
9.00126e-06
-6.59616e-08
9.02502e-06
-1.73187e-07
9.04385e-06
-3.09992e-07
9.04903e-06
-4.73453e-07
9.03476e-06
-6.3046e-07
8.99567e-06
-7.50713e-07
8.92153e-06
-8.36281e-07
8.82379e-06
-9.49618e-07
8.70772e-06
-1.1147e-06
8.55161e-06
-1.29247e-06
8.33705e-06
8.08361e-06
-1.5029e-06
1.23899e-07
1.09998e-05
2.02484e-07
8.42808e-06
2.76778e-07
8.3872e-06
3.36265e-07
8.45358e-06
3.80403e-07
8.52436e-06
4.06736e-07
8.60909e-06
4.0976e-07
8.70682e-06
3.85715e-07
8.80932e-06
3.30157e-07
8.91131e-06
2.5012e-07
8.99436e-06
1.39651e-07
9.07439e-06
7.59102e-09
9.13331e-06
-1.31101e-07
9.16372e-06
-2.63085e-07
9.17589e-06
-3.90018e-07
9.17593e-06
-5.03231e-07
9.14807e-06
-6.28272e-07
9.12073e-06
-7.76904e-07
9.07018e-06
-9.50195e-07
8.99708e-06
-1.13058e-06
8.88808e-06
-1.32417e-06
8.74514e-06
-1.54953e-06
8.56238e-06
8.35854e-06
-1.82457e-06
1.30986e-07
1.08688e-05
1.97451e-07
8.36161e-06
2.6065e-07
8.32399e-06
3.12577e-07
8.40164e-06
3.55318e-07
8.48161e-06
3.91739e-07
8.57267e-06
4.2401e-07
8.67454e-06
4.45585e-07
8.78774e-06
4.37039e-07
8.91985e-06
3.91044e-07
9.04035e-06
3.03379e-07
9.16205e-06
1.78617e-07
9.25807e-06
2.22751e-08
9.32007e-06
-1.53746e-07
9.3519e-06
-3.33443e-07
9.35571e-06
-5.2101e-07
9.33562e-06
-7.00119e-07
9.29988e-06
-8.77873e-07
9.24797e-06
-1.05976e-06
9.17896e-06
-1.2596e-06
9.0879e-06
-1.49378e-06
8.97927e-06
-1.76945e-06
8.83797e-06
8.67564e-06
-2.08658e-06
1.56778e-07
1.0712e-05
1.9057e-07
8.32781e-06
2.22381e-07
8.29218e-06
2.52225e-07
8.37179e-06
2.79042e-07
8.45479e-06
3.06787e-07
8.54492e-06
3.37932e-07
8.64339e-06
3.62991e-07
8.76268e-06
3.8284e-07
8.9e-06
3.79873e-07
9.04331e-06
3.52864e-07
9.18906e-06
2.82762e-07
9.32818e-06
1.6746e-07
9.43538e-06
-4.12076e-09
9.52352e-06
-2.17522e-07
9.56908e-06
-4.5436e-07
9.57255e-06
-6.89356e-07
9.53491e-06
-9.1184e-07
9.47047e-06
-1.13385e-06
9.40097e-06
-1.36986e-06
9.32388e-06
-1.62965e-06
9.23901e-06
-1.9323e-06
9.14061e-06
9.02682e-06
-2.28359e-06
1.46823e-07
1.05652e-05
1.0621e-07
8.36842e-06
5.68649e-08
8.34151e-06
2.84853e-08
8.40017e-06
2.22984e-09
8.48104e-06
-1.66407e-08
8.56378e-06
-2.59964e-08
8.65274e-06
-2.67138e-08
8.76339e-06
-1.04742e-08
8.88375e-06
9.44638e-09
9.02339e-06
2.31374e-08
9.17537e-06
1.89008e-08
9.33242e-06
-1.55178e-08
9.46981e-06
-8.07352e-08
9.58873e-06
-1.87963e-07
9.67642e-06
-3.51885e-07
9.73644e-06
-5.85913e-07
9.769e-06
-8.70654e-07
9.75524e-06
-1.15987e-06
9.6902e-06
-1.4367e-06
9.6007e-06
-1.72188e-06
9.52418e-06
-2.04455e-06
9.4632e-06
9.39836e-06
-2.41611e-06
9.24024e-08
1.04728e-05
-9.75707e-08
8.55839e-06
-2.87793e-07
8.53173e-06
-4.44189e-07
8.55656e-06
-5.69907e-07
8.60675e-06
-6.73418e-07
8.66729e-06
-7.50531e-07
8.72985e-06
-7.93979e-07
8.80683e-06
-8.03717e-07
8.89349e-06
-7.78366e-07
8.99803e-06
-7.26024e-07
9.12302e-06
-6.67894e-07
9.27429e-06
-6.19647e-07
9.42157e-06
-5.79264e-07
9.54841e-06
-5.76516e-07
9.6736e-06
-6.13116e-07
9.77315e-06
-6.94362e-07
9.85027e-06
-8.41068e-07
9.90199e-06
-1.08206e-06
9.93121e-06
-1.40045e-06
9.9191e-06
-1.74737e-06
9.87107e-06
-2.098e-06
9.81384e-06
9.78554e-06
-2.48529e-06
-2.44957e-08
1.04972e-05
-4.08023e-07
8.94191e-06
-7.85164e-07
8.90887e-06
-1.11758e-06
8.88897e-06
-1.40404e-06
8.8932e-06
-1.64679e-06
8.91003e-06
-1.84573e-06
8.9288e-06
-1.99003e-06