/*--------------------------------*- C++ -*----------------------------------*\
| =========                 |                                                 |
| \\      /  F ield         | OpenFOAM: The Open Source CFD Toolbox           |
|  \\    /   O peration     | Version:  2.4.0                                 |
|   \\  /    A nd           | Web:      www.OpenFOAM.org                      |
|    \\/     M anipulation  |                                                 |
\*---------------------------------------------------------------------------*/
FoamFile
{
    version     2.0;
    format      ascii;
    class       surfaceScalarField;
    location    "0.65";
    object      phi.mercury;
}
// * * * * * * * * * * * * * * * * * * * * * * * * * * * * * * * * * * * * * //

dimensions      [0 3 -1 0 0 0 0];

internalField   nonuniform List<scalar> 
4432
(
2.12208e-06
-2.12208e-06
4.51308e-06
-2.391e-06
6.02433e-06
-1.51126e-06
8.36785e-06
-2.34352e-06
1.0808e-05
-2.44016e-06
1.2376e-05
-1.56795e-06
1.38193e-05
-1.44333e-06
1.47933e-05
-9.73958e-07
1.60658e-05
-1.27257e-06
1.70815e-05
-1.01572e-06
1.65826e-05
4.98969e-07
1.41863e-05
2.39624e-06
9.76209e-06
4.42424e-06
4.70744e-06
5.05465e-06
1.56438e-07
4.551e-06
-2.86014e-06
3.01658e-06
-5.23438e-06
2.37424e-06
-6.58217e-06
1.34779e-06
-7.22843e-06
6.46262e-07
-5.92855e-06
-1.29988e-06
-3.84463e-06
-2.08392e-06
-3.10623e-06
-7.38401e-07
-3.10626e-06
2.13638e-06
-4.31734e-06
4.44973e-06
-4.76832e-06
6.16665e-06
-3.27797e-06
8.46419e-06
-4.70709e-06
1.07596e-05
-4.80721e-06
1.24676e-05
-3.33331e-06
1.40922e-05
-3.11891e-06
1.54342e-05
-2.35587e-06
1.70423e-05
-2.9116e-06
1.75882e-05
-1.57297e-06
1.63031e-05
1.78364e-06
1.34402e-05
5.25913e-06
9.49738e-06
8.36707e-06
4.39157e-06
1.01605e-05
-7.42915e-08
9.01686e-06
-2.98901e-06
5.9313e-06
-4.98905e-06
4.37428e-06
-6.40824e-06
2.76698e-06
-6.71729e-06
9.55305e-07
-5.67028e-06
-2.34689e-06
-3.74976e-06
-4.00444e-06
-2.36782e-06
-2.12034e-06
-5.47408e-06
2.14115e-06
-1.29994e-05
4.11745e-06
-1.34002e-05
6.54519e-06
-1.21038e-05
8.51695e-06
-1.34705e-05
1.02608e-05
-1.36156e-05
1.22634e-05
-1.22758e-05
1.39785e-05
-1.17091e-05
1.55675e-05
-1.0569e-05
1.61506e-05
-9.70162e-06
1.59985e-05
-6.39465e-06
1.67762e-05
-1.05046e-06
1.55701e-05
6.22842e-06
1.19269e-05
1.20041e-05
6.33229e-06
1.5755e-05
6.11979e-07
1.47372e-05
-3.73079e-06
1.02741e-05
-6.36028e-06
7.00377e-06
-7.47343e-06
3.88013e-06
-7.18796e-06
6.69836e-07
-5.11722e-06
-4.41763e-06
-2.49209e-06
-6.62957e-06
-2.41018e-07
-4.37141e-06
-5.71509e-06
2.05432e-06
-4.87146e-05
3.63444e-06
-4.88286e-05
6.54022e-06
-4.84857e-05
8.12051e-06
-4.90025e-05
9.47966e-06
-4.92813e-05
1.18863e-05
-4.89311e-05
1.39914e-05
-4.84568e-05
1.60842e-05
-4.74524e-05
1.69649e-05
-4.56799e-05
1.77817e-05
-4.21161e-05
1.66705e-05
-3.55872e-05
1.28444e-05
-1.68728e-05
9.41744e-06
3.26333e-06
4.07198e-06
2.02917e-05
-7.96665e-07
1.95926e-05
-4.33753e-06
1.38148e-05
-6.42314e-06
9.08937e-06
-7.54961e-06
5.0066e-06
-7.09767e-06
2.17901e-07
-5.60043e-06
-5.91488e-06
-3.03604e-06
-9.19396e-06
-3.749e-07
-7.03255e-06
-6.08999e-06
1.58682e-06
-3.61586e-05
3.00339e-06
-3.60564e-05
5.3687e-06
-3.64799e-05
6.95802e-06
-3.58968e-05
7.82104e-06
-3.58855e-05
9.77524e-06
-3.63871e-05
1.19375e-05
-3.60492e-05
1.30359e-05
-3.53419e-05
1.35544e-05
-3.42963e-05
1.44125e-05
-3.26304e-05
1.46066e-05
-3.29276e-05
1.38465e-05
-3.79993e-05
9.40993e-06
-1.87059e-05
1.72732e-06
1.06459e-05
-3.06958e-06
2.32689e-05
-6.01453e-06
1.67467e-05
-7.24859e-06
1.03233e-05
-7.54641e-06
5.30441e-06
-6.95974e-06
-3.6877e-07
-6.10378e-06
-6.77084e-06
-4.17238e-06
-1.11254e-05
-7.62302e-07
-1.04426e-05
-6.8523e-06
-3.30664e-07
-1.45699e-05
-4.16201e-07
-1.44855e-05
-9.45441e-07
-1.53214e-05
-7.68193e-07
-1.43053e-05
-3.6621e-07
-1.352e-05
-4.61836e-07
-1.42553e-05
-9.29407e-07
-1.24387e-05
-1.50896e-06
-1.06965e-05
-1.37278e-06
-9.54045e-06
1.78394e-06
-8.68803e-06
7.90505e-06
-1.13177e-05
1.3073e-05
-2.79838e-05
9.79506e-06
-2.7106e-05
-1.56094e-06
3.16641e-06
-8.74739e-06
1.98829e-05
-1.02018e-05
1.78484e-05
-9.63041e-06
9.74785e-06
-8.59653e-06
4.27009e-06
-6.70563e-06
-2.25983e-06
-6.26206e-06
-7.21444e-06
-5.47547e-06
-1.1912e-05
-2.20042e-06
-1.37177e-05
-9.05273e-06
-7.51817e-07
-1.18206e-05
-1.25924e-06
-1.19455e-05
-1.14161e-06
-1.33162e-05
-1.05713e-06
-1.24294e-05
-6.64248e-07
-1.15079e-05
3.69467e-07
-1.23185e-05
2.09734e-07
-9.24494e-06
-8.91137e-07
-6.63355e-06
-2.70411e-06
-4.75644e-06
-5.70302e-06
-2.60621e-06
-1.04075e-05
1.56217e-06
-2.8765e-06
3.74258e-06
-1.00099e-06
-1.2126e-05
-8.92691e-06
-3.81574e-06
-1.60983e-05
1.17789e-05
-1.67092e-05
1.54028e-05
-1.34843e-05
6.48411e-06
-1.05132e-05
1.29911e-06
-7.9115e-06
-4.86157e-06
-7.10927e-06
-8.01668e-06
-5.80343e-06
-1.32284e-05
-2.53388e-06
-1.70168e-05
-1.15875e-05
-7.43094e-07
-1.23735e-05
-1.01757e-06
-1.28419e-05
-1.51111e-06
-1.36661e-05
-1.1226e-06
-1.37062e-05
-7.08195e-07
-1.30356e-05
-9.73757e-07
-1.30695e-05
-1.59003e-06
-1.03613e-05
-2.21801e-06
-8.10927e-06
-2.51935e-06
-6.79155e-06
-2.67894e-06
-5.08465e-06
-3.01744e-06
-1.1715e-06
-1.17568e-05
7.07556e-06
-1.91293e-05
9.19879e-06
-2.57764e-05
-6.11865e-06
-2.63259e-05
2.68843e-06
-2.7498e-05
5.44427e-06
-2.38405e-05
-6.76515e-07
-1.71765e-05
-5.83535e-06
-1.21718e-05
-1.05106e-05
-8.58114e-06
-1.28777e-05
-5.3494e-06
-1.89071e-05
-2.00007e-06
-2.33464e-05
-1.54416e-05
-2.54253e-05
-4.23011e-05
-1.68937e-05
-4.85592e-05
9.11636e-06
-5.09645e-05
2.95428e-05
-4.03781e-05
4.46898e-05
-3.21087e-05
5.51641e-05
-2.63656e-05
6.3193e-05
-2.45363e-05
6.805e-05
-2.36786e-05
6.95973e-05
-2.5127e-05
6.91674e-05
-2.67355e-05
6.7629e-05
-2.70858e-05
6.4217e-05
-2.49227e-05
5.79215e-05
-2.05085e-05
5.26118e-05
-1.90695e-05
4.70337e-05
-1.71177e-05
3.34121e-05
-6.97953e-06
1.03115e-05
2.85619e-06
-3.70257e-06
-5.33965e-06
-2.0756e-05
-8.20468e-06
-2.56329e-05
1.05909e-05
-7.63062e-05
2.43322e-05
-8.20136e-05
3.73611e-05
-6.11367e-05
4.82504e-05
-4.7487e-05
5.54616e-05
-3.68881e-05
6.15959e-05
-3.57739e-05
6.59707e-05
-3.46923e-05
6.88581e-05
-3.4628e-05
7.15138e-05
-3.55177e-05
7.48726e-05
-3.52809e-05
7.53314e-05
-2.90503e-05
7.22896e-05
-1.81599e-05
6.69381e-05
-1.5771e-05
6.18046e-05
-1.93194e-05
4.87668e-05
2.91915e-06
2.36564e-05
3.5018e-05
3.33654e-06
2.49279e-05
-1.13996e-05
8.36029e-06
-2.16875e-05
2.63215e-05
-9.11057e-05
3.65303e-05
-0.000106198
4.78425e-05
-9.31204e-05
5.25667e-05
-7.8416e-05
5.3492e-05
-6.93055e-05
5.43698e-05
-7.23793e-05
5.58156e-05
-7.2029e-05
5.81686e-05
-6.75499e-05
5.93303e-05
-6.75528e-05
5.97386e-05
-6.27684e-05
5.99507e-05
-5.90902e-05
5.94671e-05
-5.5423e-05
5.61707e-05
-5.65023e-05
5.2754e-05
-6.90924e-05
4.28561e-05
-4.74093e-05
2.00091e-05
4.12605e-05
-8.32383e-07
3.80383e-05
-1.84085e-05
2.12455e-05
-6.94401e-06
3.53482e-05
-9.68519e-05
4.28233e-05
-0.000117068
5.03878e-05
-0.000124887
5.24809e-05
-0.00012551
5.2974e-05
-0.000122737
5.29016e-05
-0.000130937
5.23375e-05
-0.000140717
5.13247e-05
-0.00013985
4.88768e-05
-0.000132201
4.6031e-05
-0.000105706
4.55015e-05
-8.22441e-05
4.56908e-05
-7.59375e-05
4.16538e-05
-7.96754e-05
3.55134e-05
-9.53147e-05
3.20111e-05
-8.15843e-05
9.916e-06
3.64404e-05
-5.72509e-06
4.73191e-05
-2.87199e-05
3.3383e-05
-2.70206e-05
3.91507e-05
-0.000102959
4.178e-05
-0.000126323
4.54316e-05
-0.000150334
5.00322e-05
-0.000154185
5.48998e-05
-0.000156187
6.0707e-05
-0.000165681
6.82298e-05
-0.000154565
6.78509e-05
-0.000122253
5.595e-05
-0.000116144
4.45857e-05
-0.000192975
4.39829e-05
-0.000110514
4.54412e-05
-9.02112e-05
3.96763e-05
-9.7664e-05
3.11858e-05
-0.000101318
2.54789e-05
-8.16307e-05
-7.77992e-07
2.1652e-05
-9.08641e-06
4.32879e-05
-5.59742e-05
3.66766e-05
-5.97238e-05
4.00633e-05
-0.000109535
4.12294e-05
-0.000136619
4.24073e-05
-0.000167136
4.38394e-05
-0.000176378
4.34321e-05
-0.000165817
4.00544e-05
-0.000168655
4.66453e-05
-0.000113552
6.26264e-05
-4.47395e-05
7.46641e-05
-3.34631e-05
6.9569e-05
-0.000143152
4.62577e-05
-0.000147541
4.17707e-05
-0.000106856
3.23317e-05
-0.000117992
2.25646e-05
-0.000106838
1.47148e-05
-7.21634e-05
-4.67588e-06
2.0865e-06
-3.68348e-06
2.46939e-05
-8.4712e-05
3.45204e-05
-8.7842e-05
3.84307e-05
-0.000118755
4.21989e-05
-0.000149466
4.58683e-05
-0.000177079
4.53958e-05
-0.000191911
4.41609e-05
-0.000159918
3.99909e-05
-0.000135263
4.39069e-05
-8.96111e-05
5.03268e-05
-4.61876e-05
5.71588e-05
-2.39162e-05
5.48537e-05
-2.78013e-05
5.65149e-05
-0.000128654
4.18859e-05
-0.000138544
2.96447e-05
-0.000144174
2.06664e-05
-0.000116224
1.68989e-05
-6.9366e-05
6.24836e-06
-3.96627e-06
6.6725e-06
2.97364e-06
-9.62822e-05
3.54054e-05
-0.000101526
4.1919e-05
-0.000131006
4.57865e-05
-0.000166094
4.77446e-05
-0.00018243
4.65976e-05
-0.000175606
4.3872e-05
-0.000125111
4.01177e-05
-8.12152e-05
4.28071e-05
-7.01335e-05
4.27536e-05
-5.1659e-05
4.80554e-05
-2.69471e-05
5.43248e-05
-1.25509e-05
5.5922e-05
-5.54078e-05
4.38251e-05
-0.000120273
2.68765e-05
-0.000160631
2.00217e-05
-0.000131481
1.71933e-05
-8.20942e-05
1.50493e-05
-2.21848e-06
1.72298e-05
-7.61339e-06
-9.57794e-05
-1.89637e-06
-8.95486e-06
-2.98817e-06
-9.90035e-06
-2.46605e-06
-1.17789e-05
-4.42989e-07
-1.22618e-05
1.39264e-06
-1.12281e-05
4.26691e-06
-1.22258e-05
4.96303e-06
-7.31024e-06
9.69568e-07
-5.29406e-07
-6.26421e-06
3.73003e-06
-1.5116e-05
6.62712e-06
-2.21402e-05
8.16383e-06
-2.42668e-05
7.69899e-06
-2.74029e-05
1.45944e-05
-4.46933e-05
-8.49064e-07
-4.29124e-05
-9.07483e-06
-4.5614e-05
-1.09113e-05
-4.89919e-05
-1.96721e-05
-4.88615e-05
-2.97951e-05
-4.10115e-05
-3.77571e-05
-2.57348e-05
-4.78374e-05
-8.05944e-06
-6.3696e-05
3.31014e-06
-6.41443e-05
-5.61125e-05
1.49509e-05
-1.68416e-06
-3.74848e-06
-2.46287e-06
-6.03359e-06
-2.02952e-06
-1.00633e-05
5.08489e-07
-1.38026e-05
3.3884e-06
-1.35523e-05
5.23254e-06
-1.41451e-05
4.96067e-06
-6.49448e-06
5.42783e-06
1.43907e-07
4.83047e-06
5.69021e-06
2.4265e-06
1.09231e-05
-7.59657e-07
1.46883e-05
-4.11757e-06
1.5619e-05
-1.0469e-05
2.01092e-05
-1.92862e-05
1.0845e-05
-1.82671e-05
-4.68017e-06
-7.88343e-06
-1.62614e-05
-2.09931e-06
-3.44516e-05
7.08646e-07
-4.2962e-05
4.2065e-06
-6.0041e-05
1.30817e-05
-8.23872e-05
1.99218e-05
-0.000102063
2.50746e-05
-0.000100831
-9.89545e-05
3.73048e-05
-4.49511e-06
-2.31004e-07
-9.05882e-06
-2.53694e-06
-8.27809e-06
-1.18228e-05
-1.31955e-06
-2.14254e-05
4.52732e-06
-1.97729e-05
7.36819e-06
-1.82986e-05
5.82942e-06
-6.84208e-06
-8.42974e-07
5.2626e-06
-6.5876e-06
1.03658e-05
-9.66677e-06
1.33976e-05
-9.49512e-06
1.44897e-05
-7.04798e-06
1.37321e-05
-2.87853e-07
1.60337e-05
1.88967e-06
1.76361e-05
1.23356e-05
3.47944e-06
2.28406e-05
-5.66492e-06
3.15534e-05
-3.44914e-05
4.37472e-05
-4.58235e-05
5.51068e-05
-5.32478e-05
6.74373e-05
-6.10522e-05
7.86183e-05
-6.58333e-05
8.69112e-05
-6.95592e-05
-7.33273e-05
9.82246e-05
-1.1284e-05
9.69783e-06
-1.79617e-05
2.17082e-06
-1.49928e-05
-1.70788e-05
-1.13079e-05
-2.64596e-05
-1.66612e-05
-1.76598e-05
-2.35686e-05
-1.93447e-05
-2.45273e-05
-1.23456e-05
-2.34241e-05
-8.37644e-08
-2.07787e-05
4.40966e-06
-1.96285e-05
9.54037e-06
-1.8106e-05
1.01444e-05
-1.47508e-05
7.77521e-06
-8.62285e-06
8.05918e-06
1.77055e-06
8.68522e-06
1.29776e-05
6.31457e-06
2.29295e-05
-2.50933e-06
3.74417e-05
-1.00799e-05
5.13763e-05
-1.93345e-05
6.1732e-05
-2.36131e-05
6.95996e-05
-3.30245e-05
7.81401e-05
-4.49882e-05
8.53647e-05
-5.85521e-05
-6.96064e-05
9.30458e-05
-4.98615e-06
-3.6617e-05
-1.27317e-05
-5.10217e-05
-3.77949e-05
-7.42675e-05
-8.25928e-05
-7.59766e-05
-0.000118311
-5.77857e-05
-0.000127519
-7.48656e-05
-0.00011962
-7.23502e-05
-0.000103117
-5.91866e-05
-8.63823e-05
-4.3937e-05
-7.18164e-05
-3.18241e-05
-6.11252e-05
-2.52278e-05
-4.70792e-05
-2.6554e-05
-2.94694e-05
-2.17753e-05
-1.31696e-05
-1.66865e-05
3.07273e-06
-1.74104e-05
1.5876e-05
-2.11459e-05
2.71066e-05
-2.92139e-05
3.63845e-05
-4.8535e-05
4.22292e-05
-6.01992e-05
4.57509e-05
-7.80488e-05
4.77858e-05
-8.83283e-05
5.06015e-05
-8.7101e-05
-0.000105123
5.20723e-05
2.79649e-06
-5.57537e-05
-1.8545e-05
-7.64055e-05
-6.48493e-05
-8.04698e-05
-9.26405e-05
-7.96863e-05
-0.000112736
-6.74293e-05
-0.000132496
-7.51142e-05
-0.000133273
-5.98594e-05
-0.000121295
-8.57828e-05
-0.000110296
-7.71196e-05
-0.000108654
-6.48791e-05
-9.99185e-05
-9.33188e-05
-8.51637e-05
-0.000100435
-6.78672e-05
-9.12002e-05
-5.42958e-05
-8.52319e-05
-3.94076e-05
-8.63882e-05
-2.75758e-05
-8.65257e-05
-1.7903e-05
-9.42401e-05
-6.3149e-06
-0.000107905
4.69842e-06
-0.000117306
9.1528e-06
-0.000135564
9.4411e-06
-9.70636e-05
8.97422e-06
-8.56662e-05
-4.72955e-05
-3.82521e-05
-8.59082e-06
1.60471e-05
-1.81971e-05
2.48957e-05
-3.0038e-05
3.58756e-05
-4.88215e-05
3.5862e-05
-3.75343e-05
1.61574e-05
4.46949e-05
-4.78783e-05
9.60853e-05
-5.42437e-05
6.96185e-05
-7.35136e-06
9.20529e-06
3.77716e-05
-3.33617e-05
3.84715e-05
-8.10991e-05
4.03085e-05
-8.72217e-05
-2.59305e-05
-7.4121e-05
-6.14584e-05
-6.35774e-05
-5.72332e-05
-5.49692e-05
-6.55407e-05
-4.69922e-05
-7.22807e-05
-4.5457e-05
-5.41217e-05
-6.33953e-05
-4.20317e-05
-0.000108085
-2.1587e-05
-0.000180231
-2.33488e-07
-0.000212928
-1.70682e-05
-0.000227819
-3.80812e-05
-1.4999e-05
-0.000201373
-4.35776e-05
6.2715e-05
-3.96488e-05
3.09238e-05
-7.93482e-06
2.8316e-05
2.15735e-05
4.48632e-05
6.08376e-05
-6.59334e-06
5.41396e-05
-4.11215e-05
2.92702e-05
-2.93738e-05
-2.26093e-06
2.41808e-05
-3.13377e-05
6.6862e-05
-3.55758e-05
4.31711e-05
-1.58887e-05
2.42267e-05
1.95667e-05
-4.13246e-05
2.19481e-05
-5.10983e-05
1.41574e-05
-3.1018e-05
-1.45739e-06
-1.45108e-05
-2.54966e-05
-8.07575e-06
-3.99861e-05
-1.02357e-05
-4.75326e-05
-9.40093e-06
-4.24979e-05
-8.77383e-06
-2.06108e-05
-1.69973e-05
-2.15305e-05
-1.61531e-05
-5.07452e-05
-8.83254e-06
2.07871e-05
-8.65765e-05
-1.55604e-05
7.82723e-05
-8.44942e-06
2.38104e-05
8.71503e-06
1.11529e-05
4.20619e-05
1.1522e-05
4.92242e-05
-1.37535e-05
4.58757e-05
-3.77722e-05
3.25028e-05
-1.59992e-05
9.25603e-06
4.74277e-05
1.45359e-05
6.1584e-05
2.42422e-06
5.52839e-05
-1.07663e-05
3.742e-05
-2.64943e-05
-2.5596e-05
-3.18429e-05
-4.57486e-05
-2.12356e-05
-4.16249e-05
-3.47887e-06
-3.22714e-05
1.55659e-05
-2.71265e-05
2.99272e-05
-2.46134e-05
3.98534e-05
-1.93436e-05
4.1764e-05
-1.07071e-05
2.60216e-05
-1.27098e-06
2.39349e-06
7.4825e-06
-2.36473e-05
1.71652e-05
3.8115e-05
-4.0906e-05
9.75601e-06
6.85126e-05
5.44764e-06
2.81174e-05
4.86127e-06
1.1739e-05
1.53901e-05
9.94343e-07
1.61027e-05
-1.44652e-05
8.01261e-06
-2.96808e-05
9.05066e-06
-1.70375e-05
1.48576e-05
4.16214e-05
2.47114e-05
5.17299e-05
3.42931e-05
4.57032e-05
5.16601e-05
2.0053e-05
4.00813e-05
-1.40167e-05
2.39535e-05
-2.96208e-05
1.59734e-05
-3.36471e-05
1.25637e-05
-2.88655e-05
8.63655e-06
-2.32101e-05
2.92201e-06
-1.89111e-05
-2.91872e-06
-1.35189e-05
-4.88817e-06
-8.75013e-06
-4.4411e-06
-1.72474e-06
-9.09186e-06
1.21276e-05
-1.75862e-05
2.56956e-05
4.0907e-05
-2.04012e-05
1.46352e-05
5.38763e-05
1.6446e-05
2.6306e-05
2.03088e-05
7.87597e-06
2.21649e-05
-8.60903e-07
1.43574e-05
-6.65726e-06
-1.50426e-06
-1.38184e-05
-5.527e-06
-1.30152e-05
1.76261e-05
1.84684e-05
3.73964e-05
3.19586e-05
5.31749e-05
2.99246e-05
5.44886e-05
1.87384e-05
3.45722e-05
5.89933e-06
1.72516e-05
-1.23015e-05
5.41205e-06
-2.18118e-05
-2.54802e-07
-2.32039e-05
-2.32725e-06
-2.11494e-05
-3.05065e-06
-1.81964e-05
-2.83362e-06
-1.37471e-05
-4.38745e-06
-7.20061e-06
-9.00839e-06
2.89716e-06
-1.08215e-05
1.39592e-05
-1.24944e-05
2.73574e-05
4.04612e-05
-1.20228e-05
1.45279e-05
3.93465e-05
1.69552e-05
2.38776e-05
1.42935e-05
1.05377e-05
1.02202e-05
3.21237e-06
5.49777e-06
-1.9342e-06
-2.02577e-06
-6.29518e-06
-9.96804e-06
-5.07301e-06
3.22481e-06
5.27418e-06
2.13213e-05
1.38614e-05
2.94278e-05
2.18165e-05
2.82703e-05
1.98949e-05
2.57238e-05
8.4444e-06
1.76924e-05
-4.27301e-06
8.32963e-06
-1.2453e-05
4.17861e-07
-1.5301e-05
-5.92537e-06
-1.48129e-05
-1.10287e-05
-1.31008e-05
-1.53542e-05
-9.42295e-06
-2.05984e-05
-1.95417e-06
-2.41047e-05
6.4137e-06
-2.572e-05
1.55803e-05
-2.38323e-05
2.55013e-05
3.52529e-05
-1.86472e-05
1.01445e-05
2.92022e-05
1.45562e-05
1.94654e-05
1.49325e-05
1.01611e-05
1.26551e-05
5.48941e-06
7.82806e-06
2.8927e-06
3.80733e-07
1.15148e-06
-6.45906e-06
1.76601e-06
-7.30475e-06
6.11844e-06
-1.8518e-06
8.40708e-06
5.10057e-06
1.48623e-05
9.23568e-06
1.57582e-05
8.5477e-06
9.13029e-06
4.08108e-06
1.89783e-07
-2.24833e-06
-6.12886e-06
-7.83974e-06
-9.71788e-06
-1.26243e-05
-1.00329e-05
-1.74288e-05
-8.29822e-06
-2.18167e-05
-5.03008e-06
-2.34936e-05
-2.67984e-07
-2.42875e-05
7.2219e-06
-2.40234e-05
1.53383e-05
-2.22685e-05
2.37414e-05
3.06544e-05
-1.7658e-05
6.55729e-06
2.2643e-05
1.01935e-05
1.58283e-05
9.91022e-06
1.04434e-05
7.91683e-06
7.48222e-06
5.17328e-06
5.63533e-06
1.71173e-06
4.61229e-06
-1.64201e-06
5.1183e-06
-2.6556e-06
7.13071e-06
-2.32076e-06
8.07029e-06
1.23343e-06
1.13065e-05
4.74259e-06
1.22471e-05
4.26646e-06
9.60371e-06
7.48418e-07
3.70423e-06
-4.10056e-06
-1.28636e-06
-9.04469e-06
-4.77791e-06
-1.28975e-05
-6.18389e-06
-1.60232e-05
-5.16597e-06
-1.87107e-05
-2.32894e-06
-2.17591e-05
2.79631e-06
-2.26589e-05
8.14653e-06
-2.14269e-05
1.41166e-05
-1.83028e-05
2.06368e-05
2.61368e-05
-1.37985e-05
3.71351e-06
1.89295e-05
6.26307e-06
1.32779e-05
6.23312e-06
1.04723e-05
5.07177e-06
8.64243e-06
3.4995e-06
7.20648e-06
1.53917e-06
6.5713e-06
2.70395e-08
6.62899e-06
-3.48288e-07
7.50436e-06
-1.88292e-07
7.90856e-06
1.16792e-06
9.94842e-06
3.10605e-06
1.03071e-05
3.79297e-06
8.91418e-06
2.07147e-06
5.42239e-06
-1.41929e-06
2.19991e-06
-5.64923e-06
-5.53344e-07
-9.44147e-06
-2.38406e-06
-1.24442e-05
-2.14995e-06
-1.48878e-05
1.31196e-07
-1.65296e-05
4.46776e-06
-1.74008e-05
9.03817e-06
-1.66842e-05
1.34218e-05
-1.4431e-05
1.83999e-05
2.29329e-05
-1.12327e-05
2.34464e-06
1.65826e-05
3.58513e-06
1.20358e-05
3.66355e-06
1.03925e-05
3.27055e-06
9.03401e-06
2.53651e-06
7.93913e-06
1.70387e-06
7.40246e-06
1.12796e-06
7.20338e-06
1.01818e-06
7.61248e-06
1.09225e-06
7.83287e-06
2.08138e-06
8.95765e-06
3.29192e-06
9.09478e-06
4.06296e-06
8.14127e-06
3.63158e-06
5.8506e-06
1.99238e-06
3.83406e-06
-5.37446e-07
1.98287e-06
-3.75817e-06
8.34939e-07
-6.92018e-06
1.0233e-06
-9.51407e-06
2.74522e-06
-1.12913e-05
6.25635e-06
-1.26291e-05
1.03984e-05
-1.26327e-05
1.34476e-05
-1.07979e-05
1.65708e-05
2.02075e-05
-8.04871e-06
1.40359e-06
1.51791e-05
2.2955e-06
1.11429e-05
2.60638e-06
1.00802e-05
2.49976e-06
9.1392e-06
2.12916e-06
8.30818e-06
1.73429e-06
7.79589e-06
1.40942e-06
7.52669e-06
1.40285e-06
7.61765e-06
1.5276e-06
7.70665e-06
2.30255e-06
8.18145e-06
3.23449e-06
8.16149e-06
4.03937e-06
7.33485e-06
3.91966e-06
5.96747e-06
2.9021e-06
4.85391e-06
1.1486e-06
3.72313e-06
-1.39075e-06
3.38436e-06
-4.27105e-06
3.89522e-06
-6.8295e-06
5.2969e-06
-8.43085e-06
7.86611e-06
-9.4684e-06
1.14371e-05
-9.73581e-06
1.37184e-05
-8.44743e-06
1.53129e-05
1.78106e-05
-6.06666e-06
9.38817e-07
1.42364e-05
1.65901e-06
1.04206e-05
2.02846e-06
9.70914e-06
2.09262e-06
9.07346e-06
1.86728e-06
8.5321e-06
1.52453e-06
8.13715e-06
1.15565e-06
7.8943e-06
9.47792e-07
7.8242e-06
8.61642e-07
7.79177e-06
1.31349e-06
7.72854e-06
1.99315e-06
7.48103e-06
2.37232e-06
6.9545e-06
1.97304e-06
6.36622e-06
1.07094e-06
5.74808e-06
-5.03094e-07
5.30977e-06
-2.72999e-06
5.58697e-06
-4.76647e-06
5.93045e-06
-6.24293e-06
6.77732e-06
-7.22631e-06
8.84312e-06
-7.38866e-06
1.1607e-05
-6.96626e-06
1.33136e-05
-5.64155e-06
1.3983e-05
1.56496e-05
-3.45229e-06
7.08318e-07
1.35277e-05
1.2697e-06
9.85739e-06
1.51834e-06
9.4583e-06
1.53106e-06
9.05852e-06
1.32824e-06
8.73267e-06
1.00181e-06
8.46152e-06
6.65801e-07
8.22831e-06
3.97579e-07
8.09072e-06
2.20657e-07
7.96711e-06
2.16239e-07
7.73171e-06
2.66881e-07
7.42918e-06
1.29504e-07
7.09051e-06
-2.72563e-07
6.76607e-06
-9.6235e-07
6.44367e-06
-2.09665e-06
6.424e-06
-3.30337e-06
6.80058e-06
-4.378e-06
7.00178e-06
-5.32421e-06
7.72251e-06
-5.87775e-06
9.3954e-06
-5.58934e-06
1.13178e-05
-4.56522e-06
1.22899e-05
-3.18684e-06
1.26106e-05
1.40131e-05
-1.56477e-06
5.49717e-07
1.29752e-05
8.34628e-07
9.57062e-06
9.70753e-07
9.32053e-06
1.014e-06
9.01378e-06
9.62207e-07
8.78303e-06
8.52324e-07
8.57015e-06
7.0522e-07
8.37429e-06
5.28344e-07
8.26672e-06
3.72307e-07
8.12243e-06
1.75586e-07
7.92797e-06
-1.10826e-08
7.61532e-06
-3.17307e-07
7.39651e-06
-8.38086e-07
7.28598e-06
-1.43571e-06
7.03814e-06
-2.01117e-06
7.00818e-06
-2.34124e-06
7.12525e-06
-2.91329e-06
7.57769e-06
-3.63216e-06
8.44343e-06
-3.7833e-06
9.54828e-06
-3.2932e-06
1.08293e-05
-2.4101e-06
1.14095e-05
-1.31396e-06
1.15113e-05
1.26025e-05
9.21859e-08
3.56155e-07
1.26185e-05
5.81304e-07
9.34422e-06
7.58263e-07
9.14221e-06
8.5605e-07
8.91466e-06
9.06634e-07
8.73122e-06
9.19622e-07
8.55609e-06
8.74396e-07
8.41864e-06
8.12657e-07
8.3278e-06
6.994e-07
8.23526e-06
5.0271e-07
8.12442e-06
2.32022e-07
7.88594e-06
-7.48888e-08
7.70313e-06
-4.62015e-07
7.67223e-06
-9.40422e-07
7.52172e-06
-1.40895e-06
7.47049e-06
-1.84649e-06
7.57246e-06
-2.38686e-06
8.12116e-06
-2.72821e-06
8.78904e-06
-2.6892e-06
9.51278e-06
-2.30177e-06
1.04451e-05
-1.66059e-06
1.07693e-05
-9.54891e-07
1.08097e-05
1.1591e-05
4.53045e-08
2.69489e-07
1.23468e-05
4.87206e-07
9.12502e-06
6.56267e-07
8.97188e-06
7.15584e-07
8.85419e-06
7.48319e-07
8.69746e-06
7.43552e-07
8.55999e-06
7.31599e-07
8.42994e-06
7.47031e-07
8.31194e-06
7.67127e-07
8.21495e-06
6.93805e-07
8.19771e-06
4.73649e-07
8.10616e-06
2.4756e-07
7.9292e-06
9.51705e-08
7.82546e-06
-2.2866e-07
7.84331e-06
-6.47109e-07
7.8983e-06
-1.19293e-06
8.11844e-06
-1.4417e-06
8.37568e-06
-1.36549e-06
8.71932e-06
-1.18931e-06
9.3409e-06
-6.55052e-07
9.91516e-06
2.27053e-08
1.00944e-05
6.01013e-07
1.02302e-05
1.0964e-05
1.22459e-06
2.28835e-07
1.21178e-05
3.32106e-07
9.02086e-06
3.86862e-07
8.91612e-06
4.15271e-07
8.82483e-06
4.16901e-07
8.69499e-06
3.88428e-07
8.5878e-06
3.41185e-07
8.47671e-06
2.8701e-07
8.36586e-06
2.31857e-07
8.27004e-06
1.85204e-07
8.24445e-06
5.61076e-08
8.23546e-06
-1.48085e-07
8.13359e-06
-3.4941e-07
8.02729e-06
-5.04528e-07
8.00246e-06
-7.08338e-07
8.09972e-06
-9.88917e-07
8.40814e-06
-1.20155e-06
8.59447e-06
-1.32179e-06
8.84575e-06
-1.19212e-06
9.21639e-06
-7.70423e-07
9.49791e-06
-2.62142e-07
9.58799e-06
2.62418e-07
9.70925e-06
1.01107e-05
1.10837e-06
1.66198e-07
1.19497e-05
2.5563e-07
8.93029e-06
3.2201e-07
8.84882e-06
3.72125e-07
8.77392e-06
3.7836e-07
8.6881e-06
3.56369e-07
8.60928e-06
3.03272e-07
8.5295e-06
2.29805e-07
8.4392e-06
1.34478e-07
8.36541e-06
4.21434e-08
8.33695e-06
-5.4084e-08
8.33188e-06
-2.25898e-07
8.30594e-06
-4.93078e-07
8.2953e-06
-7.09071e-07
8.21752e-06
-8.71592e-07
8.27185e-06
-7.88468e-07
8.32594e-06
-6.50141e-07
8.46452e-06
-6.06536e-07
8.8086e-06
-3.65654e-07
8.98129e-06
-1.13494e-08
9.14802e-06
3.13901e-07
9.2658e-06
7.10967e-07
9.31206e-06
9.24211e-06
1.57681e-06
1.76256e-07
1.17736e-05
2.64499e-07
8.84148e-06
3.27014e-07
8.78562e-06
3.70333e-07
8.72997e-06
3.81729e-07
8.67618e-06
3.75575e-07
8.61507e-06
3.58377e-07
8.5465e-06
3.13621e-07
8.48393e-06
2.229e-07
8.45623e-06
1.43022e-07
8.41701e-06
1.08806e-07
8.36635e-06
6.75701e-08
8.34751e-06
-6.31881e-09
8.36952e-06
-2.10084e-07
8.42627e-06
-3.86219e-07
8.44564e-06
-5.51929e-07
8.50188e-06
-7.64798e-07
8.68335e-06
-6.93108e-07
8.74353e-06
-4.83022e-07
8.77668e-06
-1.91666e-07
8.86112e-06
1.18059e-07
8.95817e-06
5.95211e-07
8.8377e-06
8.59189e-06
1.23976e-06
1.02246e-07
1.16698e-05
1.49874e-07
8.79299e-06
1.99579e-07
8.73528e-06
2.30246e-07
8.69878e-06
2.39347e-07
8.66668e-06
2.22983e-07
8.63117e-06
1.87451e-07
8.58192e-06
1.31646e-07
8.53977e-06
7.52233e-08
8.51279e-06
-1.16208e-08
8.50404e-06
-1.56652e-07
8.51161e-06
-2.97011e-07
8.48814e-06
-3.65e-07
8.4388e-06
-4.63294e-07
8.52393e-06
-5.54871e-07
8.5456e-06
-5.99078e-07
8.54809e-06
-4.7193e-07
8.56295e-06
-2.84966e-07
8.56367e-06
-1.93919e-07
8.69082e-06
-4.7512e-08
8.71913e-06
2.64109e-07
8.64918e-06
6.27464e-07
8.47468e-06
8.22097e-06
9.95845e-07
1.13761e-07
1.15563e-05
1.67685e-07
8.73874e-06
2.12289e-07
8.69023e-06
2.47164e-07
8.66351e-06
2.73269e-07
8.64028e-06
2.8318e-07
8.6211e-06
2.68256e-07
8.59681e-06
2.33189e-07
8.57491e-06
1.94863e-07
8.55127e-06
1.47301e-07
8.55178e-06
6.24863e-08
8.59662e-06
-6.40907e-08
8.61502e-06
-2.23197e-07
8.59868e-06
-2.52945e-07
8.55731e-06
-2.38873e-07
8.53055e-06
-2.4589e-07
8.56335e-06
-3.07778e-07
8.63088e-06
-4.64697e-07
8.72674e-06
-4.09063e-07
8.64026e-06
-1.96025e-07
8.51022e-06
8.25192e-08
8.37263e-06
3.26355e-07
8.23305e-06
7.88009e-06
6.62971e-07
9.27922e-08
1.14622e-05
1.32811e-07
8.69807e-06
1.68898e-07
8.65371e-06
1.82996e-07
8.64909e-06
1.80159e-07
8.6429e-06
1.69249e-07
8.6319e-06
1.36636e-07
8.62944e-06
8.08986e-08
8.63076e-06
4.88433e-09
8.62744e-06
-4.89251e-08
8.60575e-06
-4.08513e-08
8.58867e-06
-3.9839e-08
8.61443e-06
-1.03506e-07
8.66316e-06
-2.65401e-07
8.71883e-06
-4.79567e-07
8.7526e-06
-5.72704e-07
8.65772e-06
-5.62933e-07
8.62833e-06
-3.78701e-07
8.54828e-06
-2.16818e-07
8.48345e-06
-1.64895e-07
8.46207e-06
-1.51777e-07
8.36183e-06
1.00881e-08
8.07176e-06
7.69137e-06
1.96571e-07
9.24275e-08
1.13703e-05
1.42609e-07
8.64774e-06
1.97692e-07
8.59836e-06
2.41964e-07
8.60459e-06
2.7156e-07
8.61316e-06
2.82524e-07
8.6209e-06
2.77329e-07
8.63469e-06
2.56017e-07
8.6522e-06
2.06789e-07
8.67683e-06
9.9579e-08
8.7131e-06
-6.12439e-08
8.74963e-06
-2.14223e-07
8.76763e-06
-2.94388e-07
8.74362e-06
-2.98797e-07
8.72723e-06
-2.27888e-07
8.67997e-06
-2.19452e-07
8.65755e-06
-2.52988e-07
8.66678e-06
-3.69427e-07
8.67015e-06
-5.07768e-07
8.62634e-06
-4.99295e-07
8.4572e-06
-3.51209e-07
8.21562e-06
-2.78338e-07
8.00071e-06
7.66748e-06
-2.57857e-07
7.72867e-08
1.12918e-05
1.15089e-07
8.60944e-06
1.51344e-07
8.56182e-06
1.74403e-07
8.58134e-06
1.81953e-07
8.60551e-06
1.70276e-07
8.63258e-06
1.41411e-07
8.66364e-06
9.97712e-08
8.69398e-06
5.43166e-08
8.72243e-06
2.7325e-08
8.74021e-06
3.0462e-08
8.74658e-06
2.91433e-08
8.76906e-06
-3.09708e-08
8.80471e-06
-1.32093e-07
8.82782e-06
-3.03306e-07
8.8578e-06
-4.8627e-07
8.84188e-06
-5.86189e-07
8.77196e-06
-6.06894e-07
8.69643e-06
-5.42135e-07
8.56569e-06
-5.38414e-07
8.45696e-06
-6.21707e-07
8.30092e-06
-6.61117e-07
8.04087e-06
7.70557e-06
-7.01098e-07
9.84825e-08
1.1194e-05
1.66758e-07
8.54115e-06
2.33906e-07
8.49453e-06
2.85065e-07
8.53007e-06
3.19833e-07
8.5707e-06
3.30555e-07
8.62189e-06
3.14678e-07
8.67962e-06
2.71382e-07
8.73742e-06
2.01727e-07
8.79222e-06
1.01606e-07
8.84042e-06
-3.56019e-08
8.88384e-06
-1.76308e-07
8.90991e-06
-2.92006e-07
8.92093e-06
-3.79247e-07
8.91784e-06
-4.15018e-07
8.89246e-06
-4.20517e-07
8.85386e-06
-4.6462e-07
8.82052e-06
-5.46798e-07
8.78328e-06
-6.97173e-07
8.71995e-06
-8.12797e-07
8.57581e-06
-8.77613e-07
8.36746e-06
-9.75074e-07
8.13991e-06
7.85325e-06
-1.12532e-06
9.18972e-08
1.1101e-05
1.48405e-07
8.48426e-06
2.03451e-07
8.4393e-06
2.42354e-07
8.49107e-06
2.66299e-07
8.54673e-06
2.74312e-07
8.61393e-06
2.65386e-07
8.68865e-06
2.38504e-07
8.76443e-06
1.95557e-07
8.83529e-06
1.41775e-07
8.89427e-06
8.13095e-08
8.94431e-06
9.28273e-09
8.98216e-06
-7.56747e-08
9.00643e-06
-1.83761e-07
9.0254e-06
-3.17722e-07
9.03272e-06
-4.80396e-07
9.01691e-06
-6.33516e-07
8.97911e-06
-7.50793e-07
8.90482e-06
-8.33835e-07
8.80687e-06
-9.45497e-07
8.69039e-06
-1.11006e-06
8.53384e-06
-1.28806e-06
8.31875e-06
8.06511e-06
-1.50133e-06
1.23265e-07
1.09785e-05
2.01018e-07
8.40659e-06
2.74542e-07
8.36573e-06
3.33315e-07
8.43226e-06
3.76782e-07
8.50328e-06
4.02478e-07
8.5883e-06
4.04877e-07
8.68637e-06
3.80187e-07
8.78925e-06
3.23922e-07
8.89166e-06
2.43086e-07
8.97515e-06
1.3174e-07
9.05568e-06
-1.14212e-09
9.11515e-06
-1.4068e-07
9.14608e-06
-2.71498e-07
9.15939e-06
-3.99308e-07
9.15854e-06
-5.08861e-07
9.13297e-06
-6.31466e-07
9.10512e-06
-7.77182e-07
9.05445e-06
-9.48164e-07
8.98126e-06
-1.12692e-06
8.87191e-06
-1.32005e-06
8.72859e-06
-1.54533e-06
8.54553e-06
8.34117e-06
-1.82339e-06
1.30152e-07
1.08473e-05
1.96005e-07
8.34043e-06
2.58569e-07
8.30305e-06
3.09863e-07
8.38093e-06
3.51993e-07
8.46118e-06
3.87826e-07
8.55255e-06
4.19513e-07
8.6548e-06
4.40477e-07
8.76841e-06
4.31256e-07
8.90097e-06
3.845e-07
9.02196e-06
2.96011e-07
9.1442e-06
1.70416e-07
9.24078e-06
1.3837e-08
9.30343e-06
-1.63075e-07
9.33559e-06
-3.40428e-07
9.34124e-06
-5.27172e-07
9.32004e-06
-7.03436e-07
9.28512e-06
-8.78236e-07
9.23338e-06
-1.05807e-06
9.16413e-06
-1.25631e-06
9.07284e-06
-1.48997e-06
8.96388e-06
-1.76579e-06
8.82215e-06
8.65969e-06
-2.08511e-06
1.56278e-07
1.06919e-05
1.89369e-07
8.30751e-06
2.20537e-07
8.27191e-06
2.49785e-07
8.35171e-06
2.76041e-07
8.43498e-06
3.03245e-07
8.52545e-06
3.33849e-07
8.62432e-06
3.58334e-07
8.74404e-06
3.7755e-07
8.88185e-06
3.73861e-07
9.02569e-06
3.46071e-07
9.17203e-06
2.75224e-07
9.31177e-06
1.59349e-07
9.41971e-06
-1.15994e-08
9.50877e-06
-2.25636e-07
9.55364e-06
-4.5968e-07
9.55921e-06
-6.92492e-07
9.52095e-06
-9.12436e-07
9.45665e-06
-1.13241e-06
9.38702e-06
-1.3669e-06
9.30982e-06
-1.62629e-06
9.22471e-06
-1.92877e-06
9.12622e-06
9.01194e-06
-2.28257e-06
1.46132e-07
1.05448e-05
1.05048e-07
8.34836e-06
5.52033e-08
8.32172e-06
2.6317e-08
8.38063e-06
-4.34442e-10
8.46181e-06
-1.97909e-08
8.54492e-06
-2.96416e-08
8.6343e-06
-3.08872e-08
8.74542e-06
-1.52388e-08
8.86631e-06
4.0163e-09
9.00652e-06
1.69698e-08
9.15913e-06
1.211e-08
9.3169e-06
-2.27025e-08
9.455e-06
-8.89155e-08
9.57421e-06
-1.93946e-07
9.66394e-06
-3.57838e-07
9.72238e-06
-5.88914e-07
9.75617e-06
-8.71379e-07
9.7423e-06
-1.15854e-06
9.67725e-06
-1.43398e-06
9.58763e-06
-1.71861e-06
9.51103e-06
-2.04153e-06
9.44977e-06
9.38509e-06
-2.41469e-06
9.20568e-08
1.04537e-05
-9.84726e-08
8.53914e-06
-2.89196e-07
8.51254e-06
-4.46054e-07
8.53758e-06
-5.72208e-07
8.58807e-06
-6.76149e-07
8.64899e-06
-7.53702e-07
8.712e-06
-7.97628e-07
8.78948e-06
-8.07902e-07
8.8767e-06
-7.83162e-07
8.98187e-06
-7.31476e-07
9.10757e-06
-6.73978e-07
9.25961e-06
-6.26552e-07
9.40763e-06
-5.85388e-07
9.53566e-06
-5.8411e-07
9.65993e-06
-6.1784e-07
9.76179e-06
-6.97485e-07
9.83814e-06
-8.41819e-07
9.88987e-06
-1.08085e-06
9.91916e-06
-1.3978e-06
9.90707e-06
-1.74439e-06
9.85907e-06
-2.09482e-06
9.80224e-06
9.77332e-06
-2.48459e-06
-2.50273e-08
1.04778e-05
-4.08872e-07
8.92281e-06
-7.8636e-07
8.89005e-06