/*--------------------------------*- C++ -*----------------------------------*\
| =========                 |                                                 |
| \\      /  F ield         | OpenFOAM: The Open Source CFD Toolbox           |
|  \\    /   O peration     | Version:  2.4.0                                 |
|   \\  /    A nd           | Web:      www.OpenFOAM.org                      |
|    \\/     M anipulation  |                                                 |
\*---------------------------------------------------------------------------*/
FoamFile
{
    version     2.0;
    format      ascii;
    class       surfaceScalarField;
    location    "0.65";
    object      phi.water;
}
// * * * * * * * * * * * * * * * * * * * * * * * * * * * * * * * * * * * * * //

dimensions      [0 3 -1 0 0 0 0];

internalField   nonuniform List<scalar> 
4432
(
2.12202e-06
-1.79392e-06
4.51305e-06
-1.98137e-06
6.02436e-06
-1.31796e-06
8.36789e-06
-1.91322e-06
1.0808e-05
-1.95118e-06
1.23759e-05
-1.30435e-06
1.38192e-05
-1.22479e-06
1.47931e-05
-8.25293e-07
1.60654e-05
-1.10392e-06
1.7081e-05
-9.33903e-07
1.65821e-05
5.29198e-07
1.41859e-05
2.41089e-06
9.76152e-06
4.43778e-06
4.70672e-06
5.06755e-06
1.55596e-07
4.56285e-06
-2.86063e-06
3.0274e-06
-5.23473e-06
2.38233e-06
-6.58246e-06
1.35331e-06
-7.22866e-06
6.49822e-07
-5.92871e-06
-1.29684e-06
-3.84471e-06
-2.08171e-06
-3.10626e-06
-7.37557e-07
-3.10592e-06
2.13923e-06
1.9307e-05
4.44399e-06
1.90709e-05
6.17002e-06
2.00143e-05
8.46684e-06
1.91952e-05
1.07531e-05
1.92877e-05
1.24658e-05
2.0286e-05
1.40894e-05
2.02822e-05
1.54326e-05
2.03484e-05
1.70353e-05
1.88247e-05
1.758e-05
1.81424e-05
1.6299e-05
8.00203e-06
1.34372e-05
6.50992e-06
9.49395e-06
8.62077e-06
4.38824e-06
1.04325e-05
-7.75091e-08
9.1587e-06
-2.99061e-06
5.9806e-06
-4.99004e-06
4.39348e-06
-6.40885e-06
2.77943e-06
-6.7177e-06
9.64271e-07
-5.67054e-06
-2.33843e-06
-3.74989e-06
-3.99664e-06
-2.36784e-06
-2.11799e-06
-5.47315e-06
2.16185e-06
2.9812e-05
4.15175e-06
2.95581e-05
6.56065e-06
3.0395e-05
8.60716e-06
2.96356e-05
1.02427e-05
2.97269e-05
1.20785e-05
3.0959e-05
1.36487e-05
3.19363e-05
1.48745e-05
3.35038e-05
1.49907e-05
3.54866e-05
1.26584e-05
4.01686e-05
1.59045e-05
3.64003e-05
1.54498e-05
3.07195e-05
1.18899e-05
2.66784e-05
6.26979e-06
1.72333e-05
5.89509e-07
1.49552e-05
-3.73554e-06
1.03646e-05
-6.36233e-06
7.06154e-06
-7.47446e-06
3.92519e-06
-7.18864e-06
7.07893e-07
-5.11768e-06
-4.36837e-06
-2.49258e-06
-6.5962e-06
-2.41081e-07
-4.35924e-06
-5.71216e-06
2.07322e-06
1.37423e-05
3.54692e-06
1.39183e-05
6.5859e-06
1.35865e-05
8.07894e-06
1.38061e-05
9.31863e-06
1.39286e-05
1.1701e-05
1.41066e-05
1.36364e-05
1.53687e-05
1.56388e-05
1.68685e-05
1.63972e-05
1.9798e-05
1.70117e-05
2.44468e-05
1.35465e-05
3.49353e-05
8.15322e-06
4.97589e-05
5.18293e-06
5.69708e-05
3.87518e-06
4.25068e-05
-8.21877e-07
3.18432e-05
-4.34795e-06
1.69678e-05
-6.4297e-06
9.75272e-06
-7.55432e-06
5.16507e-06
-7.1e-06
3.46212e-07
-5.6028e-06
-5.75569e-06
-3.03838e-06
-9.07829e-06
-3.75213e-07
-6.99266e-06
-6.08296e-06
1.23599e-06
-9.51019e-06
2.24485e-06
-9.0622e-06
4.25389e-06
-1.04318e-05
5.26535e-06
-9.01734e-06
5.70896e-06
-8.09442e-06
7.34503e-06
-9.17836e-06
8.38981e-06
-7.76589e-06
8.78282e-06
-6.24474e-06
8.82597e-06
-4.2391e-06
9.05164e-06
-2.32373e-06
8.14699e-06
3.13064e-06
8.58628e-06
1.39705e-05
1.9587e-06
3.38652e-05
-6.18869e-06
5.84558e-05
-6.12982e-06
5.47384e-05
-6.23842e-06
3.39873e-05
-7.26705e-06
1.3746e-05
-7.55461e-06
6.42649e-06
-6.96703e-06
2.85064e-07
-6.10758e-06
-5.94542e-06
-4.17889e-06
-1.07022e-05
-7.64054e-07
-1.03209e-05
-6.83552e-06
-3.37027e-07
-9.36359e-06
-2.84654e-07
-9.29528e-06
-7.74256e-07
-1.01258e-05
-6.36342e-07
-9.32059e-06
-3.31745e-07
-8.55004e-06
-5.15053e-07
-9.13135e-06
-1.04304e-06
-7.36361e-06
-1.68193e-06
-5.74172e-06
-1.49467e-06
-4.58179e-06
-3.63526e-07
-3.67968e-06
3.35846e-06
-1.28386e-06
5.84668e-06
5.91669e-06
-7.42264e-07
2.39296e-05
-1.451e-05
4.32924e-05
-1.57637e-05
5.64382e-05
-1.13657e-05
4.48792e-05
-9.85154e-06
2.27597e-05
-8.65543e-06
1.07986e-05
-6.72663e-06
2.22323e-06
-6.25474e-06
-4.67451e-06
-5.48547e-06
-1.15902e-05
-2.20908e-06
-1.35465e-05
-8.96321e-06
-7.49235e-07
-8.61436e-06
-1.26008e-06
-8.78444e-06
-1.09394e-06
-1.0292e-05
-1.00579e-06
-9.40874e-06
-6.28738e-07
-8.9271e-06
4.27314e-07
-1.01874e-05
2.27325e-07
-7.16363e-06
-9.84005e-07
-4.53041e-06
-2.89636e-06
-2.66945e-06
-5.96437e-06
-6.11678e-07
-1.09793e-05
3.731e-06
-1.20515e-05
6.95574e-06
-8.88496e-06
1.96476e-05
-1.46704e-05
3.998e-05
-2.47029e-05
5.09455e-05
-1.96004e-05
4.49703e-05
-1.39104e-05
2.78259e-05
-1.11139e-05
5.36106e-06
-7.97378e-06
-1.53056e-06
-7.23315e-06
-6.31685e-06
-5.80991e-06
9.78516e-06
-2.53667e-06
8.8912e-06
-2.29683e-06
-7.10276e-07
-7.90408e-06
-9.34394e-07
-8.56032e-06
-1.49073e-06
-9.73562e-06
-1.09564e-06
-9.80383e-06
-7.03425e-07
-9.31931e-06
-1.14329e-06
-9.74754e-06
-1.84422e-06
-6.46272e-06
-2.40103e-06
-3.97362e-06
-2.61986e-06
-2.45062e-06
-2.70769e-06
-5.23837e-07
-2.94731e-06
3.97064e-06
-7.85847e-06
1.1867e-05
-1.37191e-05
2.55403e-05
-2.09286e-05
4.69066e-05
-3.04176e-05
4.86614e-05
-3.23311e-05
4.49593e-05
-1.96035e-05
4.07805e-05
-1.72314e-05
1.8355e-05
-1.21752e-05
1.43536e-05
-6.02951e-06
1.25798e-05
-5.28011e-06
1.44314e-05
-2.39886e-06
1.30726e-05
1.26548e-05
-2.45365e-05
-1.33824e-05
-1.92822e-05
2.19962e-06
5.78402e-06
3.69761e-06
2.89511e-05
7.73199e-06
4.50099e-05
1.46487e-05
5.5586e-05
3.57466e-07
6.35549e-05
-1.50892e-05
6.82333e-05
-1.6943e-05
6.96454e-05
-1.62393e-05
6.91621e-05
-1.64942e-05
6.76304e-05
-1.63601e-05
6.41621e-05
-1.42923e-05
5.77017e-05
-1.04048e-05
5.1269e-05
-9.17417e-06
4.30255e-05
-4.6376e-06
2.83944e-05
1.90833e-05
6.06933e-06
4.07977e-05
-5.61785e-06
3.38663e-05
9.37882e-06
-8.08648e-06
6.86601e-06
-2.27368e-07
-2.79203e-05
1.91835e-05
-1.46425e-05
4.13561e-05
9.51307e-07
4.54757e-05
1.09273e-05
4.98227e-05
1.43868e-05
6.11229e-05
1.14634e-05
6.6268e-05
-1.19753e-05
6.90702e-05
-2.37427e-05
7.16645e-05
-2.35539e-05
7.493e-05
-2.29176e-05
7.53291e-05
-1.70447e-05
7.20006e-05
-7.90225e-06
6.54308e-05
-6.72113e-06
5.75409e-05
-4.28107e-06
4.29332e-05
2.43189e-05
1.70995e-05
5.98988e-05
2.64382e-08
4.33142e-05
1.01984e-05
5.44427e-06
1.7292e-05
2.01559e-05
-4.30607e-05
3.34428e-05
-4.29142e-05
5.12544e-05
-1.66923e-05
5.81902e-05
3.35868e-06
6.13345e-05
1.60887e-05
5.03363e-05
1.75361e-05
4.49004e-05
6.18715e-06
5.82148e-05
4.63812e-06
6.00009e-05
-9.81974e-06
6.0523e-05
-2.71968e-05
6.04041e-05
-3.17509e-05
5.69167e-05
-2.41792e-05
4.84514e-05
-1.83072e-05
4.69386e-05
-1.48992e-05
3.57546e-05
1.9884e-05
1.12515e-05
8.40892e-05
-5.24107e-06
7.12456e-05
1.36124e-05
2.12084e-05
1.1823e-05
3.86163e-05
-6.63406e-05
4.51965e-05
-6.11826e-05
5.71787e-05
-4.15268e-05
6.02008e-05
-2.22719e-05
6.28085e-05
-1.11841e-05
6.22077e-05
-6.68283e-06
5.70777e-05
-1.2954e-06
5.03933e-05
-2.68315e-07
4.06284e-05
-6.2674e-06
4.34538e-05
-9.04096e-06
4.646e-05
-1.48917e-05
3.87479e-05
-2.7249e-05
3.46648e-05
-2.70315e-05
3.37937e-05
-1.66646e-05
2.21831e-05
1.71052e-05
1.89248e-06
8.99405e-05
-1.01133e-05
9.1623e-05
1.46423e-05
3.3412e-05
7.93951e-06
4.40634e-05
-7.06724e-05
4.56063e-05
-6.9795e-05
5.27709e-05
-6.20077e-05
6.00051e-05
-4.11418e-05
6.3595e-05
-2.72769e-05
6.24078e-05
-2.10955e-05
6.04974e-05
-1.61796e-05
5.92192e-05
-9.90196e-06
5.48702e-05
-5.76792e-06
4.55527e-05
-5.21863e-06
3.87216e-05
-9.08053e-06
3.68106e-05
-1.4792e-05
3.2547e-05
-1.40009e-05
2.93462e-05
2.32431e-06
1.83389e-05
3.01884e-05
-7.3031e-06
9.91623e-05
-1.67429e-05
9.65816e-05
7.00049e-06
3.92341e-05
-8.51836e-06
4.43789e-05
-6.79575e-05
4.49069e-05
-7.75607e-05
4.44561e-05
-6.85099e-05
4.99547e-05
-4.84518e-05
5.42111e-05
-3.19365e-05
5.59059e-05
-2.18579e-05
5.76187e-05
-1.45961e-05
5.88299e-05
-7.63953e-06
5.71745e-05
-3.97065e-06
5.10685e-05
-3.12309e-06
4.27261e-05
-1.57367e-06
4.09756e-05
-5.27239e-06
3.11932e-05
6.94607e-06
2.30419e-05
1.91746e-05
1.2318e-05
4.41243e-05
-8.68859e-06
0.000109065
-1.59644e-05
8.67003e-05
-1.15378e-05
3.23678e-05
-4.02089e-05
4.05677e-05
-7.53779e-05
4.33535e-05
-8.60551e-05
4.28123e-05
-7.22385e-05
4.26023e-05
-5.10404e-05
4.49443e-05
-3.20926e-05
4.79829e-05
-2.19684e-05
4.9181e-05
-1.74129e-05
5.14288e-05
-9.05582e-06
5.1281e-05
5.75725e-07
4.79554e-05
3.59033e-06
4.41449e-05
5.58557e-07
4.14528e-05
1.55325e-06
3.01777e-05
2.26337e-05
2.0427e-05
2.93351e-05
1.0101e-05
5.17969e-05
-6.94686e-06
0.000119691
-1.21432e-05
8.30467e-05
-3.19596e-05
3.14224e-05
-8.75798e-05
4.10487e-05
-9.21892e-05
4.27466e-05
-9.1698e-05
4.22634e-05
-7.46312e-05
4.0549e-05
-5.1005e-05
4.13109e-05
-3.37154e-05
4.28545e-05
-2.26217e-05
4.30246e-05
-1.99887e-05
4.44862e-05
-1.25167e-05
4.66016e-05
8.2916e-07
4.73666e-05
7.95711e-06
4.50498e-05
7.34842e-06
4.08214e-05
7.19815e-06
2.63542e-05
2.52542e-05
1.36227e-05
3.56163e-05
5.69471e-06
5.69073e-05
-7.70318e-06
0.000129251
-7.11232e-06
7.97204e-05
-4.30965e-05
-1.96625e-06
-5.93785e-06
-3.07203e-06
-7.45456e-06
-2.43839e-06
-1.03693e-05
-3.02912e-07
-1.19393e-05
1.57357e-06
-1.11959e-05
4.47381e-06
-1.26641e-05
5.10202e-06
-7.12216e-06
8.58327e-07
2.54158e-07
-6.41033e-06
4.81197e-06
-1.53673e-05
8.43088e-06
-2.28849e-05
1.14876e-05
-2.38755e-05
1.28572e-05
-2.10919e-05
2.27599e-05
-1.57371e-05
4.17494e-05
-2.82664e-05
5.44037e-05
-4.46273e-05
3.94349e-05
-4.99395e-05
2.49598e-05
-5.13149e-05
2.28869e-05
-4.14926e-05
7.75141e-06
-2.65544e-05
-4.50436e-06
-7.26217e-06
-1.06423e-05
2.88264e-06
-7.21484e-06
-7.10201e-07
1.63419e-05
-1.66617e-06
-4.27169e-06
-2.42375e-06
-6.69698e-06
-1.97748e-06
-1.08156e-05
5.75393e-07
-1.45001e-05
3.43147e-06
-1.41245e-05
5.21768e-06
-1.5165e-05
4.94625e-06
-8.11705e-06
5.4234e-06
-1.48448e-06
4.85055e-06
4.67878e-06
2.55129e-06
1.03203e-05
-6.28875e-07
1.44839e-05
-3.64708e-06
1.58313e-05
-3.71911e-06
2.28321e-05
7.03773e-06
3.09843e-05
2.52327e-05
3.50657e-05
2.96676e-05
2.82632e-05
1.83725e-05
2.02689e-05
5.93898e-06
9.45304e-06
5.32198e-06
-1.30076e-05
1.73334e-05
-3.38218e-05
2.7887e-05
-4.08572e-05
3.74274e-05
-3.73417e-05
-3.80881e-05
5.32642e-05
-4.51016e-06
2.38472e-07
-9.0721e-06
-2.13508e-06
-8.26829e-06
-1.16508e-05
-1.28311e-06
-2.20122e-05
4.55437e-06
-2.23699e-05
7.38955e-06
-2.43746e-05
5.9025e-06
-1.38724e-05
-5.79126e-07
-7.01401e-07
-6.42931e-06
4.59935e-06
-9.56441e-06
8.17581e-06
-9.45291e-06
1.05228e-05
-7.07826e-06
1.0897e-05
1.27275e-07
1.46197e-05
1.2009e-05
1.89103e-05
2.74415e-05
1.96165e-05
4.34833e-05
1.18851e-05
5.80558e-05
3.90183e-06
7.11256e-05
-7.22833e-06
7.62582e-05
-2.30866e-05
7.80174e-05
-4.02327e-05
8.00737e-05
-4.72178e-05
8.99271e-05
-5.16906e-05
-5.53064e-05
0.000101234
-1.12874e-05
9.61843e-06
-1.79812e-05
2.07464e-06
-1.46247e-05
-1.73709e-05
-1.03413e-05
-3.04766e-05
-1.55492e-05
-2.56694e-05
-2.32214e-05
-3.33073e-05
-2.41826e-05
-2.51017e-05
-2.25554e-05
-1.11751e-05
-1.98641e-05
-4.47963e-06
-1.87848e-05
1.37262e-06
-1.76034e-05
2.18207e-06
-1.44502e-05
8.96248e-07
-8.50568e-06
2.51325e-06
1.44918e-06
4.65083e-06
1.44001e-05
3.72634e-06
2.82771e-05
-4.18512e-06
4.11108e-05
-1.01559e-05
5.6559e-05
-2.46632e-05
6.59233e-05
-3.52451e-05
7.16112e-05
-5.05062e-05
7.88871e-05
-6.37478e-05
8.61917e-05
-7.55013e-05
-8.97665e-05
9.36889e-05
-4.98349e-06
-3.97603e-05
-1.22258e-05
-5.53103e-05
-3.3671e-05
-7.87065e-05
-7.6326e-05
-8.74256e-05
-0.00011562
-8.01646e-05
-0.000129296
-0.000109054
-0.000116205
-7.8622e-05
-9.38664e-05
-6.08389e-05
-7.60759e-05
-4.93168e-05
-6.37907e-05
-4.36534e-05
-5.5283e-05
-4.40322e-05
-4.2477e-05
-5.10417e-05
-2.63389e-05
-3.7653e-05
-1.19782e-05
-2.81224e-05
3.48958e-06
-2.55186e-05
1.62843e-05
-2.77805e-05
2.74495e-05
-3.53717e-05
3.66411e-05
-5.6645e-05
4.31081e-05
-6.90585e-05
4.63168e-05
-9.11924e-05
4.94752e-05
-0.000113964
5.18903e-05
-0.000136521
-0.00016412
4.86084e-05
2.32006e-06
-6.63888e-05
-5.05502e-06
-9.99181e-05
-3.33446e-05
-0.000107569
-6.31615e-05
-0.000104014
-5.82412e-05
-9.11154e-05
-7.73724e-05
-7.64619e-05
-0.000131365
-5.55189e-05
-0.000122039
-7.72516e-05
-0.000105272
-5.97481e-05
-9.93881e-05
-4.16909e-05
-9.04208e-05
-1.77625e-05
-8.68748e-05
-5.00338e-05
-7.3254e-05
-5.57163e-05
-5.58451e-05
-7.45038e-05
-3.93064e-05
-9.37509e-05
-2.70041e-05
-9.4257e-05
-1.99226e-05
-0.000100697
-7.17437e-06
-9.75105e-05
6.66401e-06
-8.52363e-05
1.3834e-05
-6.40109e-05
2.46205e-05
-7.52264e-05
3.88391e-05
-8.7993e-05
-9.07706e-05
5.27206e-05
-5.79278e-07
-4.18028e-05
-8.05348e-06
-6.9369e-05
-2.62917e-05
-6.73158e-05
-4.02072e-05
-6.26519e-05
-1.96019e-05
-3.32216e-05
2.05901e-05
-2.19685e-05
9.5718e-05
-5.31627e-05
6.94809e-05
-7.38679e-06
7.31423e-06
3.79082e-05
-3.55679e-05
4.26516e-05
-8.05288e-05
6.13113e-05
-7.17744e-05
-5.75917e-06
-6.38107e-05
-4.50373e-05
-5.91715e-05
-4.90568e-05
-5.35356e-05
-6.23834e-05
-4.49191e-05
-7.45257e-05
-3.8129e-05
-5.42575e-05
-4.53275e-05
-4.39567e-05
-6.87059e-05
-2.54894e-05
-0.000118954
9.32057e-06
-0.000169022
-2.46522e-06
-0.000222287
-3.82727e-05
-1.58882e-05
-0.000200358
-4.31823e-05
5.89511e-05
-3.89636e-05
2.97748e-05
-8.67285e-06
2.64322e-05
1.80168e-05
4.07671e-05
5.92556e-05
-7.42346e-06
5.42329e-05
-4.15012e-05
2.90344e-05
-2.94274e-05
-1.99089e-06
2.36257e-05
-3.1287e-05
6.66762e-05
-3.55671e-05
4.29862e-05
-1.58633e-05
2.41072e-05
1.95684e-05
-4.14473e-05
2.19339e-05
-5.11562e-05
1.41568e-05
-3.10778e-05
-1.47239e-06
-1.45528e-05
-2.55223e-05
-8.11351e-06
-3.99997e-05
-1.02965e-05
-4.75511e-05
-9.51745e-06
-4.24185e-05
-8.95408e-06
-2.06974e-05
-1.76517e-05
-2.15179e-05
-1.65125e-05
-5.07024e-05
-9.05356e-06
2.06631e-05
-8.65586e-05
-1.61291e-05
7.76673e-05
-8.32826e-06
2.35788e-05
8.43943e-06
1.07457e-05
4.15356e-05
1.15224e-05
4.92537e-05
-1.37455e-05
4.5875e-05
-3.7772e-05
3.23715e-05
-1.60043e-05
9.30672e-06
4.74186e-05
1.44167e-05
6.15872e-05
2.4945e-06
5.53117e-05
-1.07726e-05
3.73975e-05
-2.64763e-05
-2.56703e-05
-3.18274e-05
-4.57892e-05
-2.12466e-05
-4.16202e-05
-3.48418e-06
-3.22616e-05
1.55647e-05
-2.71248e-05
2.99269e-05
-2.46131e-05
3.98534e-05
-1.93433e-05
4.17641e-05
-1.07069e-05
2.60216e-05
-1.27084e-06
2.39351e-06
7.48255e-06
-2.36478e-05
1.71653e-05
3.81153e-05
-4.09096e-05
9.63368e-06
6.79644e-05
5.72145e-06
2.78453e-05
4.71835e-06
1.15899e-05
1.53485e-05
9.48919e-07
1.61022e-05
-1.44687e-05
8.00595e-06
-2.96861e-05
9.14346e-06
-1.70424e-05
1.48724e-05
4.1665e-05
2.46798e-05
5.17716e-05
3.42927e-05
4.56973e-05
5.16847e-05
2.0034e-05
4.00697e-05
-1.39892e-05
2.39862e-05
-2.96614e-05
1.59793e-05
-3.36657e-05
1.25674e-05
-2.88536e-05
8.63745e-06
-2.32081e-05
2.9222e-06
-1.89111e-05
-2.91866e-06
-1.3519e-05
-4.88817e-06
-8.75023e-06
-4.44112e-06
-1.72485e-06
-9.09186e-06
1.21275e-05
-1.75861e-05
2.56955e-05
4.0907e-05
-2.04015e-05
1.45027e-05
5.35181e-05
1.64077e-05
2.60461e-05
2.02582e-05
7.63169e-06
2.2166e-05
-9.32527e-07
1.43586e-05
-6.66301e-06
-1.51511e-06
-1.38221e-05
-5.48156e-06
-1.30222e-05
1.76165e-05
1.85174e-05
3.73969e-05
3.19426e-05
5.31794e-05
2.98913e-05
5.44685e-05
1.87083e-05
3.45948e-05
5.86351e-06
1.73091e-05
-1.23588e-05
5.42412e-06
-2.18416e-05
-2.54252e-07
-2.32081e-05
-2.32717e-06
-2.11508e-05
-3.05065e-06
-1.8197e-05
-2.83363e-06
-1.37472e-05
-4.38745e-06
-7.20068e-06
-9.00839e-06
2.89713e-06
-1.08215e-05
1.39591e-05
-1.24944e-05
2.73574e-05
4.04612e-05
-1.20228e-05
1.43355e-05
3.92889e-05
1.69474e-05
2.38336e-05
1.43118e-05
1.05424e-05
1.02209e-05
3.21166e-06
5.49777e-06
-1.93492e-06
-2.02891e-06
-6.29637e-06
-9.96538e-06
-5.07716e-06
3.24976e-06
5.26412e-06
2.13504e-05
1.3874e-05
2.9428e-05
2.1798e-05
2.82747e-05
1.98707e-05
2.57392e-05
8.41714e-06
1.7721e-05
-4.29363e-06
8.33226e-06
-1.24548e-05
4.17911e-07
-1.5301e-05
-5.92536e-06
-1.48129e-05
-1.10287e-05
-1.31008e-05
-1.53542e-05
-9.42295e-06
-2.05984e-05
-1.95417e-06
-2.41047e-05
6.4137e-06
-2.572e-05
1.55803e-05
-2.38323e-05
2.55013e-05
3.5253e-05
-1.86473e-05
1.00507e-05
2.91693e-05
1.45299e-05
1.9443e-05
1.49331e-05
1.01572e-05
1.26552e-05
5.48914e-06
7.82806e-06
2.89247e-06
3.80731e-07
1.15126e-06
-6.45922e-06
1.76581e-06
-7.3042e-06
6.11808e-06
-1.82434e-06
8.40568e-06
5.10285e-06
1.48662e-05
9.23362e-06
1.5756e-05
8.55077e-06
9.12489e-06
4.08127e-06
1.89435e-07
-2.2483e-06
-6.12892e-06
-7.83974e-06
-9.71789e-06
-1.26243e-05
-1.00329e-05
-1.74288e-05
-8.29822e-06
-2.18167e-05
-5.03008e-06
-2.34936e-05
-2.67984e-07
-2.42875e-05
7.2219e-06
-2.40234e-05
1.53383e-05
-2.22686e-05
2.37414e-05
3.06544e-05
-1.76581e-05
6.54008e-06
2.26466e-05
1.01924e-05
1.58284e-05
9.91024e-06
1.04432e-05
7.91685e-06
7.48211e-06
5.17328e-06
5.63526e-06
1.71171e-06
4.61221e-06
-1.64201e-06
5.11819e-06
-2.6556e-06
7.1306e-06
-2.32025e-06
8.0702e-06
1.23293e-06
1.13059e-05
4.74256e-06
1.22469e-05
4.26648e-06
9.60366e-06
7.48431e-07
3.70421e-06
-4.10055e-06
-1.28637e-06
-9.04469e-06
-4.77791e-06
-1.28975e-05
-6.18389e-06
-1.60232e-05
-5.16597e-06
-1.87107e-05
-2.32894e-06
-2.17591e-05
2.79631e-06
-2.26589e-05
8.14653e-06
-2.1427e-05
1.41166e-05
-1.83028e-05
2.06368e-05
2.61368e-05
-1.37986e-05
3.71335e-06
1.89294e-05
6.26306e-06
1.32778e-05
6.23312e-06
1.04723e-05
5.07178e-06
8.64239e-06
3.4995e-06
7.20646e-06
1.53917e-06
6.57128e-06
2.70399e-08
6.62896e-06
-3.48286e-07
7.50432e-06
-1.88287e-07
7.90852e-06
1.16792e-06
9.94838e-06
3.10605e-06
1.0307e-05
3.79297e-06
8.91416e-06
2.07148e-06
5.42238e-06
-1.41929e-06
2.19991e-06
-5.64923e-06
-5.53344e-07
-9.44147e-06
-2.38406e-06
-1.24442e-05
-2.14995e-06
-1.48878e-05
1.31196e-07
-1.65296e-05
4.46776e-06
-1.74008e-05
9.03817e-06
-1.66842e-05
1.34218e-05
-1.4431e-05
1.83999e-05
2.29329e-05
-1.12327e-05
2.34464e-06
1.65826e-05
3.58513e-06
1.20357e-05
3.66355e-06
1.03925e-05
3.27055e-06
9.03399e-06
2.53651e-06
7.93912e-06
1.70387e-06
7.40245e-06
1.12796e-06
7.20337e-06
1.01818e-06
7.61247e-06
1.09225e-06
7.83286e-06
2.08138e-06
8.95764e-06
3.29192e-06
9.09477e-06
4.06296e-06
8.14127e-06
3.63158e-06
5.8506e-06
1.99238e-06
3.83406e-06
-5.37446e-07
1.98287e-06
-3.75817e-06
8.34939e-07
-6.92018e-06
1.0233e-06
-9.51407e-06
2.74522e-06
-1.12913e-05
6.25635e-06
-1.26291e-05
1.03984e-05
-1.26327e-05
1.34476e-05
-1.07979e-05
1.65708e-05
2.02075e-05
-8.04871e-06
1.40359e-06
1.51791e-05
2.2955e-06
1.11429e-05
2.60638e-06
1.00802e-05
2.49976e-06
9.1392e-06
2.12916e-06
8.30818e-06
1.73429e-06
7.79589e-06
1.40942e-06
7.52669e-06
1.40285e-06
7.61765e-06
1.5276e-06
7.70665e-06
2.30255e-06
8.18145e-06
3.23449e-06
8.16149e-06
4.03937e-06
7.33485e-06
3.91966e-06
5.96746e-06
2.9021e-06
4.85391e-06
1.14861e-06
3.72313e-06
-1.39075e-06
3.38436e-06
-4.27105e-06
3.89522e-06
-6.8295e-06
5.2969e-06
-8.43085e-06
7.86611e-06
-9.4684e-06
1.14371e-05
-9.73581e-06
1.37184e-05
-8.44743e-06
1.53129e-05
1.78106e-05
-6.06666e-06
9.38817e-07
1.42364e-05
1.65901e-06
1.04206e-05
2.02846e-06
9.70914e-06
2.09262e-06
9.07346e-06
1.86728e-06
8.5321e-06
1.52453e-06
8.13715e-06
1.15565e-06
7.8943e-06
9.47792e-07
7.8242e-06
8.61642e-07
7.79177e-06
1.31349e-06
7.72854e-06
1.99315e-06
7.48103e-06
2.37232e-06
6.9545e-06
1.97304e-06
6.36622e-06
1.07094e-06
5.74808e-06
-5.03094e-07
5.30977e-06
-2.72999e-06
5.58697e-06
-4.76647e-06
5.93045e-06
-6.24293e-06
6.77732e-06
-7.22631e-06
8.84312e-06
-7.38866e-06
1.1607e-05
-6.96626e-06
1.33136e-05
-5.64155e-06
1.3983e-05
1.56496e-05
-3.45229e-06
7.08318e-07
1.35277e-05
1.2697e-06
9.85739e-06
1.51834e-06
9.4583e-06
1.53106e-06
9.05852e-06
1.32824e-06
8.73267e-06
1.00181e-06
8.46152e-06
6.65801e-07
8.22831e-06
3.97579e-07
8.09072e-06
2.20657e-07
7.96711e-06
2.16239e-07
7.73171e-06
2.66881e-07
7.42918e-06
1.29504e-07
7.09051e-06
-2.72563e-07
6.76607e-06
-9.6235e-07
6.44367e-06
-2.09665e-06
6.424e-06
-3.30337e-06
6.80058e-06
-4.378e-06
7.00178e-06
-5.32421e-06
7.72251e-06
-5.87775e-06
9.3954e-06
-5.58934e-06
1.13178e-05
-4.56522e-06
1.22899e-05
-3.18684e-06
1.26106e-05
1.40131e-05
-1.56477e-06
5.49717e-07
1.29752e-05
8.34628e-07
9.57062e-06
9.70753e-07
9.32053e-06
1.014e-06
9.01378e-06
9.62207e-07
8.78303e-06
8.52324e-07
8.57015e-06
7.0522e-07
8.37429e-06
5.28344e-07
8.26672e-06
3.72307e-07
8.12243e-06
1.75586e-07
7.92797e-06
-1.10826e-08
7.61532e-06
-3.17307e-07
7.39651e-06
-8.38086e-07
7.28598e-06
-1.43571e-06
7.03814e-06
-2.01117e-06
7.00818e-06
-2.34124e-06
7.12525e-06
-2.91329e-06
7.57769e-06
-3.63216e-06
8.44343e-06
-3.7833e-06
9.54828e-06
-3.2932e-06
1.08293e-05
-2.4101e-06
1.14095e-05
-1.31396e-06
1.15113e-05
1.26025e-05
9.21859e-08
3.56155e-07
1.26185e-05
5.81304e-07
9.34422e-06
7.58263e-07
9.14221e-06
8.5605e-07
8.91466e-06
9.06634e-07
8.73122e-06
9.19622e-07
8.55609e-06
8.74396e-07
8.41864e-06
8.12657e-07
8.3278e-06
6.994e-07
8.23526e-06
5.0271e-07
8.12442e-06
2.32022e-07
7.88594e-06
-7.48888e-08
7.70313e-06
-4.62015e-07
7.67223e-06
-9.40422e-07
7.52172e-06
-1.40895e-06
7.47049e-06
-1.84649e-06
7.57246e-06
-2.38686e-06
8.12116e-06
-2.72821e-06
8.78904e-06
-2.6892e-06
9.51278e-06
-2.30177e-06
1.04451e-05
-1.66059e-06
1.07693e-05
-9.54891e-07
1.08097e-05
1.1591e-05
4.53045e-08
2.69489e-07
1.23468e-05
4.87206e-07
9.12502e-06
6.56267e-07
8.97188e-06
7.15584e-07
8.85419e-06
7.48319e-07
8.69746e-06
7.43552e-07
8.55999e-06
7.31599e-07
8.42994e-06
7.47031e-07
8.31194e-06
7.67127e-07
8.21495e-06
6.93805e-07
8.19771e-06
4.73649e-07
8.10616e-06
2.4756e-07
7.9292e-06
9.51705e-08
7.82546e-06
-2.2866e-07
7.84331e-06
-6.47109e-07
7.8983e-06
-1.19293e-06
8.11844e-06
-1.4417e-06
8.37568e-06
-1.36549e-06
8.71932e-06
-1.18931e-06
9.3409e-06
-6.55052e-07
9.91516e-06
2.27053e-08
1.00944e-05
6.01013e-07
1.02302e-05
1.0964e-05
1.22459e-06
2.28835e-07
1.21178e-05
3.32106e-07
9.02086e-06
3.86862e-07
8.91612e-06
4.15271e-07
8.82483e-06
4.16901e-07
8.69499e-06
3.88428e-07
8.5878e-06
3.41185e-07
8.47671e-06
2.8701e-07
8.36586e-06
2.31857e-07
8.27004e-06
1.85204e-07
8.24445e-06
5.61076e-08
8.23546e-06
-1.48085e-07
8.13359e-06
-3.4941e-07
8.02729e-06
-5.04528e-07
8.00246e-06
-7.08338e-07
8.09972e-06
-9.88917e-07
8.40814e-06
-1.20155e-06
8.59447e-06
-1.32179e-06
8.84575e-06
-1.19212e-06
9.21639e-06
-7.70423e-07
9.49791e-06
-2.62142e-07
9.58799e-06
2.62418e-07
9.70925e-06
1.01107e-05
1.10837e-06
1.66198e-07
1.19497e-05
2.5563e-07
8.93029e-06
3.2201e-07
8.84882e-06
3.72125e-07
8.77392e-06
3.7836e-07
8.6881e-06
3.56369e-07
8.60928e-06
3.03272e-07
8.5295e-06
2.29805e-07
8.4392e-06
1.34478e-07
8.36541e-06
4.21434e-08
8.33695e-06
-5.4084e-08
8.33188e-06
-2.25898e-07
8.30594e-06
-4.93078e-07
8.2953e-06
-7.09071e-07
8.21752e-06
-8.71592e-07
8.27185e-06
-7.88468e-07
8.32594e-06
-6.50141e-07
8.46452e-06
-6.06536e-07
8.8086e-06
-3.65654e-07
8.98129e-06
-1.13494e-08
9.14802e-06
3.13901e-07
9.2658e-06
7.10967e-07
9.31206e-06
9.24211e-06
1.57681e-06
1.76256e-07
1.17736e-05
2.64499e-07
8.84148e-06
3.27014e-07
8.78562e-06
3.70333e-07
8.72997e-06
3.81729e-07
8.67618e-06
3.75575e-07
8.61507e-06
3.58377e-07
8.5465e-06
3.13621e-07
8.48393e-06
2.229e-07
8.45623e-06
1.43022e-07
8.41701e-06
1.08806e-07
8.36635e-06
6.75701e-08
8.34751e-06
-6.31881e-09
8.36952e-06
-2.10084e-07
8.42627e-06
-3.86219e-07
8.44564e-06
-5.51929e-07
8.50188e-06
-7.64798e-07
8.68335e-06
-6.93108e-07
8.74353e-06
-4.83022e-07
8.77668e-06
-1.91666e-07
8.86112e-06
1.18059e-07
8.95817e-06
5.95211e-07
8.8377e-06
8.59189e-06
1.23976e-06
1.02246e-07
1.16698e-05
1.49874e-07
8.79299e-06
1.99579e-07
8.73528e-06
2.30246e-07
8.69878e-06
2.39347e-07
8.66668e-06
2.22983e-07
8.63117e-06
1.87451e-07
8.58192e-06
1.31646e-07
8.53977e-06
7.52233e-08
8.51279e-06
-1.16208e-08
8.50404e-06
-1.56652e-07
8.51161e-06
-2.97011e-07
8.48814e-06
-3.65e-07
8.4388e-06
-4.63294e-07
8.52393e-06
-5.54871e-07
8.5456e-06
-5.99078e-07
8.54809e-06
-4.7193e-07
8.56295e-06
-2.84966e-07
8.56367e-06
-1.93919e-07
8.69082e-06
-4.7512e-08
8.71913e-06
2.64109e-07
8.64918e-06
6.27464e-07
8.47468e-06
8.22097e-06
9.95845e-07
1.13761e-07
1.15563e-05
1.67685e-07
8.73874e-06
2.12289e-07
8.69023e-06
2.47164e-07
8.66351e-06
2.73269e-07
8.64028e-06
2.8318e-07
8.6211e-06
2.68256e-07
8.59681e-06
2.33189e-07
8.57491e-06
1.94863e-07
8.55127e-06
1.47301e-07
8.55178e-06
6.24863e-08
8.59662e-06
-6.40907e-08
8.61502e-06
-2.23197e-07
8.59868e-06
-2.52945e-07
8.55731e-06
-2.38873e-07
8.53055e-06
-2.4589e-07
8.56335e-06
-3.07778e-07
8.63088e-06
-4.64697e-07
8.72674e-06
-4.09063e-07
8.64026e-06
-1.96025e-07
8.51022e-06
8.25192e-08
8.37263e-06
3.26355e-07
8.23305e-06
7.88009e-06
6.62971e-07
9.27922e-08
1.14622e-05
1.32811e-07
8.69807e-06
1.68898e-07
8.65371e-06
1.82996e-07
8.64909e-06
1.80159e-07
8.6429e-06
1.69249e-07
8.6319e-06
1.36636e-07
8.62944e-06
8.08986e-08
8.63076e-06
4.88433e-09
8.62744e-06
-4.89251e-08
8.60575e-06
-4.08513e-08
8.58867e-06
-3.9839e-08
8.61443e-06
-1.03506e-07
8.66316e-06
-2.65401e-07
8.71883e-06
-4.79567e-07
8.7526e-06
-5.72704e-07
8.65772e-06
-5.62933e-07
8.62833e-06
-3.78701e-07
8.54828e-06
-2.16818e-07
8.48345e-06
-1.64895e-07
8.46207e-06
-1.51777e-07
8.36183e-06
1.00881e-08
8.07176e-06
7.69137e-06
1.96571e-07
9.24275e-08
1.13703e-05
1.42609e-07
8.64774e-06
1.97692e-07
8.59836e-06
2.41964e-07
8.60459e-06
2.7156e-07
8.61316e-06
2.82524e-07
8.6209e-06
2.77329e-07
8.63469e-06
2.56017e-07
8.6522e-06
2.06789e-07
8.67683e-06
9.9579e-08
8.7131e-06
-6.12439e-08
8.74963e-06
-2.14223e-07
8.76763e-06
-2.94388e-07
8.74362e-06
-2.98797e-07
8.72723e-06
-2.27888e-07
8.67997e-06
-2.19452e-07
8.65755e-06
-2.52988e-07
8.66678e-06
-3.69427e-07
8.67015e-06
-5.07768e-07
8.62634e-06
-4.99295e-07
8.4572e-06
-3.51209e-07
8.21562e-06
-2.78338e-07
8.00071e-06
7.66748e-06
-2.57857e-07
7.72867e-08
1.12918e-05
1.15089e-07
8.60944e-06
1.51344e-07
8.56182e-06
1.74403e-07
8.58134e-06
1.81953e-07
8.60551e-06
1.70276e-07
8.63258e-06
1.41411e-07
8.66364e-06
9.97712e-08
8.69398e-06
5.43166e-08
8.72243e-06
2.7325e-08
8.74021e-06
3.0462e-08
8.74658e-06
2.91433e-08
8.76906e-06
-3.09708e-08
8.80471e-06
-1.32093e-07
8.82782e-06
-3.03306e-07
8.8578e-06
-4.8627e-07
8.84188e-06
-5.86189e-07
8.77196e-06
-6.06894e-07
8.69643e-06
-5.42135e-07
8.56569e-06
-5.38414e-07
8.45696e-06
-6.21707e-07
8.30092e-06
-6.61117e-07
8.04087e-06
7.70557e-06
-7.01098e-07
9.84825e-08
1.1194e-05
1.66758e-07
8.54115e-06
2.33906e-07
8.49453e-06
2.85065e-07
8.53007e-06
3.19833e-07
8.5707e-06
3.30555e-07
8.62189e-06
3.14678e-07
8.67962e-06
2.71382e-07
8.73742e-06
2.01727e-07
8.79222e-06
1.01606e-07
8.84042e-06
-3.56019e-08
8.88384e-06
-1.76308e-07
8.90991e-06
-2.92006e-07
8.92093e-06
-3.79247e-07
8.91784e-06
-4.15018e-07
8.89246e-06
-4.20517e-07
8.85386e-06
-4.6462e-07
8.82052e-06
-5.46798e-07
8.78328e-06
-6.97173e-07
8.71995e-06
-8.12797e-07
8.57581e-06
-8.77613e-07
8.36746e-06
-9.75074e-07
8.13991e-06
7.85325e-06
-1.12532e-06
9.18972e-08
1.1101e-05
1.48405e-07
8.48426e-06
2.03451e-07
8.4393e-06
2.42354e-07
8.49107e-06
2.66299e-07
8.54673e-06
2.74312e-07
8.61393e-06
2.65386e-07
8.68865e-06
2.38504e-07
8.76443e-06
1.95557e-07
8.83529e-06
1.41775e-07
8.89427e-06
8.13095e-08
8.94431e-06
9.28273e-09
8.98216e-06
-7.56747e-08
9.00643e-06
-1.83761e-07
9.0254e-06
-3.17722e-07
9.03272e-06
-4.80396e-07
9.01691e-06
-6.33516e-07
8.97911e-06
-7.50793e-07
8.90482e-06
-8.33835e-07
8.80687e-06
-9.45497e-07
8.69039e-06
-1.11006e-06
8.53384e-06
-1.28806e-06
8.31875e-06
8.06511e-06
-1.50133e-06
1.23265e-07
1.09785e-05
2.01018e-07
8.40659e-06
2.74542e-07
8.36573e-06
3.33315e-07
8.43226e-06
3.76782e-07
8.50328e-06
4.02478e-07
8.5883e-06
4.04877e-07
8.68637e-06
3.80187e-07
8.78925e-06
3.23922e-07
8.89166e-06
2.43086e-07
8.97515e-06
1.3174e-07
9.05568e-06
-1.14212e-09
9.11515e-06
-1.4068e-07
9.14608e-06
-2.71498e-07
9.15939e-06
-3.99308e-07
9.15854e-06
-5.08861e-07
9.13297e-06
-6.31466e-07
9.10512e-06
-7.77182e-07
9.05445e-06
-9.48164e-07
8.98126e-06
-1.12692e-06
8.87191e-06
-1.32005e-06
8.72859e-06
-1.54533e-06
8.54553e-06
8.34117e-06
-1.82339e-06
1.30152e-07
1.08473e-05
1.96005e-07
8.34043e-06
2.58569e-07
8.30305e-06
3.09863e-07
8.38093e-06
3.51993e-07
8.46118e-06
3.87826e-07
8.55255e-06
4.19513e-07
8.6548e-06
4.40477e-07
8.76841e-06
4.31256e-07
8.90097e-06
3.845e-07
9.02196e-06
2.96011e-07
9.1442e-06
1.70416e-07
9.24078e-06
1.3837e-08
9.30343e-06
-1.63075e-07
9.33559e-06
-3.40428e-07
9.34124e-06
-5.27172e-07
9.32004e-06
-7.03436e-07
9.28512e-06
-8.78236e-07
9.23338e-06
-1.05807e-06
9.16413e-06
-1.25631e-06
9.07284e-06
-1.48997e-06
8.96388e-06
-1.76579e-06
8.82215e-06
8.65969e-06
-2.08511e-06
1.56278e-07
1.06919e-05
1.89369e-07
8.30751e-06
2.20537e-07
8.27191e-06
2.49785e-07
8.35171e-06
2.76041e-07
8.43498e-06
3.03245e-07
8.52545e-06
3.33849e-07
8.62432e-06
3.58334e-07
8.74404e-06
3.7755e-07
8.88185e-06
3.73861e-07
9.02569e-06
3.46071e-07
9.17203e-06
2.75224e-07
9.31177e-06
1.59349e-07
9.41971e-06
-1.15994e-08
9.50877e-06
-2.25636e-07
9.55364e-06
-4.5968e-07
9.55921e-06
-6.92492e-07
9.52095e-06
-9.12436e-07
9.45665e-06
-1.13241e-06
9.38702e-06
-1.3669e-06
9.30982e-06
-1.62629e-06
9.22471e-06
-1.92877e-06
9.12622e-06
9.01194e-06
-2.28257e-06
1.46132e-07
1.05448e-05
1.05048e-07
8.34836e-06
5.52033e-08
8.32172e-06
2.6317e-08
8.38063e-06
-4.34442e-10
8.46181e-06
-1.97909e-08
8.54492e-06
-2.96416e-08
8.6343e-06
-3.08872e-08
8.74542e-06
-1.52388e-08
8.86631e-06
4.0163e-09
9.00652e-06
1.69698e-08
9.15913e-06
1.211e-08
9.3169e-06
-2.27025e-08
9.455e-06
-8.89155e-08
9.57421e-06
-1.93946e-07
9.66394e-06
-3.57838e-07
9.72238e-06
-5.88914e-07
9.75617e-06
-8.71379e-07
9.7423e-06
-1.15854e-06
9.67725e-06
-1.43398e-06
9.58763e-06
-1.71861e-06
9.51103e-06
-2.04153e-06
9.44977e-06
9.38509e-06
-2.41469e-06
9.20568e-08
1.04537e-05
-9.84726e-08
8.53914e-06
-2.89196e-07
8.51254e-06
-4.46054e-07
8.53758e-06
-5.72208e-07
8.58807e-06
-6.76149e-07
8.64899e-06
-7.53702e-07
8.712e-06
-7.97628e-07
8.78948e-06
-8.07902e-07
8.8767e-06
-7.83162e-07
8.98187e-06
-7.31476e-07
9.10757e-06
-6.73978e-07
9.25961e-06
-6.26552e-07
9.40763e-06
-5.85388e-07
9.53566e-06
-5.8411e-07
9.65993e-06
-6.1784e-07
9.76179e-06
-6.97485e-07
9.83814e-06
-8.41819e-07
9.88987e-06
-1.08085e-06
9.91916e-06
-1.3978e-06
9.90707e-06
-1.74439e-06
9.85907e-06
-2.09482e-06
9.80224e-06
9.77332e-06
-2.48459e-06
-2.50273e-08
1.04778e-05
-4.08872e-07
8.92281e-06
-7.8636e-07
8.89005e-06
-1.11914e-06
8.87043e-06
-1.40596e-06
8.875e-06
-1.64907e-06
8.89223e-06
-1.84839e-06
8.91146e-06