/*--------------------------------*- C++ -*----------------------------------*\
| =========                 |                                                 |
| \\      /  F ield         | OpenFOAM: The Open Source CFD Toolbox           |
|  \\    /   O peration     | Version:  2.4.0                                 |
|   \\  /    A nd           | Web:      www.OpenFOAM.org                      |
|    \\/     M anipulation  |                                                 |
\*---------------------------------------------------------------------------*/
FoamFile
{
    version     2.0;
    format      ascii;
    class       surfaceScalarField;
    location    "0.65";
    object      phi.oil;
}
// * * * * * * * * * * * * * * * * * * * * * * * * * * * * * * * * * * * * * //

dimensions      [0 3 -1 0 0 0 0];

internalField   nonuniform List<scalar> 
4432
(
2.12208e-06
-2.12212e-06
4.51308e-06
-2.39103e-06
6.02434e-06
-1.51129e-06
8.36786e-06
-2.34355e-06
1.0808e-05
-2.44018e-06
1.2376e-05
-1.56796e-06
1.38193e-05
-1.44333e-06
1.47933e-05
-9.73949e-07
1.60658e-05
-1.27255e-06
1.70815e-05
-1.01568e-06
1.65826e-05
4.99045e-07
1.41865e-05
2.39633e-06
9.76219e-06
4.42418e-06
4.70742e-06
5.05443e-06
1.56349e-07
4.55088e-06
-2.86028e-06
3.01657e-06
-5.23459e-06
2.37439e-06
-6.58242e-06
1.34855e-06
-7.2287e-06
6.48354e-07
-5.92875e-06
-1.29508e-06
-3.84239e-06
-2.06119e-06
-3.10517e-06
-4.62913e-08
-9.87187e-07
2.13638e-06
-4.18678e-06
4.44974e-06
-4.62787e-06
6.16666e-06
-3.16538e-06
8.4642e-06
-4.56264e-06
1.07596e-05
-4.65197e-06
1.24676e-05
-3.20537e-06
1.40922e-05
-3.00331e-06
1.54342e-05
-2.26279e-06
1.70423e-05
-2.8371e-06
1.75882e-05
-1.54482e-06
1.63031e-05
1.78453e-06
1.34403e-05
5.25929e-06
9.49744e-06
8.36714e-06
4.39157e-06
1.01604e-05
-7.43653e-08
9.01679e-06
-2.98914e-06
5.93131e-06
-4.98928e-06
4.37451e-06
-6.40857e-06
2.76822e-06
-6.71766e-06
9.59428e-07
-5.67068e-06
-2.33807e-06
-3.74334e-06
-3.98301e-06
-2.36365e-06
-1.61131e-06
-3.2169e-06
2.14137e-06
-7.23859e-06
4.1178e-06
-7.57549e-06
6.54536e-06
-6.41407e-06
8.51798e-06
-7.55796e-06
1.02606e-05
-7.53012e-06
1.22617e-05
-6.22667e-06
1.39757e-05
-5.66654e-06
1.55625e-05
-4.63541e-06
1.6145e-05
-3.98226e-06
1.59933e-05
-1.49248e-06
1.67761e-05
1.34669e-06
1.55701e-05
6.65195e-06
1.19269e-05
1.20201e-05
6.3323e-06
1.57548e-05
6.11924e-07
1.4737e-05
-3.73092e-06
1.0274e-05
-6.36053e-06
7.00402e-06
-7.47384e-06
3.882e-06
-7.1884e-06
6.77367e-07
-5.11766e-06
-4.39948e-06
-2.49002e-06
-6.59644e-06
-2.36707e-07
-4.13123e-06
-3.59975e-06
2.05756e-06
-2.48889e-05
3.61971e-06
-2.48889e-05
6.54808e-06
-2.48277e-05
8.11332e-06
-2.50471e-05
9.45141e-06
-2.51349e-05
1.18543e-05
-2.49609e-05
1.39313e-05
-2.43722e-05
1.60124e-05
-2.32782e-05
1.68834e-05
-2.12156e-05
1.76974e-05
-1.7229e-05
1.64748e-05
-8.78019e-06
1.27599e-05
3.88123e-06
9.41269e-06
1.35611e-05
4.07202e-06
2.13424e-05
-7.96685e-07
1.96246e-05
-4.33764e-06
1.3815e-05
-6.42339e-06
9.08973e-06
-7.5502e-06
5.00932e-06
-7.09823e-06
2.31233e-07
-5.60129e-06
-5.87622e-06
-3.03351e-06
-9.10389e-06
-3.69457e-07
-6.70189e-06
-3.96903e-06
1.31116e-06
-1.43446e-05
2.40681e-06
-1.37982e-05
4.48743e-06
-1.51207e-05
5.59883e-06
-1.35272e-05
6.10479e-06
-1.24652e-05
7.77892e-06
-1.32679e-05
9.01328e-06
-1.17558e-05
9.56243e-06
-1.04806e-05
9.80999e-06
-8.90233e-06
1.06327e-05
-8.08307e-06
1.13183e-05
-7.82961e-06
1.21581e-05
-1.30189e-05
8.16324e-06
1.88665e-06
1.34305e-06
2.11484e-05
-3.0778e-06
2.44479e-05
-6.01464e-06
1.67695e-05
-7.24887e-06
1.03254e-05
-7.54702e-06
5.31201e-06
-6.96094e-06
-3.31744e-07
-6.10613e-06
-6.64124e-06
-4.16896e-06
-1.08667e-05
-7.42635e-07
-9.81472e-06
-4.59546e-06
-3.36977e-07
-9.3633e-06
-2.84547e-07
-9.29505e-06
-7.74104e-07
-1.01256e-05
-6.36148e-07
-9.32038e-06
-3.31505e-07
-8.54982e-06
-5.14768e-07
-9.12992e-06
-1.04275e-06
-7.36157e-06
-1.68169e-06
-5.74044e-06
-1.49445e-06
-4.57338e-06
-3.62822e-07
-3.67235e-06
3.51906e-06
-1.28459e-06
7.79904e-06
4.72679e-06
5.19482e-06
9.60969e-06
-4.44468e-06
1.97031e-05
-9.00523e-06
2.48372e-05
-1.02038e-05
1.82097e-05
-9.63125e-06
9.80879e-06
-8.59825e-06
4.37668e-06
-6.70631e-06
-2.02614e-06
-6.26743e-06
-6.71785e-06
-5.47289e-06
-1.12906e-05
-2.16682e-06
-1.2764e-05
-6.49634e-06
-7.492e-07
-8.61382e-06
-1.25997e-06
-8.78384e-06
-1.09379e-06
-1.02914e-05
-1.0056e-06
-9.40818e-06
-6.28486e-07
-8.92657e-06
4.27585e-07
-1.02324e-05
2.27603e-07
-7.17231e-06
-9.83946e-07
-4.53082e-06
-2.89614e-06
-2.68808e-06
-5.96357e-06
-6.54322e-07
-1.09786e-05
3.71292e-06
-1.19856e-05
6.95528e-06
-6.40904e-06
1.94071e-05
-1.08939e-05
2.65584e-05
-1.7312e-05
2.2306e-05
-1.67546e-05
1.73566e-05
-1.34917e-05
6.94423e-06
-1.05261e-05
2.08022e-06
-7.9182e-06
-3.36984e-06
-7.11931e-06
-6.64669e-06
-5.80947e-06
-1.18876e-05
-2.49731e-06
-1.64582e-05
-1.0387e-05
-7.10234e-07
-7.9033e-06
-9.34296e-07
-8.55953e-06
-1.49058e-06
-9.73483e-06
-1.09545e-06
-9.80209e-06
-7.03244e-07
-9.27372e-06
-1.14336e-06
-9.30171e-06
-1.84358e-06
-4.80883e-06
-2.40114e-06
-1.2153e-06
-2.62063e-06
-4.55182e-07
-2.70756e-06
5.04116e-07
-2.94492e-06
4.20685e-06
-7.8599e-06
1.1869e-05
-1.45563e-05
2.55061e-05
-2.35111e-05
3.78476e-05
-2.73705e-05
2.20046e-05
-2.78107e-05
1.32944e-05
-2.38925e-05
5.11488e-06
-1.71976e-05
8.56791e-07
-1.22053e-05
-8.03145e-07
-8.58808e-06
8.66812e-07
-5.36717e-06
-4.41471e-06
-2.00664e-06
-9.93607e-06
-3.61427e-06
-2.92369e-05
7.29333e-05
-3.14352e-05
3.49073e-05
5.69422e-06
9.89303e-06
3.50936e-05
1.66678e-05
5.13898e-05
2.33415e-05
6.00672e-05
2.87493e-05
6.65386e-05
3.18548e-05
6.96212e-05
3.66591e-05
7.00101e-05
4.2213e-05
6.91222e-05
4.57142e-05
6.76487e-05
4.84667e-05
6.38403e-05
5.16889e-05
5.68243e-05
5.5534e-05
4.98378e-05
5.37815e-05
4.23479e-05
5.3884e-05
2.513e-05
6.46412e-05
3.24923e-06
7.14854e-05
-7.18116e-06
5.79795e-05
3.47685e-05
-2.23905e-05
5.60002e-05
-9.68246e-06
-6.55e-06
1.96818e-05
-2.1653e-05
4.08391e-05
-5.03559e-07
5.27272e-05
9.45849e-06
5.90519e-05
1.64958e-05
6.47569e-05
1.79251e-05
6.85247e-05
2.03116e-05
7.02056e-05
2.23513e-05
7.24104e-05
2.24196e-05
7.52059e-05
2.1558e-05
7.5315e-05
2.55244e-05
7.09188e-05
3.10179e-05
6.45515e-05
3.30872e-05
5.87877e-05
3.62979e-05
4.1203e-05
5.57439e-05
1.51064e-05
7.49988e-05
-1.82139e-06
5.05388e-05
1.82444e-05
-1.12806e-05
5.9896e-05
1.05951e-05
-3.29348e-05
3.2689e-05
-4.49781e-05
5.13556e-05
-2.13458e-05
5.72088e-05
-1.1031e-06
5.7747e-05
9.89589e-06
5.85884e-05
9.16586e-06
5.91936e-05
1.12557e-05
6.00827e-05
1.21694e-05
6.18539e-05
1.28821e-05
6.25067e-05
1.27031e-05
6.16265e-05
1.85773e-05
5.79877e-05
2.79525e-05
5.38543e-05
3.15935e-05
4.85082e-05
3.34036e-05
2.91922e-05
6.50835e-05
7.43194e-06
9.84412e-05
-7.0898e-06
8.26626e-05
2.65289e-05
7.41361e-06
5.25378e-05
2.93167e-05
-5.43412e-05
4.55534e-05
-6.13814e-05
5.84341e-05
-4.7969e-05
5.88811e-05
-1.53065e-05
5.90147e-05
-6.21431e-06
5.6991e-05
-3.1311e-06
5.46415e-05
1.42831e-06
5.23314e-05
5.76378e-06
5.05039e-05
6.60799e-06
5.00904e-05
6.60393e-06
4.84877e-05
1.2584e-05
4.54727e-05
2.22496e-05
4.15505e-05
2.69589e-05
3.3433e-05
3.20351e-05
1.72218e-05
6.29778e-05
-1.74404e-06
0.000105809
-1.14395e-05
9.84478e-05
1.87737e-05
3.20301e-05
2.94863e-05
4.05278e-05
-5.74793e-05
4.98128e-05
-7.0594e-05
5.50944e-05
-4.60893e-05
6.33367e-05
-1.41745e-05
6.44008e-05
-3.08278e-06
6.36403e-05
-7.97415e-08
6.22797e-05
2.7025e-06
5.71572e-05
8.82326e-06
4.91411e-05
9.80813e-06
4.24161e-05
8.80245e-06
3.95703e-05
1.18495e-05
3.84335e-05
2.10923e-05
3.38821e-05
2.95292e-05
2.58701e-05
3.79336e-05
1.43145e-05
7.14496e-05
-9.06615e-06
0.000118315
-1.69693e-05
0.000101313
6.44489e-06
4.04235e-05
1.96012e-09
4.78913e-05
-5.99085e-05
4.78001e-05
-6.99523e-05
4.49275e-05
-4.36226e-05
5.13296e-05
-2.15704e-05
5.49418e-05
-9.2764e-06
5.68855e-05
-4.08453e-06
5.88336e-05
2.36609e-06
5.96635e-05
1.32846e-05
5.56936e-05
1.87931e-05
4.55454e-05
1.84824e-05
3.85687e-05
1.75811e-05
3.62989e-05
2.29827e-05
2.84635e-05
3.69136e-05
1.99795e-05
4.5646e-05
1.07216e-05
8.04675e-05
-8.70475e-06
0.000130675
-1.74449e-05
9.33801e-05
-1.3458e-05
3.44413e-05
-4.3368e-05
4.2913e-05
-7.57303e-05
4.30233e-05
-7.03161e-05
4.21993e-05
-4.86818e-05
4.19735e-05
-2.93107e-05
4.47383e-05
-1.18188e-05
4.8844e-05
-4.29974e-06
5.04284e-05
7.7118e-07
5.22385e-05
8.95052e-06
5.04666e-05
2.06546e-05
4.52862e-05
2.59658e-05
4.02141e-05
2.22646e-05
3.68443e-05
2.51004e-05
2.57892e-05
4.6645e-05
1.69618e-05
5.42644e-05
8.62768e-06
8.88225e-05
-5.43194e-06
0.000142062
-1.48942e-05
8.83269e-05
-3.05052e-05
2.83292e-05
-8.5921e-05
4.0439e-05
-7.28519e-05
4.19808e-05
-7.22453e-05
4.14512e-05
-5.14997e-05
3.9897e-05
-2.98462e-05
4.08782e-05
-1.41389e-05
4.30086e-05
-4.34149e-06
4.37374e-05
-1.62098e-06
4.51049e-05
4.44903e-06
4.5762e-05
1.84511e-05
4.5242e-05
2.78419e-05
4.34608e-05
2.55114e-05
3.93732e-05
2.85987e-05
2.32417e-05
5.74073e-05
9.29418e-06
6.73686e-05
5.35119e-06
9.30889e-05
-3.89081e-06
0.000151016
-8.74258e-06
8.64252e-05
-3.98641e-05
-1.96615e-06
-5.93671e-06
-3.07184e-06
-7.45331e-06
-2.4379e-06
-1.03612e-05
-2.88423e-07
-1.18877e-05
1.62164e-06
-8.58356e-06
4.71069e-06
-7.04738e-07
5.1017e-06
3.09512e-06
1.0329e-06
5.65851e-06
-6.01069e-06
8.53986e-06
-1.51027e-05
1.08935e-05
-2.2889e-05
1.3144e-05
-2.38794e-05
1.47039e-05
-2.12787e-05
2.29875e-05
-2.43341e-05
4.10511e-05
-3.61215e-05
3.59609e-05
-4.57467e-05
1.35258e-05
-4.9587e-05
-4.07132e-06
-5.01034e-05
-1.51604e-05
-4.16446e-05
-1.82064e-05
-2.73959e-05
-1.55151e-05
-8.05106e-06
-1.59479e-05
2.90497e-06
-4.37037e-07
1.48985e-05
1.67946e-05
-1.66611e-06
-4.27035e-06
-2.42403e-06
-6.69929e-06
-1.97001e-06
-1.06818e-05
1.12303e-06
-4.74994e-06
2.58759e-06
-5.18973e-06
4.93031e-06
-2.2483e-06
3.89764e-06
8.04906e-06
4.78495e-06
1.76572e-05
4.16181e-06
2.19652e-05
2.25515e-06
2.6446e-05
-6.00981e-07
2.84604e-05
-2.60651e-06
2.31241e-05
-3.74281e-06
2.30372e-05
6.04256e-06
2.19342e-05
1.74402e-05
2.44677e-05
1.68121e-05
2.04308e-05
8.75202e-06
2.24853e-06
2.75157e-06
-1.09113e-05
4.10803e-06
-3.27669e-05
1.66594e-05
-4.44303e-05
3.3362e-05
-4.34909e-05
4.86303e-05
-3.51815e-05
-3.06876e-05
6.3628e-05
-4.51165e-06
2.40493e-07
-9.18477e-06
-3.58015e-07
-5.24498e-06
-2.19403e-06
-2.55238e-06
-1.07269e-05
4.28635e-06
-7.04799e-06
7.23968e-06
-5.05112e-06
5.41007e-06
5.94681e-06
-2.82187e-06
1.69871e-05
-8.33578e-06
2.3643e-05
-1.15175e-05
2.71437e-05
-1.10903e-05
2.76249e-05
-8.25446e-06
2.68506e-05
-3.13885e-07
2.89816e-05
1.05233e-05
2.74358e-05
2.5727e-05
1.90311e-05
3.97434e-05
1.11232e-05
5.4854e-05
3.18949e-06
5.11514e-05
-5.82049e-06
6.52895e-05
-1.95812e-05
6.93363e-05
-3.73844e-05
7.56523e-05
-4.35283e-05
9.20823e-05
-4.64561e-05
-4.65733e-05
0.000102894
-1.15827e-05
9.68039e-06
-1.09702e-05
-4.97334e-06
-2.06493e-05
-1.36111e-05
-1.53221e-05
-1.65349e-05
-1.85693e-05
-8.49584e-06
-2.39167e-05
-1.03278e-05
-2.48444e-05
-5.27844e-06
-2.43571e-05
6.67096e-06
-2.19687e-05
1.09022e-05
-2.1008e-05
1.63666e-05
-1.92518e-05
1.79906e-05
-1.59035e-05
1.59174e-05
-9.68328e-06
1.67951e-05
1.33464e-06
1.74332e-05
1.52473e-05
1.48795e-05
2.86875e-05
6.52395e-06
3.68405e-05
-2.42776e-06
5.3591e-05
-1.75555e-05
6.21906e-05
-2.66856e-05
6.62245e-05
-4.09159e-05
7.4642e-05
-5.18611e-05
8.29729e-05
-6.4236e-05
-7.68026e-05
9.11243e-05
-6.97617e-06
-3.66222e-05
-2.14695e-05
-6.72265e-05
-4.85181e-05
-7.96246e-05
-8.83567e-05
-6.78026e-05
-0.000119152
-5.30014e-05
-0.000127284
-7.78851e-05
-0.0001201
-7.76476e-05
-0.000105259
-6.20555e-05
-8.95717e-05
-4.46847e-05
-7.46722e-05
-3.0252e-05
-6.33112e-05
-2.14633e-05
-4.93292e-05
-2.07641e-05
-3.20805e-05
-1.52128e-05
-1.47517e-05
-9.04292e-06
2.29256e-06
-1.03905e-05
1.46117e-05
-1.4627e-05
2.62614e-05
-2.30283e-05
3.52584e-05
-4.17489e-05
4.0966e-05
-5.48123e-05
4.46243e-05
-7.71482e-05
4.57851e-05
-0.000100189
4.90878e-05
-0.00012143
-0.000148366
5.45544e-05
-3.51637e-05
-5.57529e-05
-9.8197e-05
-9.97385e-05
-0.000112149
-0.000103165
-0.000112469
-9.04836e-05
-0.000124501
-8.6537e-05
-0.000131118
-0.000112429
-0.000131226
-7.4928e-05
-0.000121099
-9.31057e-05
-0.000110362
-8.27335e-05
-0.000108628
-7.07854e-05
-9.98757e-05
-0.000103419
-8.49381e-05
-0.000114822
-6.74603e-05
-0.000104849
-5.41367e-05
-9.33905e-05
-3.94322e-05
-9.21466e-05
-2.77442e-05
-9.10741e-05
-1.74498e-05
-9.93474e-05
-6.22159e-06
-0.000118537
3.64137e-06
-0.000138636
6.78171e-06
-0.000176129
7.82973e-06
-0.000115867
1.44384e-05
-9.59456e-05
-0.000106097
4.47439e-05
-3.70538e-05
1.71556e-05
-9.05308e-05
-3.98727e-05
-0.000106348
-6.98134e-05
-0.000108057
-6.45938e-05
-0.000101872
-4.75173e-05
-5.31155e-05
-5.12051e-05
2.9257e-05
-4.36157e-05
-1.9241e-05
-2.45643e-05
-8.33523e-05
1.93929e-06
-8.42263e-05
-1.34618e-05
-8.22129e-05
-5.06267e-05
-8.12663e-05
-8.14313e-05
-7.48153e-05
-7.11872e-05
-6.58369e-05
-6.46435e-05
-5.61503e-05
-7.79086e-05
-4.75059e-05
-8.6204e-05
-4.1284e-05
-7.0137e-05
-4.13483e-05
-7.33435e-05
-4.12107e-05
-8.31834e-05
-5.51926e-05
-0.000108505
-0.000126591
-3.97897e-05
-0.00016514
-3.65011e-05
-2.5571e-05
-0.000179302
-4.26907e-05
6.16785e-05
-4.20908e-05
2.72217e-05
-2.49639e-05
1.48786e-05
4.17958e-06
2.44571e-05
4.58112e-05
-1.06872e-05
5.42327e-05
-4.2298e-05
2.89211e-05
-2.96276e-05
-1.57636e-06
2.31025e-05
-3.12903e-05
6.68135e-05
-3.55268e-05
4.29078e-05
-1.60377e-05
2.37012e-05
1.56571e-05
-4.22734e-05
1.14826e-05
-5.31819e-05
1.42408e-06
-3.75725e-05
-1.06024e-05
-2.57934e-05
-2.85274e-05
-2.10007e-05
-3.86051e-05
-2.02646e-05
-4.66316e-05
-1.54566e-05
-4.09906e-05
-1.29196e-05
-2.10674e-05
-2.40576e-05
-2.13283e-05
-1.84256e-05
-5.03393e-05
-9.53361e-06
1.97957e-05
-8.60587e-05
-1.57335e-05
7.7877e-05
-8.51038e-06
2.32441e-05
8.97452e-06
1.05392e-05
4.05859e-05
1.13824e-05
4.92851e-05
-1.37144e-05
4.5862e-05
-3.77684e-05
3.22509e-05
-1.60361e-05
9.32805e-06
4.74027e-05
1.43553e-05
6.1456e-05
2.52776e-06
5.52976e-05
-1.08036e-05
3.74024e-05
-2.63747e-05
-2.56524e-05
-3.16347e-05
-4.59183e-05
-2.0626e-05
-4.13444e-05
-3.31982e-06
-3.12172e-05
1.52756e-05
-2.48826e-05
2.94074e-05
-2.28055e-05
3.97001e-05
-1.77901e-05
4.18882e-05
-9.71352e-06
2.62442e-05
-8.57012e-07
2.6416e-06
7.68289e-06
-2.32881e-05
1.71452e-05
3.79013e-05
-4.08418e-05
9.65432e-06
6.8534e-05
5.4329e-06
2.81387e-05
4.84443e-06
1.18233e-05
1.53534e-05
1.03869e-06
1.60905e-05
-1.44689e-05
7.92766e-06
-2.97066e-05
9.39189e-06
-1.70723e-05
1.49373e-05
4.1613e-05
2.45403e-05
5.18182e-05
3.42835e-05
4.55356e-05
5.16899e-05
1.99539e-05
3.99045e-05
-1.37137e-05
2.32539e-05
-2.96368e-05
1.59327e-05
-3.42081e-05
1.28138e-05
-3.05445e-05
9.45405e-06
-2.45752e-05
3.86569e-06
-2.00285e-05
-2.01372e-06
-1.48335e-05
-4.79454e-06
-1.016e-05
-4.51854e-06
-2.53154e-06
-9.13319e-06
1.15804e-05
-1.75694e-05
2.52716e-05
4.05669e-05
-2.04541e-05
1.4614e-05
5.39079e-05
1.64449e-05
2.63006e-05
2.03062e-05
7.8629e-06
2.2165e-05
-8.6607e-07
1.43441e-05
-6.65835e-06
-1.58093e-06
-1.38295e-05
-5.18333e-06
-1.30534e-05
1.75406e-05
1.8817e-05
3.74185e-05
3.19216e-05
5.32032e-05
2.96389e-05
5.44662e-05
1.84938e-05
3.44622e-05
5.73938e-06
1.62113e-05
-1.26482e-05
5.26993e-06
-2.31421e-05
3.56493e-08
-2.51916e-05
-2.07045e-06
-2.37483e-05
-3.07225e-06
-2.0832e-05
-2.93972e-06
-1.60042e-05
-4.34352e-06
-8.5389e-06
-8.90769e-06
2.52539e-06
-1.07287e-05
1.36621e-05
-1.24402e-05
2.70037e-05
4.01424e-05
-1.2041e-05
1.45237e-05
3.93539e-05
1.69553e-05
2.38781e-05
1.42937e-05
1.05378e-05
1.02202e-05
3.2123e-06
5.49693e-06
-1.93433e-06
-2.04411e-06
-6.29752e-06
-9.94882e-06
-5.09316e-06
3.34055e-06
5.20696e-06
2.16305e-05
1.39241e-05
2.94346e-05
2.16565e-05
2.83166e-05
1.9671e-05
2.57688e-05
8.29019e-06
1.73998e-05
-4.45519e-06
7.92842e-06
-1.27795e-05
7.37754e-07
-1.54335e-05
-5.71579e-06
-1.49305e-05
-1.10105e-05
-1.3212e-05
-1.53653e-05
-9.51586e-06
-2.06037e-05
-1.99308e-06
-2.41014e-05
6.34317e-06
-2.56995e-05
1.5478e-05
-2.38458e-05
2.54207e-05
3.52275e-05
-1.86645e-05
1.01441e-05
2.92026e-05
1.45562e-05
1.94654e-05
1.49325e-05
1.01611e-05
1.26551e-05
5.48937e-06
7.82804e-06
2.89264e-06
3.805e-07
1.1514e-06
-6.46038e-06
1.76574e-06
-7.30152e-06
6.11676e-06
-1.63148e-06
8.39878e-06
5.11307e-06
1.48643e-05
9.21353e-06
1.57169e-05
8.51498e-06
9.08696e-06
4.09423e-06
2.6793e-08
-2.23836e-06
-6.29294e-06
-7.83298e-06
-9.8749e-06
-1.25862e-05
-1.01903e-05
-1.74079e-05
-8.42887e-06
-2.17981e-05
-5.1763e-06
-2.35e-05
-3.78862e-07
-2.42814e-05
7.07385e-06
-2.40223e-05
1.51879e-05
-2.22854e-05
2.36714e-05
3.06326e-05
-1.7661e-05
6.55726e-06
2.2643e-05
1.01935e-05
1.58283e-05
9.91021e-06
1.04434e-05
7.91683e-06
7.48221e-06
5.17327e-06
5.63531e-06
1.7117e-06
4.61224e-06
-1.64204e-06
5.11819e-06
-2.65564e-06
7.13048e-06
-2.31666e-06
8.06975e-06
1.23014e-06
1.13013e-05
4.74475e-06
1.22441e-05
4.2538e-06
9.57982e-06
7.4623e-07
3.63921e-06
-4.13472e-06
-1.37655e-06
-9.09333e-06
-4.91178e-06
-1.28531e-05
-6.52702e-06
-1.59653e-05
-5.43643e-06
-1.86835e-05
-2.4771e-06
-2.17432e-05
2.721e-06
-2.26564e-05
8.10882e-06
-2.14296e-05
1.40905e-05
-1.8304e-05
2.06219e-05
2.61224e-05
-1.37964e-05
3.71351e-06
1.89295e-05
6.26307e-06
1.32779e-05
6.23312e-06
1.04723e-05
5.07177e-06
8.64243e-06
3.49949e-06
7.20647e-06
1.53916e-06
6.57128e-06
2.70324e-08
6.62893e-06
-3.48283e-07
7.50417e-06
-1.88247e-07
7.90811e-06
1.16833e-06
9.94766e-06
3.11129e-06
1.03053e-05
3.7943e-06
8.89918e-06
2.04682e-06
5.38667e-06
-1.52493e-06
2.05884e-06
-5.64864e-06
-9.82402e-07
-9.35932e-06
-2.86857e-06
-1.23759e-05
-2.49866e-06
-1.48437e-05
-6.85373e-08
-1.65193e-05
4.38079e-06
-1.73996e-05
9.00589e-06
-1.66851e-05
1.34094e-05
-1.4431e-05
1.83931e-05
2.29271e-05
-1.12316e-05
2.34464e-06
1.65826e-05
3.58513e-06
1.20358e-05
3.66355e-06
1.03925e-05
3.27055e-06
9.034e-06
2.53651e-06
7.93912e-06
1.70386e-06
7.40245e-06
1.12796e-06
7.20334e-06
1.01819e-06
7.61236e-06
1.09231e-06
7.83254e-06
2.08162e-06
8.95696e-06
3.29247e-06
9.09353e-06
4.0655e-06
8.13773e-06
3.61599e-06
5.82021e-06
1.93191e-06
3.66518e-06
-5.17035e-07
1.55719e-06
-3.69501e-06
3.59018e-07
-6.84465e-06
6.5649e-07
-9.48509e-06
2.55028e-06
-1.12746e-05
6.15412e-06
-1.26256e-05
1.03626e-05
-1.26333e-05
1.34354e-05
-1.07982e-05
1.65656e-05
2.02043e-05
-8.04877e-06
1.40359e-06
1.51791e-05
2.2955e-06
1.11429e-05
2.60638e-06
1.00802e-05
2.49976e-06
9.1392e-06
2.12916e-06
8.30818e-06
1.73429e-06
7.79588e-06
1.40942e-06
7.52667e-06
1.40285e-06
7.61758e-06
1.52764e-06
7.70645e-06
2.30261e-06
8.18096e-06
3.23471e-06
8.16082e-06
4.0413e-06
7.33297e-06
3.91204e-06
5.93895e-06
2.8859e-06
4.71367e-06
1.14199e-06
3.45211e-06
-1.33377e-06
3.02711e-06
-4.23742e-06
3.64381e-06
-6.80427e-06
5.1263e-06
-8.4217e-06
7.77993e-06
-9.46493e-06
1.13994e-05
-9.73629e-06
1.37055e-05
-8.448e-06
1.53089e-05
1.7809e-05
-6.06682e-06
9.38817e-07
1.42364e-05
1.65901e-06
1.04206e-05
2.02846e-06
9.70914e-06
2.09262e-06
9.07346e-06
1.86728e-06
8.5321e-06
1.52453e-06
8.13715e-06
1.15565e-06
7.89429e-06
9.47792e-07
7.82416e-06
8.61655e-07
7.79166e-06
1.31352e-06
7.72825e-06
1.99329e-06
7.48062e-06
2.37255e-06
6.95339e-06
1.97059e-06
6.34437e-06
1.06213e-06
5.67176e-06
-4.89559e-07
5.16735e-06
-2.74163e-06
5.44922e-06
-4.74935e-06
5.74862e-06
-6.23119e-06
6.66075e-06
-7.22284e-06
8.78492e-06
-7.38942e-06
1.15767e-05
-6.96702e-06
1.33029e-05
-5.64214e-06
1.398e-05
1.56488e-05
-3.45243e-06
7.08318e-07
1.35277e-05
1.2697e-06
9.85739e-06
1.51834e-06
9.4583e-06
1.53106e-06
9.05852e-06
1.32824e-06
8.73267e-06
1.00181e-06
8.46152e-06
6.658e-07
8.22831e-06
3.97579e-07
8.0907e-06
2.20659e-07
7.96705e-06
2.16246e-07
7.73158e-06
2.66897e-07
7.42898e-06
1.29173e-07
7.09013e-06
-2.73646e-07
6.7583e-06
-9.60357e-07
6.40409e-06
-2.10345e-06
6.37231e-06
-3.30167e-06
6.70517e-06
-4.3709e-06
6.89279e-06
-5.31989e-06
7.64863e-06
-5.87709e-06
9.35637e-06
-5.59108e-06
1.12986e-05
-4.56634e-06
1.22826e-05
-3.18731e-06
1.26085e-05
1.40126e-05
-1.56483e-06
5.49717e-07
1.29752e-05
8.34628e-07
9.57062e-06
9.70753e-07
9.32053e-06
1.014e-06
9.01378e-06
9.62207e-07
8.78303e-06
8.52324e-07
8.57015e-06
7.05219e-07
8.37429e-06
5.28344e-07
8.26671e-06
3.72307e-07
8.12241e-06
1.75587e-07
7.92793e-06
-1.10807e-08
7.61526e-06
-3.17379e-07
7.3964e-06
-8.38541e-07
7.28476e-06
-1.43754e-06
7.03037e-06
-2.01042e-06
6.97818e-06
-2.34111e-06
7.08731e-06
-2.91086e-06
7.52246e-06
-3.6303e-06
8.40576e-06
-3.78414e-06
9.52918e-06
-3.29412e-06
1.08203e-05
-2.41067e-06
1.14059e-05
-1.3142e-06
1.15101e-05
1.26022e-05
9.21432e-08
3.56155e-07
1.26185e-05
5.81304e-07
9.34422e-06
7.58263e-07
9.14221e-06
8.5605e-07
8.91466e-06
9.06634e-07
8.73122e-06
9.19622e-07
8.55609e-06
8.74396e-07
8.41864e-06
8.12657e-07
8.3278e-06
6.994e-07
8.23526e-06
5.0271e-07
8.12441e-06
2.32022e-07
7.88593e-06
-7.48944e-08
7.70309e-06
-4.62172e-07
7.67207e-06
-9.40594e-07
7.51949e-06
-1.40969e-06
7.46478e-06
-1.84661e-06
7.55654e-06
-2.38625e-06
8.10133e-06
-2.72815e-06
8.77529e-06
-2.68957e-06
9.50554e-06
-2.30211e-06
1.04417e-05
-1.6608e-06
1.07679e-05
-9.54963e-07
1.08092e-05
1.15909e-05
4.52843e-08
2.69489e-07
1.23468e-05
4.87206e-07
9.12502e-06
6.56267e-07
8.97188e-06
7.15584e-07
8.85419e-06
7.48319e-07
8.69746e-06
7.43552e-07
8.55999e-06
7.31599e-07
8.42994e-06
7.47031e-07
8.31194e-06
7.67127e-07
8.21494e-06
6.93805e-07
8.19771e-06
4.73649e-07
8.10616e-06
2.4756e-07
7.92919e-06
9.51643e-08
7.82543e-06
-2.28721e-07
7.84311e-06
-6.47241e-07
7.89717e-06
-1.19317e-06
8.11575e-06
-1.44177e-06
8.37064e-06
-1.36564e-06
8.71508e-06
-1.18946e-06
9.33865e-06
-6.55175e-07
9.91416e-06
2.26322e-08
1.0094e-05
6.00993e-07
1.02301e-05
1.09639e-05
1.22458e-06
2.28835e-07
1.21178e-05
3.32106e-07
9.02086e-06
3.86862e-07
8.91612e-06
4.15271e-07
8.82483e-06
4.16901e-07
8.69499e-06
3.88428e-07
8.5878e-06
3.41185e-07
8.47671e-06
2.8701e-07
8.36586e-06
2.31857e-07
8.27004e-06
1.85204e-07
8.24445e-06
5.61076e-08
8.23546e-06
-1.48085e-07
8.13359e-06
-3.4941e-07
8.02728e-06
-5.0453e-07
8.00244e-06
-7.08349e-07
8.09962e-06
-9.88941e-07
8.40782e-06
-1.20158e-06
8.59391e-06
-1.32182e-06
8.845e-06
-1.19215e-06
9.21595e-06
-7.70447e-07
9.49772e-06
-2.62154e-07
9.58791e-06
2.62412e-07
9.70922e-06
1.01107e-05
1.10836e-06
1.66198e-07
1.19497e-05
2.5563e-07
8.93029e-06
3.2201e-07
8.84882e-06
3.72125e-07
8.77392e-06
3.7836e-07
8.6881e-06
3.56369e-07
8.60928e-06
3.03272e-07
8.5295e-06
2.29805e-07
8.4392e-06
1.34478e-07
8.36541e-06
4.21434e-08
8.33695e-06
-5.4084e-08
8.33188e-06
-2.25898e-07
8.30594e-06
-4.93078e-07
8.29529e-06
-7.09071e-07
8.21752e-06
-8.71593e-07
8.27183e-06
-7.88468e-07
8.3259e-06
-6.50144e-07
8.46446e-06
-6.06541e-07
8.80849e-06
-3.65661e-07
8.98121e-06
-1.13541e-08
9.14798e-06
3.139e-07
9.26578e-06
7.10966e-07
9.31205e-06
9.24211e-06
1.57681e-06
1.76256e-07
1.17736e-05
2.64499e-07
8.84148e-06
3.27014e-07
8.78562e-06
3.70333e-07
8.72997e-06
3.81729e-07
8.67618e-06
3.75575e-07
8.61507e-06
3.58377e-07
8.5465e-06
3.13621e-07
8.48393e-06
2.229e-07
8.45623e-06
1.43022e-07
8.41701e-06
1.08806e-07
8.36635e-06
6.75701e-08
8.34751e-06
-6.31883e-09
8.36952e-06
-2.10084e-07
8.42627e-06
-3.86219e-07
8.44564e-06
-5.5193e-07
8.50187e-06
-7.64799e-07
8.68335e-06
-6.93109e-07
8.74352e-06
-4.83023e-07
8.77667e-06
-1.91666e-07
8.86111e-06
1.18058e-07
8.95816e-06
5.9521e-07
8.8377e-06
8.59189e-06
1.23976e-06
1.02246e-07
1.16698e-05
1.49874e-07
8.79299e-06
1.99579e-07
8.73528e-06
2.30246e-07
8.69878e-06
2.39347e-07
8.66668e-06
2.22983e-07
8.63117e-06
1.87451e-07
8.58192e-06
1.31646e-07
8.53977e-06
7.52233e-08
8.51279e-06
-1.16208e-08
8.50404e-06
-1.56652e-07
8.51161e-06
-2.97011e-07
8.48814e-06
-3.65e-07
8.4388e-06
-4.63294e-07
8.52393e-06
-5.54871e-07
8.5456e-06
-5.99078e-07
8.54809e-06
-4.7193e-07
8.56294e-06
-2.84966e-07
8.56367e-06
-1.93919e-07
8.69082e-06
-4.75121e-08
8.71913e-06
2.64109e-07
8.64918e-06
6.27463e-07
8.47468e-06
8.22097e-06
9.95845e-07
1.13761e-07
1.15563e-05
1.67685e-07
8.73874e-06
2.12289e-07
8.69023e-06
2.47164e-07
8.66351e-06
2.73269e-07
8.64028e-06
2.8318e-07
8.6211e-06
2.68256e-07
8.59681e-06
2.33189e-07
8.57491e-06
1.94863e-07
8.55127e-06
1.47301e-07
8.55178e-06
6.24863e-08
8.59662e-06
-6.40907e-08
8.61502e-06
-2.23197e-07
8.59868e-06
-2.52945e-07
8.55731e-06
-2.38873e-07
8.53055e-06
-2.4589e-07
8.56335e-06
-3.07778e-07
8.63088e-06
-4.64697e-07
8.72674e-06
-4.09063e-07
8.64026e-06
-1.96025e-07
8.51022e-06
8.25191e-08
8.37263e-06
3.26355e-07
8.23305e-06
7.88009e-06
6.62971e-07
9.27922e-08
1.14622e-05
1.32811e-07
8.69807e-06
1.68898e-07
8.65371e-06
1.82996e-07
8.64909e-06
1.80159e-07
8.6429e-06
1.69249e-07
8.6319e-06
1.36636e-07
8.62944e-06
8.08986e-08
8.63076e-06
4.88433e-09
8.62744e-06
-4.89251e-08
8.60575e-06
-4.08513e-08
8.58867e-06
-3.9839e-08
8.61443e-06
-1.03506e-07
8.66316e-06
-2.65401e-07
8.71883e-06
-4.79567e-07
8.7526e-06
-5.72704e-07
8.65772e-06
-5.62933e-07
8.62833e-06
-3.78701e-07
8.54828e-06
-2.16818e-07
8.48345e-06
-1.64895e-07
8.46207e-06
-1.51777e-07
8.36183e-06
1.00881e-08
8.07176e-06
7.69137e-06
1.96571e-07
9.24275e-08
1.13703e-05
1.42609e-07
8.64774e-06
1.97692e-07
8.59836e-06
2.41964e-07
8.60459e-06
2.7156e-07
8.61316e-06
2.82524e-07
8.6209e-06
2.77329e-07
8.63469e-06
2.56017e-07
8.6522e-06
2.06789e-07
8.67683e-06
9.9579e-08
8.7131e-06
-6.12439e-08
8.74963e-06
-2.14223e-07
8.76763e-06
-2.94388e-07
8.74362e-06
-2.98797e-07
8.72723e-06
-2.27888e-07
8.67997e-06
-2.19452e-07
8.65755e-06
-2.52988e-07
8.66678e-06
-3.69427e-07
8.67015e-06
-5.07768e-07
8.62634e-06
-4.99295e-07
8.4572e-06
-3.51209e-07
8.21562e-06
-2.78338e-07
8.00071e-06
7.66748e-06
-2.57857e-07
7.72867e-08
1.12918e-05
1.15089e-07
8.60944e-06
1.51344e-07
8.56182e-06
1.74403e-07
8.58134e-06
1.81953e-07
8.60551e-06
1.70276e-07
8.63258e-06
1.41411e-07
8.66364e-06
9.97712e-08
8.69398e-06
5.43166e-08
8.72243e-06
2.7325e-08
8.74021e-06
3.0462e-08
8.74658e-06
2.91433e-08
8.76906e-06
-3.09708e-08
8.80471e-06
-1.32093e-07
8.82782e-06
-3.03306e-07
8.8578e-06
-4.8627e-07
8.84188e-06
-5.86189e-07
8.77196e-06
-6.06894e-07
8.69643e-06
-5.42135e-07
8.56569e-06
-5.38414e-07
8.45696e-06
-6.21707e-07
8.30092e-06
-6.61117e-07
8.04087e-06
7.70557e-06
-7.01098e-07
9.84825e-08
1.1194e-05
1.66758e-07
8.54115e-06
2.33906e-07
8.49453e-06
2.85065e-07
8.53007e-06
3.19833e-07
8.5707e-06
3.30555e-07
8.62189e-06
3.14678e-07
8.67962e-06
2.71382e-07
8.73742e-06
2.01727e-07
8.79222e-06
1.01606e-07
8.84042e-06
-3.56019e-08
8.88384e-06
-1.76308e-07
8.90991e-06
-2.92006e-07
8.92093e-06
-3.79247e-07
8.91784e-06
-4.15018e-07
8.89246e-06
-4.20517e-07
8.85386e-06
-4.6462e-07
8.82052e-06
-5.46798e-07
8.78328e-06
-6.97173e-07
8.71995e-06
-8.12797e-07
8.57581e-06
-8.77613e-07
8.36746e-06
-9.75074e-07
8.13991e-06
7.85325e-06
-1.12532e-06
9.18972e-08
1.1101e-05
1.48405e-07
8.48426e-06
2.03451e-07
8.4393e-06
2.42354e-07
8.49107e-06
2.66299e-07
8.54673e-06
2.74312e-07
8.61393e-06
2.65386e-07
8.68865e-06
2.38504e-07
8.76443e-06
1.95557e-07
8.83529e-06
1.41775e-07
8.89427e-06
8.13095e-08
8.94431e-06
9.28273e-09
8.98216e-06
-7.56747e-08
9.00643e-06
-1.83761e-07
9.0254e-06
-3.17722e-07
9.03272e-06
-4.80396e-07
9.01691e-06
-6.33516e-07
8.97911e-06
-7.50793e-07
8.90482e-06
-8.33835e-07
8.80687e-06
-9.45497e-07
8.69039e-06
-1.11006e-06
8.53384e-06
-1.28806e-06
8.31875e-06
8.06511e-06
-1.50133e-06
1.23265e-07
1.09785e-05
2.01018e-07
8.40659e-06
2.74542e-07
8.36573e-06
3.33315e-07
8.43226e-06
3.76782e-07
8.50328e-06
4.02478e-07
8.5883e-06
4.04877e-07
8.68637e-06
3.80187e-07
8.78925e-06
3.23922e-07
8.89166e-06
2.43086e-07
8.97515e-06
1.3174e-07
9.05568e-06
-1.14212e-09
9.11515e-06
-1.4068e-07
9.14608e-06
-2.71498e-07
9.15939e-06
-3.99308e-07
9.15854e-06
-5.08861e-07
9.13297e-06
-6.31466e-07
9.10512e-06
-7.77182e-07
9.05445e-06
-9.48164e-07
8.98126e-06
-1.12692e-06
8.87191e-06
-1.32005e-06
8.72859e-06
-1.54533e-06
8.54553e-06
8.34117e-06
-1.82339e-06
1.30152e-07
1.08473e-05
1.96005e-07
8.34043e-06
2.58569e-07
8.30305e-06
3.09863e-07
8.38093e-06
3.51993e-07
8.46118e-06
3.87826e-07
8.55255e-06
4.19513e-07
8.6548e-06
4.40477e-07
8.76841e-06
4.31256e-07
8.90097e-06
3.845e-07
9.02196e-06
2.96011e-07
9.1442e-06
1.70416e-07
9.24078e-06
1.3837e-08
9.30343e-06
-1.63075e-07
9.33559e-06
-3.40428e-07
9.34124e-06
-5.27172e-07
9.32004e-06
-7.03436e-07
9.28512e-06
-8.78236e-07
9.23338e-06
-1.05807e-06
9.16413e-06
-1.25631e-06
9.07284e-06
-1.48997e-06
8.96388e-06
-1.76579e-06
8.82215e-06
8.65969e-06
-2.08511e-06
1.56278e-07
1.06919e-05
1.89369e-07
8.30751e-06
2.20537e-07
8.27191e-06
2.49785e-07
8.35171e-06
2.76041e-07
8.43498e-06
3.03245e-07
8.52545e-06
3.33849e-07
8.62432e-06
3.58334e-07
8.74404e-06
3.7755e-07
8.88185e-06
3.73861e-07
9.02569e-06
3.46071e-07
9.17203e-06
2.75224e-07
9.31177e-06
1.59349e-07
9.41971e-06
-1.15994e-08
9.50877e-06
-2.25636e-07
9.55364e-06
-4.5968e-07
9.55921e-06
-6.92492e-07
9.52095e-06
-9.12436e-07
9.45665e-06
-1.13241e-06
9.38702e-06
-1.3669e-06
9.30982e-06
-1.62629e-06
9.22471e-06
-1.92877e-06
9.12622e-06
9.01194e-06
-2.28257e-06
1.46132e-07
1.05448e-05
1.05048e-07
8.34836e-06
5.52033e-08
8.32172e-06
2.6317e-08
8.38063e-06
-4.34442e-10
8.46181e-06
-1.97909e-08
8.54492e-06
-2.96416e-08
8.6343e-06
-3.08872e-08
8.74542e-06
-1.52388e-08
8.86631e-06
4.0163e-09
9.00652e-06
1.69698e-08
9.15913e-06
1.211e-08
9.3169e-06
-2.27025e-08
9.455e-06
-8.89155e-08
9.57421e-06
-1.93946e-07
9.66394e-06
-3.57838e-07
9.72238e-06
-5.88914e-07
9.75617e-06
-8.71379e-07
9.7423e-06
-1.15854e-06
9.67725e-06
-1.43398e-06
9.58763e-06
-1.71861e-06
9.51103e-06
-2.04153e-06
9.44977e-06
9.38509e-06
-2.41469e-06
9.20568e-08
1.04537e-05
-9.84726e-08
8.53914e-06
-2.89196e-07
8.51254e-06
-4.46054e-07
8.53758e-06
-5.72208e-07
8.58807e-06
-6.76149e-07
8.64899e-06
-7.53702e-07
8.712e-06
-7.97628e-07
8.78948e-06
-8.07902e-07
8.8767e-06
-7.83162e-07
8.98187e-06
-7.31476e-07
9.10757e-06
-6.73978e-07
9.25961e-06
-6.26552e-07
9.40763e-06
-5.85388e-07
9.53566e-06
-5.8411e-07
9.65993e-06
-6.1784e-07
9.76179e-06
-6.97485e-07
9.83814e-06
-8.41819e-07
9.88987e-06
-1.08085e-06
9.91916e-06
-1.3978e-06
9.90707e-06
-1.74439e-06
9.85907e-06
-2.09482e-06
9.80224e-06
9.77332e-06
-2.48459e-06
-2.50273e-08
1.04778e-05
-4.08872e-07
8.92281e-06
-7.8636e-07
8.89005e-06
-1.11914e-06
8.87043e-06
-1.40596e-06
8.875e-06
-1.64907e-06
8.89223e-06
-1.84839e-06
8.91146e-06
-1.99311e-06