/*--------------------------------*- C++ -*----------------------------------*\
| =========                 |                                                 |
| \\      /  F ield         | OpenFOAM: The Open Source CFD Toolbox           |
|  \\    /   O peration     | Version:  2.4.0                                 |
|   \\  /    A nd           | Web:      www.OpenFOAM.org                      |
|    \\/     M anipulation  |                                                 |
\*---------------------------------------------------------------------------*/
FoamFile
{
    version     2.0;
    format      ascii;
    class       surfaceScalarField;
    location    "0.65";
    object      phi.air;
}
// * * * * * * * * * * * * * * * * * * * * * * * * * * * * * * * * * * * * * //

dimensions      [0 3 -1 0 0 0 0];

internalField   nonuniform List<scalar> 
4432
(
2.12208e-06
-2.12209e-06
4.51308e-06
-2.39099e-06
6.02434e-06
-1.51126e-06
8.36786e-06
-2.34351e-06
1.0808e-05
-2.44014e-06
1.2376e-05
-1.56793e-06
1.38193e-05
-1.4433e-06
1.47933e-05
-9.73922e-07
1.60658e-05
-1.27252e-06
1.70815e-05
-1.01565e-06
1.65826e-05
4.99058e-07
1.41865e-05
2.39633e-06
9.76219e-06
4.42418e-06
4.70742e-06
5.05443e-06
1.56355e-07
4.55087e-06
-2.86026e-06
3.01652e-06
-5.23455e-06
2.37421e-06
-6.58237e-06
1.34779e-06
-7.2286e-06
6.46309e-07
-5.92866e-06
-1.29981e-06
-3.84468e-06
-2.08381e-06
-3.10625e-06
-7.38258e-07
-3.10608e-06
2.13638e-06
-4.15613e-06
4.44974e-06
-4.59556e-06
6.16666e-06
-3.13784e-06
8.4642e-06
-4.5297e-06
1.07596e-05
-4.6173e-06
1.24676e-05
-3.17519e-06
1.40922e-05
-2.9753e-06
1.54342e-05
-2.23902e-06
1.70423e-05
-2.81715e-06
1.75882e-05
-1.53522e-06
1.63031e-05
1.78478e-06
1.34403e-05
5.25932e-06
9.49744e-06
8.36716e-06
4.39157e-06
1.01604e-05
-7.43578e-08
9.01678e-06
-2.98913e-06
5.93126e-06
-4.98922e-06
4.37428e-06
-6.40844e-06
2.76703e-06
-6.71746e-06
9.55422e-07
-5.6704e-06
-2.3467e-06
-3.7498e-06
-4.00419e-06
-2.36783e-06
-2.12005e-06
-5.47377e-06
2.1414e-06
-7.12738e-06
4.11785e-06
-7.46764e-06
6.54538e-06
-6.29639e-06
8.51813e-06
-7.45165e-06
1.02606e-05
-7.42772e-06
1.22614e-05
-6.11518e-06
1.39752e-05
-5.5491e-06
1.55615e-05
-4.5066e-06
1.61435e-05
-3.84046e-06
1.59916e-05
-1.26377e-06
1.67761e-05
1.51287e-06
1.55701e-05
6.71497e-06
1.19269e-05
1.20257e-05
6.3323e-06
1.57548e-05
6.11931e-07
1.4737e-05
-3.73089e-06
1.02739e-05
-6.36043e-06
7.00374e-06
-7.4736e-06
3.88022e-06
-7.18811e-06
6.70061e-07
-5.11732e-06
-4.41728e-06
-2.49212e-06
-6.6291e-06
-2.41031e-07
-4.37085e-06
-5.7145e-06
2.05751e-06
-2.48979e-05
3.61992e-06
-2.48805e-05
6.54797e-06
-2.48245e-05
8.11343e-06
-2.50182e-05
9.45183e-06
-2.50836e-05
1.18547e-05
-2.48793e-05
1.39321e-05
-2.42474e-05
1.60134e-05
-2.31368e-05
1.68842e-05
-2.10491e-05
1.76975e-05
-1.70783e-05
1.64695e-05
-9.12381e-06
1.27473e-05
2.33377e-06
9.41107e-06
1.33043e-05
4.07201e-06
2.14294e-05
-7.9668e-07
1.96337e-05
-4.33761e-06
1.3815e-05
-6.42327e-06
9.08942e-06
-7.54976e-06
5.00673e-06
-7.0978e-06
2.18135e-07
-5.6005e-06
-5.91454e-06
-3.03605e-06
-9.19354e-06
-3.74909e-07
-7.03209e-06
-6.08954e-06
1.32868e-06
-1.59955e-05
2.44462e-06
-1.54429e-05
4.54251e-06
-1.67291e-05
5.67998e-06
-1.51293e-05
6.20353e-06
-1.40661e-05
7.8897e-06
-1.47996e-05
9.17344e-06
-1.32924e-05
9.75813e-06
-1.2085e-05
1.00404e-05
-1.06085e-05
1.0929e-05
-9.96971e-06
1.16817e-05
-1.04618e-05
1.23253e-05
-1.62866e-05
8.21385e-06
5.79322e-07
1.31832e-06
2.03976e-05
-3.08009e-06
2.45403e-05
-6.01461e-06
1.67756e-05
-7.2487e-06
1.03235e-05
-7.54654e-06
5.30457e-06
-6.95984e-06
-3.68443e-07
-6.10382e-06
-6.77032e-06
-4.17239e-06
-1.11247e-05
-7.62316e-07
-1.04419e-05
-6.85148e-06
-3.36977e-07
-9.36338e-06
-2.84549e-07
-9.29512e-06
-7.74107e-07
-1.01257e-05
-6.36151e-07
-9.32042e-06
-3.31506e-07
-8.54987e-06
-5.14768e-07
-9.13107e-06
-1.04275e-06
-7.36335e-06
-1.68169e-06
-5.74142e-06
-1.49445e-06
-4.58102e-06
-3.62436e-07
-3.67844e-06
3.64303e-06
-1.286e-06
8.23827e-06
3.8042e-06
5.67722e-06
6.18506e-06
-4.23687e-06
1.78032e-05
-9.03048e-06
2.48014e-05
-1.02038e-05
1.82415e-05
-9.63051e-06
9.75576e-06
-8.59662e-06
4.27086e-06
-6.70569e-06
-2.25924e-06
-6.26208e-06
-7.21382e-06
-5.47547e-06
-1.19112e-05
-2.20042e-06
-1.37169e-05
-9.05194e-06
-7.492e-07
-8.61398e-06
-1.25997e-06
-8.78399e-06
-1.09379e-06
-1.02915e-05
-1.0056e-06
-9.4083e-06
-6.28511e-07
-8.92664e-06
4.27576e-07
-1.0187e-05
2.27585e-07
-7.16344e-06
-9.83781e-07
-4.53041e-06
-2.89615e-06
-2.66975e-06
-5.96407e-06
-6.12145e-07
-1.09788e-05
3.73057e-06
-1.19087e-05
6.95581e-06
-5.82582e-06
1.91239e-05
-1.08181e-05
2.38833e-05
-1.73287e-05
2.15035e-05
-1.67492e-05
1.72155e-05
-1.34846e-05
6.55742e-06
-1.05133e-05
1.29974e-06
-7.91153e-06
-4.86098e-06
-7.10926e-06
-8.01606e-06
-5.80342e-06
-1.31988e-05
-2.53387e-06
-1.6924e-05
-1.1585e-05
-7.10235e-07
-7.89069e-06
-9.34299e-07
-8.54722e-06
-1.49059e-06
-9.72658e-06
-1.09545e-06
-9.79976e-06
-7.03203e-07
-9.31534e-06
-1.1431e-06
-9.74266e-06
-1.844e-06
-6.46056e-06
-2.40084e-06
-3.97202e-06
-2.61966e-06
-2.44878e-06
-2.70736e-06
-5.21529e-07
-2.94675e-06
3.97335e-06
-7.86319e-06
1.18692e-05
-1.49072e-05
2.55116e-05
-2.3764e-05
3.51157e-05
-2.72555e-05
1.97746e-05
-2.78113e-05
1.27213e-05
-2.38282e-05
3.4761e-06
-1.71766e-05
-4.98895e-06
-1.21718e-05
-9.42081e-06
-8.57789e-06
-1.1039e-05
-5.34906e-06
-1.56392e-05
-2.00155e-06
-1.94263e-05
-1.29471e-05
-2.56431e-05
-9.64886e-06
-1.77323e-05
5.89829e-08
8.77057e-06
-3.37024e-05
3.02214e-05
-3.33939e-05
4.55274e-05
-2.54062e-05
5.58071e-05
-2.00939e-05
6.37221e-05
-1.69967e-05
6.83253e-05
-1.39245e-05
6.96728e-05
-1.42983e-05
6.91114e-05
-1.42574e-05
6.7537e-05
-3.97878e-06
6.39415e-05
1.33308e-05
5.74615e-05
2.1415e-05
5.19597e-05
3.5922e-05
4.61962e-05
3.45717e-05
3.19133e-05
1.70297e-05
8.9136e-06
1.59185e-05
-4.43089e-06
8.16197e-06
-1.82773e-06
-1.30375e-05
1.11695e-06
7.80683e-07
1.66773e-05
2.33609e-05
5.03334e-06
3.78031e-05
-3.35474e-05
4.87323e-05
-3.93311e-05
5.58577e-05
-2.89078e-05
6.19805e-05
-3.11501e-05
6.63119e-05
-3.22027e-05
6.90548e-05
-2.86508e-05
7.1631e-05
-2.50309e-05
7.49088e-05
-2.60389e-05
7.53207e-05
-2.1581e-05
7.1225e-05
-7.92788e-06
6.4492e-05
7.37954e-06
5.9616e-05
1.30684e-05
4.63006e-05
5.03687e-05
2.21938e-05
4.9318e-05
1.85807e-06
3.50549e-05
-3.75687e-06
-8.34851e-06
5.18174e-05
-1.19962e-05
2.64055e-05
3.36715e-05
1.48912e-05
4.90012e-05
4.87765e-05
5.32137e-05
0.000102009
5.39205e-05
0.000161469
5.45644e-05
0.000172871
5.59568e-05
6.94085e-05
5.84061e-05
-1.27126e-05
5.98777e-05
-3.4832e-05
6.04165e-05
-3.9784e-05
6.03266e-05
-3.56663e-05
5.8722e-05
-2.99004e-05
5.46371e-05
-2.91366e-05
4.94966e-05
-3.29105e-05
3.23903e-05
5.2328e-05
1.31669e-05
0.000117847
-4.04394e-06
6.30169e-05
-4.58399e-06
2.54954e-05
3.96717e-05
2.47664e-05
-3.34674e-05
4.78332e-05
-1.08068e-05
6.60614e-05
5.50057e-05
6.73596e-05
0.000100387
6.54794e-05
7.69755e-05
6.14488e-05
4.68165e-05
5.3891e-05
-5.51627e-07
5.06515e-05
-5.12143e-05
4.90788e-05
-6.57645e-05
4.74565e-05
-5.48723e-05
4.65998e-05
-4.2394e-05
4.5598e-05
-3.40339e-05
4.15678e-05
-3.60566e-05
3.17799e-05
-4.19208e-05
1.00306e-05
-8.11395e-06
-1.35175e-05
0.000131102
-7.99621e-06
6.79763e-05
-8.31562e-06
3.62888e-05
-9.86369e-06
4.30244e-05
-8.20885e-05
5.38681e-05
-3.69075e-05
6.27809e-05
-9.67343e-07
7.25901e-05
4.1006e-05
7.04484e-05
4.07092e-05
6.35764e-05
5.19963e-05
6.40842e-05
6.81835e-05
6.04663e-05
8.92288e-05
5.21009e-05
-7.49443e-06
4.34399e-05
-6.30655e-05
4.1818e-05
-4.4287e-05
4.21359e-05
-3.54504e-05
3.69883e-05
-3.65097e-05
2.72828e-05
-3.42315e-05
1.60632e-05
-7.81539e-07
-1.78124e-05
0.000119947
-1.25168e-05
9.97116e-05
-2.19024e-05
3.8291e-05
2.16168e-06
4.39938e-05
-6.68089e-05
4.60938e-05
-9.74109e-05
4.38513e-05
-6.05232e-05
5.22218e-05
3.67667e-05
5.6276e-05
5.95065e-05
5.40072e-05
6.4493e-05
5.84134e-05
8.24702e-05
5.79371e-05
9.53203e-05
5.69885e-05
1.38475e-05
5.31774e-05
8.37188e-06
4.20932e-05
-3.39871e-05
3.90167e-05
-3.65325e-05
3.03785e-05
-3.59527e-05
2.11409e-05
-2.85398e-05
1.04512e-05
4.48808e-06
-7.59697e-06
0.0001013
-1.89611e-05
0.000113236
-5.21499e-05
3.22623e-05
3.58048e-05
4.1755e-05
-4.10126e-05
4.24354e-05
-0.000101006
4.2092e-05
-8.17672e-05
3.93812e-05
-1.85167e-05
4.39202e-05
4.38731e-05
4.91337e-05
5.41956e-05
4.87063e-05
6.0536e-05
4.82454e-05
7.25319e-05
5.06332e-05
6.03911e-05
4.66388e-05
1.68677e-05
4.58306e-05
7.99335e-06
3.90071e-05
-3.7312e-05
2.75469e-05
-1.22546e-05
1.87219e-05
-3.33799e-05
7.52553e-06
1.01881e-05
2.98322e-05
0.000108714
-2.9024e-05
8.36636e-05
-5.8697e-05
1.79079e-05
-8.4337e-05
4.12442e-05
-3.76977e-05
4.20804e-05
-8.25777e-05
3.91605e-05
-3.0116e-05
3.76126e-05
-1.05899e-05
3.7975e-05
2.20078e-05
4.25806e-05
5.00947e-05
4.04909e-05
5.53642e-05
3.94671e-05
6.36847e-05
4.24954e-05
8.32289e-05
4.63643e-05
5.08932e-05
4.58983e-05
2.79724e-05
4.0231e-05
8.4146e-05
2.46142e-05
0.000157049
1.49679e-05
0.000119619
6.842e-06
-7.52557e-07
4.48941e-05
9.88499e-05
-2.40113e-05
5.65197e-05
-2.16236e-05
-1.96666e-06
-5.87398e-06
-3.0725e-06
-7.3845e-06
-2.43802e-06
-1.02989e-05
-3.02166e-07
-1.19043e-05
1.57435e-06
-1.11814e-05
4.4747e-06
-1.26129e-05
5.10251e-06
-7.03871e-06
8.58637e-07
2.97177e-07
-6.41004e-06
4.8289e-06
-1.5367e-05
8.43762e-06
-2.28847e-05
1.14903e-05
-2.38752e-05
1.28593e-05
-2.14063e-05
2.27613e-05
-2.61542e-05
3.95701e-05
-3.68659e-05
3.18882e-05
-4.53762e-05
1.09964e-05
-4.90952e-05
-4.16789e-06
-4.902e-05
-1.35917e-05
-4.10553e-05
-2.55633e-05
-2.58361e-05
-3.58583e-05
-7.94693e-06
-4.71238e-05
3.25139e-06
-4.5475e-05
-3.78476e-05
1.5118e-05
-1.65562e-06
-3.76389e-06
-2.40501e-06
-6.2998e-06
-1.96346e-06
-1.0656e-05
5.80141e-07
-1.41601e-05
3.42963e-06
-1.37301e-05
5.21371e-06
-1.47203e-05
4.93026e-06
-7.122e-06
5.41599e-06
5.54007e-07
4.84618e-06
6.01724e-06
2.5507e-06
1.11707e-05
-6.28349e-07
1.49086e-05
-3.64628e-06
1.59436e-05
-3.74668e-06
2.28347e-05
5.69672e-06
3.08995e-05
1.52628e-05
3.30362e-05
1.47535e-05
1.70335e-05
7.80673e-06
-2.02339e-06
2.85748e-06
-1.54189e-05
4.64091e-06
-3.78864e-05
1.48548e-05
-6.03273e-05
2.35039e-05
-6.77156e-05
3.07567e-05
-6.18058e-05
-6.12502e-05
4.46212e-05
-4.51326e-06
2.97906e-07
-9.07439e-06
-7.05841e-07
-8.24929e-06
1.3466e-06
-1.23322e-06
-1.5636e-05
4.57621e-06
-1.70958e-05
7.39326e-06
2.18752e-05
5.86253e-06
4.86706e-05
-8.74794e-07
6.34667e-06
-6.61447e-06
9.68309e-06
-9.69413e-06
1.21246e-05
-9.51773e-06
1.30749e-05
-7.0994e-06
1.25426e-05
1.25381e-07
1.53097e-05
1.19791e-05
1.90326e-05
2.73043e-05
1.96045e-05
4.24455e-05
1.1857e-05
5.55943e-05
3.20453e-06
6.81547e-05
-7.5631e-06
7.39448e-05
-2.09186e-05
7.73634e-05
-2.42775e-05
7.99787e-05
-5.91565e-06
9.02253e-05
1.19713e-05
2.71558e-05
0.00010367
-1.12354e-05
7.43983e-05
-1.90717e-05
6.57942e-05
-1.16957e-05
4.82391e-05
-7.8904e-06
6.24311e-05
-4.86067e-06
7.20299e-05
-1.44869e-05
7.74344e-05
-2.52325e-05
7.28108e-05
-2.33312e-05
6.699e-05
-2.04683e-05
6.71979e-05
-1.92556e-05
6.58456e-05
-1.78408e-05
6.20655e-05
-1.45678e-05
6.30372e-05
-8.54666e-06
7.67909e-05
1.44782e-06
6.74353e-05
1.44027e-05
5.74094e-05
2.82798e-05
4.34323e-05
4.12485e-05
3.74861e-05
5.70592e-05
3.87356e-05
6.70612e-05
3.33701e-05
7.73609e-05
2.71054e-05
8.89024e-05
2.42023e-05
0.000101818
2.60919e-05
2.66874e-05
0.000102828
-6.04768e-06
7.85716e-05
-1.47824e-05
7.91643e-05
-3.36092e-05
9.97165e-05
-7.85968e-05
0.000152003
-0.000111997
0.000119545
-0.000130333
6.86852e-05
-0.000131343
5.32835e-05
-0.000116591
6.67119e-05
-9.9087e-05
7.89875e-05
-7.96495e-05
9.58608e-05
-6.69835e-05
0.000102412
-5.51427e-05
8.79005e-05
-4.32992e-05
6.74967e-05
-1.82472e-05
6.09488e-05
1.38485e-05
6.00435e-05
2.59126e-05
5.16937e-05
4.57955e-05
5.24943e-05
4.83306e-05
4.102e-05
5.10217e-05
3.30992e-05
5.28772e-05
1.84351e-05
5.50828e-05
2.9899e-06
7.20217e-05
-2.32653e-05
-2.59162e-05
7.11373e-05
7.39425e-06
1.3936e-05
-1.39742e-05
3.85974e-05
-6.67868e-05
7.13318e-05
-9.95872e-05
6.72507e-05
-0.000117258
4.84098e-05
-0.000141238
2.50134e-05
-0.000150178
-1.58851e-06
-0.000124416
-2.48868e-05
-0.000108625
-4.34222e-06
-0.000111361
2.46929e-05
-0.000106747
3.72872e-05
-9.34235e-05
2.87713e-05
-7.32219e-05
2.48681e-05
-5.50111e-05
3.74785e-05
-3.80198e-05
3.41584e-05
-2.33149e-05
2.98409e-05
-9.19959e-06
1.6717e-05
2.38453e-06
-7.63359e-06
1.23535e-05
-1.71557e-05
1.78489e-05
-2.74899e-05
5.33492e-07
-3.46746e-05
-1.33878e-05
-5.07015e-05
1.2147e-05
-8.86773e-05
-9.50102e-06
1.91524e-05
-1.08087e-05
3.48744e-05
-6.43662e-06
6.01032e-05
-2.72842e-05
7.45188e-05
-2.29413e-05
3.27198e-05
4.64741e-05
-4.78273e-05
9.60733e-05
-5.42488e-05
6.96013e-05
-7.3544e-06
1.00478e-05
3.77942e-05
-3.11091e-05
3.89313e-05
-8.07463e-05
4.39154e-05
-9.41825e-05
-5.79414e-06
-7.24074e-05
-4.85415e-05
-5.52804e-05
-3.82185e-05
-5.02594e-05
-2.86851e-05
-4.54062e-05
-3.04209e-05
-5.30777e-05
-2.40222e-05
-8.0461e-05
-1.66574e-05
-0.000126354
-3.59328e-06
-0.000186324
4.97612e-06
-0.000213121
-1.69682e-05
-0.000227928
-3.79645e-05
-1.4888e-05
-0.000201515
-4.35743e-05
6.27215e-05
-3.9644e-05
3.09295e-05
-7.92512e-06
2.83217e-05
2.15791e-05
4.48696e-05
6.08326e-05
-6.59261e-06
5.41271e-05
-4.1122e-05
2.92521e-05
-2.93738e-05
-2.28459e-06
2.41824e-05
-3.13565e-05
6.68662e-05
-3.55987e-05
4.31727e-05
-1.59194e-05
2.42311e-05
1.95278e-05
-4.13168e-05
2.19013e-05
-5.10889e-05
1.41009e-05
-3.10057e-05
-1.52196e-06
-1.44927e-05
-2.55681e-05
-8.04793e-06
-4.00536e-05
-1.01932e-05
-4.75881e-05
-9.34399e-06
-4.25434e-05
-8.70642e-06
-2.06566e-05
-1.69176e-05
-2.15693e-05
-1.60557e-05
-5.07995e-05
-8.73429e-06
2.09296e-05
-8.66175e-05
-1.5558e-05
7.82796e-05
-8.44629e-06
2.38178e-05
8.71662e-06
1.11588e-05
4.20599e-05
1.15263e-05
4.92177e-05
-1.37504e-05
4.58652e-05
-3.77694e-05
3.2488e-05
-1.59966e-05
9.23899e-06
4.74314e-05
1.4516e-05
6.15891e-05
2.39877e-06
5.52899e-05
-1.07976e-05
3.74275e-05
-2.65303e-05
-2.55841e-05
-3.18852e-05
-4.57339e-05
-2.12847e-05
-4.16062e-05
-3.53253e-06
-3.22449e-05
1.55093e-05
-2.70897e-05
2.98765e-05
-2.45606e-05
3.98098e-05
-1.92773e-05
4.17297e-05
-1.06264e-05
2.59921e-05
-1.18004e-06
2.35445e-06
7.58187e-06
-2.36667e-05
1.72867e-05
3.82297e-05
-4.09671e-05
9.7575e-06
6.85221e-05
5.4492e-06
2.81261e-05
4.86148e-06
1.17465e-05
1.53873e-05
1.00053e-06
1.60965e-05
-1.44596e-05
8.00239e-06
-2.96753e-05
9.03735e-06
-1.70315e-05
1.48408e-05
4.1628e-05
2.4692e-05
5.17379e-05
3.42691e-05
4.57129e-05
5.16315e-05
2.0065e-05
4.0049e-05
-1.40015e-05
2.39163e-05
-2.96012e-05
1.59319e-05
-3.36218e-05
1.25186e-05
-2.88315e-05
8.59327e-06
-2.31644e-05
2.88351e-06
-1.88509e-05
-2.94843e-06
-1.34455e-05
-4.91016e-06
-8.66482e-06
-4.45977e-06
-1.63056e-06
-9.10823e-06
1.22302e-05
-1.76169e-05
2.57954e-05
4.10237e-05
-2.04112e-05
1.46357e-05
5.38864e-05
1.64462e-05
2.63156e-05
2.03078e-05
7.88491e-06
2.21613e-05
-8.52949e-07
1.43511e-05
-6.64938e-06
-1.51371e-06
-1.38104e-05
-5.5388e-06
-1.30064e-05
1.76113e-05
1.84779e-05
3.73793e-05
3.197e-05
5.31544e-05
2.99378e-05
5.44649e-05
1.87546e-05
3.45447e-05
5.91878e-06
1.72207e-05
-1.22772e-05
5.37948e-06
-2.17805e-05
-2.87709e-07
-2.31643e-05
-2.35521e-06
-2.1097e-05
-3.074e-06
-1.81321e-05
-2.84989e-06
-1.36697e-05
-4.40021e-06
-7.11459e-06
-9.02058e-06
2.9897e-06
-1.08436e-05
1.40531e-05
-1.25104e-05
2.7462e-05
4.05598e-05
-1.20466e-05
1.45281e-05
3.93583e-05
1.6955e-05
2.38887e-05
1.42919e-05
1.0548e-05
1.02166e-05
3.22233e-06
5.49147e-06
-1.92425e-06
-2.03425e-06
-6.28468e-06
-9.97892e-06
-5.06169e-06
3.212e-06
5.28703e-06
2.1306e-05
1.3876e-05
2.94103e-05
2.18335e-05
2.82502e-05
1.99147e-05
2.57012e-05
8.4678e-06
1.76685e-05
-4.2445e-06
8.30569e-06
-1.24177e-05
3.98016e-07
-1.52567e-05
-5.9411e-06
-1.47579e-05
-1.10388e-05
-1.30345e-05
-1.53616e-05
-9.34694e-06
-2.06049e-05
-1.87143e-06
-2.41154e-05
6.50021e-06
-2.5732e-05
1.56695e-05
-2.3855e-05
2.55851e-05
3.53486e-05
-1.86441e-05
1.01441e-05
2.92142e-05
1.45553e-05
1.94775e-05
1.49304e-05
1.0173e-05
1.26515e-05
5.5013e-06
7.82238e-06
2.90484e-06
3.73209e-07
1.1645e-06
-6.46854e-06
1.78006e-06
-7.31576e-06
6.13426e-06
-1.86454e-06
8.42478e-06
5.08634e-06
1.48826e-05
9.21958e-06
1.57814e-05
8.53012e-06
9.15726e-06
4.06389e-06
2.21731e-07
-2.2631e-06
-6.09077e-06
-7.84861e-06
-9.67122e-06
-1.26285e-05
-9.97809e-06
-1.74291e-05
-8.23386e-06
-2.18171e-05
-4.95902e-06
-2.3496e-05
-1.92476e-07
-2.42962e-05
7.30029e-06
-2.40421e-05
1.54155e-05
-2.22822e-05
2.38249e-05
3.07351e-05
-1.76687e-05
6.55699e-06
2.26572e-05
1.01924e-05
1.58421e-05
9.90821e-06
1.04572e-05
7.91342e-06
7.49609e-06
5.16846e-06
5.6498e-06
1.70529e-06
4.62768e-06
-1.64976e-06
5.13511e-06
-2.66472e-06
7.14923e-06
-2.33092e-06
8.09098e-06
1.22208e-06
1.13296e-05
4.73025e-06
1.22733e-05
4.25403e-06
9.63348e-06
7.37377e-07
3.73838e-06
-4.10659e-06
-1.24681e-06
-9.04507e-06
-4.73275e-06
-1.28918e-05
-6.1314e-06
-1.60164e-05
-5.10924e-06
-1.87065e-05
-2.26889e-06
-2.17594e-05
2.86039e-06
-2.26695e-05
8.21044e-06
-2.14396e-05
1.41855e-05
-1.83208e-05
2.07062e-05
2.62095e-05
-1.37955e-05
3.71285e-06
1.89444e-05
6.26193e-06
1.32931e-05
6.23126e-06
1.04878e-05
5.06897e-06
8.65838e-06
3.49559e-06
7.22318e-06
1.53418e-06
6.58909e-06
2.1048e-08
6.64824e-06
-3.55153e-07
7.52543e-06
-1.95935e-07
7.93176e-06
1.15962e-06
9.97408e-06
3.09738e-06
1.03355e-05
3.78497e-06
8.94589e-06
2.06587e-06
5.45748e-06
-1.41969e-06
2.23872e-06
-5.64225e-06
-5.10186e-07
-9.43153e-06
-2.34209e-06
-1.24343e-05
-2.10646e-06
-1.48795e-05
1.76394e-07
-1.65303e-05
4.5112e-06
-1.74069e-05
9.08703e-06
-1.66961e-05
1.34747e-05
-1.4446e-05
1.8456e-05
2.29991e-05
-1.12357e-05
2.34433e-06
1.66e-05
3.5843e-06
1.20531e-05
3.66214e-06
1.041e-05
3.26848e-06
9.05203e-06
2.53371e-06
7.95795e-06
1.70035e-06
7.42244e-06
1.12378e-06
7.22481e-06
1.01348e-06
7.63572e-06
1.0871e-06
7.85814e-06
2.07593e-06
8.98525e-06
3.28655e-06
9.12489e-06
4.05839e-06
8.17406e-06
3.62974e-06
5.8861e-06
1.99632e-06
3.87216e-06
-5.31732e-07
2.01788e-06
-3.74675e-06
8.7289e-07
-6.90863e-06
1.05542e-06
-9.50758e-06
2.77538e-06
-1.12866e-05
6.29018e-06
-1.26313e-05
1.04317e-05
-1.26415e-05
1.3485e-05
-1.08029e-05
1.66173e-05
2.0247e-05
-8.05074e-06
1.40316e-06
1.51969e-05
2.29486e-06
1.11614e-05
2.60549e-06
1.00994e-05
2.4985e-06
9.15903e-06
2.12753e-06
8.32891e-06
1.73223e-06
7.81773e-06
1.40705e-06
7.54999e-06
1.40017e-06
7.64259e-06
1.52478e-06
7.73353e-06
2.29963e-06
8.21039e-06
3.23182e-06
8.1927e-06
4.03753e-06
7.36834e-06
3.92044e-06
6.00319e-06
2.9029e-06
4.88968e-06
1.15726e-06
3.76343e-06
-1.38526e-06
3.41543e-06
-4.26154e-06
3.93158e-06
-6.81937e-06
5.33309e-06
-8.42668e-06
7.89742e-06
-9.46657e-06
1.14715e-05
-9.73563e-06
1.3754e-05
-8.45955e-06
1.53413e-05
1.78479e-05
-6.06072e-06
9.39126e-07
1.42577e-05
1.65903e-06
1.04415e-05
2.02825e-06
9.73014e-06
2.09227e-06
9.09499e-06
1.86677e-06
8.55441e-06
1.52394e-06
8.16056e-06
1.15493e-06
7.91899e-06
9.47065e-07
7.85045e-06
8.60889e-07
7.8197e-06
1.31288e-06
7.75839e-06
1.99276e-06
7.51281e-06
2.37274e-06
6.98836e-06
1.97386e-06
6.40204e-06
1.07632e-06
5.78718e-06
-5.03764e-07
5.34355e-06
-2.71918e-06
5.63063e-06
-4.75715e-06
5.96941e-06
-6.23777e-06
6.81361e-06
-7.21902e-06
8.87847e-06
-7.38574e-06
1.16381e-05
-6.97327e-06
1.33414e-05
-5.64485e-06
1.40127e-05
1.56717e-05
-3.46847e-06
7.08177e-07
1.35496e-05
1.26981e-06
9.87986e-06
1.51865e-06
9.4813e-06
1.5315e-06
9.08214e-06
1.32884e-06
8.75707e-06
1.00251e-06
8.48687e-06
6.66668e-07
8.25482e-06
3.98564e-07
8.11854e-06
2.21845e-07
7.99641e-06
2.17611e-07
7.76261e-06
2.68616e-07
7.4618e-06
1.31927e-07
7.12503e-06
-2.68403e-07
6.80237e-06
-9.62319e-07
6.48108e-06
-2.08733e-06
6.46837e-06
-3.29733e-06
6.84063e-06
-4.37139e-06
7.04336e-06
-5.32004e-06
7.76215e-06
-5.87487e-06
9.43317e-06
-5.58969e-06
1.13527e-05
-4.57044e-06
1.2322e-05
-3.19788e-06
1.264e-05
1.40436e-05
-1.57009e-06
5.50151e-07
1.29994e-05
8.35276e-07
9.59472e-06
9.7169e-07
9.34488e-06
1.01523e-06
9.03859e-06
9.63776e-07
8.80851e-06
8.54192e-07
8.59645e-06
7.07415e-07
8.40159e-06
5.30811e-07
8.29514e-06
3.75093e-07
8.15212e-06
1.78677e-07
7.95902e-06
-7.44319e-09
7.64791e-06
-3.13093e-07
7.43067e-06
-8.32806e-07
7.32205e-06
-1.42866e-06
7.0769e-06
-2.00622e-06
7.04598e-06
-2.33366e-06
7.16795e-06
-2.90866e-06
7.61831e-06
-3.62989e-06
8.48329e-06
-3.78338e-06
9.58655e-06
-3.29639e-06
1.08656e-05
-2.41805e-06
1.14436e-05
-1.32391e-06
1.15457e-05
1.26357e-05
8.39467e-08
3.56502e-07
1.26429e-05
5.82198e-07
9.36903e-06
7.59671e-07
9.1674e-06
8.57954e-07
8.9403e-06
9.09023e-07
8.75743e-06
9.22476e-07
8.58299e-06
8.77703e-07
8.44635e-06
8.16396e-07
8.35644e-06
7.03578e-07
8.26493e-06
5.0736e-07
8.15523e-06
2.37235e-07
7.91802e-06
-6.87454e-08
7.73663e-06
-4.54034e-07
7.70733e-06
-9.34347e-07
7.55724e-06
-1.39905e-06
7.51057e-06
-1.84103e-06
7.60998e-06
-2.38302e-06
8.16025e-06
-2.72756e-06
8.82777e-06
-2.69133e-06
9.55024e-06
-2.3072e-06
1.04813e-05
-1.66816e-06
1.08044e-05
-9.66126e-07
1.08436e-05
1.16271e-05
4.22137e-08
2.70221e-07
1.23727e-05
4.88484e-07
9.15075e-06
6.58133e-07
8.99774e-06
7.18062e-07
8.88037e-06
7.51404e-07
8.72408e-06
7.47221e-07
8.58716e-06
7.35826e-07
8.45774e-06
7.51792e-07
8.34046e-06
7.7244e-07
8.24427e-06
6.99721e-07
8.22794e-06
4.8031e-07
8.13742e-06
2.55319e-07
7.96162e-06
1.03566e-07
7.85907e-06
-2.17971e-07
7.87873e-06
-6.39788e-07
7.93246e-06
-1.18588e-06
8.15601e-06
-1.43824e-06
8.4126e-06
-1.36612e-06
8.75562e-06
-1.19267e-06
9.37673e-06
-6.61518e-07
9.95011e-06
1.40249e-08
1.01287e-05
5.92076e-07
1.02654e-05
1.0999e-05
1.22009e-06
2.29436e-07
1.21433e-05
3.33517e-07
9.04667e-06
3.89046e-07
8.94221e-06
4.18197e-07
8.85121e-06
4.20549e-07
8.72172e-06
3.92762e-07
8.61494e-06
3.46166e-07
8.50433e-06
2.92611e-07
8.39401e-06
2.38096e-07
8.29878e-06
1.9216e-07
8.27387e-06
6.39394e-08
8.26563e-06
-1.39119e-07
8.16466e-06
-3.39188e-07
8.05914e-06
-4.95118e-07
8.03468e-06
-6.97553e-07
8.13483e-06
-9.82506e-07
8.44102e-06
-1.19868e-06
8.62877e-06
-1.32283e-06
8.87976e-06
-1.19628e-06
9.25013e-06
-7.77411e-07
9.53117e-06
-2.69913e-07
9.62114e-06
2.53452e-07
9.74198e-06
1.0145e-05
1.10728e-06
1.67136e-07
1.19761e-05
2.57319e-07
8.95648e-06
3.24483e-07
8.87504e-06
3.75397e-07
8.80029e-06
3.82417e-07
8.71469e-06
3.61179e-07
8.63617e-06
3.08793e-07
8.5567e-06
2.36016e-07
8.46677e-06
1.414e-07
8.39338e-06
4.9872e-08
8.36538e-06
-4.53498e-08
8.36084e-06
-2.16142e-07
8.33544e-06
-4.82479e-07
8.32546e-06
-6.96729e-07
8.2489e-06
-8.63058e-07
8.30124e-06
-7.80601e-07
8.35852e-06
-6.47513e-07
8.49572e-06
-6.0779e-07
8.84003e-06
-3.70248e-07
9.01257e-06
-1.83907e-08
9.17925e-06
3.05676e-07
9.29701e-06
7.03465e-07
9.34406e-06
9.27402e-06
1.57435e-06
1.77013e-07
1.17991e-05
2.66213e-07
8.86728e-06
3.29637e-07
8.81161e-06
3.73821e-07
8.75609e-06
3.86053e-07
8.70245e-06
3.80693e-07
8.64152e-06
3.64246e-07
8.57314e-06
3.2022e-07
8.51079e-06
2.30263e-07
8.48333e-06
1.5126e-07
8.44438e-06
1.18062e-07
8.39403e-06
7.79662e-08
8.37552e-06
5.48236e-09
8.39793e-06
-1.99762e-07
8.45418e-06
-3.74461e-07
8.47588e-06
-5.45476e-07
8.52962e-06
-7.61947e-07
8.71221e-06
-6.94512e-07
8.7726e-06
-4.87645e-07
8.80568e-06
-1.98705e-07
8.89026e-06
1.10635e-07
8.98757e-06
5.87536e-07
8.86712e-06
8.62237e-06
1.23902e-06
1.03293e-07
1.16958e-05
1.51772e-07
8.81879e-06
2.02352e-07
8.76102e-06
2.33893e-07
8.72455e-06
2.43837e-07
8.6925e-06
2.28279e-07
8.65707e-06
1.93516e-07
8.60789e-06
1.38475e-07
8.56582e-06
8.28591e-08
8.53894e-06
-3.07256e-09
8.5303e-06
-1.47055e-07
8.538e-06
-2.86212e-07
8.51467e-06
-3.53703e-07
8.46542e-06
-4.50613e-07
8.55107e-06
-5.45633e-07
8.57098e-06
-5.91511e-07
8.57549e-06
-4.6888e-07
8.58961e-06
-2.86452e-07
8.5902e-06
-1.98416e-07
8.71762e-06
-5.43518e-08
8.74615e-06
2.56625e-07
8.67653e-06
6.20821e-07
8.50281e-06
8.24916e-06
9.93966e-07
1.14581e-07
1.15812e-05
1.6952e-07
8.76385e-06
2.15087e-07
8.71545e-06
2.50868e-07
8.68876e-06
2.77831e-07
8.66553e-06
2.88553e-07
8.64634e-06
2.74405e-07
8.62203e-06
2.4011e-07
8.60011e-06
2.02605e-07
8.57643e-06
1.55976e-07
8.57691e-06
7.22413e-08
8.62172e-06
-5.31966e-08
8.6401e-06
-2.11372e-07
8.62359e-06
-2.42041e-07
8.58176e-06
-2.27592e-07
8.5565e-06
-2.3905e-07
8.58702e-06
-3.04861e-07
8.65545e-06
-4.65905e-07
8.75126e-06
-4.13355e-07
8.66506e-06
-2.02545e-07
8.53529e-06
7.57434e-08
8.39816e-06
3.19717e-07
8.25879e-06
7.9066e-06
6.62137e-07
9.38649e-08
1.14873e-05
1.34748e-07
8.72296e-06
1.7172e-07
8.67847e-06
1.867e-07
8.67377e-06
1.84709e-07
8.66751e-06
1.74603e-07
8.65643e-06
1.42758e-07
8.65386e-06
8.77911e-08
8.65506e-06
1.25988e-08
8.65161e-06
-4.02781e-08
8.62978e-06
-3.11117e-08
8.61254e-06
-2.9101e-08
8.63808e-06
-9.21564e-08
8.68664e-06
-2.52982e-07
8.74257e-06
-4.70585e-07
8.77419e-06
-5.64932e-07
8.68136e-06
-5.60063e-07
8.65065e-06
-3.79625e-07
8.57085e-06
-2.20819e-07
8.50625e-06
-1.70888e-07
8.48532e-06
-1.58324e-07
8.38554e-06
4.21633e-09
8.09615e-06
7.71586e-06
1.94892e-07
9.32361e-08
1.13941e-05
1.44418e-07
8.67177e-06
2.0044e-07
8.62244e-06
2.45595e-07
8.62861e-06
2.76023e-07
8.63707e-06
2.87772e-07
8.64467e-06
2.83329e-07
8.6583e-06
2.62773e-07
8.67561e-06
2.14355e-07
8.70002e-06
1.08067e-07
8.73606e-06
-5.17218e-08
8.77233e-06
-2.03681e-07
8.79003e-06
-2.82791e-07
8.76575e-06
-2.88557e-07
8.74838e-06
-2.16841e-07
8.70244e-06
-2.13009e-07
8.67762e-06
-2.49874e-07
8.68754e-06
-3.7011e-07
8.69111e-06
-5.11328e-07
8.64747e-06
-5.04825e-07
8.47877e-06
-3.5707e-07
8.2377e-06
-2.84101e-07
8.02313e-06
7.69053e-06
-2.58905e-07
7.8322e-08
1.13158e-05
1.16946e-07
8.63314e-06
1.5404e-07
8.58533e-06
1.77929e-07
8.60471e-06
1.86275e-07
8.62872e-06
1.75353e-07
8.65559e-06
1.47216e-07
8.68643e-06
1.0631e-07
8.71651e-06
6.16467e-08
8.74468e-06
3.55506e-08
8.76215e-06
3.96827e-08
8.76818e-06
3.94043e-08
8.7903e-06
-2.03635e-08
8.82552e-06
-1.20528e-07
8.84853e-06
-2.94675e-07
8.87667e-06
-4.79126e-07
8.86207e-06
-5.82875e-07
8.79133e-06
-6.07407e-07
8.71567e-06
-5.45238e-07
8.58529e-06
-5.43469e-07
8.47697e-06
-6.27273e-07
8.32145e-06
-6.66252e-07
8.06201e-06
7.72692e-06
-7.02704e-07
9.92232e-08
1.12165e-05
1.68434e-07
8.56392e-06
2.36454e-07
8.51731e-06
2.88426e-07
8.55273e-06
3.23959e-07
8.59318e-06
3.35402e-07
8.64414e-06
3.20222e-07
8.7016e-06
2.77635e-07
8.75909e-06
2.08746e-07
8.81356e-06
1.09494e-07
8.86139e-06
-2.67446e-08
8.90442e-06
-1.66496e-07
8.93005e-06
-2.81489e-07
8.94052e-06
-3.69555e-07
8.93663e-06
-4.05044e-07
8.91213e-06
-4.14201e-07
8.87131e-06
-4.61431e-07
8.8386e-06
-5.46984e-07
8.80125e-06
-6.99918e-07
8.73822e-06
-8.17409e-07
8.59442e-06
-8.82614e-07
8.38658e-06
-9.80028e-07
8.15938e-06
7.87325e-06
-1.12648e-06
9.28485e-08
1.11237e-05
1.50089e-07
8.50667e-06
2.05887e-07
8.4615e-06
2.45533e-07
8.51307e-06
2.70193e-07
8.56851e-06
2.78886e-07
8.63544e-06
2.70622e-07
8.70985e-06
2.44417e-07
8.78528e-06
2.02207e-07
8.85576e-06
1.49261e-07
8.91433e-06
8.97406e-08
8.96393e-06
1.85373e-08
9.00125e-06
-6.59616e-08
9.02502e-06
-1.73187e-07
9.04385e-06
-3.09991e-07
9.04903e-06
-4.73453e-07
9.03476e-06
-6.3046e-07
8.99567e-06
-7.50713e-07
8.92153e-06
-8.36282e-07
8.82379e-06
-9.49619e-07
8.70772e-06
-1.11471e-06
8.55162e-06
-1.29247e-06
8.33706e-06
8.08363e-06
-1.5029e-06
1.23899e-07
1.09998e-05
2.02484e-07
8.42808e-06
2.76778e-07
8.3872e-06
3.36265e-07
8.45358e-06
3.80403e-07
8.52436e-06
4.06736e-07
8.60909e-06
4.09759e-07
8.70682e-06
3.85715e-07
8.80932e-06
3.30157e-07
8.91131e-06
2.5012e-07
8.99436e-06
1.39651e-07
9.07439e-06
7.59102e-09
9.13331e-06
-1.31101e-07
9.16371e-06
-2.63085e-07
9.17589e-06
-3.90018e-07
9.17592e-06
-5.03231e-07
9.14807e-06
-6.28273e-07
9.12074e-06
-7.76904e-07
9.07018e-06
-9.50195e-07
8.99708e-06
-1.13058e-06
8.88808e-06
-1.32417e-06
8.74514e-06
-1.54953e-06
8.56239e-06
8.35856e-06
-1.82458e-06
1.30986e-07
1.08688e-05
1.97451e-07
8.36161e-06
2.6065e-07
8.32399e-06
3.12577e-07
8.40165e-06
3.55318e-07
8.48161e-06
3.91739e-07
8.57267e-06
4.2401e-07
8.67454e-06
4.45585e-07
8.78774e-06
4.37039e-07
8.91985e-06
3.91044e-07
9.04035e-06
3.03379e-07
9.16205e-06
1.78617e-07
9.25807e-06
2.22751e-08
9.32007e-06
-1.53746e-07
9.3519e-06
-3.33443e-07
9.35571e-06
-5.2101e-07
9.33563e-06
-7.00119e-07
9.29988e-06
-8.77873e-07
9.24797e-06
-1.05976e-06
9.17896e-06
-1.2596e-06
9.0879e-06
-1.49378e-06
8.97927e-06
-1.76945e-06
8.83798e-06
8.67565e-06
-2.08659e-06
1.56779e-07
1.0712e-05
1.9057e-07
8.32781e-06
2.22381e-07
8.29218e-06
2.52225e-07
8.37179e-06
2.79042e-07
8.45479e-06
3.06787e-07
8.54492e-06
3.37932e-07
8.64339e-06
3.62991e-07
8.76268e-06
3.8284e-07
8.9e-06
3.79873e-07
9.04331e-06
3.52864e-07
9.18906e-06
2.82762e-07
9.32817e-06
1.6746e-07
9.43538e-06
-4.12076e-09
9.52352e-06
-2.17522e-07
9.56908e-06
-4.5436e-07
9.57255e-06
-6.89356e-07
9.53491e-06
-9.1184e-07
9.47048e-06
-1.13385e-06
9.40098e-06
-1.36986e-06
9.32389e-06
-1.62965e-06
9.23902e-06
-1.9323e-06
9.14061e-06
9.02683e-06
-2.28359e-06
1.46823e-07
1.05652e-05
1.0621e-07
8.36842e-06
5.68649e-08
8.34151e-06
2.84853e-08
8.40017e-06
2.22984e-09
8.48104e-06
-1.66407e-08
8.56378e-06
-2.59964e-08
8.65274e-06
-2.67138e-08
8.76339e-06
-1.04742e-08
8.88375e-06
9.44638e-09
9.02339e-06
2.31374e-08
9.17536e-06
1.89008e-08
9.33242e-06
-1.55178e-08
9.46981e-06
-8.07352e-08
9.58873e-06
-1.87963e-07
9.67642e-06
-3.51885e-07
9.73644e-06
-5.85914e-07
9.769e-06
-8.70655e-07
9.75525e-06
-1.15987e-06
9.69021e-06
-1.4367e-06
9.60071e-06
-1.72188e-06
9.52418e-06
-2.04455e-06
9.46321e-06
9.39837e-06
-2.41611e-06
9.24025e-08
1.04728e-05
-9.75707e-08
8.55839e-06
-2.87793e-07
8.53173e-06
-4.44189e-07
8.55656e-06
-5.69907e-07
8.60675e-06
-6.73418e-07
8.66729e-06
-7.50531e-07
8.72985e-06
-7.93979e-07
8.80683e-06
-8.03717e-07
8.89349e-06
-7.78366e-07
8.99803e-06
-7.26024e-07
9.12302e-06
-6.67894e-07
9.27429e-06
-6.19647e-07
9.42157e-06
-5.79264e-07
9.5484e-06
-5.76516e-07
9.67361e-06
-6.13117e-07
9.77316e-06
-6.94363e-07
9.85028e-06
-8.41069e-07
9.902e-06
-1.08206e-06
9.93122e-06
-1.40045e-06
9.9191e-06
-1.74737e-06
9.87107e-06
-2.098e-06
9.81384e-06
9.78555e-06
-2.48529e-06
-2.44957e-08
1.04972e-05
-4.08023e-07
8.94191e-06
-7.85164e-07
8.90887e-06
-1.11758e-06
8.88897e-06
-1.40404e-06
8.8932e-06
-1.64679e-06
8.91003e-06
-1.84573e-06
8.9288e-06
-1.99003e-06
8.95113e-06
-2.07498e-06
8.97844e-06