/*--------------------------------*- C++ -*----------------------------------*\
| =========                 |                                                 |
| \\      /  F ield         | OpenFOAM: The Open Source CFD Toolbox           |
|  \\    /   O peration     | Version:  2.4.0                                 |
|   \\  /    A nd           | Web:      www.OpenFOAM.org                      |
|    \\/     M anipulation  |                                                 |
\*---------------------------------------------------------------------------*/
FoamFile
{
    version     2.0;
    format      ascii;
    class       volVectorField;
    location    "0.65";
    object      U;
}
// * * * * * * * * * * * * * * * * * * * * * * * * * * * * * * * * * * * * * //

dimensions      [0 1 -1 0 0 0 0];

internalField   nonuniform List<vector> 
2268
(
(0.013151 0.00091501 0)
(0.036283 -0.000217646 0)
(0.063927 0.0045021 0)
(0.0773026 -2.82029e-05 0)
(0.110014 -0.00076497 0)
(0.136324 0.00381854 0)
(0.148214 0.00600267 0)
(0.162356 0.0103028 0)
(0.173106 0.0101092 0)
(0.191112 0.0163744 0)
(0.193275 0.0349808 0)
(0.177458 0.0387455 0)
(0.141989 0.0325313 0)
(0.0843254 0.0224991 0)
(0.0269896 0.0101789 0)
(-0.0201037 -0.0058667 0)
(-0.0471597 -0.00489818 0)
(-0.0732601 -0.00682586 0)
(-0.0810208 0.0005623 0)
(-0.0853457 -0.00824173 0)
(-0.0511242 -0.00445431 0)
(-0.0374011 -0.000703912 0)
(-0.0347174 -0.00617304 0)
(0.0141641 -0.0286868 0)
(0.0350144 -0.0307641 0)
(0.0640224 -0.0248582 0)
(0.0802246 -0.0303446 0)
(0.109965 -0.0305842 0)
(0.134816 -0.0247218 0)
(0.150941 -0.0257304 0)
(0.166608 -0.0247029 0)
(0.185534 -0.0292983 0)
(0.1992 -0.0330105 0)
(0.19393 -0.0334943 0)
(0.172543 -0.0196759 0)
(0.134549 0.0112529 0)
(0.0825248 0.031003 0)
(0.0218466 0.0381752 0)
(-0.0222842 0.0356942 0)
(-0.0477349 0.0274112 0)
(-0.0681169 0.0187936 0)
(-0.0811518 0.00521688 0)
(-0.0739564 -0.00596493 0)
(-0.0557454 -0.0176752 0)
(-0.031098 -0.00770714 0)
(-0.0239694 -0.0280044 0)
(0.0151005 -0.0072004 0)
(0.032798 -0.00942381 0)
(0.0625417 -0.00138835 0)
(0.0869016 -0.00934086 0)
(0.104941 -0.0103597 0)
(0.130466 -0.00228989 0)
(0.147741 0.00130408 0)
(0.167141 0.00814689 0)
(0.18448 0.00947085 0)
(0.184464 0.0258845 0)
(0.184017 0.0638302 0)
(0.186228 0.091131 0)
(0.161693 0.086053 0)
(0.111141 0.0771403 0)
(0.0417653 0.0567561 0)
(-0.0232219 0.0328157 0)
(-0.0641087 0.0248618 0)
(-0.0817365 0.0155129 0)
(-0.0940173 0.00659255 0)
(-0.0703132 -0.0186266 0)
(-0.0478049 -0.0252693 0)
(-0.0103949 -0.0154648 0)
(0.00467378 -0.0306335 0)
(0.0159915 -0.1008 0)
(0.0291804 -0.10234 0)
(0.0564695 -0.0970815 0)
(0.0890715 -0.102068 0)
(0.0981839 -0.0998211 0)
(0.119192 -0.0932421 0)
(0.14632 -0.0918699 0)
(0.172539 -0.088811 0)
(0.189446 -0.086434 0)
(0.194267 -0.0771412 0)
(0.193088 -0.0646168 0)
(0.173413 -0.0403236 0)
(0.131893 0.0385279 0)
(0.0826399 0.111219 0)
(0.0172996 0.107689 0)
(-0.034265 0.0737031 0)
(-0.0673087 0.044775 0)
(-0.0820143 0.0216907 0)
(-0.0938364 0.00152201 0)
(-0.0712133 -0.029518 0)
(-0.0582088 -0.0461852 0)
(-0.0112941 -0.030193 0)
(0.00219982 -0.0306933 0)
(0.00830501 0.127809 0)
(0.0190489 0.133302 0)
(0.0345444 0.124757 0)
(0.0586424 0.136468 0)
(0.0637798 0.141479 0)
(0.0697823 0.1396 0)
(0.0918135 0.151095 0)
(0.101301 0.157798 0)
(0.0992655 0.175002 0)
(0.10074 0.195106 0)
(0.0905325 0.21988 0)
(0.105967 0.180268 0)
(0.111914 0.0961922 0)
(0.0595639 0.0915257 0)
(-0.0134145 0.108993 0)
(-0.0597907 0.0823933 0)
(-0.0813606 0.057157 0)
(-0.0869588 0.0333012 0)
(-0.0916249 -0.00132873 0)
(-0.0684756 -0.0359208 0)
(-0.0722528 -0.0544971 0)
(-0.0238559 -0.0469286 0)
(0.00575776 -0.0347339 0)
(-0.0059604 -0.171174 0)
(-0.000732696 -0.173338 0)
(-0.00695967 -0.175506 0)
(-0.0095879 -0.176351 0)
(-0.00405237 -0.173916 0)
(-0.00476998 -0.178863 0)
(-0.00674419 -0.177702 0)
(-0.0164218 -0.171942 0)
(-0.0190185 -0.170588 0)
(-0.014874 -0.170406 0)
(0.00971182 -0.148796 0)
(0.0553138 -0.014435 0)
(0.0633584 0.249123 0)
(-0.0555261 0.216501 0)
(-0.0678443 0.126766 0)
(-0.120624 0.0898637 0)
(-0.120531 0.0518764 0)
(-0.107004 0.0313151 0)
(-0.0929587 -0.00126814 0)
(-0.0663056 -0.0348512 0)
(-0.0773093 -0.0631236 0)
(-0.0494998 -0.0647863 0)
(-0.00156409 -0.0397079 0)
(-0.00573742 0.0140642 0)
(-0.0118509 0.017427 0)
(-0.0148157 0.009479 0)
(-0.0122709 0.0207225 0)
(-0.011643 0.0277697 0)
(-0.00069162 0.0237906 0)
(0.00871489 0.043534 0)
(-0.00430373 0.0577988 0)
(-0.0189077 0.0729764 0)
(-0.0455631 0.0842351 0)
(-0.0973567 0.0942148 0)
(-0.147214 0.0486009 0)
(-0.107432 0.0467068 0)
(-0.142463 0.241836 0)
(-0.196871 0.176205 0)
(-0.190963 0.102588 0)
(-0.179197 0.0500545 0)
(-0.139005 0.00385875 0)
(-0.106364 -0.0272219 0)
(-0.0792355 -0.0437147 0)
(-0.0809752 -0.0646916 0)
(-0.0550839 -0.0798444 0)
(-0.00299424 -0.0564012 0)
(-0.00533243 -0.0616755 0)
(-0.00953019 -0.0670605 0)
(-0.01482 -0.0741896 0)
(-0.0167003 -0.0770859 0)
(-0.0090452 -0.0783662 0)
(-0.0103065 -0.0837393 0)
(-0.0134649 -0.0726528 0)
(-0.0254699 -0.0642115 0)
(-0.0267367 -0.0630175 0)
(-0.0320232 -0.054397 0)
(-0.02695 -0.0200985 0)
(-0.0506949 0.0537711 0)
(-0.123915 0.153431 0)
(-0.172229 0.231677 0)
(-0.372474 0.216315 0)
(-0.333139 0.0666526 0)
(-0.307017 0.0299707 0)
(-0.230818 0.0188621 0)
(-0.172591 -0.0151999 0)
(-0.11552 -0.0344119 0)
(-0.0803091 -0.0713031 0)
(-0.0451361 -0.0978731 0)
(0.00273834 -0.0609689 0)
(-0.322422 -0.374321 0)
(-0.341032 -0.276767 0)
(-0.054196 -0.241653 0)
(0.214109 -0.209343 0)
(0.439514 -0.193008 0)
(0.585993 -0.182052 0)
(0.699002 -0.179995 0)
(0.774548 -0.193391 0)
(0.804097 -0.22386 0)
(0.801222 -0.247006 0)
(0.786826 -0.258654 0)
(0.763268 -0.28029 0)
(0.693 -0.299383 0)
(0.613809 -0.29254 0)
(0.554696 -0.261878 0)
(0.465763 -0.207228 0)
(0.292131 -0.14063 0)
(-0.0940005 -0.172742 0)
(-0.0116241 -0.242796 0)
(-0.317752 0.408234 0)
(-0.124408 0.0992837 0)
(0.18248 -0.139324 0)
(0.324403 -0.0890753 0)
(0.490804 -0.0300176 0)
(0.601728 0.0130133 0)
(0.674479 0.0305426 0)
(0.750876 0.0654919 0)
(0.790564 0.107903 0)
(0.802888 0.133628 0)
(0.834565 0.143109 0)
(0.875382 0.181486 0)
(0.853981 0.231696 0)
(0.79712 0.227835 0)
(0.703363 0.213157 0)
(0.634619 0.261134 0)
(0.469163 0.287006 0)
(0.0551372 0.214978 0)
(-0.00356696 0.109215 0)
(-0.281778 0.25581 0)
(0.118216 -0.229588 0)
(0.323333 -0.319234 0)
(0.486576 -0.27685 0)
(0.57961 -0.196461 0)
(0.623532 -0.140014 0)
(0.632215 -0.119126 0)
(0.651896 -0.0902686 0)
(0.674515 -0.0637429 0)
(0.689275 -0.0588782 0)
(0.6953 -0.0571052 0)
(0.705664 -0.0362343 0)
(0.693485 -0.011318 0)
(0.657398 0.00482923 0)
(0.566655 0.022736 0)
(0.469765 0.106399 0)
(0.40021 0.253501 0)
(0.0168373 0.1854 0)
(-0.0823648 -0.0798994 0)
(-0.130288 0.299169 0)
(0.362559 -0.284559 0)
(0.459979 -0.36106 0)
(0.554538 -0.27822 0)
(0.648088 -0.147085 0)
(0.662144 -0.0606323 0)
(0.662768 -0.0368577 0)
(0.641591 -0.00799284 0)
(0.612102 -0.00182116 0)
(0.589474 0.0117603 0)
(0.555991 0.0318755 0)
(0.556866 0.0620134 0)
(0.547896 0.128682 0)
(0.509633 0.154138 0)
(0.442742 0.188029 0)
(0.20938 0.38251 0)
(0.24797 0.363568 0)
(-0.111287 0.27209 0)
(-0.0553041 -0.00676991 0)
(0.284669 0.183061 0)
(0.444047 -0.344392 0)
(0.507612 -0.433282 0)
(0.539609 -0.330121 0)
(0.631847 -0.112721 0)
(0.712664 -0.0546946 0)
(0.734653 -0.0167877 0)
(0.734928 0.0123185 0)
(0.708608 0.0501593 0)
(0.616737 0.0509269 0)
(0.509349 0.00704484 0)
(0.466671 0.0409729 0)
(0.452166 0.0867335 0)
(0.42513 0.103472 0)
(0.356415 0.125316 0)
(0.222854 0.293978 0)
(0.0578322 0.470588 0)
(-0.251473 0.300155 0)
(0.0186168 -0.127018 0)
(0.423222 -0.0553878 0)
(0.447354 -0.395919 0)
(0.519761 -0.438655 0)
(0.535028 -0.316482 0)
(0.506878 -0.240864 0)
(0.593934 -0.10205 0)
(0.640681 -0.0685276 0)
(0.663613 -0.0630572 0)
(0.710511 -0.0264462 0)
(0.706152 0.0252114 0)
(0.582495 0.0748087 0)
(0.46195 0.0599058 0)
(0.42575 0.092405 0)
(0.39527 0.150786 0)
(0.270556 0.192087 0)
(0.222521 0.333991 0)
(0.0153258 0.638485 0)
(-0.283203 0.362468 0)
(0.0998007 -0.137941 0)
(0.391517 -0.257152 0)
(0.407541 -0.461844 0)
(0.487162 -0.432877 0)
(0.515021 -0.331723 0)
(0.478115 -0.224811 0)
(0.48257 -0.154971 0)
(0.539538 -0.0848397 0)
(0.563551 -0.0482061 0)
(0.617579 -0.000557485 0)
(0.628655 0.0398606 0)
(0.569006 0.0795451 0)
(0.470488 0.0981164 0)
(0.440167 0.0931683 0)
(0.38335 0.162517 0)
(0.230465 0.215354 0)
(0.176088 0.365017 0)
(0.0811051 0.658618 0)
(-0.268295 0.425335 0)
(0.182542 -0.192697 0)
(0.41021 -0.38166 0)
(0.401866 -0.450032 0)
(0.475481 -0.429705 0)
(0.499557 -0.323408 0)
(0.472351 -0.213815 0)
(0.455937 -0.137986 0)
(0.481312 -0.086309 0)
(0.495114 -0.0398971 0)
(0.523837 -0.015469 0)
(0.546258 0.0668814 0)
(0.529586 0.112733 0)
(0.506098 0.0951645 0)
(0.476425 0.121771 0)
(0.391419 0.249458 0)
(0.159948 0.265013 0)
(0.048472 0.438972 0)
(0.131523 0.681017 0)
(-0.272929 0.43949 0)
(0.262876 -0.228016 0)
(-0.00611606 -0.0598785 0)
(-0.0140983 -0.0600202 0)
(-0.0168346 -0.0629603 0)
(-0.00930842 -0.0582728 0)
(0.00494446 -0.04884 0)
(0.0138308 -0.0485958 0)
(0.0304409 -0.0173032 0)
(0.0190155 0.0133103 0)
(-0.00872138 0.0455376 0)
(-0.057637 0.0639018 0)
(-0.109076 0.0640978 0)
(-0.127799 0.0398792 0)
(-0.121647 0.0798543 0)
(-0.0818366 0.218712 0)
(-0.107394 0.304515 0)
(-0.246726 0.190222 0)
(-0.277938 -0.0411637 0)
(-0.275568 -0.160614 0)
(-0.252456 -0.168005 0)
(-0.183192 -0.151069 0)
(-0.0817383 -0.160409 0)
(-0.0121035 -0.176842 0)
(0.0510351 -0.123645 0)
(-0.00493793 0.0213642 0)
(-0.0121125 0.00606289 0)
(-0.0143268 -0.0237057 0)
(-0.0070946 -0.0482741 0)
(0.0126545 -0.0489906 0)
(0.0206683 -0.0598086 0)
(0.0334122 -0.0272595 0)
(0.0259617 0.00747717 0)
(0.0309958 0.0349345 0)
(0.0230669 0.0616824 0)
(0.00156016 0.0919057 0)
(-0.00789227 0.115733 0)
(-0.02814 0.159252 0)
(-0.0032648 0.215592 0)
(0.0793095 0.26532 0)
(0.1629 0.253575 0)
(0.131778 0.221043 0)
(0.0431671 0.127935 0)
(0.0081034 -0.0109901 0)
(0.0540355 -0.130872 0)
(0.132882 -0.188775 0)
(0.15654 -0.125867 0)
(0.231383 -0.102411 0)
(-0.0106014 -0.087128 0)
(-0.0382952 -0.101069 0)
(-0.0531021 -0.118309 0)
(-0.0306993 -0.134127 0)
(0.0137491 -0.12894 0)
(0.0302445 -0.126173 0)
(0.0472381 -0.0749282 0)
(0.0130825 -0.025678 0)
(-0.0191038 0.00275739 0)
(-0.0509206 0.029197 0)
(-0.0539603 0.0469879 0)
(-0.0455665 0.0555672 0)
(-0.0271419 0.102636 0)
(0.0294463 0.144329 0)
(0.100417 0.14835 0)
(0.189451 0.0975491 0)
(0.276381 0.041339 0)
(0.329612 -0.00728109 0)
(0.402101 -0.110977 0)
(0.42912 -0.178178 0)
(0.428606 -0.186632 0)
(0.450641 -0.206719 0)
(0.512397 -0.224607 0)
(-0.0363593 0.0989656 0)
(-0.0909229 0.0916468 0)
(-0.0874209 0.0240596 0)
(-0.0660007 -0.0583364 0)
(-0.068491 -0.0515601 0)
(-0.127037 -0.0311535 0)
(-0.135813 0.0443356 0)
(-0.121095 0.11038 0)
(-0.117294 0.130041 0)
(-0.114825 0.129447 0)
(-0.0982891 0.10418 0)
(-0.0968323 0.0749899 0)
(-0.0689695 0.0441191 0)
(-0.0187569 0.0387539 0)
(0.0350297 0.0407439 0)
(0.115491 0.00996505 0)
(0.19254 -0.0153109 0)
(0.244975 -0.0906597 0)
(0.342239 -0.161217 0)
(0.356407 -0.249271 0)
(0.408695 -0.31572 0)
(0.442367 -0.361672 0)
(0.488982 -0.394465 0)
(-0.0140667 -0.00374059 0)
(-0.0407919 -0.0501702 0)
(-0.0899801 -0.214349 0)
(-0.348476 -0.255227 0)
(-0.602632 -0.123973 0)
(-0.68406 -0.105249 0)
(-0.690438 -0.104294 0)
(-0.601954 -0.0493999 0)
(-0.513391 -0.0229506 0)
(-0.425002 0.0303473 0)
(-0.35341 0.0621706 0)
(-0.309279 0.05952 0)
(-0.205315 0.0859428 0)
(-0.108684 0.0857589 0)
(-0.0292903 0.0503923 0)
(0.0560232 -0.0257091 0)
(0.124707 -0.0848678 0)
(0.149434 -0.175397 0)
(0.238461 -0.221918 0)
(0.219126 -0.288772 0)
(0.267066 -0.321076 0)
(0.282124 -0.325296 0)
(0.325271 -0.350586 0)
(0.0222226 0.200655 0)
(0.0225203 0.31211 0)
(-0.16596 0.514304 0)
(-0.496763 0.393284 0)
(-0.561854 0.256252 0)
(-0.650088 0.490001 0)
(-0.743264 0.139153 0)
(-0.668009 -0.215948 0)
(-0.616727 -0.270279 0)
(-0.589608 -0.244267 0)
(-0.579175 -0.193484 0)
(-0.511559 -0.198588 0)
(-0.42039 -0.204345 0)
(-0.323477 -0.164931 0)
(-0.255841 -0.158183 0)
(-0.172691 -0.142689 0)
(-0.105939 -0.162532 0)
(-0.0650089 -0.213916 0)
(0.034208 -0.258038 0)
(0.0571419 -0.300933 0)
(0.0575914 -0.31426 0)
(-0.0210114 -0.177558 0)
(-0.157688 0.406078 0)
(-0.0675217 0.109762 0)
(-0.0618954 0.360999 0)
(-0.0143406 0.623373 0)
(-0.0901186 0.754477 0)
(-0.219049 0.576853 0)
(0.0238414 -0.0369178 0)
(0.422551 -0.0681553 0)
(0.562008 0.142529 0)
(0.250667 0.4531 0)
(-0.119256 0.745975 0)
(-0.293596 1.03851 0)
(-0.562321 0.883512 0)
(-0.359523 0.510762 0)
(-0.343149 0.25157 0)
(-0.287705 0.106487 0)
(-0.254042 0.0592263 0)
(-0.251745 0.246705 0)
(-0.311916 0.363285 0)
(-0.534512 0.478826 0)
(-0.823957 0.594754 0)
(-1.12573 0.211085 0)
(-1.22003 -0.113855 0)
(-1.21032 -0.121853 0)
(-0.253759 0.206488 0)
(-0.264431 0.161114 0)
(-0.0992629 0.222956 0)
(-0.00751919 0.295273 0)
(0.263098 -0.0744189 0)
(0.324484 -0.376691 0)
(0.24413 -0.370714 0)
(0.110961 -0.157746 0)
(-0.137256 0.121007 0)
(-0.20545 -0.153902 0)
(-0.214851 -0.326955 0)
(0.0810879 -0.742896 0)
(0.0872248 -0.681152 0)
(0.131135 -0.354678 0)
(0.0434024 -0.12782 0)
(-0.0637851 -0.085087 0)
(-0.183178 -0.206443 0)
(-0.224886 -0.282696 0)
(-0.290303 -0.322938 0)
(-0.164683 -0.440596 0)
(-0.0915795 -0.390168 0)
(-0.165754 -0.306269 0)
(-0.339193 -0.115652 0)
(-0.18624 0.370986 0)
(-0.0199133 0.0796436 0)
(-0.0419224 -0.00349229 0)
(0.123687 0.0736284 0)
(0.297323 -0.043217 0)
(0.228768 -0.15191 0)
(0.228212 -0.0359273 0)
(0.141846 0.30675 0)
(-0.0156193 0.415463 0)
(0.135216 0.445357 0)
(-0.0961619 0.443414 0)
(-0.0550727 0.0644365 0)
(-0.18083 -0.117191 0)
(-0.158475 -0.171737 0)
(-0.0671902 -0.17184 0)
(0.03265 -0.142603 0)
(0.117673 -0.0741666 0)
(0.188141 0.00619046 0)
(0.222039 0.0730584 0)
(0.199646 0.122019 0)
(0.0958111 0.132988 0)
(-0.0578764 0.167368 0)
(-0.181646 0.289847 0)
(-0.00873822 0.428149 0)
(0.088574 0.198287 0)
(-0.0104645 0.134258 0)
(0.0518321 0.0516536 0)
(0.115239 -0.0764185 0)
(0.0661596 -0.211902 0)
(0.00573245 -0.0948219 0)
(0.0971984 0.293643 0)
(0.0829318 0.350932 0)
(0.17235 0.282119 0)
(0.215353 0.0743011 0)
(0.293824 -0.222269 0)
(0.171078 -0.244387 0)
(0.0835087 -0.179676 0)
(0.0747685 -0.0894598 0)
(0.0588039 -0.0363183 0)
(0.0313173 -0.0470474 0)
(-0.000105763 -0.070273 0)
(-0.0254399 -0.078415 0)
(-0.0248689 -0.0548214 0)
(-0.0324846 0.00563812 0)
(-0.0724859 0.0822128 0)
(-0.102228 0.188859 0)
(0.0491867 0.347259 0)
(0.0910543 0.129481 0)
(0.102446 0.00334046 0)
(0.119597 -0.0382489 0)
(0.114595 -0.0661156 0)
(0.0445524 -0.100863 0)
(-0.0683889 -0.0927727 0)
(0.0217384 0.180675 0)
(0.160973 0.212901 0)
(0.249427 0.169769 0)
(0.304441 0.105709 0)
(0.265432 0.0333758 0)
(0.128 -0.0993742 0)
(0.0510479 -0.173941 0)
(0.00723611 -0.199475 0)
(-0.00928276 -0.200399 0)
(-0.0146705 -0.182893 0)
(-0.0160949 -0.14493 0)
(-0.0181055 -0.0810553 0)
(-0.0375226 -0.00663207 0)
(-0.0498814 0.0668951 0)
(-0.0610456 0.135865 0)
(-0.0645416 0.20895 0)
(0.0572359 0.248049 0)
(0.0916633 0.145991 0)
(0.0873115 0.0767783 0)
(0.066315 0.0251386 0)
(0.0463642 -0.0174172 0)
(0.0188011 -0.0595757 0)
(-0.0479938 -0.0531584 0)
(-0.0409067 0.0126264 0)
(0.0670768 0.108607 0)
(0.167386 0.135882 0)
(0.159156 0.110212 0)
(0.142756 0.0415973 0)
(0.124575 -0.0325627 0)
(0.0692795 -0.0715909 0)
(0.0199248 -0.0723658 0)
(-0.0165435 -0.0565073 0)
(-0.0473541 -0.0399941 0)
(-0.0723266 -0.0177223 0)
(-0.097718 0.015114 0)
(-0.121481 0.0582826 0)
(-0.133685 0.114471 0)
(-0.133926 0.170326 0)
(-0.112336 0.225453 0)
(0.0362131 0.171774 0)
(0.0695577 0.10894 0)
(0.0841527 0.0446977 0)
(0.0776128 0.0155048 0)
(0.0584758 0.00231777 0)
(0.0230225 -0.00491533 0)
(-0.0205686 -0.00132187 0)
(-0.0419776 0.0362123 0)
(-0.0393092 0.0462386 0)
(0.0180794 0.0966874 0)
(0.0419733 0.0925873 0)
(0.053748 0.0393674 0)
(0.0357393 -0.0148284 0)
(0.00490232 -0.0552727 0)
(-0.0287594 -0.076991 0)
(-0.0548708 -0.0799433 0)
(-0.080761 -0.0737658 0)
(-0.106453 -0.0574096 0)
(-0.123663 -0.0248063 0)
(-0.129573 0.018074 0)
(-0.129251 0.0690202 0)
(-0.125023 0.124988 0)
(-0.107396 0.175471 0)
(0.0229722 0.137884 0)
(0.0472104 0.0972756 0)
(0.0577261 0.0601952 0)
(0.0493738 0.039026 0)
(0.03533 0.0254699 0)
(0.0185293 0.0165831 0)
(-0.00237203 0.0187136 0)
(-0.0131456 0.0344378 0)
(-0.0174147 0.0427294 0)
(-0.00721712 0.0634511 0)
(0.0224232 0.0729204 0)
(0.0274653 0.0558532 0)
(0.0159716 0.0163684 0)
(-0.00781862 -0.0185832 0)
(-0.0366918 -0.0390572 0)
(-0.059412 -0.043111 0)
(-0.0778198 -0.0330554 0)
(-0.0944151 -0.013407 0)
(-0.109831 0.0179874 0)
(-0.119946 0.0496057 0)
(-0.119239 0.0835693 0)
(-0.107234 0.119917 0)
(-0.0847739 0.149328 0)
(0.0123639 0.108747 0)
(0.0287698 0.0739903 0)
(0.0355835 0.0547839 0)
(0.0307053 0.044583 0)
(0.0228585 0.0371032 0)
(0.0134862 0.033337 0)
(0.00218235 0.0347571 0)
(-0.00165023 0.040183 0)
(-0.00266186 0.0430229 0)
(0.00066903 0.0569528 0)
(0.0130934 0.0600878 0)
(0.0209162 0.0495085 0)
(0.018499 0.0265752 0)
(0.00379662 0.00695682 0)
(-0.0190294 -0.00906416 0)
(-0.0411191 -0.0189599 0)
(-0.0593683 -0.0154888 0)
(-0.0740955 -0.00262209 0)
(-0.0847916 0.0200287 0)
(-0.0914562 0.0474694 0)
(-0.0930322 0.0768754 0)
(-0.0836995 0.10843 0)
(-0.0676083 0.135406 0)
(0.00810972 0.094239 0)
(0.0168759 0.068094 0)
(0.0200697 0.0566938 0)
(0.0188251 0.0477784 0)
(0.0154695 0.0410925 0)
(0.0109639 0.0381558 0)
(0.00697605 0.0373887 0)
(0.00572115 0.0412074 0)
(0.00465143 0.0424508 0)
(0.00788135 0.0502927 0)
(0.0154309 0.0514461 0)
(0.0200331 0.0462295 0)
(0.0227786 0.0316654 0)
(0.0167485 0.017591 0)
(0.00456856 0.00498985 0)
(-0.00998195 -0.00350467 0)
(-0.0297212 -0.00461797 0)
(-0.0444994 0.00489709 0)
(-0.0557194 0.0257456 0)
(-0.0642968 0.0483218 0)
(-0.0698399 0.0685121 0)
(-0.063623 0.0919984 0)
(-0.0498527 0.115986 0)
(0.00476701 0.0851773 0)
(0.0101871 0.0624345 0)
(0.0135318 0.05537 0)
(0.0139346 0.0494531 0)
(0.0122869 0.044207 0)
(0.0102136 0.0410028 0)
(0.00804753 0.0396937 0)
(0.00746134 0.0407663 0)
(0.00728866 0.0417908 0)
(0.0098514 0.0462938 0)
(0.0152685 0.0472599 0)
(0.0201632 0.0425442 0)
(0.0226451 0.0319554 0)
(0.0199252 0.0234476 0)
(0.011362 0.0156553 0)
(0.000863382 0.0123336 0)
(-0.0152728 0.0150812 0)
(-0.0303357 0.0235416 0)
(-0.04175 0.0400818 0)
(-0.0472596 0.0614806 0)
(-0.0527487 0.0747936 0)
(-0.0500961 0.0858869 0)
(-0.0386542 0.102495 0)
(0.00286994 0.0790617 0)
(0.00709765 0.0580262 0)
(0.0101337 0.0533723 0)
(0.0112642 0.0492102 0)
(0.0107436 0.0456052 0)
(0.00908203 0.0428678 0)
(0.00705723 0.0414432 0)
(0.00555843 0.0412578 0)
(0.00452105 0.0413549 0)
(0.00521998 0.0423807 0)
(0.00910779 0.0413177 0)
(0.0128608 0.0373172 0)
(0.0124609 0.0330296 0)
(0.00921259 0.029801 0)
(0.00227434 0.0251817 0)
(-0.00752812 0.0254449 0)
(-0.0211242 0.0284955 0)
(-0.0299745 0.0350912 0)
(-0.0358941 0.0465083 0)
(-0.0402281 0.0637456 0)
(-0.0384408 0.074651 0)
(-0.0348785 0.0804434 0)
(-0.0241388 0.0907743 0)
(0.00201904 0.0750124 0)
(0.00546484 0.0547154 0)
(0.00780325 0.051558 0)
(0.00824129 0.0487517 0)
(0.00789323 0.0464705 0)
(0.00621258 0.0446314 0)
(0.00438939 0.0434725 0)
(0.00284551 0.0429533 0)
(0.00145838 0.0424321 0)
(0.00119177 0.0412338 0)
(0.00133271 0.0396117 0)
(0.00179024 0.0374974 0)
(-0.000256714 0.0353493 0)
(-0.00247969 0.0321983 0)
(-0.00776314 0.0318856 0)
(-0.0141639 0.0348141 0)
(-0.0206673 0.0354673 0)
(-0.0262405 0.0382137 0)
(-0.0304665 0.0486909 0)
(-0.0318956 0.0615369 0)
(-0.0273044 0.0688124 0)
(-0.020933 0.070543 0)
(-0.0119382 0.0787326 0)
(0.00181508 0.0713792 0)
(0.00398515 0.0523289 0)
(0.0047948 0.0509672 0)
(0.00541375 0.0492745 0)
(0.00530631 0.0476281 0)
(0.00491596 0.0463623 0)
(0.00423308 0.0450632 0)
(0.00334725 0.0443349 0)
(0.00251347 0.0434791 0)
(0.00169258 0.0422299 0)
(0.000394203 0.0409834 0)
(-0.000424907 0.0397416 0)
(-0.00282522 0.0380909 0)
(-0.00594344 0.036905 0)
(-0.00914701 0.0373897 0)
(-0.0119316 0.0383296 0)
(-0.0132153 0.0397614 0)
(-0.0173743 0.0444772 0)
(-0.0212656 0.0522524 0)
(-0.0192769 0.0603723 0)
(-0.0151651 0.0640075 0)
(-0.0101369 0.0655443 0)
(-0.0031112 0.0721295 0)
(0.00124085 0.0690698 0)
(0.00252557 0.0513565 0)
(0.00358966 0.0500729 0)
(0.00442994 0.0485406 0)
(0.00469035 0.0474291 0)
(0.00496238 0.0465222 0)
(0.00491447 0.0456939 0)
(0.00459364 0.04519 0)
(0.00425336 0.0447455 0)
(0.00356943 0.0438676 0)
(0.00204708 0.0418605 0)
(0.000545602 0.0401746 0)
(-0.00122116 0.0405236 0)
(-0.00365626 0.039514 0)
(-0.00608038 0.0390265 0)
(-0.00876573 0.0391329 0)
(-0.0109107 0.0432473 0)
(-0.0140624 0.0476904 0)
(-0.0151125 0.0518656 0)
(-0.0136063 0.0575496 0)
(-0.0109208 0.0598905 0)
(-0.00651367 0.0599022 0)
(-0.00287141 0.0647898 0)
(0.000886054 0.067559 0)
(0.00196384 0.049893 0)
(0.0032143 0.0488916 0)
(0.00372806 0.0478355 0)
(0.0039821 0.0470514 0)
(0.0040477 0.046223 0)
(0.00396975 0.0455666 0)
(0.00401096 0.0449597 0)
(0.00417814 0.044285 0)
(0.00427771 0.0440239 0)
(0.00342365 0.0433808 0)
(0.0017706 0.0427435 0)
(0.0011498 0.042466 0)
(-4.35318e-05 0.0418303 0)
(-0.00206515 0.0416378 0)
(-0.00483833 0.0424071 0)
(-0.0074748 0.0441225 0)
(-0.00766327 0.0467882 0)
(-0.00695311 0.0506174 0)
(-0.00518628 0.0549975 0)
(-0.00201276 0.0562432 0)
(0.00225685 0.0565468 0)
(0.00437213 0.0606823 0)
(0.000793605 0.066103 0)
(0.00165247 0.0491608 0)
(0.0018967 0.0484942 0)
(0.00221671 0.0479769 0)
(0.00227953 0.0471765 0)
(0.00223397 0.0462721 0)
(0.00203326 0.0455009 0)
(0.0017524 0.0449317 0)
(0.00149409 0.044815 0)
(0.00112795 0.0448522 0)
(0.000991317 0.0447844 0)
(-0.000263058 0.0439255 0)
(-0.00131551 0.0427861 0)
(-0.00211768 0.0435067 0)
(-0.00308181 0.0440881 0)
(-0.00420396 0.045884 0)
(-0.0059044 0.0469497 0)
(-0.00720329 0.0480494 0)
(-0.00678661 0.0511286 0)
(-0.00550996 0.0530992 0)
(-0.00274266 0.053772 0)
(-0.000319476 0.0549491 0)
(0.00333768 0.0583817 0)
(0.000555916 0.0651017 0)
(0.00120682 0.0486148 0)
(0.00154482 0.0480878 0)
(0.00195564 0.0474811 0)
(0.00205462 0.0469896 0)
(0.00207211 0.0466452 0)
(0.00187043 0.0461573 0)
(0.00151978 0.0455181 0)
(0.00105156 0.0447605 0)
(0.000512513 0.0448127 0)
(4.2063e-05 0.0445148 0)
(-0.000416895 0.0437275 0)
(-0.00184821 0.0439665 0)
(-0.00306671 0.0433547 0)
(-0.00438886 0.043587 0)
(-0.00463309 0.0447519 0)
(-0.00362089 0.04553 0)
(-0.00320056 0.0473388 0)
(-0.00301916 0.0485548 0)
(-0.00120653 0.0495417 0)
(0.0013689 0.0500337 0)
(0.00179269 0.0503956 0)
(0.00609355 0.051642 0)
(0.000616339 0.0640612 0)
(0.00126753 0.0480859 0)
(0.00159567 0.0477357 0)
(0.00194529 0.0474903 0)
(0.00209536 0.0471973 0)
(0.00208389 0.0467529 0)
(0.00205584 0.046376 0)
(0.00191385 0.046065 0)
(0.00160883 0.0458532 0)
(0.000919799 0.0452125 0)
(0.000704059 0.0451191 0)
(0.000568566 0.0456653 0)
(0.000334521 0.0455947 0)
(-0.000346166 0.0454364 0)
(-0.00157577 0.0457013 0)
(-0.00215584 0.0456967 0)
(-0.00379617 0.046594 0)
(-0.00414357 0.0482 0)
(-0.00344597 0.0484798 0)
(-0.00145952 0.0494946 0)
(-0.00054745 0.0498868 0)
(0.00165092 0.0501868 0)
(0.00475888 0.0483269 0)
(0.000374212 0.0634977 0)
(0.000725397 0.047792 0)
(0.000935541 0.0474001 0)
(0.00122367 0.0471289 0)
(0.00132435 0.0468525 0)
(0.0013101 0.0465597 0)
(0.00118024 0.0462212 0)
(0.00092707 0.0458946 0)
(0.000600102 0.0457511 0)
(0.000280029 0.0460201 0)
(-0.000244534 0.0458876 0)
(-0.0012434 0.0453595 0)
(-0.00175114 0.0454564 0)
(-0.00202469 0.0462935 0)
(-0.002492 0.0462914 0)
(-0.00333397 0.0461399 0)
(-0.00303135 0.0469152 0)
(-0.00206377 0.046066 0)
(-0.000775776 0.0469243 0)
(-0.00111419 0.047184 0)
(0.000702748 0.0480366 0)
(0.00196403 0.0463476 0)
(0.00446322 0.045253 0)
(0.000389783 0.0627243 0)
(0.000832173 0.0473786 0)
(0.00101248 0.0470432 0)
(0.00130273 0.0469159 0)
(0.0014257 0.0468222 0)
(0.00157491 0.0467975 0)
(0.00156231 0.0466583 0)
(0.00141488 0.0465306 0)
(0.00117898 0.0463915 0)
(0.00103536 0.0462064 0)
(0.000666596 0.0461175 0)
(0.000126413 0.0462626 0)
(-0.000585352 0.0458695 0)
(-0.00151796 0.0458298 0)
(-0.00125897 0.0456688 0)
(-0.000902173 0.0465235 0)
(-0.0014585 0.0463902 0)
(-0.00199439 0.0471946 0)
(-0.00262683 0.0475696 0)
(-0.00196017 0.0468984 0)
(-0.000244146 0.0452755 0)
(0.00115643 0.0451521 0)
(0.00218679 0.0439327 0)
(0.00032769 0.0623597 0)
(0.000668353 0.0473045 0)
(0.000811933 0.0470405 0)
(0.00102141 0.0469324 0)
(0.00100451 0.046806 0)
(0.00100456 0.0466388 0)
(0.000896572 0.046503 0)
(0.000657969 0.0464061 0)
(0.000289299 0.046289 0)
(-0.000119896 0.0462444 0)
(-0.000299273 0.0466518 0)
(2.71853e-05 0.0466673 0)
(-0.000292121 0.0468955 0)
(-0.000633999 0.0467962 0)
(-0.00189899 0.0472676 0)
(-0.00296636 0.04661 0)
(-0.00317852 0.0467265 0)
(-0.00275515 0.0467948 0)
(-0.00154538 0.0454119 0)
(-0.000472672 0.04545 0)
(-0.00106806 0.0460923 0)
(-0.000922348 0.0442711 0)
(0.000719751 0.0416989 0)
(0.000305668 0.0616452 0)
(0.000684769 0.0468402 0)
(0.000896209 0.0465944 0)
(0.00123859 0.0466314 0)
(0.00143251 0.0467174 0)
(0.00154844 0.046778 0)
(0.00156465 0.0468464 0)
(0.00150459 0.0469034 0)
(0.00134481 0.046965 0)
(0.000969234 0.0469748 0)
(0.000252052 0.0467524 0)
(-0.000813175 0.0469714 0)
(-0.00131028 0.0470852 0)
(-0.00164112 0.0472085 0)
(-0.00146636 0.0466966 0)
(-0.000983698 0.0463576 0)
(-0.00102729 0.0464193 0)
(-0.00155601 0.0461709 0)
(-0.00239642 0.0471279 0)
(-0.00316719 0.0462335 0)
(-0.00219042 0.0441302 0)
(-0.00165774 0.0431854 0)
(-0.00173565 0.0417801 0)
(0.000258001 0.0613828 0)
(0.00057354 0.0468138 0)
(0.000708047 0.0465322 0)
(0.000937792 0.0465601 0)
(0.00100006 0.046568 0)
(0.00100372 0.0465814 0)
(0.000893729 0.0466496 0)
(0.000705648 0.0467963 0)
(0.000462926 0.0469985 0)
(0.000230843 0.0472929 0)
(0.000133729 0.0476678 0)
(0.000314565 0.0476919 0)
(0.000122592 0.0475064 0)
(-0.000279938 0.047398 0)
(-0.000933578 0.047633 0)
(-0.00211425 0.0477882 0)
(-0.00301594 0.0475907 0)
(-0.0033306 0.0474199 0)
(-0.00313462 0.045839 0)
(-0.00258427 0.0452051 0)
(-0.00315798 0.0450277 0)
(-0.00374891 0.0434506 0)
(-0.003716 0.0414282 0)
(0.000280022 0.06073 0)
(0.000775225 0.0463432 0)
(0.00106389 0.0461059 0)
(0.00145888 0.0462722 0)
(0.00166839 0.0464667 0)
(0.00181641 0.0466915 0)
(0.00181198 0.0469144 0)
(0.00165617 0.0470855 0)
(0.00135574 0.0472138 0)
(0.000916079 0.0472867 0)
(0.000303311 0.0472957 0)
(-0.00053457 0.0475045 0)
(-0.00120607 0.047773 0)
(-0.0017568 0.0478105 0)
(-0.00214697 0.0476634 0)
(-0.00218792 0.0472668 0)
(-0.00221225 0.046946 0)
(-0.00259524 0.0468677 0)
(-0.00333334 0.0470579 0)
(-0.00418396 0.0462966 0)
(-0.00454384 0.04484 0)
(-0.0050341 0.0436329 0)
(-0.00580705 0.0421025 0)
(0.000281808 0.0603801 0)
(0.000706558 0.0461508 0)
(0.000933043 0.0458929 0)
(0.00126131 0.0461208 0)
(0.00139975 0.0463861 0)
(0.00150761 0.0467244 0)
(0.00151101 0.0471198 0)
(0.00141927 0.0475352 0)
(0.00122675 0.0479395 0)
(0.000969239 0.0482957 0)
(0.000656843 0.0486054 0)
(0.000326418 0.0486382 0)
(-7.75498e-05 0.0486119 0)
(-0.000579049 0.048684 0)
(-0.00121969 0.0487051 0)
(-0.00205872 0.0486976 0)
(-0.00299561 0.0485282 0)
(-0.00375228 0.0479957 0)
(-0.00426705 0.0471471 0)
(-0.00470358 0.0464612 0)
(-0.00550814 0.0457188 0)
(-0.00656037 0.0444763 0)
(-0.00759726 0.043004 0)
(0.00036786 0.059656 0)
(0.000951738 0.0455929 0)
(0.00125441 0.0453723 0)
(0.00170497 0.0456865 0)
(0.00193901 0.0460102 0)
(0.00215209 0.046398 0)
(0.00223604 0.0468133 0)
(0.0021885 0.0472301 0)
(0.00197726 0.0476196 0)
(0.00161185 0.0479425 0)
(0.00109426 0.0482468 0)
(0.000427085 0.0486181 0)
(-0.000311303 0.0488634 0)
(-0.00103782 0.0489452 0)
(-0.0017382 0.0489432 0)
(-0.00238113 0.0488092 0)
(-0.00298857 0.0485854 0)
(-0.00372063 0.0483816 0)
(-0.00462361 0.0481072 0)
(-0.00558439 0.0474943 0)
(-0.00655847 0.0465952 0)
(-0.00774588 0.0455678 0)
(-0.00914154 0.0443426 0)
(0.00042836 0.0590397 0)
(0.000966276 0.0453973 0)
(0.00118464 0.0451755 0)
(0.00159817 0.0455882 0)
(0.00179567 0.0460179 0)
(0.00201842 0.0465175 0)
(0.00220601 0.0471008 0)
(0.00237297 0.0477377 0)
(0.00242672 0.0483856 0)
(0.0022974 0.0490325 0)
(0.00194098 0.0494911 0)
(0.00135678 0.0497316 0)
(0.000593449 0.0498318 0)
(-0.00032064 0.0499116 0)
(-0.00127505 0.0499487 0)
(-0.00226948 0.0499237 0)
(-0.00326207 0.0497636 0)
(-0.00422866 0.0494326 0)
(-0.00518432 0.0489789 0)
(-0.00619457 0.0484538 0)
(-0.00735371 0.0477958 0)
(-0.00877794 0.0469428 0)
(-0.0104101 0.0459413 0)
(0.000620252 0.0581517 0)
(0.00104798 0.0448279 0)
(0.0010282 0.0446039 0)
(0.00133376 0.0450301 0)
(0.00141811 0.0454779 0)
(0.00157592 0.045987 0)
(0.0017404 0.0465909 0)
(0.00190293 0.0472642 0)
(0.00202767 0.0479839 0)
(0.00208794 0.0487838 0)
(0.00202467 0.0495883 0)
(0.00178163 0.0503156 0)
(0.00129906 0.0508571 0)
(0.000525179 0.0511027 0)
(-0.000530688 0.0510651 0)
(-0.00177702 0.0508315 0)
(-0.00306088 0.0505669 0)
(-0.00428584 0.0503552 0)
(-0.00548004 0.0500897 0)
(-0.00670165 0.0496837 0)
(-0.00801642 0.0491411 0)
(-0.00955514 0.0484928 0)
(-0.0113521 0.0477596 0)
(0.00070349 0.0574418 0)
(0.000863532 0.0450725 0)
(0.000305879 0.0449222 0)
(0.000283648 0.0453336 0)
(3.6047e-05 0.0458038 0)
(-3.05603e-05 0.0462908 0)
(-0.000126988 0.0467656 0)
(-0.00015936 0.0473497 0)
(-0.00010974 0.0480803 0)
(8.9919e-07 0.0488769 0)
(0.0001061 0.0497047 0)
(0.000152296 0.0504739 0)
(6.1228e-05 0.0511606 0)
(-0.000203197 0.0517627 0)
(-0.000647124 0.052224 0)
(-0.00133236 0.0524721 0)
(-0.00238112 0.0523552 0)
(-0.00387402 0.0518706 0)
(-0.00548258 0.051326 0)
(-0.00695345 0.0509539 0)
(-0.00845144 0.0506141 0)
(-0.0100892 0.0501973 0)
(-0.0119878 0.049725 0)
(0.000719964 0.0566851 0)
(0.000248844 0.0455088 0)
(-0.00124106 0.0453659 0)
(-0.00192079 0.0455986 0)
(-0.00278322 0.0459592 0)
(-0.003361 0.0463312 0)
(-0.00386352 0.0467623 0)
(-0.00419077 0.0472544 0)
(-0.00434068 0.0478493 0)
(-0.00428943 0.0485414 0)
(-0.00405774 0.0493635 0)
(-0.003736 0.0502423 0)
(-0.00343817 0.0510568 0)
(-0.00317844 0.0518004 0)
(-0.00302986 0.052366 0)
(-0.00311271 0.0527944 0)
(-0.00346521 0.0531514 0)
(-0.00400822 0.053406 0)
(-0.0049726 0.0532602 0)
(-0.00657277 0.0527192 0)
(-0.00849926 0.0522088 0)
(-0.0102939 0.0519401 0)
(-0.0123045 0.0517552 0)
(0.000565358 0.0564534 0)
(-0.000850319 0.046941 0)