/*--------------------------------*- C++ -*----------------------------------*\
| =========                 |                                                 |
| \\      /  F ield         | OpenFOAM: The Open Source CFD Toolbox           |
|  \\    /   O peration     | Version:  2.4.0                                 |
|   \\  /    A nd           | Web:      www.OpenFOAM.org                      |
|    \\/     M anipulation  |                                                 |
\*---------------------------------------------------------------------------*/
FoamFile
{
    version     2.0;
    format      ascii;
    class       volVectorField;
    location    "0.65";
    object      U.air;
}
// * * * * * * * * * * * * * * * * * * * * * * * * * * * * * * * * * * * * * //

dimensions      [0 1 -1 0 0 0 0];

internalField   nonuniform List<vector> 
2268
(
(0.013151 0.000915007 0)
(0.036283 -0.000217607 0)
(0.0639271 0.0045021 0)
(0.0773027 -2.81416e-05 0)
(0.110014 -0.000764902 0)
(0.136324 0.0038186 0)
(0.148214 0.00600275 0)
(0.162356 0.0103029 0)
(0.173106 0.0101094 0)
(0.191111 0.0163747 0)
(0.193275 0.0349811 0)
(0.177459 0.0387457 0)
(0.141991 0.0325311 0)
(0.0843259 0.0224985 0)
(0.026989 0.0101786 0)
(-0.0201049 -0.00586686 0)
(-0.0471615 -0.00489825 0)
(-0.0732623 -0.00682585 0)
(-0.0810229 0.000562429 0)
(-0.0853473 -0.00824153 0)
(-0.0511252 -0.00445402 0)
(-0.0374015 -0.000703534 0)
(-0.0347175 -0.00617267 0)
(0.0141641 -0.0286867 0)
(0.0350144 -0.0307639 0)
(0.0640225 -0.024858 0)
(0.0802248 -0.0303444 0)
(0.109965 -0.0305839 0)
(0.134817 -0.0247215 0)
(0.150941 -0.0257301 0)
(0.166608 -0.0247025 0)
(0.185534 -0.0292978 0)
(0.1992 -0.03301 0)
(0.19393 -0.0334936 0)
(0.172544 -0.0196752 0)
(0.134549 0.011253 0)
(0.0825252 0.0310021 0)
(0.0218462 0.0381746 0)
(-0.0222852 0.0356939 0)
(-0.0477366 0.0274112 0)
(-0.068119 0.0187937 0)
(-0.0811539 0.00521732 0)
(-0.073958 -0.00596423 0)
(-0.0557463 -0.0176742 0)
(-0.0310983 -0.00770599 0)
(-0.0239695 -0.0280032 0)
(0.0151021 -0.006009 0)
(0.0327999 -0.00819128 0)
(0.0625427 -0.000282111 0)
(0.0869076 -0.00809108 0)
(0.104943 -0.0090675 0)
(0.130458 -0.00110416 0)
(0.147723 0.00243789 0)
(0.167108 0.00917274 0)
(0.184424 0.0104023 0)
(0.184426 0.0263684 0)
(0.184016 0.0638475 0)
(0.186229 0.0911327 0)
(0.161693 0.0860534 0)
(0.111141 0.0771394 0)
(0.0417651 0.0567554 0)
(-0.0232226 0.0328153 0)
(-0.0641102 0.0248617 0)
(-0.0817384 0.0155133 0)
(-0.0940192 0.00659347 0)
(-0.0703146 -0.0186251 0)
(-0.0478057 -0.0252673 0)
(-0.0103952 -0.0154625 0)
(0.00467371 -0.0306312 0)
(0.0159947 -0.128701 0)
(0.0292201 -0.130852 0)
(0.0565168 -0.124221 0)
(0.0890832 -0.131296 0)
(0.0983363 -0.130594 0)
(0.119496 -0.123241 0)
(0.146735 -0.121236 0)
(0.173143 -0.116468 0)
(0.190104 -0.11105 0)
(0.19475 -0.0940938 0)
(0.193573 -0.0695827 0)
(0.173042 -0.0386149 0)
(0.131798 0.0389087 0)
(0.0826395 0.11122 0)
(0.0172999 0.107688 0)
(-0.0342655 0.0737027 0)
(-0.0673099 0.0447751 0)
(-0.0820159 0.0216913 0)
(-0.093838 0.00152325 0)
(-0.0712144 -0.0295161 0)
(-0.0582093 -0.0461828 0)
(-0.0112942 -0.0301902 0)
(0.00219978 -0.0306906 0)
(0.00936427 0.0112431 0)
(0.0201631 0.0188204 0)
(0.0374039 0.00899068 0)
(0.0627524 0.0250835 0)
(0.06837 0.0338419 0)
(0.0754806 0.0352503 0)
(0.0990366 0.050269 0)
(0.111135 0.0542002 0)
(0.110911 0.065346 0)
(0.115963 0.0670514 0)
(0.117958 0.0443065 0)
(0.134145 0.0232675 0)
(0.128441 0.0366124 0)
(0.0602518 0.0898333 0)
(-0.0137518 0.109664 0)
(-0.0597922 0.0823952 0)
(-0.0813617 0.0571572 0)
(-0.0869603 0.0333019 0)
(-0.0916263 -0.00132722 0)
(-0.0684764 -0.0359185 0)
(-0.0722531 -0.0544942 0)
(-0.0238561 -0.0469255 0)
(0.00575768 -0.0347306 0)
(-0.00596005 -0.171172 0)
(-0.000731827 -0.173337 0)
(-0.00695823 -0.175504 0)
(-0.00958598 -0.176349 0)
(-0.00404993 -0.173915 0)
(-0.00476699 -0.178862 0)
(-0.00674094 -0.1777 0)
(-0.0164188 -0.171941 0)
(-0.0190158 -0.170585 0)
(-0.0148707 -0.170402 0)
(0.00974397 -0.14882 0)
(0.0626535 -0.0337557 0)
(0.0968002 0.105571 0)
(-0.00495392 0.12354 0)
(-0.0678238 0.126733 0)
(-0.120761 0.0901759 0)
(-0.120533 0.0518777 0)
(-0.107005 0.0313161 0)
(-0.0929596 -0.00126615 0)
(-0.066306 -0.0348482 0)
(-0.0773094 -0.0631198 0)
(-0.0494998 -0.0647822 0)
(-0.00156407 -0.0397037 0)
(-0.00573721 0.0140652 0)
(-0.0118501 0.0174281 0)
(-0.0148142 0.00948008 0)
(-0.012269 0.0207235 0)
(-0.0116406 0.0277709 0)
(-0.000688845 0.023792 0)
(0.00871786 0.0435349 0)
(-0.00430097 0.0577994 0)
(-0.0189053 0.0729773 0)
(-0.0455601 0.0842367 0)
(-0.0973521 0.0942156 0)
(-0.147206 0.0485996 0)
(-0.103954 0.0422197 0)
(-0.109573 0.140946 0)
(-0.17945 0.142513 0)
(-0.191607 0.103842 0)
(-0.179214 0.0501161 0)
(-0.139006 0.00386119 0)
(-0.106364 -0.0272195 0)
(-0.0792356 -0.0437117 0)
(-0.0809751 -0.0646877 0)
(-0.0550838 -0.0798404 0)
(-0.00299421 -0.0563972 0)
(-0.0053322 -0.0616383 0)
(-0.00952943 -0.0670239 0)
(-0.0148187 -0.074164 0)
(-0.0166984 -0.0770736 0)
(-0.0090429 -0.0783541 0)
(-0.0103042 -0.0837249 0)
(-0.0134626 -0.0726463 0)
(-0.0254675 -0.0642071 0)
(-0.0267346 -0.063013 0)
(-0.0320203 -0.0543918 0)
(-0.0269449 -0.0200919 0)
(-0.0506891 0.0537774 0)
(-0.124159 0.153156 0)
(-0.205203 0.171037 0)
(-0.339788 0.117022 0)
(-0.331183 0.0625825 0)
(-0.307194 0.0306343 0)
(-0.230818 0.0188638 0)
(-0.172591 -0.0151979 0)
(-0.11552 -0.0344094 0)
(-0.0803126 -0.071066 0)
(-0.0451436 -0.0970683 0)
(0.00273867 -0.0609258 0)
(-0.315712 -0.411857 0)
(-0.311528 -0.225667 0)
(-0.0307746 -0.251404 0)
(0.211973 -0.240529 0)
(0.427114 -0.225223 0)
(0.574596 -0.214413 0)
(0.691541 -0.211542 0)
(0.770758 -0.222637 0)
(0.803018 -0.256305 0)
(0.800714 -0.278823 0)
(0.7861 -0.26164 0)
(0.761574 -0.239172 0)
(0.691373 -0.251318 0)
(0.613987 -0.217722 0)
(0.558812 -0.195559 0)
(0.474175 -0.20431 0)
(0.300191 -0.160762 0)
(-0.0888792 -0.190463 0)
(-0.00958834 -0.244529 0)
(-0.283898 0.139029 0)
(-0.0349356 0.128363 0)
(0.171518 -0.015166 0)
(0.321606 -0.0915525 0)
(0.482893 -0.068079 0)
(0.592762 -0.0235948 0)
(0.667446 -0.0108433 0)
(0.743574 0.0124458 0)
(0.783999 0.0332845 0)
(0.798941 0.0459936 0)
(0.832053 0.0734801 0)
(0.875043 0.150322 0)
(0.851005 0.232077 0)
(0.785923 0.303648 0)
(0.688374 0.308314 0)
(0.627536 0.341811 0)
(0.471704 0.278145 0)
(0.0612481 0.210122 0)
(-0.0031975 0.113313 0)
(-0.216055 0.107037 0)
(-0.0459323 0.0636749 0)
(0.143521 0.0158412 0)
(0.474479 -0.00578691 0)
(0.569756 0.11468 0)
(0.606821 0.283985 0)
(0.610523 0.293979 0)
(0.626419 0.0604438 0)
(0.656603 -0.140082 0)
(0.676953 -0.192206 0)
(0.680301 -0.21014 0)
(0.691437 -0.194571 0)
(0.690286 -0.15878 0)
(0.661317 -0.117104 0)
(0.562483 -0.103035 0)
(0.476042 0.207895 0)
(0.353757 0.390966 0)
(-0.00775734 0.221928 0)
(-0.0909684 -0.0777446 0)
(0.0637292 0.277952 0)
(0.354859 -0.00829287 0)
(0.433971 0.0272804 0)
(0.64013 0.228519 0)
(0.761771 0.375187 0)
(0.753215 0.480266 0)
(0.725989 0.446905 0)
(0.658966 0.00535517 0)
(0.597676 -0.209702 0)
(0.575134 -0.198878 0)
(0.539549 -0.177442 0)
(0.532293 -0.153089 0)
(0.536363 -0.11524 0)
(0.512703 -0.109468 0)
(0.416701 -0.126557 0)
(0.167279 0.147306 0)
(0.0838487 0.61901 0)
(-0.226566 0.31762 0)
(-0.0586043 0.0126152 0)
(0.338167 0.116901 0)
(0.465579 -0.268792 0)
(0.569174 -0.123953 0)
(0.641916 0.14845 0)
(0.757683 0.408207 0)
(0.811172 0.343744 0)
(0.765813 0.304486 0)
(0.747502 0.227824 0)
(0.749591 0.242617 0)
(0.663291 -0.14154 0)
(0.524148 -0.290964 0)
(0.475087 -0.215065 0)
(0.486909 -0.169431 0)
(0.467243 -0.181516 0)
(0.366178 -0.194504 0)
(0.224071 -0.00824243 0)
(0.0493661 0.618674 0)
(-0.335194 0.404801 0)
(0.0186147 -0.0952896 0)
(0.422802 -0.0249841 0)
(0.452098 -0.36264 0)
(0.521901 -0.338772 0)
(0.528771 -0.134547 0)
(0.517661 0.205073 0)
(0.617356 0.270494 0)
(0.639449 0.276799 0)
(0.653578 0.337487 0)
(0.709938 0.418571 0)
(0.705483 0.04046 0)
(0.612097 0.00681358 0)
(0.502203 -0.184227 0)
(0.455488 -0.160575 0)
(0.42399 -0.155024 0)
(0.278002 -0.130997 0)
(0.213439 0.00667325 0)
(0.0505492 0.545661 0)
(-0.32834 0.543983 0)
(0.0750376 -0.184736 0)
(0.383244 0.0427181 0)
(0.414473 -0.296188 0)
(0.476839 -0.46928 0)
(0.501035 -0.390438 0)
(0.466009 -0.11295 0)
(0.459332 0.230468 0)
(0.540048 0.275368 0)
(0.564045 0.345816 0)
(0.594655 0.414563 0)
(0.60879 0.167727 0)
(0.57471 0.063544 0)
(0.507946 -0.0239013 0)
(0.482381 -0.181393 0)
(0.389802 -0.18703 0)
(0.255026 -0.137014 0)
(0.150663 0.0379498 0)
(0.276836 0.544354 0)
(-0.174583 0.468207 0)
(0.0959552 -0.272039 0)
(0.313709 -0.127291 0)
(0.323199 -0.196357 0)
(0.463413 -0.44968 0)
(0.473708 -0.256047 0)
(0.436135 -0.00432316 0)
(0.42164 0.17137 0)
(0.462228 0.255502 0)
(0.480809 0.28495 0)
(0.478783 0.331248 0)
(0.496007 0.375765 0)
(0.513526 0.170453 0)
(0.516175 0.102146 0)
(0.52494 0.0466419 0)
(0.381465 0.343245 0)
(0.222714 -0.00312157 0)
(0.0823939 0.058094 0)
(0.377321 0.497425 0)
(-0.0698148 0.383583 0)
(0.164052 -0.194931 0)
(-0.00611718 -0.0596709 0)
(-0.0141007 -0.0597965 0)
(-0.0168349 -0.0627463 0)
(-0.00930545 -0.0581672 0)
(0.00494853 -0.0487903 0)
(0.0138353 -0.0485566 0)
(0.0304446 -0.0172892 0)
(0.0190176 0.0133179 0)
(-0.00871978 0.0455451 0)
(-0.0576354 0.0639103 0)
(-0.109074 0.064108 0)
(-0.127798 0.0398896 0)
(-0.121648 0.0798578 0)
(-0.0942103 0.200659 0)
(-0.159581 0.176811 0)
(-0.244537 0.0865704 0)
(-0.275729 -0.0589787 0)
(-0.275522 -0.161073 0)
(-0.252377 -0.169833 0)
(-0.182858 -0.159875 0)
(-0.081714 -0.177765 0)
(-0.012172 -0.19766 0)
(0.0510573 -0.13739 0)
(-0.00490961 0.022908 0)
(-0.0120339 0.00732355 0)
(-0.0142388 -0.0230861 0)
(-0.00704421 -0.0472902 0)
(0.0126703 -0.0482208 0)
(0.0206743 -0.0590883 0)
(0.0333742 -0.0259411 0)
(0.0259118 0.00848127 0)
(0.0309758 0.035431 0)
(0.0230601 0.0619528 0)
(0.00156147 0.0920113 0)
(-0.00788967 0.115756 0)
(-0.0281385 0.159263 0)
(-0.0041012 0.21438 0)
(0.0664339 0.243711 0)
(0.101444 0.158025 0)
(0.0639273 0.0855385 0)
(0.0223792 0.0102886 0)
(0.00723904 -0.108542 0)
(0.0474001 -0.245853 0)
(0.118325 -0.353451 0)
(0.133449 -0.304285 0)
(0.197681 -0.285232 0)
(-0.0106099 -0.0856023 0)
(-0.0383095 -0.0962621 0)
(-0.053062 -0.0844283 0)
(-0.0304831 -0.117867 0)
(0.013983 -0.119315 0)
(0.0305027 -0.0260326 0)
(0.047253 0.0582252 0)
(0.0129514 -0.0208298 0)
(-0.019507 0.00582797 0)
(-0.0512551 0.0318507 0)
(-0.0542153 0.0489584 0)
(-0.0456725 0.0567821 0)
(-0.0271656 0.10298 0)
(0.0294473 0.144367 0)
(0.0999637 0.147725 0)
(0.188679 0.0958928 0)
(0.268611 0.0227254 0)
(0.314023 -0.0384446 0)
(0.388848 -0.132679 0)
(0.416701 -0.168812 0)
(0.427968 -0.0893039 0)
(0.451428 -0.0449238 0)
(0.519151 -0.0139751 0)
(-0.0361726 0.271397 0)
(-0.0937769 0.26494 0)
(-0.0820702 0.234279 0)
(-0.0480761 0.187958 0)
(-0.025403 0.159663 0)
(-0.0703152 0.295075 0)
(-0.11321 0.391965 0)
(-0.123164 0.243862 0)
(-0.11401 0.248641 0)
(-0.111264 0.231352 0)
(-0.0956372 0.201112 0)
(-0.0951083 0.189788 0)
(-0.0683958 0.203769 0)
(-0.0186618 0.1876 0)
(0.0350076 0.173769 0)
(0.115488 0.130147 0)
(0.193009 0.107755 0)
(0.247122 0.073897 0)
(0.347629 0.0196549 0)
(0.377918 -0.0116441 0)
(0.454936 0.00927511 0)
(0.516551 0.041216 0)
(0.559567 0.0769588 0)
(-0.0167405 0.402475 0)
(-0.0497472 0.356911 0)
(-0.0871282 0.251533 0)
(-0.31799 0.414143 0)
(-0.574104 0.448364 0)
(-0.67446 0.315228 0)
(-0.724711 0.312975 0)
(-0.660637 0.402868 0)
(-0.571533 0.439907 0)
(-0.469887 0.501825 0)
(-0.38036 0.521761 0)
(-0.339097 0.488137 0)
(-0.258123 0.489273 0)
(-0.154351 0.427374 0)
(-0.0123107 0.368546 0)
(0.1118 0.267628 0)
(0.20241 0.232775 0)
(0.231789 0.194953 0)
(0.293685 0.167171 0)
(0.260412 0.124703 0)
(0.303566 0.0968755 0)
(0.341636 0.0414329 0)
(0.390587 -0.0940634 0)
(0.0240023 0.266039 0)
(0.0232738 0.372342 0)
(-0.161006 0.599447 0)
(-0.496704 0.551647 0)
(-0.555613 0.380911 0)
(-0.647555 0.547096 0)
(-0.747627 0.208694 0)
(-0.669969 -0.0878789 0)
(-0.615842 -0.0929449 0)
(-0.591386 -0.0330248 0)
(-0.594944 0.0413195 0)
(-0.539099 0.0602827 0)
(-0.450144 0.100818 0)
(-0.338605 0.205576 0)
(-0.254539 0.229013 0)
(-0.159126 0.231943 0)
(-0.0786082 0.161012 0)
(-0.034165 0.0258193 0)
(0.0592489 -0.0631963 0)
(0.077314 -0.155528 0)
(0.0607711 -0.218159 0)
(-0.0271632 -0.118121 0)
(-0.160664 0.420672 0)
(-0.067535 0.109846 0)
(-0.0618921 0.361265 0)
(-0.0139257 0.624533 0)
(-0.0891761 0.757218 0)
(-0.21855 0.578488 0)
(0.0238809 -0.0368742 0)
(0.422552 -0.0681553 0)
(0.562009 0.142529 0)
(0.250668 0.453101 0)
(-0.119245 0.746004 0)
(-0.293579 1.03868 0)
(-0.562551 0.886932 0)
(-0.358723 0.530764 0)
(-0.341506 0.297353 0)
(-0.285104 0.157897 0)
(-0.252919 0.109461 0)
(-0.252127 0.27612 0)
(-0.312773 0.372922 0)
(-0.535021 0.481368 0)
(-0.824029 0.594976 0)
(-1.12573 0.211089 0)
(-1.22003 -0.113855 0)
(-1.21033 -0.121854 0)
(-0.253759 0.206488 0)
(-0.264431 0.161114 0)
(-0.0992628 0.222956 0)
(-0.00751895 0.295274 0)
(0.263098 -0.0744189 0)
(0.324484 -0.376691 0)
(0.24413 -0.370714 0)
(0.110961 -0.157746 0)
(-0.137256 0.121007 0)
(-0.20545 -0.153902 0)
(-0.214851 -0.326956 0)
(0.0810879 -0.742897 0)
(0.0872248 -0.681153 0)
(0.131135 -0.354678 0)
(0.0434024 -0.12782 0)
(-0.0637851 -0.0850869 0)
(-0.183178 -0.206443 0)
(-0.224886 -0.282696 0)
(-0.290303 -0.322937 0)
(-0.164683 -0.440596 0)
(-0.0915794 -0.390168 0)
(-0.165754 -0.306269 0)
(-0.339193 -0.115653 0)
(-0.18624 0.370987 0)
(-0.0199133 0.0796437 0)
(-0.0419225 -0.0034923 0)
(0.123687 0.0736285 0)
(0.297323 -0.043217 0)
(0.228768 -0.15191 0)
(0.228212 -0.0359273 0)
(0.141846 0.30675 0)
(-0.0156193 0.415463 0)
(0.135216 0.445357 0)
(-0.0961619 0.443414 0)
(-0.0550727 0.0644365 0)
(-0.18083 -0.117191 0)
(-0.158475 -0.171737 0)
(-0.0671902 -0.17184 0)
(0.03265 -0.142603 0)
(0.117673 -0.0741666 0)
(0.188141 0.00619047 0)
(0.222039 0.0730585 0)
(0.199646 0.122019 0)
(0.0958111 0.132988 0)
(-0.0578764 0.167367 0)
(-0.181647 0.289847 0)
(-0.00873823 0.42815 0)
(0.0885741 0.198287 0)
(-0.0104645 0.134258 0)
(0.0518321 0.0516536 0)
(0.115239 -0.0764186 0)
(0.0661596 -0.211902 0)
(0.00573245 -0.094822 0)
(0.0971984 0.293643 0)
(0.0829318 0.350932 0)
(0.17235 0.28212 0)
(0.215353 0.0743011 0)
(0.293825 -0.222269 0)
(0.171078 -0.244387 0)
(0.0835088 -0.179676 0)
(0.0747686 -0.0894598 0)
(0.0588039 -0.0363183 0)
(0.0313173 -0.0470474 0)
(-0.000105765 -0.070273 0)
(-0.0254399 -0.078415 0)
(-0.0248689 -0.0548214 0)
(-0.0324846 0.00563812 0)
(-0.072486 0.0822128 0)
(-0.102229 0.188859 0)
(0.0491868 0.347259 0)
(0.0910544 0.129481 0)
(0.102446 0.00334046 0)
(0.119597 -0.0382489 0)
(0.114595 -0.0661157 0)
(0.0445524 -0.100863 0)
(-0.068389 -0.0927728 0)
(0.0217384 0.180676 0)
(0.160973 0.212901 0)
(0.249427 0.169769 0)
(0.304441 0.105709 0)
(0.265432 0.0333758 0)
(0.128001 -0.0993742 0)
(0.0510479 -0.173941 0)
(0.00723611 -0.199475 0)
(-0.00928276 -0.200399 0)
(-0.0146705 -0.182893 0)
(-0.0160949 -0.14493 0)
(-0.0181055 -0.0810553 0)
(-0.0375225 -0.00663207 0)
(-0.0498814 0.0668951 0)
(-0.0610456 0.135865 0)
(-0.0645417 0.20895 0)
(0.057236 0.24805 0)
(0.0916634 0.145991 0)
(0.0873117 0.0767784 0)
(0.0663151 0.0251386 0)
(0.0463642 -0.0174172 0)
(0.0188011 -0.0595757 0)
(-0.0479938 -0.0531584 0)
(-0.0409067 0.0126264 0)
(0.0670769 0.108607 0)
(0.167387 0.135882 0)
(0.159156 0.110212 0)
(0.142756 0.0415973 0)
(0.124575 -0.0325627 0)
(0.0692795 -0.071591 0)
(0.0199248 -0.0723658 0)
(-0.0165435 -0.0565073 0)
(-0.0473541 -0.0399941 0)
(-0.0723266 -0.0177223 0)
(-0.097718 0.015114 0)
(-0.121481 0.0582825 0)
(-0.133685 0.114471 0)
(-0.133927 0.170327 0)
(-0.112336 0.225453 0)
(0.0362132 0.171774 0)
(0.0695578 0.108941 0)
(0.0841528 0.0446978 0)
(0.0776129 0.0155049 0)
(0.0584758 0.00231777 0)
(0.0230225 -0.00491534 0)
(-0.0205686 -0.00132187 0)
(-0.0419776 0.0362123 0)
(-0.0393092 0.0462386 0)
(0.0180794 0.0966874 0)
(0.0419733 0.0925873 0)
(0.053748 0.0393674 0)
(0.0357393 -0.0148284 0)
(0.00490233 -0.0552728 0)
(-0.0287594 -0.076991 0)
(-0.0548708 -0.0799433 0)
(-0.0807609 -0.0737658 0)
(-0.106453 -0.0574096 0)
(-0.123663 -0.0248063 0)
(-0.129573 0.018074 0)
(-0.129251 0.0690203 0)
(-0.125023 0.124988 0)
(-0.107396 0.175471 0)
(0.0229723 0.137885 0)
(0.0472105 0.0972758 0)
(0.0577261 0.0601952 0)
(0.0493739 0.0390261 0)
(0.03533 0.0254699 0)
(0.0185293 0.0165831 0)
(-0.00237203 0.0187136 0)
(-0.0131456 0.0344378 0)
(-0.0174147 0.0427294 0)
(-0.00721712 0.0634511 0)
(0.0224232 0.0729204 0)
(0.0274653 0.0558532 0)
(0.0159716 0.0163684 0)
(-0.00781862 -0.0185832 0)
(-0.0366918 -0.0390572 0)
(-0.059412 -0.043111 0)
(-0.0778198 -0.0330554 0)
(-0.0944151 -0.013407 0)
(-0.109831 0.0179874 0)
(-0.119946 0.0496057 0)
(-0.119239 0.0835693 0)
(-0.107234 0.119917 0)
(-0.084774 0.149328 0)
(0.0123639 0.108747 0)
(0.0287698 0.0739903 0)
(0.0355835 0.054784 0)
(0.0307053 0.044583 0)
(0.0228585 0.0371032 0)
(0.0134863 0.033337 0)
(0.00218235 0.0347571 0)
(-0.00165023 0.040183 0)
(-0.00266186 0.0430229 0)
(0.00066903 0.0569528 0)
(0.0130934 0.0600878 0)
(0.0209162 0.0495085 0)
(0.018499 0.0265752 0)
(0.00379663 0.00695682 0)
(-0.0190294 -0.00906416 0)
(-0.0411191 -0.0189599 0)
(-0.0593684 -0.0154888 0)
(-0.0740955 -0.00262209 0)
(-0.0847916 0.0200287 0)
(-0.0914562 0.0474694 0)
(-0.0930322 0.0768754 0)
(-0.0836995 0.108431 0)
(-0.0676083 0.135406 0)
(0.00810973 0.0942391 0)
(0.0168759 0.068094 0)
(0.0200697 0.0566938 0)
(0.0188251 0.0477785 0)
(0.0154695 0.0410926 0)
(0.0109639 0.0381558 0)
(0.00697605 0.0373887 0)
(0.00572115 0.0412074 0)
(0.00465143 0.0424508 0)
(0.00788135 0.0502927 0)
(0.0154309 0.0514461 0)
(0.0200331 0.0462295 0)
(0.0227786 0.0316654 0)
(0.0167485 0.017591 0)
(0.00456856 0.00498985 0)
(-0.00998195 -0.00350467 0)
(-0.0297212 -0.00461797 0)
(-0.0444994 0.00489709 0)
(-0.0557194 0.0257456 0)
(-0.0642968 0.0483218 0)
(-0.0698399 0.0685122 0)
(-0.063623 0.0919984 0)
(-0.0498528 0.115986 0)
(0.00476702 0.0851774 0)
(0.0101871 0.0624346 0)
(0.0135318 0.05537 0)
(0.0139346 0.0494531 0)
(0.0122869 0.044207 0)
(0.0102136 0.0410028 0)
(0.00804753 0.0396937 0)
(0.00746134 0.0407663 0)
(0.00728866 0.0417908 0)
(0.0098514 0.0462938 0)
(0.0152685 0.0472599 0)
(0.0201632 0.0425442 0)
(0.0226451 0.0319554 0)
(0.0199252 0.0234476 0)
(0.011362 0.0156553 0)
(0.000863383 0.0123336 0)
(-0.0152728 0.0150812 0)
(-0.0303357 0.0235416 0)
(-0.0417499 0.0400818 0)
(-0.0472596 0.0614805 0)
(-0.0527487 0.0747937 0)
(-0.0500962 0.085887 0)
(-0.0386543 0.102496 0)
(0.00286994 0.0790618 0)
(0.00709766 0.0580263 0)
(0.0101337 0.0533723 0)
(0.0112642 0.0492103 0)
(0.0107436 0.0456052 0)
(0.00908203 0.0428678 0)
(0.00705723 0.0414432 0)
(0.00555843 0.0412578 0)
(0.00452105 0.0413549 0)
(0.00521998 0.0423807 0)
(0.00910778 0.0413177 0)
(0.0128608 0.0373172 0)
(0.0124609 0.0330296 0)
(0.00921259 0.029801 0)
(0.00227434 0.0251817 0)
(-0.00752811 0.0254449 0)
(-0.0211242 0.0284955 0)
(-0.0299745 0.0350911 0)
(-0.0358941 0.0465083 0)
(-0.0402281 0.0637456 0)
(-0.0384408 0.074651 0)
(-0.0348785 0.0804434 0)
(-0.0241388 0.0907745 0)
(0.00201905 0.0750125 0)
(0.00546484 0.0547154 0)
(0.00780326 0.051558 0)
(0.0082413 0.0487517 0)
(0.00789323 0.0464706 0)
(0.00621258 0.0446314 0)
(0.00438939 0.0434725 0)
(0.00284551 0.0429533 0)
(0.00145838 0.0424321 0)
(0.00119177 0.0412338 0)
(0.00133271 0.0396116 0)
(0.00179024 0.0374974 0)
(-0.000256714 0.0353494 0)
(-0.00247969 0.0321983 0)
(-0.00776314 0.0318856 0)
(-0.0141639 0.0348141 0)
(-0.0206673 0.0354672 0)
(-0.0262405 0.0382136 0)
(-0.0304665 0.0486909 0)
(-0.0318956 0.0615369 0)
(-0.0273044 0.0688124 0)
(-0.020933 0.070543 0)
(-0.0119382 0.0787326 0)
(0.00181509 0.0713793 0)
(0.00398516 0.052329 0)
(0.00479481 0.0509672 0)
(0.00541376 0.0492745 0)
(0.00530631 0.0476281 0)
(0.00491596 0.0463623 0)
(0.00423308 0.0450632 0)
(0.00334725 0.0443349 0)
(0.00251347 0.0434791 0)
(0.00169258 0.0422299 0)
(0.000394203 0.0409834 0)
(-0.000424907 0.0397416 0)
(-0.00282522 0.0380909 0)
(-0.00594344 0.036905 0)
(-0.00914702 0.0373898 0)
(-0.0119316 0.0383296 0)
(-0.0132153 0.0397614 0)
(-0.0173743 0.0444772 0)
(-0.0212656 0.0522524 0)
(-0.0192769 0.0603722 0)
(-0.0151651 0.0640074 0)
(-0.0101369 0.0655443 0)
(-0.0031112 0.0721295 0)
(0.00124085 0.0690699 0)
(0.00252557 0.0513565 0)
(0.00358966 0.0500729 0)
(0.00442995 0.0485406 0)
(0.00469035 0.0474292 0)
(0.00496238 0.0465222 0)
(0.00491447 0.0456939 0)
(0.00459364 0.04519 0)
(0.00425336 0.0447455 0)
(0.00356943 0.0438676 0)
(0.00204708 0.0418605 0)
(0.000545602 0.0401746 0)
(-0.00122116 0.0405236 0)
(-0.00365626 0.0395141 0)
(-0.00608038 0.0390265 0)
(-0.00876574 0.039133 0)
(-0.0109107 0.0432474 0)
(-0.0140624 0.0476904 0)
(-0.0151125 0.0518656 0)
(-0.0136063 0.0575496 0)
(-0.0109208 0.0598905 0)
(-0.00651367 0.0599023 0)
(-0.00287141 0.0647898 0)
(0.000886055 0.0675591 0)
(0.00196385 0.0498931 0)
(0.0032143 0.0488917 0)
(0.00372807 0.0478355 0)
(0.0039821 0.0470514 0)
(0.0040477 0.046223 0)
(0.00396975 0.0455666 0)
(0.00401096 0.0449597 0)
(0.00417814 0.044285 0)
(0.00427771 0.0440239 0)
(0.00342365 0.0433808 0)
(0.0017706 0.0427434 0)
(0.0011498 0.042466 0)
(-4.35318e-05 0.0418303 0)
(-0.00206515 0.0416378 0)
(-0.00483833 0.0424072 0)
(-0.00747481 0.0441225 0)
(-0.00766328 0.0467882 0)
(-0.00695312 0.0506174 0)
(-0.00518629 0.0549976 0)
(-0.00201276 0.0562433 0)
(0.00225685 0.0565469 0)
(0.00437214 0.0606824 0)
(0.000793606 0.066103 0)
(0.00165247 0.0491609 0)
(0.0018967 0.0484943 0)
(0.00221672 0.0479769 0)
(0.00227953 0.0471765 0)
(0.00223397 0.0462721 0)
(0.00203326 0.0455009 0)
(0.0017524 0.0449317 0)
(0.00149409 0.044815 0)
(0.00112795 0.0448522 0)
(0.000991317 0.0447844 0)
(-0.000263058 0.0439255 0)
(-0.00131551 0.0427861 0)
(-0.00211768 0.0435067 0)
(-0.0030818 0.0440881 0)
(-0.00420397 0.0458841 0)
(-0.0059044 0.0469498 0)
(-0.0072033 0.0480495 0)
(-0.00678662 0.0511287 0)
(-0.00550997 0.0530993 0)
(-0.00274266 0.0537721 0)
(-0.000319476 0.0549491 0)
(0.00333769 0.0583818 0)
(0.000555916 0.0651017 0)
(0.00120682 0.0486148 0)
(0.00154482 0.0480878 0)
(0.00195564 0.0474812 0)
(0.00205462 0.0469896 0)
(0.00207211 0.0466453 0)
(0.00187043 0.0461573 0)
(0.00151978 0.0455181 0)
(0.00105156 0.0447605 0)
(0.000512513 0.0448127 0)
(4.2063e-05 0.0445148 0)
(-0.000416895 0.0437275 0)
(-0.00184821 0.0439665 0)
(-0.00306671 0.0433547 0)
(-0.00438887 0.0435871 0)
(-0.00463309 0.0447519 0)
(-0.0036209 0.0455301 0)
(-0.00320057 0.0473388 0)
(-0.00301916 0.0485549 0)
(-0.00120653 0.0495418 0)
(0.0013689 0.0500338 0)
(0.0017927 0.0503956 0)
(0.00609356 0.0516421 0)
(0.00061634 0.0640613 0)
(0.00126753 0.048086 0)
(0.00159567 0.0477357 0)
(0.0019453 0.0474904 0)
(0.00209536 0.0471973 0)
(0.00208389 0.0467529 0)
(0.00205584 0.046376 0)
(0.00191385 0.046065 0)
(0.00160883 0.0458532 0)
(0.000919799 0.0452125 0)
(0.000704059 0.0451191 0)
(0.000568566 0.0456653 0)
(0.000334521 0.0455947 0)
(-0.000346167 0.0454364 0)
(-0.00157577 0.0457013 0)
(-0.00215584 0.0456967 0)
(-0.00379617 0.046594 0)
(-0.00414358 0.0482 0)
(-0.00344597 0.0484799 0)
(-0.00145953 0.0494947 0)
(-0.000547452 0.0498869 0)
(0.00165093 0.0501869 0)
(0.00475889 0.048327 0)
(0.000374212 0.0634977 0)
(0.000725397 0.047792 0)
(0.000935541 0.0474001 0)
(0.00122367 0.0471289 0)
(0.00132435 0.0468525 0)
(0.0013101 0.0465597 0)
(0.00118024 0.0462212 0)
(0.00092707 0.0458946 0)
(0.000600102 0.0457511 0)
(0.000280029 0.0460201 0)
(-0.000244534 0.0458876 0)
(-0.0012434 0.0453595 0)
(-0.00175114 0.0454564 0)
(-0.00202469 0.0462935 0)
(-0.002492 0.0462914 0)
(-0.00333397 0.0461399 0)
(-0.00303135 0.0469152 0)
(-0.00206378 0.0460661 0)
(-0.000775777 0.0469244 0)
(-0.00111419 0.047184 0)
(0.00070275 0.0480367 0)
(0.00196403 0.0463477 0)
(0.00446323 0.0452531 0)
(0.000389783 0.0627244 0)
(0.000832173 0.0473786 0)
(0.00101248 0.0470432 0)
(0.00130273 0.0469159 0)
(0.0014257 0.0468222 0)
(0.00157491 0.0467975 0)
(0.00156231 0.0466583 0)
(0.00141488 0.0465306 0)
(0.00117898 0.0463915 0)
(0.00103536 0.0462064 0)
(0.000666596 0.0461175 0)
(0.000126413 0.0462626 0)
(-0.000585352 0.0458695 0)
(-0.00151796 0.0458298 0)
(-0.00125897 0.0456688 0)
(-0.000902173 0.0465236 0)
(-0.0014585 0.0463902 0)
(-0.0019944 0.0471947 0)
(-0.00262683 0.0475697 0)
(-0.00196017 0.0468985 0)
(-0.000244147 0.0452756 0)
(0.00115644 0.0451522 0)
(0.00218679 0.0439328 0)
(0.000327691 0.0623597 0)
(0.000668354 0.0473045 0)
(0.000811933 0.0470405 0)
(0.00102141 0.0469324 0)
(0.00100451 0.046806 0)
(0.00100456 0.0466388 0)
(0.000896572 0.046503 0)
(0.000657969 0.0464061 0)
(0.000289299 0.0462889 0)
(-0.000119896 0.0462444 0)
(-0.000299273 0.0466518 0)
(2.71852e-05 0.0466673 0)
(-0.000292121 0.0468955 0)
(-0.000633999 0.0467962 0)
(-0.00189899 0.0472676 0)
(-0.00296636 0.0466099 0)
(-0.00317852 0.0467265 0)
(-0.00275516 0.0467949 0)
(-0.00154538 0.0454119 0)
(-0.000472673 0.04545 0)
(-0.00106806 0.0460924 0)
(-0.00092235 0.0442712 0)
(0.000719753 0.0416991 0)
(0.000305668 0.0616452 0)
(0.00068477 0.0468403 0)
(0.00089621 0.0465944 0)
(0.00123859 0.0466314 0)
(0.00143251 0.0467174 0)
(0.00154844 0.046778 0)
(0.00156465 0.0468464 0)
(0.00150459 0.0469034 0)
(0.00134481 0.046965 0)
(0.000969234 0.0469748 0)
(0.000252052 0.0467524 0)
(-0.000813175 0.0469714 0)
(-0.00131028 0.0470852 0)
(-0.00164112 0.0472085 0)
(-0.00146636 0.0466965 0)
(-0.000983698 0.0463576 0)
(-0.00102729 0.0464193 0)
(-0.00155601 0.0461709 0)
(-0.00239643 0.0471279 0)
(-0.00316719 0.0462336 0)
(-0.00219042 0.0441302 0)
(-0.00165774 0.0431855 0)
(-0.00173566 0.0417802 0)
(0.000258001 0.0613829 0)
(0.00057354 0.0468138 0)
(0.000708047 0.0465322 0)
(0.000937792 0.0465601 0)
(0.00100006 0.046568 0)
(0.00100372 0.0465815 0)
(0.000893729 0.0466496 0)
(0.000705648 0.0467963 0)
(0.000462926 0.0469985 0)
(0.000230842 0.0472929 0)
(0.000133729 0.0476678 0)
(0.000314565 0.0476918 0)
(0.000122592 0.0475064 0)
(-0.000279938 0.047398 0)
(-0.000933578 0.047633 0)
(-0.00211425 0.0477882 0)
(-0.00301594 0.0475907 0)
(-0.0033306 0.0474199 0)
(-0.00313462 0.045839 0)
(-0.00258427 0.0452051 0)
(-0.00315798 0.0450278 0)
(-0.00374892 0.0434507 0)
(-0.00371601 0.0414283 0)
(0.000280022 0.0607301 0)
(0.000775225 0.0463432 0)
(0.00106389 0.0461059 0)
(0.00145888 0.0462722 0)
(0.00166839 0.0464667 0)
(0.00181641 0.0466915 0)
(0.00181198 0.0469144 0)
(0.00165617 0.0470855 0)
(0.00135574 0.0472138 0)
(0.000916079 0.0472867 0)
(0.000303311 0.0472957 0)
(-0.00053457 0.0475045 0)
(-0.00120607 0.0477729 0)
(-0.0017568 0.0478105 0)
(-0.00214697 0.0476634 0)
(-0.00218792 0.0472668 0)
(-0.00221225 0.046946 0)
(-0.00259524 0.0468677 0)
(-0.00333334 0.047058 0)
(-0.00418396 0.0462966 0)
(-0.00454384 0.0448401 0)
(-0.0050341 0.043633 0)
(-0.00580706 0.0421026 0)
(0.000281808 0.0603801 0)
(0.000706558 0.0461508 0)
(0.000933043 0.0458929 0)
(0.00126131 0.0461208 0)
(0.00139975 0.0463861 0)
(0.00150761 0.0467244 0)
(0.00151101 0.0471198 0)
(0.00141927 0.0475351 0)
(0.00122675 0.0479395 0)
(0.000969239 0.0482957 0)
(0.000656843 0.0486054 0)
(0.000326418 0.0486382 0)
(-7.75497e-05 0.0486119 0)
(-0.000579049 0.048684 0)
(-0.00121969 0.0487051 0)
(-0.00205872 0.0486976 0)
(-0.00299561 0.0485282 0)
(-0.00375228 0.0479957 0)
(-0.00426705 0.0471471 0)
(-0.00470358 0.0464612 0)
(-0.00550815 0.0457189 0)
(-0.00656037 0.0444764 0)
(-0.00759728 0.0430041 0)
(0.00036786 0.0596561 0)
(0.000951738 0.0455929 0)
(0.00125441 0.0453723 0)
(0.00170497 0.0456865 0)
(0.00193901 0.0460102 0)
(0.00215209 0.046398 0)
(0.00223604 0.0468133 0)
(0.0021885 0.0472301 0)
(0.00197726 0.0476196 0)
(0.00161185 0.0479425 0)
(0.00109426 0.0482467 0)
(0.000427085 0.0486181 0)
(-0.000311303 0.0488634 0)
(-0.00103782 0.0489452 0)
(-0.0017382 0.0489432 0)
(-0.00238113 0.0488092 0)
(-0.00298857 0.0485854 0)
(-0.00372064 0.0483816 0)
(-0.00462362 0.0481072 0)
(-0.00558439 0.0474944 0)
(-0.00655847 0.0465953 0)
(-0.00774589 0.0455679 0)
(-0.00914156 0.0443426 0)
(0.00042836 0.0590397 0)
(0.000966276 0.0453973 0)
(0.00118464 0.0451755 0)
(0.00159817 0.0455883 0)
(0.00179567 0.0460179 0)
(0.00201842 0.0465175 0)
(0.00220601 0.0471008 0)
(0.00237297 0.0477377 0)
(0.00242672 0.0483856 0)
(0.0022974 0.0490325 0)
(0.00194098 0.0494911 0)
(0.00135678 0.0497316 0)
(0.000593449 0.0498318 0)
(-0.00032064 0.0499115 0)
(-0.00127505 0.0499487 0)
(-0.00226948 0.0499237 0)
(-0.00326207 0.0497636 0)
(-0.00422866 0.0494326 0)
(-0.00518432 0.0489789 0)
(-0.00619457 0.0484539 0)
(-0.00735371 0.0477958 0)
(-0.00877795 0.0469428 0)
(-0.0104101 0.0459413 0)
(0.000620253 0.0581518 0)
(0.00104798 0.0448279 0)
(0.0010282 0.0446039 0)
(0.00133376 0.0450301 0)
(0.00141811 0.0454779 0)
(0.00157592 0.045987 0)
(0.0017404 0.0465909 0)
(0.00190293 0.0472642 0)
(0.00202767 0.0479839 0)
(0.00208794 0.0487838 0)
(0.00202467 0.0495883 0)
(0.00178163 0.0503156 0)
(0.00129906 0.0508571 0)
(0.000525179 0.0511027 0)
(-0.000530687 0.051065 0)
(-0.00177703 0.0508315 0)
(-0.00306089 0.0505669 0)
(-0.00428584 0.0503552 0)
(-0.00548004 0.0500897 0)
(-0.00670165 0.0496837 0)
(-0.00801642 0.0491411 0)
(-0.00955515 0.0484928 0)
(-0.0113521 0.0477597 0)
(0.00070349 0.0574418 0)
(0.000863532 0.0450725 0)
(0.000305879 0.0449222 0)
(0.000283648 0.0453336 0)
(3.6047e-05 0.0458038 0)
(-3.05603e-05 0.0462908 0)
(-0.000126988 0.0467656 0)
(-0.00015936 0.0473497 0)
(-0.00010974 0.0480803 0)
(8.9919e-07 0.0488769 0)
(0.0001061 0.0497047 0)
(0.000152296 0.0504739 0)
(6.1228e-05 0.0511606 0)
(-0.000203197 0.0517627 0)
(-0.000647124 0.0522241 0)
(-0.00133236 0.0524721 0)
(-0.00238113 0.0523552 0)
(-0.00387402 0.0518707 0)
(-0.00548258 0.0513261 0)
(-0.00695345 0.0509539 0)
(-0.00845145 0.0506141 0)
(-0.0100892 0.0501973 0)
(-0.0119879 0.0497251 0)
(0.000719964 0.0566851 0)
(0.000248844 0.0455088 0)
(-0.00124106 0.0453659 0)
(-0.00192079 0.0455986 0)
(-0.00278322 0.0459592 0)
(-0.003361 0.0463313 0)
(-0.00386352 0.0467623 0)
(-0.00419077 0.0472544 0)
(-0.00434068 0.0478493 0)
(-0.00428943 0.0485414 0)
(-0.00405774 0.0493635 0)
(-0.00373599 0.0502422 0)
(-0.00343817 0.0510568 0)
(-0.00317844 0.0518004 0)
(-0.00302986 0.052366 0)
(-0.00311272 0.0527944 0)
(-0.00346521 0.0531515 0)
(-0.00400823 0.053406 0)
(-0.00497261 0.0532602 0)
(-0.00657278 0.0527193 0)
(-0.00849927 0.0522089 0)
(-0.0102939 0.0519401 0)
(-0.0123045 0.0517552 0)
(0.000565358 0.0564534 0)
(-0.000850319 0.046941 0)