/*--------------------------------*- C++ -*----------------------------------*\
| =========                 |                                                 |
| \\      /  F ield         | OpenFOAM: The Open Source CFD Toolbox           |
|  \\    /   O peration     | Version:  2.4.0                                 |
|   \\  /    A nd           | Web:      www.OpenFOAM.org                      |
|    \\/     M anipulation  |                                                 |
\*---------------------------------------------------------------------------*/
FoamFile
{
    version     2.0;
    format      ascii;
    class       volVectorField;
    location    "0.65";
    object      U.mercury;
}
// * * * * * * * * * * * * * * * * * * * * * * * * * * * * * * * * * * * * * //

dimensions      [0 1 -1 0 0 0 0];

internalField   nonuniform List<vector> 
2268
(
(0.013151 0.00091501 0)
(0.036283 -0.000217646 0)
(0.063927 0.0045021 0)
(0.0773026 -2.82029e-05 0)
(0.110014 -0.00076497 0)
(0.136324 0.00381854 0)
(0.148214 0.00600267 0)
(0.162356 0.0103028 0)
(0.173106 0.0101092 0)
(0.191112 0.0163744 0)
(0.193275 0.0349808 0)
(0.177458 0.0387455 0)
(0.141989 0.0325313 0)
(0.0843254 0.0224991 0)
(0.0269896 0.0101789 0)
(-0.0201037 -0.0058667 0)
(-0.0471597 -0.00489818 0)
(-0.0732601 -0.00682586 0)
(-0.0810208 0.0005623 0)
(-0.0853457 -0.00824173 0)
(-0.0511242 -0.00445431 0)
(-0.0374011 -0.000703919 0)
(-0.0347174 -0.00617314 0)
(0.0141641 -0.0286869 0)
(0.0350144 -0.0307642 0)
(0.0640224 -0.0248582 0)
(0.0802246 -0.0303448 0)
(0.109965 -0.0305843 0)
(0.134816 -0.0247219 0)
(0.150941 -0.0257305 0)
(0.166608 -0.024703 0)
(0.185534 -0.0292983 0)
(0.1992 -0.0330105 0)
(0.19393 -0.0334943 0)
(0.172543 -0.0196759 0)
(0.134549 0.0112529 0)
(0.0825248 0.031003 0)
(0.0218466 0.0381752 0)
(-0.0222842 0.0356942 0)
(-0.0477349 0.0274113 0)
(-0.0681169 0.0187936 0)
(-0.0811518 0.00521688 0)
(-0.0739564 -0.00596493 0)
(-0.0557454 -0.0176752 0)
(-0.031098 -0.00770715 0)
(-0.0239694 -0.0280045 0)
(0.0150994 -0.00807303 0)
(0.0327966 -0.0103657 0)
(0.0625411 -0.00213282 0)
(0.086897 -0.0103129 0)
(0.104939 -0.0114101 0)
(0.130473 -0.00314613 0)
(0.147753 0.000532579 0)
(0.167161 0.00752345 0)
(0.18451 0.00896012 0)
(0.184481 0.0256771 0)
(0.184018 0.0638171 0)
(0.186228 0.0911301 0)
(0.161693 0.0860529 0)
(0.111141 0.0771403 0)
(0.0417653 0.0567561 0)
(-0.0232219 0.0328157 0)
(-0.0641087 0.0248618 0)
(-0.0817365 0.0155129 0)
(-0.0940174 0.00659255 0)
(-0.0703132 -0.0186266 0)
(-0.0478049 -0.0252693 0)
(-0.0103949 -0.0154648 0)
(0.00467378 -0.0306336 0)
(0.0159985 -0.162719 0)
(0.029267 -0.165328 0)
(0.0565726 -0.157598 0)
(0.0890952 -0.166282 0)
(0.0985126 -0.166704 0)
(0.11985 -0.158721 0)
(0.147225 -0.15631 0)
(0.173878 -0.150397 0)
(0.190952 -0.143 0)
(0.1955 -0.120593 0)
(0.195171 -0.0860376 0)
(0.17422 -0.0440233 0)
(0.131931 0.0383737 0)
(0.0826402 0.111218 0)
(0.0172996 0.107689 0)
(-0.034265 0.0737031 0)
(-0.0673087 0.044775 0)
(-0.0820143 0.0216907 0)
(-0.0938364 0.00152201 0)
(-0.0712133 -0.029518 0)
(-0.0582088 -0.0461852 0)
(-0.0112941 -0.030193 0)
(0.00219983 -0.0306934 0)
(0.0124255 -0.325726 0)
(0.0234954 -0.323881 0)
(0.0457304 -0.328308 0)
(0.0756271 -0.324014 0)
(0.0837381 -0.326723 0)
(0.0954438 -0.33052 0)
(0.12602 -0.32656 0)
(0.146786 -0.321458 0)
(0.150603 -0.308496 0)
(0.158206 -0.288374 0)
(0.16326 -0.245765 0)
(0.157488 -0.106844 0)
(0.142933 -0.0157393 0)
(0.0653031 0.0773204 0)
(-0.0132457 0.108657 0)
(-0.0597892 0.0823898 0)
(-0.0813606 0.057157 0)
(-0.0869588 0.0333012 0)
(-0.0916249 -0.00132874 0)
(-0.0684756 -0.0359208 0)
(-0.0722528 -0.0544971 0)
(-0.0238559 -0.0469287 0)
(0.00575776 -0.034734 0)
(-0.0049098 -0.184397 0)
(-0.00177456 -0.186507 0)
(-0.00877506 -0.188339 0)
(-0.011739 -0.188972 0)
(-0.00489498 -0.18876 0)
(-0.0044955 -0.195092 0)
(-0.00583069 -0.193598 0)
(-0.0148841 -0.188248 0)
(-0.0172854 -0.187216 0)
(-0.0137478 -0.186525 0)
(0.0533231 -0.195723 0)
(0.144701 -0.250038 0)
(0.155826 -0.147876 0)
(0.0337485 0.0522993 0)
(-0.062862 0.117877 0)
(-0.120557 0.0897111 0)
(-0.12053 0.0518736 0)
(-0.107004 0.0313148 0)
(-0.0929587 -0.00126822 0)
(-0.0663056 -0.0348513 0)
(-0.0773093 -0.0631236 0)
(-0.0494998 -0.0647863 0)
(-0.00156409 -0.0397081 0)
(-0.00576153 -0.0114602 0)
(-0.0118571 -0.00795707 0)
(-0.015091 -0.0157005 0)
(-0.0128745 -0.00435979 0)
(-0.012044 0.00427518 0)
(-0.00118376 0.00205806 0)
(0.00822141 0.0219086 0)
(-0.00389163 0.0367107 0)
(-0.0172825 0.0511881 0)
(-0.0429334 0.0614533 0)
(-0.0927276 0.0694863 0)
(-0.140412 0.0213725 0)
(0.0299469 -0.130916 0)
(-0.0603255 -0.0102986 0)
(-0.161093 0.106944 0)
(-0.190019 0.100749 0)
(-0.179185 0.0500091 0)
(-0.139004 0.00385466 0)
(-0.106364 -0.0272236 0)
(-0.0792355 -0.043715 0)
(-0.0809752 -0.0646918 0)
(-0.0550839 -0.0798444 0)
(-0.00299424 -0.0564013 0)
(-0.00551551 -0.0821364 0)
(-0.0103007 -0.0866406 0)
(-0.0154696 -0.0926149 0)
(-0.0168893 -0.0948839 0)
(-0.00928954 -0.0940467 0)
(-0.0094967 -0.0978039 0)
(-0.0109903 -0.0873794 0)
(-0.0229127 -0.0788704 0)
(-0.0250743 -0.0769992 0)
(-0.0314165 -0.0688809 0)
(-0.0272186 -0.0373957 0)
(-0.0499706 0.0326738 0)
(-0.221797 0.0463892 0)
(-0.3089 -0.0196192 0)
(-0.313626 0.0374258 0)
(-0.324746 0.0491173 0)
(-0.306936 0.0296647 0)
(-0.230818 0.0188608 0)
(-0.172591 -0.0152011 0)
(-0.115521 -0.034413 0)
(-0.0803069 -0.0714386 0)
(-0.0451325 -0.0982498 0)
(0.00273804 -0.0609852 0)
(-0.313568 -0.469836 0)
(-0.306757 -0.34066 0)
(-0.0215308 -0.303604 0)
(0.210652 -0.269314 0)
(0.418185 -0.249159 0)
(0.565958 -0.237344 0)
(0.684746 -0.236423 0)
(0.766258 -0.251912 0)
(0.80112 -0.285656 0)
(0.80058 -0.310747 0)
(0.786855 -0.32422 0)
(0.76364 -0.346444 0)
(0.695629 -0.365795 0)
(0.620313 -0.357428 0)
(0.567066 -0.325722 0)
(0.487523 -0.270862 0)
(0.317573 -0.201472 0)
(-0.0765965 -0.23131 0)
(-0.0055569 -0.297894 0)
(-0.246344 -0.0219022 0)
(0.0499027 -0.204631 0)
(0.230548 -0.265746 0)
(0.325297 -0.177291 0)
(0.477002 -0.111997 0)
(0.587843 -0.0648372 0)
(0.663065 -0.04863 0)
(0.739395 -0.027561 0)
(0.780563 -0.0134374 0)
(0.797024 -0.00813327 0)
(0.831196 -0.00136612 0)
(0.874973 0.0438262 0)
(0.857156 0.11035 0)
(0.805873 0.118524 0)
(0.714827 0.109743 0)
(0.653702 0.170522 0)
(0.494698 0.210521 0)
(0.0783984 0.152884 0)
(0.00514864 0.0492372 0)
(-0.0693459 -0.174124 0)
(0.274543 -0.464124 0)
(0.370994 -0.490629 0)
(0.483757 -0.410382 0)
(0.559478 -0.328843 0)
(0.600733 -0.270967 0)
(0.606884 -0.272105 0)
(0.62488 -0.275618 0)
(0.654029 -0.280218 0)
(0.672183 -0.288976 0)
(0.672753 -0.291878 0)
(0.684318 -0.278232 0)
(0.692782 -0.24647 0)
(0.6745 -0.234504 0)
(0.591082 -0.258674 0)
(0.554779 -0.130571 0)
(0.451659 0.172921 0)
(0.0502635 0.136823 0)
(-0.0721045 -0.13051 0)
(0.103965 -0.022761 0)
(0.385988 -0.442781 0)
(0.465452 -0.523906 0)
(0.523537 -0.525241 0)
(0.587696 -0.481005 0)
(0.598446 -0.436496 0)
(0.602675 -0.457627 0)
(0.604342 -0.443975 0)
(0.591688 -0.39235 0)
(0.577678 -0.377165 0)
(0.532025 -0.324047 0)
(0.51573 -0.300412 0)
(0.528214 -0.294318 0)
(0.515332 -0.308874 0)
(0.427308 -0.394163 0)
(0.341228 -0.330184 0)
(0.340775 0.205054 0)
(-0.0802729 0.206929 0)
(-0.0451581 -0.0698548 0)
(0.329281 -0.036358 0)
(0.426377 -0.465052 0)
(0.481379 -0.600937 0)
(0.485706 -0.684148 0)
(0.52607 -0.697748 0)
(0.600915 -0.725872 0)
(0.635033 -0.788956 0)
(0.739906 -0.90539 0)
(0.819153 -0.954022 0)
(0.727485 -0.899841 0)
(0.539869 -0.695595 0)
(0.484578 -0.486751 0)
(0.522601 -0.431717 0)
(0.506812 -0.448682 0)
(0.392369 -0.499412 0)
(0.321991 -0.41927 0)
(0.200756 0.158904 0)
(-0.219359 0.21879 0)
(0.0391324 -0.224384 0)
(0.413783 -0.211943 0)
(0.42065 -0.518103 0)
(0.473834 -0.643166 0)
(0.491504 -0.753521 0)
(0.477602 -0.764579 0)
(0.487461 -0.77095 0)
(0.498117 -0.809231 0)
(0.500406 -0.610882 0)
(0.694006 -0.250594 0)
(0.770122 -0.215884 0)
(1.06087 -1.15521 0)
(0.563931 -0.577537 0)
(0.48793 -0.439661 0)
(0.455751 -0.491095 0)
(0.288293 -0.479058 0)
(0.239608 -0.376019 0)
(0.101105 0.0590517 0)
(-0.226469 0.198574 0)
(0.16713 -0.349479 0)
(0.396026 -0.404277 0)
(0.409485 -0.579975 0)
(0.451496 -0.697549 0)
(0.516183 -0.839552 0)
(0.531219 -0.932506 0)
(0.496897 -0.838406 0)
(0.50657 -0.834168 0)
(0.504578 -0.512249 0)
(0.570291 -0.206373 0)
(0.618012 -0.127332 0)
(0.698612 -0.220214 0)
(0.731336 -0.848079 0)
(0.543896 -0.592264 0)
(0.400149 -0.64782 0)
(0.285248 -0.556404 0)
(0.191844 -0.334607 0)
(0.217522 -0.0372517 0)
(-0.109109 0.0562522 0)
(0.300136 -0.447357 0)
(0.411857 -0.471607 0)
(0.431274 -0.604164 0)
(0.483652 -0.735243 0)
(0.534491 -0.85356 0)
(0.557874 -0.925328 0)
(0.547585 -0.734364 0)
(0.469865 -0.493763 0)
(0.515696 -0.363151 0)
(0.489324 -0.244363 0)
(0.531576 -0.108634 0)
(0.581754 -0.0605917 0)
(0.707538 -0.390936 0)
(0.660623 -0.758076 0)
(0.327016 -0.759243 0)
(0.276022 -0.576705 0)
(0.179207 -0.343875 0)
(0.23707 -0.00352977 0)
(0.0652216 -0.0241453 0)
(0.383753 -0.456292 0)
(-0.00596451 -0.0767648 0)
(-0.0137529 -0.0759022 0)
(-0.0167116 -0.0772587 0)
(-0.00972295 -0.0725114 0)
(0.00423788 -0.0621645 0)
(0.0129565 -0.0588453 0)
(0.0294001 -0.0287845 0)
(0.0189488 0.00163362 0)
(-0.00771477 0.0332957 0)
(-0.055802 0.0500692 0)
(-0.105839 0.046629 0)
(-0.124128 0.020436 0)
(-0.132235 0.0450569 0)
(-0.267077 -0.0514127 0)
(-0.241089 -0.0226125 0)
(-0.242797 0.00323843 0)
(-0.272693 -0.0835604 0)
(-0.274618 -0.170559 0)
(-0.251869 -0.181664 0)
(-0.182138 -0.178721 0)
(-0.0816701 -0.20375 0)
(-0.0122575 -0.226746 0)
(0.0511047 -0.163087 0)
(-0.0050076 0.0173395 0)
(-0.0122936 0.00230235 0)
(-0.0145452 -0.027128 0)
(-0.00727192 -0.0514126 0)
(0.0125502 -0.0518209 0)
(0.0206933 -0.0617771 0)
(0.0335115 -0.0291077 0)
(0.0260375 0.00559995 0)
(0.0310258 0.0328238 0)
(0.0229836 0.0591192 0)
(0.00118249 0.0881933 0)
(-0.00861522 0.110361 0)
(-0.0309622 0.147859 0)
(-0.109791 0.0601243 0)
(-0.118438 -0.0665935 0)
(-0.0660274 -0.102366 0)
(-0.0260025 -0.0940664 0)
(0.000942642 -0.111016 0)
(0.00643148 -0.199626 0)
(0.0411643 -0.353744 0)
(0.103766 -0.518585 0)
(0.108954 -0.494222 0)
(0.162474 -0.473706 0)
(-0.0105992 -0.0880115 0)
(-0.0382886 -0.101867 0)
(-0.0531068 -0.118987 0)
(-0.0307308 -0.134586 0)
(0.0137116 -0.128583 0)
(0.0302214 -0.125364 0)
(0.0472389 -0.0748506 0)
(0.0130188 -0.0250424 0)
(-0.0192841 0.00386134 0)
(-0.051081 0.0301859 0)
(-0.0540715 0.0474482 0)
(-0.0455889 0.0553555 0)
(-0.0271431 0.100991 0)
(0.0129394 0.126376 0)
(0.0194222 0.0358283 0)
(0.124808 -0.0417877 0)
(0.155295 -0.250326 0)
(0.187603 -0.316927 0)
(0.272617 -0.399771 0)
(0.320007 -0.470851 0)
(0.408235 -0.512772 0)
(0.447742 -0.529185 0)
(0.501431 -0.533563 0)
(-0.0363595 0.0988231 0)
(-0.0909223 0.0915313 0)
(-0.0874265 0.0238908 0)
(-0.0662696 -0.0580561 0)
(-0.0672086 -0.0550832 0)
(-0.126107 -0.046884 0)
(-0.135603 0.0249534 0)
(-0.120472 0.092513 0)
(-0.115406 0.114292 0)
(-0.113231 0.116178 0)
(-0.0973293 0.0952369 0)
(-0.0963943 0.0707399 0)
(-0.0689932 0.0442805 0)
(-0.0187991 0.0380106 0)
(0.0347533 0.0360326 0)
(0.115517 -0.013035 0)
(0.179334 -0.10864 0)
(0.22866 -0.206317 0)
(0.32417 -0.239425 0)
(0.360809 -0.298613 0)
(0.412436 -0.353849 0)
(0.443366 -0.398972 0)
(0.487272 -0.437417 0)
(-0.0139044 -0.028291 0)
(-0.0400684 -0.0831343 0)
(-0.0919787 -0.25221 0)
(-0.341418 -0.286604 0)
(-0.595607 -0.163712 0)
(-0.685377 -0.164556 0)
(-0.687633 -0.159222 0)
(-0.591995 -0.0923742 0)
(-0.499834 -0.0534103 0)
(-0.412879 0.00966147 0)
(-0.345228 0.0433176 0)
(-0.30285 0.0407193 0)
(-0.199259 0.0654242 0)
(-0.106062 0.0707267 0)
(-0.0284549 0.0403587 0)
(0.0562098 -0.0337486 0)
(0.124621 -0.0918253 0)
(0.148528 -0.189146 0)
(0.237593 -0.241875 0)
(0.217206 -0.325763 0)
(0.263785 -0.392628 0)
(0.265837 -0.453676 0)
(0.282558 -0.526814 0)
(0.00884759 -0.290743 0)
(0.0140568 -0.356212 0)
(-0.200145 -0.388532 0)
(-0.440216 -0.361473 0)
(-0.550009 -0.326322 0)
(-0.682873 -0.371433 0)
(-0.703681 -0.492033 0)
(-0.66307 -0.541164 0)
(-0.617798 -0.475298 0)
(-0.588311 -0.39669 0)
(-0.569679 -0.333512 0)
(-0.498488 -0.321784 0)
(-0.413318 -0.285671 0)
(-0.322948 -0.226726 0)
(-0.256148 -0.219213 0)
(-0.174359 -0.202649 0)
(-0.1121 -0.248021 0)
(-0.0841135 -0.348904 0)
(0.0175762 -0.424936 0)
(0.0317033 -0.530078 0)
(0.0569403 -0.615348 0)
(0.0360525 -0.672154 0)
(0.00424044 -0.382498 0)
(-0.0605385 0.0650687 0)
(-0.0595904 0.223792 0)
(-0.106043 0.321003 0)
(-0.234335 0.297879 0)
(-0.308023 0.272121 0)
(0.00834297 -0.0540172 0)
(0.422575 -0.0681524 0)
(0.562175 0.142608 0)
(0.250549 0.453061 0)
(-0.125123 0.731116 0)
(-0.303767 0.937677 0)
(-0.524512 0.321158 0)
(-0.391684 -0.295273 0)
(-0.369993 -0.498082 0)
(-0.320873 -0.550473 0)
(-0.267886 -0.563353 0)
(-0.242412 -0.461917 0)
(-0.255421 -0.269939 0)
(-0.449158 0.0543318 0)
(-0.781987 0.465111 0)
(-1.12426 0.209095 0)
(-1.21956 -0.114822 0)
(-1.20963 -0.122774 0)
(-0.25377 0.206461 0)
(-0.264452 0.161091 0)
(-0.0993041 0.222905 0)
(-0.00758132 0.295193 0)
(0.263105 -0.0744182 0)
(0.324533 -0.376675 0)
(0.244213 -0.370696 0)
(0.111069 -0.157744 0)
(-0.137132 0.120985 0)
(-0.205341 -0.153867 0)
(-0.214713 -0.326939 0)
(0.0812794 -0.74292 0)
(0.0874554 -0.681175 0)
(0.131413 -0.354705 0)
(0.043729 -0.12787 0)
(-0.0634254 -0.0851829 0)
(-0.182805 -0.206605 0)
(-0.224555 -0.282944 0)
(-0.290027 -0.32327 0)
(-0.164436 -0.441013 0)
(-0.0913584 -0.390641 0)
(-0.1655 -0.306784 0)
(-0.338973 -0.116288 0)
(-0.186248 0.370949 0)
(-0.0199277 0.079604 0)
(-0.0419346 -0.0035256 0)
(0.123688 0.0736043 0)
(0.297345 -0.0432296 0)
(0.228814 -0.151919 0)
(0.228278 -0.0359371 0)
(0.141932 0.306732 0)
(-0.0155157 0.415418 0)
(0.135338 0.445311 0)
(-0.0960141 0.443372 0)
(-0.0548923 0.0643746 0)
(-0.180617 -0.117267 0)
(-0.15823 -0.17184 0)
(-0.0669149 -0.171984 0)
(0.0329454 -0.142798 0)
(0.117961 -0.0744375 0)
(0.188394 0.00585196 0)
(0.222247 0.072664 0)
(0.199818 0.121566 0)
(0.0959978 0.132462 0)
(-0.0577207 0.166782 0)
(-0.181427 0.289165 0)
(-0.00874258 0.428105 0)
(0.0885661 0.198246 0)
(-0.0104685 0.134223 0)
(0.0518387 0.0516258 0)
(0.115263 -0.0764409 0)
(0.0662038 -0.211924 0)
(0.00579405 -0.0948437 0)
(0.09728 0.293618 0)
(0.0830313 0.350898 0)
(0.172467 0.282077 0)
(0.215494 0.0742473 0)
(0.293987 -0.222338 0)
(0.171265 -0.244476 0)
(0.08372 -0.179792 0)
(0.0750005 -0.0896192 0)
(0.0590414 -0.0365348 0)
(0.0315377 -0.047341 0)
(7.66075e-05 -0.0706384 0)
(-0.0253003 -0.0788535 0)
(-0.0247614 -0.055312 0)
(-0.0323907 0.00509774 0)
(-0.0723602 0.0816155 0)
(-0.102119 0.188233 0)
(0.0491853 0.347206 0)
(0.0910526 0.129431 0)
(0.102449 0.00329562 0)
(0.119609 -0.0382873 0)
(0.114621 -0.0661523 0)
(0.0445938 -0.1009 0)
(-0.0683321 -0.0928129 0)
(0.0218103 0.180631 0)
(0.161058 0.212849 0)
(0.249528 0.16971 0)
(0.304559 0.105634 0)
(0.26557 0.0332818 0)
(0.128156 -0.0994923 0)
(0.0512193 -0.174095 0)
(0.0074124 -0.199674 0)
(-0.00911904 -0.200664 0)
(-0.0145326 -0.183231 0)
(-0.0159885 -0.145342 0)
(-0.0180279 -0.0815258 0)
(-0.0374567 -0.00714152 0)
(-0.0497887 0.0663612 0)
(-0.060942 0.135311 0)
(-0.064434 0.208374 0)
(0.0572356 0.247991 0)
(0.0916638 0.145936 0)
(0.0873167 0.0767267 0)
(0.0663293 0.0250901 0)
(0.0463911 -0.0174654 0)
(0.0188404 -0.0596255 0)
(-0.0479419 -0.0532126 0)
(-0.0408429 0.0125659 0)
(0.0671512 0.108537 0)
(0.167476 0.135799 0)
(0.159258 0.110114 0)
(0.14287 0.0414823 0)
(0.124699 -0.0327046 0)
(0.0694081 -0.0717698 0)
(0.0200426 -0.0725919 0)
(-0.0164479 -0.0567971 0)
(-0.0472846 -0.0403465 0)
(-0.0722794 -0.0181354 0)
(-0.0976808 0.0146598 0)
(-0.121434 0.0578011 0)
(-0.133624 0.113978 0)
(-0.133832 0.169817 0)
(-0.112283 0.224923 0)
(0.0362142 0.17171 0)
(0.0695614 0.108878 0)
(0.084161 0.0446377 0)
(0.0776284 0.015446 0)
(0.0585009 0.00225847 0)
(0.0230577 -0.00497871 0)
(-0.020523 -0.00139039 0)
(-0.0419223 0.0361346 0)
(-0.0392455 0.0461513 0)
(0.0181516 0.0965875 0)
(0.0420549 0.0924719 0)
(0.0538385 0.0392313 0)
(0.0358324 -0.0149918 0)
(0.00498793 -0.0554704 0)
(-0.0286958 -0.0772361 0)
(-0.0548356 -0.0802393 0)
(-0.080749 -0.074118 0)
(-0.106452 -0.0578061 0)
(-0.123656 -0.0252331 0)
(-0.129543 0.0176284 0)
(-0.129177 0.06857 0)
(-0.124935 0.124536 0)
(-0.10733 0.174995 0)
(0.022973 0.137814 0)
(0.0472141 0.097206 0)
(0.0577344 0.0601262 0)
(0.0493884 0.0389565 0)
(0.0353521 0.0253981 0)
(0.0185595 0.0165065 0)
(-0.00233404 0.0186304 0)
(-0.0131003 0.0343452 0)
(-0.0173629 0.0426257 0)
(-0.0071594 0.0633338 0)
(0.0224869 0.0727871 0)
(0.0275319 0.0557 0)
(0.0160346 0.0161898 0)
(-0.00777281 -0.0187927 0)
(-0.0366745 -0.0393049 0)
(-0.0594264 -0.0434005 0)
(-0.0778535 -0.0333822 0)
(-0.0944447 -0.0137609 0)
(-0.109842 0.0176099 0)
(-0.119917 0.0492216 0)
(-0.119178 0.0831752 0)
(-0.107151 0.119507 0)
(-0.0847336 0.148918 0)
(0.0123657 0.108669 0)
(0.0287746 0.073912 0)
(0.0355916 0.0547052 0)
(0.0307178 0.0445026 0)
(0.0228765 0.0370192 0)
(0.0135101 0.0332475 0)
(0.00221188 0.0346599 0)
(-0.00161567 0.0400763 0)
(-0.00262302 0.0429046 0)
(0.000711998 0.0568211 0)
(0.0131389 0.0599405 0)
(0.0209609 0.0493427 0)
(0.0185355 0.0263885 0)
(0.00381272 0.00674548 0)
(-0.0190471 -0.00930231 0)
(-0.0411645 -0.0192146 0)
(-0.0594217 -0.015759 0)
(-0.0741445 -0.00290536 0)
(-0.0848122 0.019739 0)
(-0.0914381 0.0471657 0)
(-0.0929841 0.0765475 0)
(-0.083627 0.108092 0)
(-0.0675598 0.135032 0)
(0.00811057 0.0941521 0)
(0.0168789 0.0680063 0)
(0.0200757 0.0566048 0)
(0.0188345 0.0476868 0)
(0.0154826 0.0409967 0)
(0.0109809 0.038054 0)
(0.00699672 0.037279 0)
(0.00574499 0.041088 0)
(0.00467788 0.0423201 0)
(0.00790984 0.0501492 0)
(0.0154599 0.0512882 0)
(0.0200597 0.0460556 0)
(0.0227958 0.0314751 0)
(0.0167429 0.0173837 0)
(0.00454267 0.0047791 0)
(-0.0100279 -0.00372014 0)
(-0.0297828 -0.00482184 0)
(-0.0445478 0.00469393 0)
(-0.0557494 0.0255371 0)
(-0.0643036 0.0481002 0)
(-0.0698103 0.0682689 0)
(-0.0635857 0.091722 0)
(-0.0498338 0.115702 0)
(0.00476818 0.0850825 0)
(0.01019 0.0623379 0)
(0.0135359 0.0552711 0)
(0.0139404 0.049351 0)
(0.0122946 0.0441003 0)
(0.0102235 0.04089 0)
(0.0080594 0.0395731 0)
(0.00747494 0.0406362 0)
(0.00730344 0.0416501 0)
(0.00986682 0.0461413 0)
(0.0152835 0.0470945 0)
(0.0201754 0.0423654 0)
(0.022648 0.0317632 0)
(0.019921 0.0232483 0)
(0.0113366 0.0154521 0)
(0.000825453 0.0121474 0)
(-0.015313 0.0148965 0)
(-0.0303884 0.0233626 0)
(-0.0417883 0.0399061 0)
(-0.0472757 0.0612976 0)
(-0.0527541 0.0745969 0)
(-0.0500641 0.085685 0)
(-0.0386375 0.102288 0)
(0.00286911 0.0789562 0)
(0.00709676 0.0579199 0)
(0.0101342 0.053264 0)
(0.0112657 0.0490987 0)
(0.0107459 0.0454891 0)
(0.00908498 0.0427458 0)
(0.00706071 0.0413138 0)
(0.00556235 0.0411196 0)
(0.00452505 0.041207 0)
(0.00522367 0.0422221 0)
(0.00911044 0.0411477 0)
(0.0128608 0.0371355 0)
(0.0124576 0.0328365 0)
(0.00919596 0.029599 0)
(0.00226169 0.0249819 0)
(-0.00755531 0.0252433 0)
(-0.0211782 0.0282923 0)
(-0.0300134 0.0348956 0)
(-0.0359275 0.0463284 0)
(-0.0402555 0.063569 0)
(-0.0384298 0.07448 0)
(-0.0348508 0.0802868 0)
(-0.0240864 0.0906145 0)
(0.00201943 0.0748958 0)
(0.00546493 0.0545984 0)
(0.00780211 0.0514393 0)
(0.00823926 0.0486299 0)
(0.00789044 0.0463446 0)
(0.00620909 0.0444998 0)
(0.00438517 0.0433344 0)
(0.00284051 0.0428075 0)
(0.00145259 0.0422778 0)
(0.00118495 0.04107 0)
(0.00132435 0.0394381 0)
(0.00177909 0.0373131 0)
(-0.000274377 0.0351549 0)
(-0.00249094 0.031992 0)
(-0.00778824 0.0316748 0)
(-0.0142051 0.0345883 0)
(-0.0207012 0.03525 0)
(-0.0262695 0.0380088 0)
(-0.0304854 0.0484936 0)
(-0.0319023 0.0613591 0)
(-0.0272895 0.0686508 0)
(-0.0208893 0.0703838 0)
(-0.0118942 0.0785909 0)
(0.00181392 0.071255 0)
(0.00398225 0.0522033 0)
(0.00479055 0.0508395 0)
(0.00540794 0.0491439 0)
(0.0052988 0.0474936 0)
(0.00490673 0.046223 0)
(0.00422217 0.0449181 0)
(0.00333471 0.0441832 0)
(0.00249941 0.04332 0)
(0.00167684 0.0420627 0)
(0.00037614 0.0408075 0)
(-0.000445959 0.0395563 0)
(-0.0028507 0.0378956 0)
(-0.00597653 0.0366995 0)
(-0.00917922 0.0371681 0)
(-0.0119652 0.0381064 0)
(-0.013248 0.0395396 0)
(-0.0173928 0.0442627 0)
(-0.0212715 0.0520473 0)
(-0.0192682 0.0601804 0)
(-0.0151352 0.063829 0)
(-0.0100888 0.0653721 0)
(-0.00306228 0.0719578 0)
(0.00123992 0.0689388 0)
(0.00252224 0.0512246 0)
(0.00358348 0.0499393 0)
(0.00442106 0.0484045 0)
(0.00467881 0.0472897 0)
(0.00494834 0.0463786 0)
(0.00489794 0.0455454 0)
(0.00457473 0.045036 0)
(0.00423214 0.0445854 0)
(0.0035457 0.0437008 0)
(0.00202063 0.041686 0)
(0.000515155 0.039992 0)
(-0.00125908 0.0403316 0)
(-0.00369398 0.0393138 0)
(-0.00612325 0.0388164 0)
(-0.00880698 0.0389166 0)
(-0.0109357 0.0430323 0)
(-0.0140745 0.0474785 0)
(-0.0151086 0.0516614 0)
(-0.013586 0.0573542 0)
(-0.0108859 0.059704 0)
(-0.00646315 0.059718 0)
(-0.00283296 0.0646031 0)
(0.000884091 0.0674235 0)
(0.00195845 0.0497567 0)
(0.00320586 0.048754 0)
(0.00371641 0.0476957 0)
(0.00396715 0.0469089 0)
(0.00402959 0.0460771 0)
(0.00394855 0.0454168 0)
(0.00398684 0.0448054 0)
(0.00415115 0.0441257 0)
(0.00424755 0.0438591 0)
(0.00338989 0.04321 0)
(0.00173192 0.0425656 0)
(0.00110646 0.0422806 0)
(-9.47499e-05 0.0416388 0)
(-0.00211348 0.0414376 0)
(-0.00487687 0.0422047 0)
(-0.007503 0.0439176 0)
(-0.00767087 0.0465859 0)
(-0.00694245 0.0504198 0)
(-0.00515986 0.0548056 0)
(-0.00197209 0.0560559 0)
(0.00230405 0.0563606 0)
(0.00440799 0.0604907 0)
(0.000791995 0.0659646 0)
(0.00164707 0.0490218 0)
(0.00188705 0.0483541 0)
(0.002203 0.0478352 0)
(0.00226189 0.0470326 0)
(0.00221255 0.0461257 0)
(0.00200825 0.0453515 0)
(0.00172401 0.0447789 0)
(0.00146233 0.0446585 0)
(0.00109255 0.0446913 0)
(0.00095164 0.0446187 0)
(-0.000308137 0.0437543 0)
(-0.00136699 0.0426095 0)
(-0.00217034 0.0433242 0)
(-0.00313599 0.0439013 0)
(-0.00425011 0.045694 0)
(-0.00592933 0.0467577 0)
(-0.00720819 0.0478598 0)
(-0.00677277 0.0509409 0)
(-0.00547997 0.0529153 0)
(-0.00270298 0.0535899 0)
(-0.000274752 0.0547659 0)
(0.0033645 0.0581947 0)
(0.000553398 0.0649619 0)
(0.00119977 0.0484746 0)
(0.00153364 0.0479468 0)
(0.00194023 0.0473389 0)
(0.00203497 0.0468458 0)
(0.00204831 0.0464996 0)
(0.00184271 0.0460094 0)
(0.00148828 0.0453679 0)
(0.00101633 0.0446075 0)
(0.000473198 0.0446567 0)
(-2.10831e-06 0.0443553 0)
(-0.000466506 0.0435642 0)
(-0.00190282 0.0437993 0)
(-0.00312825 0.0431833 0)
(-0.00444487 0.043413 0)
(-0.0046771 0.0445752 0)
(-0.00364907 0.0453532 0)
(-0.00320423 0.0471622 0)
(-0.00300352 0.0483794 0)
(-0.00117527 0.0493678 0)
(0.00140988 0.0498602 0)
(0.00183477 0.0502211 0)
(0.00612034 0.0514635 0)
(0.000614308 0.0639213 0)
(0.00126089 0.0479457 0)
(0.00158402 0.0475949 0)
(0.00192891 0.0473487 0)
(0.00207442 0.0470547 0)
(0.00205854 0.0466091 0)
(0.00202636 0.0462307 0)
(0.00188038 0.0459182 0)
(0.00157138 0.0457045 0)
(0.000877934 0.0450619 0)
(0.000657119 0.0449662 0)
(0.000515835 0.0455101 0)
(0.000274947 0.0454367 0)
(-0.00040552 0.0452764 0)
(-0.001635 0.0455404 0)
(-0.00220474 0.045534 0)
(-0.00382104 0.046432 0)
(-0.00414752 0.0480368 0)
(-0.0034298 0.0483173 0)
(-0.00142823 0.0493318 0)
(-0.000508748 0.0497233 0)
(0.0016913 0.0500213 0)
(0.00478172 0.0481588 0)
(0.000371399 0.0633587 0)
(0.000717494 0.0476528 0)
(0.000923004 0.0472606 0)
(0.00120644 0.046989 0)
(0.00130252 0.046712 0)
(0.00128385 0.0464184 0)
(0.00114975 0.0460792 0)
(0.000892472 0.0457518 0)
(0.000561291 0.0456074 0)
(0.000236605 0.0458755 0)
(-0.000293216 0.0457417 0)
(-0.00129813 0.0452123 0)
(-0.00181042 0.0453079 0)
(-0.00208903 0.046145 0)
(-0.0025508 0.0461414 0)
(-0.00337916 0.0459911 0)
(-0.00305966 0.0467656 0)
(-0.00206807 0.0459161 0)
(-0.000759759 0.0467739 0)
(-0.00108379 0.0470326 0)
(0.00074122 0.0478836 0)
(0.00200181 0.0461924 0)
(0.00448628 0.0450948 0)
(0.000387578 0.0625871 0)
(0.000825046 0.0472413 0)
(0.00100004 0.0469058 0)
(0.00128527 0.0467783 0)
(0.00140353 0.0466844 0)
(0.00154826 0.0466596 0)
(0.00153139 0.0465202 0)
(0.00137981 0.0463924 0)
(0.00113963 0.0462531 0)
(0.000991302 0.0460677 0)
(0.000617139 0.0459786 0)
(7.10081e-05 0.0461234 0)
(-0.0006463 0.0457306 0)
(-0.00157894 0.0456907 0)
(-0.00131849 0.0455303 0)
(-0.000950834 0.0463858 0)
(-0.00148458 0.046252 0)
(-0.00199904 0.047057 0)
(-0.00261212 0.0474305 0)
(-0.00193119 0.046758 0)
(-0.000208535 0.045133 0)
(0.00119256 0.0450069 0)
(0.00220688 0.0437853 0)
(0.000324809 0.0622248 0)
(0.000660273 0.0471696 0)
(0.000799166 0.0469057 0)
(0.0010039 0.0467977 0)
(0.000982361 0.0466715 0)
(0.000977984 0.0465046 0)
(0.000865779 0.0463691 0)
(0.000623045 0.0462726 0)
(0.000250111 0.0461559 0)
(-0.000163793 0.0461118 0)
(-0.000348612 0.0465197 0)
(-2.77622e-05 0.046536 0)
(-0.000351375 0.046765 0)
(-0.00069778 0.0466662 0)
(-0.00195641 0.0471394 0)
(-0.00301131 0.0464823 0)
(-0.00320708 0.0465999 0)
(-0.00276038 0.0466679 0)
(-0.00153217 0.0452835 0)
(-0.00044585 0.0453197 0)
(-0.00103464 0.0459595 0)
(-0.00088883 0.044136 0)
(0.000740066 0.0415615 0)
(0.000303496 0.0615132 0)
(0.000677742 0.0467083 0)
(0.00088398 0.0464627 0)
(0.00122148 0.0465001 0)
(0.00141079 0.0465865 0)
(0.00152238 0.0466477 0)
(0.00153447 0.0467168 0)
(0.00147036 0.0467747 0)
(0.00130637 0.0468372 0)
(0.000926155 0.046848 0)
(0.000203724 0.0466268 0)
(-0.000867009 0.0468471 0)
(-0.00136968 0.0469621 0)
(-0.0016997 0.0470874 0)
(-0.00152348 0.0465777 0)
(-0.00103063 0.0462397 0)
(-0.00105292 0.0463031 0)
(-0.00156255 0.0460535 0)
(-0.00238505 0.0470094 0)
(-0.00314281 0.0461127 0)
(-0.00216002 0.0440067 0)
(-0.00162645 0.0430592 0)
(-0.00171731 0.041652 0)
(0.000255222 0.061254 0)
(0.000565778 0.0466851 0)
(0.000695832 0.0464038 0)
(0.000921097 0.0464323 0)
(0.000978998 0.0464408 0)
(0.000978503 0.0464552 0)
(0.00086453 0.0465245 0)
(0.000672526 0.0466723 0)
(0.000425711 0.0468759 0)
(0.0001891 0.0471718 0)
(8.69195e-05 0.0475483 0)
(0.000262309 0.0475741 0)
(6.66178e-05 0.0473905 0)
(-0.000339434 0.0472851 0)
(-0.000987763 0.0475215 0)
(-0.00215657 0.0476796 0)
(-0.00304401 0.0474825 0)
(-0.00333811 0.0473115 0)
(-0.00312493 0.0457292 0)
(-0.00256247 0.0450929 0)
(-0.00312945 0.0449129 0)
(-0.0037202 0.0433331 0)
(-0.00369784 0.0413086 0)
(0.000278033 0.0606045 0)
(0.000768741 0.0462178 0)
(0.00105255 0.0459811 0)
(0.00144302 0.0461481 0)
(0.0016483 0.0463434 0)
(0.00179233 0.0465694 0)
(0.0017841 0.0467936 0)
(0.00162451 0.0469663 0)
(0.00132013 0.0470962 0)
(0.00087608 0.0471709 0)
(0.00025838 0.0471819 0)
(-0.000584664 0.0473928 0)
(-0.00126062 0.047664 0)
(-0.00181102 0.0477039 0)
(-0.00219974 0.0475595 0)
(-0.00223163 0.0471652 0)
(-0.00223775 0.0468449 0)
(-0.00260336 0.0467673 0)
(-0.00332545 0.0469558 0)
(-0.0041643 0.0461925 0)
(-0.00451796 0.0447331 0)
(-0.00500739 0.0435234 0)
(-0.00579061 0.0419911 0)
(0.000279255 0.060258 0)
(0.000699486 0.0460289 0)
(0.000921982 0.0457716 0)
(0.00124625 0.0460003 0)
(0.00138077 0.0462667 0)
(0.00148489 0.0466064 0)
(0.00148469 0.0470033 0)
(0.00138936 0.0474204 0)
(0.00119303 0.0478268 0)
(0.000931306 0.048185 0)
(0.00061413 0.0484969 0)
(0.000278972 0.0485324 0)
(-0.000128439 0.0485089 0)
(-0.000633486 0.0485835 0)
(-0.00126882 0.0486081 0)
(-0.00209808 0.0486025 0)
(-0.00302244 0.0484348 0)
(-0.00376075 0.0479022 0)
(-0.00426068 0.0470522 0)
(-0.00468597 0.0463643 0)
(-0.00548459 0.0456193 0)
(-0.00653606 0.0443745 0)
(-0.0075812 0.0429002 0)
(0.000366157 0.0595373 0)
(0.000946102 0.0454745 0)
(0.00124447 0.0452545 0)
(0.00169106 0.0455696 0)
(0.00192137 0.0458946 0)
(0.00213095 0.0462839 0)
(0.00221151 0.046701 0)
(0.00216056 0.0471197 0)
(0.00194569 0.0475114 0)
(0.00157624 0.0478366 0)
(0.00105415 0.0481433 0)
(0.000382431 0.0485176 0)
(-0.000360445 0.0487656 0)
(-0.00108609 0.0488508 0)
(-0.00178574 0.0488522 0)
(-0.00242114 0.0487204 0)
(-0.00301227 0.0484987 0)
(-0.00372994 0.0482941 0)
(-0.0046189 0.0480189 0)
(-0.00556913 0.047404 0)
(-0.00653757 0.0465026 0)
(-0.00772358 0.045473 0)
(-0.00912709 0.0442458 0)
(0.000426121 0.0589243 0)
(0.000960155 0.0452823 0)
(0.00117518 0.0450611 0)
(0.00158531 0.0454749 0)
(0.00177946 0.0459059 0)
(0.001999 0.0464071 0)
(0.00218344 0.0469924 0)
(0.0023472 0.0476314 0)
(0.0023975 0.0482817 0)
(0.00226432 0.0489311 0)
(0.00190365 0.0493925 0)
(0.001315 0.049636 0)
(0.000548809 0.0497394 0)
(-0.000368316 0.0498231 0)
(-0.00131882 0.0498627 0)
(-0.00230475 0.0498409 0)
(-0.00328754 0.0496816 0)
(-0.00423854 0.0493508 0)
(-0.00518075 0.0488963 0)
(-0.00618122 0.0483696 0)
(-0.00733467 0.0477096 0)
(-0.0087579 0.0468546 0)
(-0.0103963 0.0458514 0)
(0.000618908 0.0580395 0)
(0.00104342 0.0447159 0)
(0.00102004 0.0444927 0)
(0.00132227 0.04492 0)
(0.00140351 0.0453693 0)
(0.00155836 0.0458802 0)
(0.00171994 0.0464862 0)
(0.00187948 0.0471618 0)
(0.00200098 0.047884 0)
(0.00205761 0.0486866 0)
(0.00199031 0.0494942 0)
(0.00174317 0.0502247 0)
(0.00125706 0.05077 0)
(0.000483345 0.051019 0)
(-0.000572527 0.0509845 0)
(-0.00181307 0.0507536 0)
(-0.00308358 0.0504894 0)
(-0.00429585 0.0502786 0)
(-0.00547776 0.050012 0)
(-0.00668982 0.0496051 0)
(-0.00799944 0.049061 0)
(-0.00953665 0.0484113 0)
(-0.0113399 0.0476764 0)
(0.000701634 0.0573326 0)
(0.000858559 0.0449636 0)
(0.000298303 0.0448142 0)
(0.000273371 0.0452267 0)
(2.30773e-05 0.0456985 0)
(-4.61643e-05 0.0461874 0)
(-0.000145223 0.0466644 0)
(-0.000180342 0.047251 0)
(-0.000133724 0.0479843 0)
(-2.6458e-05 0.0487839 0)
(7.49842e-05 0.0496149 0)
(0.000117531 0.0503877 0)
(2.3727e-05 0.0510784 0)
(-0.000244432 0.0516837 0)
(-0.000685121 0.0521487 0)
(-0.0013644 0.0523981 0)
(-0.00240516 0.0522829 0)
(-0.00388401 0.0517985 0)
(-0.00548095 0.0512535 0)
(-0.00694257 0.0508807 0)
(-0.00843536 0.0505401 0)
(-0.0100724 0.0501222 0)
(-0.0119759 0.0496491 0)
(0.000719036 0.0565788 0)
(0.000245498 0.0454028 0)
(-0.00124725 0.0452609 0)
(-0.00192956 0.0454947 0)
(-0.0027944 0.045857 0)
(-0.00337451 0.046231 0)
(-0.00387936 0.0466644 0)
(-0.00420907 0.0471592 0)
(-0.0043617 0.047757 0)
(-0.00431353 0.0484523 0)
(-0.00408524 0.0492781 0)
(-0.00376695 0.0501608 0)
(-0.00347302 0.0509793 0)
(-0.00321339 0.0517269 0)
(-0.00306667 0.0522954 0)
(-0.00314578 0.0527258 0)
(-0.00348624 0.0530841 0)
(-0.00401863 0.0533384 0)
(-0.00497141 0.0531927 0)
(-0.00656242 0.0526516 0)
(-0.00848417 0.052141 0)
(-0.0102774 0.0518726 0)