/*--------------------------------*- C++ -*----------------------------------*\
| =========                 |                                                 |
| \\      /  F ield         | OpenFOAM: The Open Source CFD Toolbox           |
|  \\    /   O peration     | Version:  2.4.0                                 |
|   \\  /    A nd           | Web:      www.OpenFOAM.org                      |
|    \\/     M anipulation  |                                                 |
\*---------------------------------------------------------------------------*/
FoamFile
{
    version     2.0;
    format      ascii;
    class       volVectorField;
    location    "0.65";
    object      U.oil;
}
// * * * * * * * * * * * * * * * * * * * * * * * * * * * * * * * * * * * * * //

dimensions      [0 1 -1 0 0 0 0];

internalField   nonuniform List<vector> 
2268
(
(0.013151 0.000914905 0)
(0.036283 -0.000217725 0)
(0.0639271 0.00450202 0)
(0.0773027 -2.82661e-05 0)
(0.110014 -0.00076503 0)
(0.136324 0.00381851 0)
(0.148214 0.00600266 0)
(0.162356 0.0103028 0)
(0.173106 0.0101093 0)
(0.191111 0.0163746 0)
(0.193275 0.0349811 0)
(0.177459 0.0387457 0)
(0.141991 0.0325311 0)
(0.0843259 0.0224985 0)
(0.026989 0.0101786 0)
(-0.020105 -0.00586661 0)
(-0.0471617 -0.00489741 0)
(-0.0732627 -0.00682252 0)
(-0.0810238 0.000571348 0)
(-0.0853502 -0.00821977 0)
(-0.051171 -0.0043326 0)
(-0.0375069 0.00292587 0)
(-0.034781 0.00457067 0)
(0.0141641 -0.0286871 0)
(0.0350144 -0.0307643 0)
(0.0640225 -0.0248584 0)
(0.0802248 -0.0303449 0)
(0.109965 -0.0305843 0)
(0.134817 -0.0247219 0)
(0.150941 -0.0257304 0)
(0.166608 -0.0247028 0)
(0.185534 -0.0292981 0)
(0.1992 -0.0330102 0)
(0.19393 -0.0334937 0)
(0.172544 -0.0196753 0)
(0.134549 0.011253 0)
(0.0825252 0.0310021 0)
(0.0218462 0.0381747 0)
(-0.0222853 0.0356942 0)
(-0.0477369 0.0274123 0)
(-0.06812 0.0187989 0)
(-0.0811558 0.0052336 0)
(-0.0739617 -0.00592803 0)
(-0.0557935 -0.017556 0)
(-0.0312213 -0.00446781 0)
(-0.0240542 -0.0161276 0)
(0.0151018 -0.0062926 0)
(0.0327995 -0.00847997 0)
(0.0625425 -0.000554674 0)
(0.0869063 -0.00838177 0)
(0.104943 -0.00936318 0)
(0.13046 -0.0013868 0)
(0.147727 0.00216218 0)
(0.167117 0.00891212 0)
(0.184439 0.0101562 0)
(0.18444 0.026193 0)
(0.184016 0.0638405 0)
(0.186229 0.0911321 0)
(0.161693 0.0860532 0)
(0.111141 0.0771393 0)
(0.041765 0.0567554 0)
(-0.0232228 0.0328155 0)
(-0.0641108 0.0248631 0)
(-0.08174 0.0155213 0)
(-0.0940224 0.00662403 0)
(-0.0703191 -0.0185533 0)
(-0.0478208 -0.0251207 0)
(-0.0104696 -0.0134652 0)
(0.00461145 -0.018854 0)
(0.0159947 -0.128222 0)
(0.0292194 -0.130359 0)
(0.056516 -0.123756 0)
(0.089083 -0.130787 0)
(0.0983336 -0.13005 0)
(0.11949 -0.122713 0)
(0.146728 -0.120726 0)
(0.173133 -0.116001 0)
(0.190093 -0.110662 0)
(0.194744 -0.0938909 0)
(0.193583 -0.0696924 0)
(0.173116 -0.038951 0)
(0.131832 0.0387714 0)
(0.0826397 0.111219 0)
(0.0172999 0.107688 0)
(-0.0342657 0.073703 0)
(-0.0673107 0.0447767 0)
(-0.0820188 0.021703 0)
(-0.0938436 0.00157841 0)
(-0.071223 -0.0293639 0)
(-0.0582295 -0.0458497 0)
(-0.0113622 -0.0286498 0)
(0.00214594 -0.0192703 0)
(0.0091541 0.0343768 0)
(0.0199397 0.0417881 0)
(0.0368351 0.0320328 0)
(0.0619162 0.0477566 0)
(0.0674176 0.0561877 0)
(0.0742812 0.0572265 0)
(0.0974884 0.0718893 0)
(0.10905 0.0761745 0)
(0.108496 0.0880918 0)
(0.113023 0.0917894 0)
(0.113612 0.072137 0)
(0.130657 0.0427085 0)
(0.127247 0.0409216 0)
(0.0603357 0.0896256 0)
(-0.0136566 0.109476 0)
(-0.0597919 0.0823972 0)
(-0.0813628 0.0571633 0)
(-0.0869638 0.0333289 0)
(-0.0916376 -0.00119367 0)
(-0.0684974 -0.0354706 0)
(-0.0722896 -0.0535617 0)
(-0.0239373 -0.0443423 0)
(0.00570106 -0.0229354 0)
(-0.00596008 -0.171172 0)
(-0.000731805 -0.173337 0)
(-0.00695819 -0.175504 0)
(-0.00958593 -0.176349 0)
(-0.0040499 -0.173915 0)
(-0.00476699 -0.178861 0)
(-0.00674094 -0.177698 0)
(-0.0164188 -0.17194 0)
(-0.0190158 -0.170578 0)
(-0.0148707 -0.170397 0)
(0.0097295 -0.148807 0)
(0.0601095 -0.0270508 0)
(0.0912391 0.129448 0)
(-0.0105404 0.133817 0)
(-0.0676847 0.126528 0)
(-0.120715 0.0901943 0)
(-0.120539 0.052032 0)
(-0.107021 0.0316349 0)
(-0.0929885 -0.000530336 0)
(-0.0663531 -0.0331922 0)
(-0.0773808 -0.0607905 0)
(-0.0496062 -0.0605051 0)
(-0.00163155 -0.0267124 0)
(-0.00573721 0.0140661 0)
(-0.0118501 0.017429 0)
(-0.0148142 0.00948089 0)
(-0.012269 0.0207242 0)
(-0.0116406 0.0277715 0)
(-0.000688899 0.0237638 0)
(0.00871789 0.0435269 0)
(-0.00430111 0.0577987 0)
(-0.0189055 0.0729563 0)
(-0.0455601 0.0841958 0)
(-0.0973517 0.0941999 0)
(-0.147205 0.0485981 0)
(-0.105638 0.0443962 0)
(-0.115058 0.157753 0)
(-0.179975 0.143531 0)
(-0.191484 0.104447 0)
(-0.179335 0.051463 0)
(-0.139159 0.00610925 0)
(-0.106538 -0.022961 0)
(-0.0793685 -0.0389627 0)
(-0.0810806 -0.0596498 0)
(-0.0552267 -0.0756547 0)
(-0.00309359 -0.0459372 0)
(-0.00533219 -0.0616719 0)
(-0.0095294 -0.0670567 0)
(-0.0148187 -0.0741858 0)
(-0.0166984 -0.0770802 0)
(-0.00904267 -0.0782863 0)
(-0.0103042 -0.0830967 0)
(-0.0134661 -0.0701373 0)
(-0.0254669 -0.0599202 0)
(-0.0267384 -0.0605185 0)
(-0.0320209 -0.0532222 0)
(-0.0269442 -0.0197953 0)
(-0.0506872 0.0538573 0)
(-0.124002 0.153348 0)
(-0.197854 0.184569 0)
(-0.343829 0.128611 0)
(-0.331691 0.0642117 0)
(-0.308216 0.0422455 0)
(-0.231673 0.0413958 0)
(-0.173045 0.0154075 0)
(-0.115649 0.0026153 0)
(-0.0803369 -0.0359338 0)
(-0.0452016 -0.0697839 0)
(0.00270135 -0.0325465 0)
(-0.336569 -0.221701 0)
(-0.418183 -0.132964 0)
(-0.130004 -0.0980361 0)
(0.222187 -0.0692384 0)
(0.489694 -0.0609025 0)
(0.633268 -0.0515766 0)
(0.732694 -0.0466241 0)
(0.794207 -0.0545933 0)
(0.811203 -0.0762815 0)
(0.802757 -0.0939252 0)
(0.786751 -0.100645 0)
(0.762368 -0.120827 0)
(0.686638 -0.138834 0)
(0.59802 -0.13506 0)
(0.524532 -0.106211 0)
(0.412557 -0.0516398 0)
(0.229817 0.00837353 0)
(-0.136669 -0.029157 0)
(-0.0265095 -0.10762 0)
(-0.334129 0.506893 0)
(-0.190267 0.213989 0)
(0.112285 0.0440441 0)
(0.322327 0.110973 0)
(0.52274 0.159885 0)
(0.63435 0.195917 0)
(0.700529 0.211248 0)
(0.77269 0.2423 0)
(0.804639 0.278695 0)
(0.80978 0.300275 0)
(0.838455 0.310027 0)
(0.87588 0.35007 0)
(0.849554 0.40074 0)
(0.783478 0.398212 0)
(0.683336 0.393816 0)
(0.592945 0.458986 0)
(0.406542 0.474574 0)
(-0.00215003 0.36792 0)
(-0.0250616 0.257141 0)
(-0.295658 0.283928 0)
(0.075017 -0.165463 0)
(0.282577 -0.178104 0)
(0.490604 -0.0974996 0)
(0.606655 -0.020458 0)
(0.651184 0.0189525 0)
(0.655468 0.0219096 0)
(0.669725 0.0321181 0)
(0.684611 0.0429416 0)
(0.696588 0.0395951 0)
(0.703982 0.0333105 0)
(0.713422 0.0517248 0)
(0.693742 0.075116 0)
(0.650923 0.0954405 0)
(0.558088 0.12149 0)
(0.428235 0.222078 0)
(0.309542 0.395452 0)
(-0.0659356 0.305682 0)
(-0.107799 0.045564 0)
(-0.149482 0.325237 0)
(0.350157 -0.211528 0)
(0.453533 -0.236147 0)
(0.576629 -0.136135 0)
(0.678758 -0.0297024 0)
(0.678567 0.0307059 0)
(0.670007 0.0310066 0)
(0.64356 0.0457648 0)
(0.613682 0.044457 0)
(0.590793 0.0594348 0)
(0.559161 0.0790569 0)
(0.56215 0.108578 0)
(0.549906 0.171903 0)
(0.509051 0.201449 0)
(0.444041 0.237161 0)
(0.200141 0.433109 0)
(0.178098 0.482947 0)
(-0.188229 0.433816 0)
(-0.0804609 0.149655 0)
(0.272535 0.242441 0)
(0.453833 -0.255506 0)
(0.519818 -0.31741 0)
(0.55768 -0.197024 0)
(0.671265 0.0166022 0)
(0.746341 0.0203848 0)
(0.758624 0.0297509 0)
(0.74563 0.0416641 0)
(0.704631 0.0709412 0)
(0.610639 0.0590554 0)
(0.506106 0.0261525 0)
(0.465765 0.0635164 0)
(0.448974 0.110217 0)
(0.420829 0.132522 0)
(0.354589 0.156189 0)
(0.21911 0.320197 0)
(0.0213718 0.549683 0)
(-0.316118 0.463907 0)
(-0.0147524 0.0314677 0)
(0.429625 0.054726 0)
(0.471291 -0.285547 0)
(0.5387 -0.324704 0)
(0.550239 -0.171313 0)
(0.516354 -0.10931 0)
(0.605877 -0.0290772 0)
(0.659209 -0.0247521 0)
(0.677096 -0.00860417 0)
(0.718948 0.0277827 0)
(0.706304 0.0579362 0)
(0.575081 0.0846685 0)
(0.457377 0.0736984 0)
(0.423153 0.113447 0)
(0.392781 0.175936 0)
(0.269724 0.217131 0)
(0.221716 0.359596 0)
(0.00851995 0.684277 0)
(-0.325384 0.483898 0)
(0.0586003 -0.00813026 0)
(0.38662 -0.119625 0)
(0.411719 -0.352866 0)
(0.490903 -0.313987 0)
(0.51456 -0.210904 0)
(0.472055 -0.12168 0)
(0.476132 -0.0658497 0)
(0.540504 -0.0291323 0)
(0.576295 0.0152328 0)
(0.63097 0.0659129 0)
(0.63402 0.0879389 0)
(0.562941 0.100937 0)
(0.467297 0.105019 0)
(0.436926 0.110178 0)
(0.382207 0.185112 0)
(0.228334 0.238619 0)
(0.175328 0.389659 0)
(0.0759773 0.684803 0)
(-0.295562 0.488371 0)
(0.138836 -0.0978467 0)
(0.383461 -0.293221 0)
(0.372663 -0.351151 0)
(0.474382 -0.326395 0)
(0.493726 -0.226208 0)
(0.464429 -0.133518 0)
(0.450631 -0.0621666 0)
(0.480107 -0.0190368 0)
(0.498984 -0.00343119 0)
(0.535402 0.0311055 0)
(0.551849 0.115965 0)
(0.526588 0.142622 0)
(0.503151 0.106382 0)
(0.475386 0.129394 0)
(0.391171 0.261642 0)
(0.156218 0.28791 0)
(0.0436565 0.466961 0)
(0.12849 0.705544 0)
(-0.291752 0.466252 0)
(0.226614 -0.15932 0)
(-0.00611581 -0.059873 0)
(-0.0140975 -0.0600147 0)
(-0.0168334 -0.0629517 0)
(-0.00929999 -0.0582232 0)
(0.00499638 -0.0475098 0)
(0.0142408 -0.0448216 0)
(0.030994 -0.0134856 0)
(0.0190978 0.0152312 0)
(-0.00922435 0.0455964 0)
(-0.0580573 0.0643865 0)
(-0.109312 0.0661866 0)
(-0.127887 0.0435321 0)
(-0.121672 0.0826956 0)
(-0.0898948 0.207382 0)
(-0.151082 0.197436 0)
(-0.245361 0.0995134 0)
(-0.278268 -0.0480392 0)
(-0.281922 -0.130233 0)
(-0.260377 -0.112833 0)
(-0.191202 -0.0673325 0)
(-0.0857209 -0.0785284 0)
(-0.0126605 -0.107182 0)
(0.0511274 -0.0413671 0)
(-0.00493773 0.0213711 0)
(-0.0121106 0.00607398 0)
(-0.0143159 -0.0227205 0)
(-0.00684143 -0.0420254 0)
(0.0132698 -0.0349674 0)
(0.0218681 0.00847841 0)
(0.0294489 0.0498701 0)
(0.0205461 0.0837755 0)
(0.0270717 0.107035 0)
(0.0202045 0.133613 0)
(0.000623782 0.158369 0)
(-0.00752321 0.155245 0)
(-0.0273377 0.17463 0)
(-0.00327993 0.219481 0)
(0.0709759 0.251585 0)
(0.113685 0.176246 0)
(0.0742009 0.10687 0)
(0.0258747 0.0306848 0)
(0.00771107 -0.0766972 0)
(0.0400282 -0.15143 0)
(0.148888 -0.185541 0)
(0.21691 -0.0477386 0)
(0.295849 0.0300611 0)
(-0.0106013 -0.0871206 0)
(-0.0383122 -0.100983 0)
(-0.05441 -0.112088 0)
(-0.0449101 -0.0633618 0)
(0.0113962 -0.0540954 0)
(0.0286115 -0.0518717 0)
(0.0472383 -0.000320423 0)
(0.0067182 0.0522242 0)
(-0.0299855 0.0811748 0)
(-0.0610853 0.107811 0)
(-0.0641463 0.124929 0)
(-0.052286 0.132289 0)
(-0.0323749 0.177327 0)
(0.0319253 0.19242 0)
(0.104085 0.165048 0)
(0.191676 0.105899 0)
(0.272259 0.0328499 0)
(0.317395 -0.0288986 0)
(0.389393 -0.130054 0)
(0.400265 -0.192983 0)
(0.414287 -0.188654 0)
(0.443819 -0.203736 0)
(0.519053 -0.216381 0)
(-0.036312 0.0989739 0)
(-0.0921487 0.0973201 0)
(-0.110612 0.0182271 0)
(-0.0971148 -0.0165271 0)
(-0.087287 -0.00045777 0)
(-0.129552 0.00587455 0)
(-0.136282 0.0749367 0)
(-0.12227 0.144119 0)
(-0.122207 0.171017 0)
(-0.120304 0.175097 0)
(-0.103862 0.15615 0)
(-0.102933 0.13405 0)
(-0.0749124 0.108423 0)
(-0.0220315 0.102309 0)
(0.0375173 0.100899 0)
(0.1207 0.0661642 0)
(0.185252 0.0194197 0)
(0.221753 -0.0702849 0)
(0.324482 -0.133665 0)
(0.330216 -0.219756 0)
(0.39178 -0.274696 0)
(0.429112 -0.319933 0)
(0.478859 -0.363067 0)
(-0.0140976 -0.0282944 0)
(-0.0770411 -0.111676 0)
(-0.176678 -0.223787 0)
(-0.382526 -0.22114 0)
(-0.609196 -0.125491 0)
(-0.685024 -0.147013 0)
(-0.686338 -0.1491 0)
(-0.599773 -0.0782035 0)
(-0.51627 -0.0366216 0)
(-0.430971 0.0316092 0)
(-0.358292 0.0707768 0)
(-0.313209 0.0689629 0)
(-0.210885 0.102416 0)
(-0.114378 0.117735 0)
(-0.0329991 0.0882639 0)
(0.0534755 0.0141509 0)
(0.117858 -0.0488115 0)
(0.142638 -0.151222 0)
(0.230904 -0.206516 0)
(0.211166 -0.295014 0)
(0.255638 -0.361476 0)
(0.255707 -0.436607 0)
(0.28056 -0.507971 0)
(0.00880393 -0.290778 0)
(-0.373186 -0.455699 0)
(-0.605513 -0.431996 0)
(-0.585409 -0.351976 0)
(-0.61358 -0.358166 0)
(-0.702254 -0.615362 0)
(-0.695291 -0.625431 0)
(-0.662492 -0.576493 0)
(-0.617834 -0.491935 0)
(-0.588237 -0.407529 0)
(-0.569191 -0.342376 0)
(-0.497833 -0.327572 0)
(-0.412331 -0.285873 0)
(-0.320871 -0.219628 0)
(-0.255989 -0.2102 0)
(-0.174604 -0.190471 0)
(-0.112286 -0.231748 0)
(-0.0790944 -0.329268 0)
(0.0130713 -0.401201 0)
(0.0249711 -0.511211 0)
(0.0438479 -0.630112 0)
(0.0363594 -0.761203 0)
(0.116228 -0.95651 0)
(-0.0626624 0.0627168 0)
(-0.469548 -0.384483 0)
(-0.577182 -0.579046 0)
(-0.597906 -0.558989 0)
(-0.578539 -0.528105 0)
(-0.456642 -0.566699 0)
(0.195518 -0.18481 0)
(0.103213 -0.11083 0)
(-0.201213 0.00391658 0)
(-0.481344 -0.165602 0)
(-0.46153 -0.609732 0)
(-0.447724 -0.825822 0)
(-0.410783 -0.770827 0)
(-0.378439 -0.731782 0)
(-0.329856 -0.72644 0)
(-0.271654 -0.72776 0)
(-0.238732 -0.75667 0)
(-0.203005 -0.86229 0)
(-0.239211 -0.99725 0)
(-0.228017 -1.26053 0)
(-0.659467 -0.337783 0)
(-0.945045 -0.239582 0)
(-0.834194 -0.266472 0)
(-0.254485 0.206477 0)
(-0.274916 0.128855 0)
(-0.177629 0.0791415 0)
(-0.118062 0.119979 0)
(0.202433 -0.116333 0)
(0.322871 -0.380108 0)
(0.244426 -0.372181 0)
(0.11194 -0.157496 0)
(-0.137244 0.119138 0)
(-0.204824 -0.15887 0)
(-0.214319 -0.332212 0)
(0.0768609 -0.745285 0)
(0.0522156 -0.681458 0)
(0.0556466 -0.402531 0)
(-0.0191678 -0.22883 0)
(-0.0965329 -0.197056 0)
(-0.181013 -0.263209 0)
(-0.219802 -0.302102 0)
(-0.288798 -0.334419 0)
(-0.163415 -0.455727 0)
(-0.0930898 -0.396486 0)
(-0.164502 -0.310038 0)
(-0.337211 -0.120691 0)
(-0.186511 0.369263 0)
(-0.0207246 0.0772034 0)
(-0.0426389 -0.00683013 0)
(0.121249 0.0694336 0)
(0.296909 -0.0454177 0)
(0.228816 -0.152295 0)
(0.228196 -0.0362576 0)
(0.142018 0.305349 0)
(-0.0153833 0.414239 0)
(0.135543 0.444598 0)
(-0.0960313 0.442396 0)
(-0.0547223 0.0627628 0)
(-0.179803 -0.119157 0)
(-0.157305 -0.175045 0)
(-0.0665202 -0.179174 0)
(0.0317145 -0.152496 0)
(0.115446 -0.0874138 0)
(0.187218 -0.00462682 0)
(0.222836 0.0656007 0)
(0.200821 0.118946 0)
(0.0973005 0.131255 0)
(-0.0564459 0.165496 0)
(-0.18084 0.287794 0)
(-0.00884341 0.427587 0)
(0.0885469 0.197936 0)
(-0.0104414 0.133809 0)
(0.0518677 0.0510834 0)
(0.115256 -0.0765706 0)
(0.0661853 -0.211978 0)
(0.00574737 -0.0949735 0)
(0.0974889 0.293342 0)
(0.0834047 0.350339 0)
(0.172529 0.281989 0)
(0.215545 0.0741003 0)
(0.294104 -0.222369 0)
(0.17159 -0.244822 0)
(0.0840423 -0.181563 0)
(0.0760762 -0.0930519 0)
(0.06258 -0.0393673 0)
(0.0362933 -0.0464014 0)
(0.00475233 -0.0675527 0)
(-0.0242401 -0.077387 0)
(-0.0250352 -0.0554933 0)
(-0.0327189 0.00443822 0)
(-0.0725075 0.0804278 0)
(-0.102299 0.186884 0)
(0.0491625 0.347063 0)
(0.0910496 0.129392 0)
(0.10244 0.00323324 0)
(0.119608 -0.0383332 0)
(0.114621 -0.0661615 0)
(0.044584 -0.100939 0)
(-0.0683284 -0.0929509 0)
(0.0220048 0.180006 0)
(0.161102 0.212127 0)
(0.249563 0.168899 0)
(0.304599 0.104679 0)
(0.265862 0.0324487 0)
(0.128655 -0.100657 0)
(0.0519837 -0.178201 0)
(0.00893727 -0.20671 0)
(-0.0075641 -0.208603 0)
(-0.0140698 -0.19179 0)
(-0.0165143 -0.153942 0)
(-0.0184589 -0.0878592 0)
(-0.0372864 -0.0105626 0)
(-0.0493178 0.0636437 0)
(-0.0605823 0.13303 0)
(-0.0643647 0.20658 0)
(0.0572338 0.24795 0)
(0.0916629 0.145921 0)
(0.0873167 0.0767168 0)
(0.0663293 0.0250863 0)
(0.0463911 -0.0174667 0)
(0.0188396 -0.0596392 0)
(-0.0479389 -0.05328 0)
(-0.040803 0.0121925 0)
(0.0671697 0.108017 0)
(0.167627 0.134629 0)
(0.159426 0.10872 0)
(0.143023 0.040552 0)
(0.124808 -0.0337302 0)
(0.0695972 -0.0742103 0)
(0.0204645 -0.0772445 0)
(-0.0162808 -0.0597689 0)
(-0.0472521 -0.042106 0)
(-0.0722598 -0.0195332 0)
(-0.0975946 0.013545 0)
(-0.121279 0.0566568 0)
(-0.133531 0.112439 0)
(-0.133779 0.168434 0)
(-0.112231 0.223886 0)
(0.0362147 0.171701 0)
(0.0695615 0.108875 0)
(0.084161 0.0446369 0)
(0.0776284 0.0154457 0)
(0.0585008 0.00225812 0)
(0.0230577 -0.00498067 0)
(-0.0205231 -0.00140672 0)
(-0.0419212 0.0360446 0)
(-0.0392242 0.0459652 0)
(0.0182417 0.0957215 0)
(0.042195 0.0915624 0)
(0.0538741 0.0387799 0)
(0.0359048 -0.0157822 0)
(0.00504276 -0.0564979 0)
(-0.0286177 -0.0787705 0)
(-0.0547295 -0.081584 0)
(-0.0806708 -0.0750032 0)
(-0.106403 -0.0584867 0)
(-0.123652 -0.0257812 0)
(-0.129543 0.0168757 0)
(-0.129156 0.0676626 0)
(-0.124929 0.123883 0)
(-0.107339 0.174629 0)
(0.0229731 0.137813 0)
(0.0472141 0.0972057 0)
(0.0577344 0.0601261 0)
(0.0493884 0.0389564 0)
(0.0353521 0.0253979 0)
(0.0185595 0.0165062 0)
(-0.00233403 0.0186296 0)
(-0.0131003 0.0343403 0)
(-0.0173629 0.0425976 0)
(-0.00715 0.0630805 0)
(0.0224918 0.0725734 0)
(0.0275378 0.0555587 0)
(0.0160606 0.0157343 0)
(-0.00773901 -0.0193973 0)
(-0.0366189 -0.0404579 0)
(-0.0593274 -0.0453086 0)
(-0.0778057 -0.0348718 0)
(-0.0944162 -0.0146432 0)
(-0.109807 0.0171146 0)
(-0.119897 0.0488866 0)
(-0.119169 0.0828403 0)
(-0.107148 0.119284 0)
(-0.084726 0.148759 0)
(0.0123657 0.108669 0)
(0.0287746 0.073912 0)
(0.0355916 0.0547051 0)
(0.0307178 0.0445026 0)
(0.0228765 0.0370191 0)
(0.0135101 0.0332473 0)
(0.00221189 0.0346594 0)
(-0.00161563 0.0400752 0)
(-0.00262291 0.0429019 0)
(0.000712204 0.0568006 0)
(0.0131396 0.0599238 0)
(0.0209697 0.0492321 0)
(0.0185476 0.0261496 0)
(0.00385354 0.00604594 0)
(-0.0189215 -0.0113478 0)
(-0.0410188 -0.0216907 0)
(-0.059314 -0.0175244 0)
(-0.0740913 -0.00388456 0)
(-0.0847963 0.0193066 0)
(-0.0914334 0.0469815 0)
(-0.0929832 0.0764415 0)
(-0.0836271 0.108024 0)
(-0.06756 0.134968 0)
(0.00811057 0.0941521 0)
(0.0168789 0.0680063 0)
(0.0200757 0.0566048 0)
(0.0188345 0.0476868 0)
(0.0154826 0.0409967 0)
(0.0109809 0.0380538 0)
(0.00699672 0.0372787 0)
(0.00574501 0.0410871 0)
(0.00467796 0.042318 0)
(0.00791003 0.0501452 0)
(0.0154604 0.0512795 0)
(0.0200612 0.0460048 0)
(0.0228054 0.0312982 0)
(0.0167931 0.0165129 0)
(0.00467389 0.00244517 0)
(-0.00990166 -0.00629189 0)
(-0.029697 -0.00672002 0)
(-0.0445128 0.00364598 0)
(-0.0557336 0.0250146 0)
(-0.0642992 0.0479132 0)
(-0.0698098 0.0682016 0)
(-0.0635858 0.0916863 0)
(-0.0498343 0.115671 0)
(0.00476818 0.0850825 0)
(0.01019 0.0623379 0)
(0.0135359 0.0552711 0)
(0.0139404 0.049351 0)
(0.0122946 0.0441003 0)
(0.0102235 0.0408899 0)
(0.0080594 0.0395729 0)
(0.00747495 0.0406357 0)
(0.00730349 0.0416486 0)
(0.00986695 0.046138 0)
(0.0152837 0.0470891 0)
(0.0201759 0.0423504 0)
(0.0226547 0.0316056 0)
(0.0199605 0.0224286 0)
(0.0114019 0.0137674 0)
(0.000903139 0.0101209 0)
(-0.0152659 0.0134091 0)
(-0.0303623 0.0224088 0)
(-0.0417784 0.0394075 0)
(-0.0472732 0.0610946 0)
(-0.052754 0.0745271 0)
(-0.0500645 0.0856597 0)
(-0.038638 0.102273 0)
(0.00286911 0.0789562 0)
(0.00709676 0.0579199 0)
(0.0101342 0.053264 0)
(0.0112657 0.0490987 0)
(0.0107459 0.0454891 0)
(0.00908498 0.0427457 0)
(0.00706071 0.0413137 0)
(0.00556235 0.0411193 0)
(0.00452507 0.0412061 0)
(0.00522374 0.0422199 0)
(0.00911054 0.0411447 0)
(0.0128611 0.0371271 0)
(0.0124635 0.0326995 0)
(0.00921436 0.0290641 0)
(0.00229368 0.0240081 0)
(-0.00753203 0.0242241 0)
(-0.0211523 0.0271964 0)
(-0.0300011 0.0341606 0)
(-0.0359241 0.0459572 0)
(-0.0402556 0.0633833 0)
(-0.0384307 0.074415 0)
(-0.0348513 0.0802673 0)
(-0.0240867 0.0906071 0)
(0.00201943 0.0748958 0)
(0.00546493 0.0545984 0)
(0.00780211 0.0514393 0)
(0.00823926 0.0486299 0)
(0.00789044 0.0463446 0)
(0.00620909 0.0444998 0)
(0.00438517 0.0433343 0)
(0.00284051 0.0428073 0)
(0.0014526 0.0422773 0)
(0.00118497 0.0410688 0)
(0.00132439 0.0394364 0)
(0.00177919 0.0373092 0)
(-0.000272254 0.0350811 0)
(-0.00248194 0.0316992 0)
(-0.00777978 0.0312496 0)
(-0.0141906 0.0339763 0)
(-0.0206903 0.0345242 0)
(-0.0262657 0.0375263 0)
(-0.0304856 0.048239 0)
(-0.031904 0.0612236 0)
(-0.0272908 0.0685998 0)
(-0.0208899 0.0703693 0)
(-0.0118944 0.0785871 0)
(0.00181392 0.071255 0)
(0.00398225 0.0522033 0)
(0.00479055 0.0508395 0)
(0.00540794 0.0491439 0)
(0.0052988 0.0474936 0)
(0.00490673 0.046223 0)
(0.00422217 0.0449181 0)
(0.00333471 0.0441831 0)
(0.00249941 0.0433198 0)
(0.00167684 0.0420623 0)
(0.000376153 0.0408068 0)
(-0.000445936 0.0395551 0)
(-0.00285044 0.037875 0)
(-0.00597511 0.0365965 0)
(-0.00917415 0.0369493 0)
(-0.0119611 0.0377835 0)
(-0.013245 0.0391322 0)
(-0.0173929 0.0439863 0)
(-0.021273 0.0518969 0)
(-0.0192698 0.0601038 0)
(-0.0151364 0.0637979 0)
(-0.0100893 0.0653628 0)
(-0.00306243 0.0719555 0)
(0.00123992 0.0689388 0)
(0.00252224 0.0512246 0)
(0.00358348 0.0499393 0)
(0.00442106 0.0484045 0)
(0.00467881 0.0472897 0)
(0.00494834 0.0463786 0)
(0.00489794 0.0455454 0)
(0.00457473 0.045036 0)
(0.00423214 0.0445853 0)
(0.0035457 0.0437007 0)
(0.00202063 0.0416858 0)
(0.00051516 0.0399916 0)
(-0.00125906 0.0403284 0)
(-0.00369364 0.0392892 0)
(-0.00612267 0.0387336 0)
(-0.00880584 0.0387796 0)
(-0.0109354 0.0428479 0)
(-0.0140753 0.0473495 0)
(-0.0151097 0.0515921 0)
(-0.013587 0.0573198 0)
(-0.0108865 0.05969 0)
(-0.00646339 0.0597135 0)
(-0.00283304 0.0646019 0)
(0.000884091 0.0674235 0)
(0.00195845 0.0497567 0)
(0.00320586 0.048754 0)
(0.00371641 0.0476957 0)
(0.00396715 0.0469089 0)
(0.00402959 0.0460771 0)
(0.00394855 0.0454168 0)
(0.00398684 0.0448054 0)
(0.00415115 0.0441257 0)
(0.00424755 0.0438591 0)
(0.00338989 0.0432099 0)
(0.00173192 0.0425655 0)
(0.00110646 0.0422801 0)
(-9.4738e-05 0.0416334 0)
(-0.00211341 0.0414216 0)
(-0.00487686 0.0421631 0)
(-0.00750323 0.043857 0)
(-0.00767143 0.0465395 0)
(-0.00694296 0.050395 0)
(-0.00516022 0.0547935 0)
(-0.0019723 0.0560509 0)
(0.00230396 0.0563589 0)
(0.00440795 0.0604902 0)
(0.000791995 0.0659646 0)
(0.00164707 0.0490218 0)
(0.00188705 0.0483541 0)
(0.002203 0.0478352 0)
(0.00226189 0.0470326 0)
(0.00221255 0.0461257 0)
(0.00200825 0.0453515 0)
(0.00172401 0.0447789 0)
(0.00146233 0.0446585 0)
(0.00109255 0.0446913 0)
(0.00095164 0.0446187 0)
(-0.000308137 0.0437542 0)
(-0.00136699 0.0426094 0)
(-0.00217034 0.0433237 0)
(-0.00313599 0.0438985 0)
(-0.00425012 0.0456873 0)
(-0.00592939 0.046745 0)
(-0.00720832 0.0478477 0)
(-0.0067729 0.0509342 0)
(-0.00548005 0.0529121 0)
(-0.00270303 0.0535885 0)
(-0.000274776 0.0547654 0)
(0.00336449 0.0581946 0)
(0.000553398 0.0649619 0)
(0.00119977 0.0484746 0)
(0.00153364 0.0479468 0)
(0.00194023 0.0473389 0)
(0.00203497 0.0468458 0)
(0.00204831 0.0464996 0)
(0.00184271 0.0460094 0)
(0.00148828 0.0453679 0)
(0.00101633 0.0446075 0)
(0.000473198 0.0446567 0)
(-2.10829e-06 0.0443553 0)
(-0.000466506 0.0435642 0)
(-0.00190282 0.0437993 0)
(-0.00312825 0.0431832 0)
(-0.00444487 0.0434127 0)
(-0.0046771 0.0445743 0)
(-0.00364908 0.0453516 0)
(-0.00320426 0.0471601 0)
(-0.00300355 0.048378 0)
(-0.00117528 0.0493671 0)
(0.00140987 0.0498599 0)
(0.00183476 0.0502209 0)
(0.00612034 0.0514635 0)
(0.000614308 0.0639213 0)
(0.00126089 0.0479457 0)
(0.00158402 0.0475949 0)
(0.00192891 0.0473487 0)
(0.00207442 0.0470547 0)
(0.00205854 0.0466091 0)
(0.00202636 0.0462307 0)
(0.00188038 0.0459182 0)
(0.00157138 0.0457045 0)
(0.000877934 0.0450619 0)
(0.000657119 0.0449662 0)
(0.000515835 0.0455101 0)
(0.000274947 0.0454366 0)
(-0.00040552 0.0452764 0)
(-0.001635 0.0455404 0)
(-0.00220474 0.0455339 0)
(-0.00382105 0.0464319 0)
(-0.00414752 0.0480365 0)
(-0.0034298 0.0483171 0)
(-0.00142824 0.0493317 0)
(-0.000508751 0.0497232 0)
(0.0016913 0.0500213 0)
(0.00478172 0.0481588 0)
(0.000371399 0.0633587 0)
(0.000717494 0.0476528 0)
(0.000923004 0.0472606 0)
(0.00120644 0.046989 0)
(0.00130252 0.046712 0)
(0.00128385 0.0464184 0)
(0.00114975 0.0460792 0)
(0.000892472 0.0457518 0)
(0.000561291 0.0456074 0)
(0.000236605 0.0458755 0)
(-0.000293216 0.0457417 0)
(-0.00129813 0.0452123 0)
(-0.00181042 0.0453079 0)
(-0.00208903 0.046145 0)
(-0.0025508 0.0461414 0)
(-0.00337916 0.0459911 0)
(-0.00305966 0.0467655 0)
(-0.00206807 0.0459161 0)
(-0.00075976 0.0467738 0)
(-0.00108379 0.0470326 0)
(0.00074122 0.0478836 0)
(0.00200181 0.0461924 0)
(0.00448628 0.0450948 0)
(0.000387578 0.0625871 0)
(0.000825046 0.0472413 0)
(0.00100004 0.0469058 0)
(0.00128527 0.0467783 0)
(0.00140353 0.0466844 0)
(0.00154826 0.0466596 0)
(0.00153139 0.0465202 0)
(0.00137981 0.0463924 0)
(0.00113963 0.0462531 0)
(0.000991302 0.0460677 0)
(0.000617139 0.0459786 0)
(7.10081e-05 0.0461234 0)
(-0.0006463 0.0457306 0)
(-0.00157894 0.0456907 0)
(-0.00131849 0.0455303 0)
(-0.000950834 0.0463858 0)
(-0.00148458 0.046252 0)
(-0.00199904 0.047057 0)
(-0.00261212 0.0474305 0)
(-0.00193119 0.046758 0)
(-0.000208535 0.045133 0)
(0.00119256 0.0450069 0)
(0.00220688 0.0437853 0)
(0.000324809 0.0622248 0)
(0.000660273 0.0471696 0)
(0.000799166 0.0469057 0)
(0.0010039 0.0467977 0)
(0.000982361 0.0466715 0)
(0.000977984 0.0465046 0)
(0.000865779 0.0463691 0)
(0.000623045 0.0462726 0)
(0.000250111 0.0461559 0)
(-0.000163793 0.0461118 0)
(-0.000348612 0.0465197 0)
(-2.77622e-05 0.046536 0)
(-0.000351375 0.046765 0)
(-0.00069778 0.0466662 0)
(-0.00195641 0.0471394 0)
(-0.00301131 0.0464823 0)
(-0.00320708 0.0465999 0)
(-0.00276038 0.0466679 0)
(-0.00153217 0.0452835 0)
(-0.00044585 0.0453197 0)
(-0.00103464 0.0459595 0)
(-0.00088883 0.044136 0)
(0.000740066 0.0415615 0)
(0.000303496 0.0615132 0)
(0.000677742 0.0467083 0)
(0.00088398 0.0464627 0)
(0.00122148 0.0465001 0)
(0.00141079 0.0465865 0)
(0.00152238 0.0466477 0)
(0.00153447 0.0467168 0)
(0.00147036 0.0467747 0)
(0.00130637 0.0468372 0)
(0.000926155 0.046848 0)
(0.000203724 0.0466268 0)
(-0.000867009 0.0468471 0)
(-0.00136968 0.0469621 0)
(-0.0016997 0.0470874 0)
(-0.00152348 0.0465777 0)
(-0.00103063 0.0462397 0)
(-0.00105292 0.0463031 0)
(-0.00156255 0.0460535 0)
(-0.00238505 0.0470094 0)
(-0.00314281 0.0461127 0)
(-0.00216002 0.0440067 0)
(-0.00162645 0.0430592 0)
(-0.00171731 0.041652 0)
(0.000255222 0.061254 0)
(0.000565778 0.0466851 0)
(0.000695832 0.0464038 0)
(0.000921097 0.0464323 0)
(0.000978998 0.0464408 0)
(0.000978503 0.0464552 0)
(0.00086453 0.0465245 0)
(0.000672526 0.0466723 0)
(0.000425711 0.0468759 0)
(0.0001891 0.0471718 0)
(8.69195e-05 0.0475483 0)
(0.000262309 0.0475741 0)
(6.66178e-05 0.0473905 0)
(-0.000339434 0.0472851 0)
(-0.000987763 0.0475215 0)
(-0.00215657 0.0476796 0)
(-0.00304401 0.0474825 0)
(-0.00333811 0.0473115 0)
(-0.00312493 0.0457292 0)
(-0.00256247 0.0450929 0)
(-0.00312945 0.0449129 0)
(-0.0037202 0.0433331 0)
(-0.00369784 0.0413086 0)
(0.000278033 0.0606045 0)
(0.000768741 0.0462178 0)
(0.00105255 0.0459811 0)
(0.00144302 0.0461481 0)
(0.0016483 0.0463434 0)
(0.00179233 0.0465694 0)
(0.0017841 0.0467936 0)
(0.00162451 0.0469663 0)
(0.00132013 0.0470962 0)
(0.00087608 0.0471709 0)
(0.00025838 0.0471819 0)
(-0.000584664 0.0473928 0)
(-0.00126062 0.047664 0)
(-0.00181102 0.0477039 0)
(-0.00219974 0.0475595 0)
(-0.00223163 0.0471652 0)
(-0.00223775 0.0468449 0)
(-0.00260336 0.0467673 0)
(-0.00332545 0.0469558 0)
(-0.0041643 0.0461925 0)
(-0.00451796 0.0447331 0)
(-0.00500739 0.0435234 0)
(-0.00579061 0.0419911 0)
(0.000279255 0.060258 0)
(0.000699486 0.0460289 0)
(0.000921982 0.0457716 0)
(0.00124625 0.0460003 0)
(0.00138077 0.0462667 0)
(0.00148489 0.0466064 0)
(0.00148469 0.0470033 0)
(0.00138936 0.0474204 0)
(0.00119303 0.0478268 0)
(0.000931306 0.048185 0)
(0.00061413 0.0484969 0)
(0.000278972 0.0485324 0)
(-0.000128439 0.0485089 0)
(-0.000633486 0.0485835 0)
(-0.00126882 0.0486081 0)
(-0.00209808 0.0486025 0)
(-0.00302244 0.0484348 0)
(-0.00376075 0.0479022 0)
(-0.00426068 0.0470522 0)
(-0.00468597 0.0463643 0)
(-0.00548459 0.0456193 0)
(-0.00653606 0.0443745 0)
(-0.0075812 0.0429002 0)
(0.000366157 0.0595373 0)
(0.000946102 0.0454745 0)
(0.00124447 0.0452545 0)
(0.00169106 0.0455696 0)
(0.00192137 0.0458946 0)
(0.00213095 0.0462839 0)
(0.00221151 0.046701 0)
(0.00216056 0.0471197 0)
(0.00194569 0.0475114 0)
(0.00157624 0.0478366 0)
(0.00105415 0.0481433 0)
(0.000382431 0.0485176 0)
(-0.000360445 0.0487656 0)
(-0.00108609 0.0488508 0)
(-0.00178574 0.0488522 0)
(-0.00242114 0.0487204 0)
(-0.00301227 0.0484987 0)
(-0.00372994 0.0482941 0)
(-0.0046189 0.0480189 0)
(-0.00556913 0.047404 0)
(-0.00653757 0.0465026 0)
(-0.00772358 0.045473 0)
(-0.00912709 0.0442458 0)
(0.000426121 0.0589243 0)
(0.000960155 0.0452823 0)
(0.00117518 0.0450611 0)
(0.00158531 0.0454749 0)
(0.00177946 0.0459059 0)
(0.001999 0.0464071 0)
(0.00218344 0.0469924 0)
(0.0023472 0.0476314 0)
(0.0023975 0.0482817 0)
(0.00226432 0.0489311 0)
(0.00190365 0.0493925 0)
(0.001315 0.049636 0)
(0.000548809 0.0497394 0)
(-0.000368316 0.0498231 0)
(-0.00131882 0.0498627 0)
(-0.00230475 0.0498409 0)
(-0.00328754 0.0496816 0)
(-0.00423854 0.0493508 0)
(-0.00518075 0.0488963 0)
(-0.00618122 0.0483696 0)
(-0.00733467 0.0477096 0)
(-0.0087579 0.0468546 0)
(-0.0103963 0.0458514 0)
(0.000618908 0.0580395 0)
(0.00104342 0.0447159 0)
(0.00102004 0.0444927 0)
(0.00132227 0.04492 0)
(0.00140351 0.0453693 0)
(0.00155836 0.0458802 0)
(0.00171994 0.0464862 0)
(0.00187948 0.0471618 0)
(0.00200098 0.047884 0)
(0.00205761 0.0486866 0)
(0.00199031 0.0494942 0)
(0.00174317 0.0502247 0)
(0.00125706 0.05077 0)
(0.000483345 0.051019 0)
(-0.000572527 0.0509845 0)
(-0.00181307 0.0507536 0)
(-0.00308358 0.0504894 0)
(-0.00429585 0.0502786 0)
(-0.00547776 0.050012 0)
(-0.00668982 0.0496051 0)
(-0.00799944 0.049061 0)
(-0.00953665 0.0484113 0)
(-0.0113399 0.0476764 0)
(0.000701634 0.0573326 0)
(0.000858559 0.0449636 0)
(0.000298303 0.0448142 0)
(0.000273371 0.0452267 0)
(2.30773e-05 0.0456985 0)
(-4.61643e-05 0.0461874 0)
(-0.000145223 0.0466644 0)
(-0.000180342 0.047251 0)
(-0.000133724 0.0479843 0)
(-2.6458e-05 0.0487839 0)
(7.49842e-05 0.0496149 0)
(0.000117531 0.0503877 0)
(2.3727e-05 0.0510784 0)
(-0.000244432 0.0516837 0)
(-0.000685121 0.0521487 0)
(-0.0013644 0.0523981 0)
(-0.00240516 0.0522829 0)
(-0.00388401 0.0517985 0)
(-0.00548095 0.0512535 0)
(-0.00694257 0.0508807 0)
(-0.00843536 0.0505401 0)
(-0.0100724 0.0501222 0)
(-0.0119759 0.0496491 0)
(0.000719036 0.0565788 0)
(0.000245498 0.0454028 0)
(-0.00124725 0.0452609 0)
(-0.00192956 0.0454947 0)
(-0.0027944 0.045857 0)
(-0.00337451 0.046231 0)
(-0.00387936 0.0466644 0)
(-0.00420907 0.0471592 0)
(-0.0043617 0.047757 0)
(-0.00431353 0.0484523 0)
(-0.00408524 0.0492781 0)
(-0.00376695 0.0501608 0)
(-0.00347302 0.0509793 0)
(-0.00321339 0.0517269 0)
(-0.00306667 0.0522954 0)
(-0.00314578 0.0527258 0)
(-0.00348624 0.0530841 0)
(-0.00401863 0.0533384 0)
(-0.00497141 0.0531927 0)
(-0.00656242 0.0526516 0)
(-0.00848417 0.052141 0)
(-0.0102774 0.0518726 0)
(-0.012294 0.0516864 0)
(0.000563932 0.0563495 0)