/*--------------------------------*- C++ -*----------------------------------*\
| =========                 |                                                 |
| \\      /  F ield         | OpenFOAM: The Open Source CFD Toolbox           |
|  \\    /   O peration     | Version:  2.4.0                                 |
|   \\  /    A nd           | Web:      www.OpenFOAM.org                      |
|    \\/     M anipulation  |                                                 |
\*---------------------------------------------------------------------------*/
FoamFile
{
    version     2.0;
    format      ascii;
    class       volVectorField;
    location    "0.65";
    object      U.water;
}
// * * * * * * * * * * * * * * * * * * * * * * * * * * * * * * * * * * * * * //

dimensions      [0 1 -1 0 0 0 0];

internalField   nonuniform List<vector> 
2268
(
(0.013151 0.0016998 0)
(0.0362831 0.000748442 0)
(0.0639271 0.00496344 0)
(0.0773028 0.000986985 0)
(0.110014 0.000383093 0)
(0.136324 0.00445157 0)
(0.148214 0.00653667 0)
(0.162355 0.010682 0)
(0.173103 0.010556 0)
(0.191107 0.0166154 0)
(0.193269 0.0350905 0)
(0.177452 0.0388058 0)
(0.141983 0.032582 0)
(0.0843179 0.0225444 0)
(0.0269806 0.0102197 0)
(-0.0201115 -0.00582976 0)
(-0.0471649 -0.00487 0)
(-0.073264 -0.00680703 0)
(-0.0810238 0.000575534 0)
(-0.0853479 -0.00822982 0)
(-0.0511256 -0.00444474 0)
(-0.0374016 -0.000700132 0)
(-0.0347175 -0.00617188 0)
(0.014191 0.00274051 0)
(0.0350176 0.00109839 0)
(0.064024 0.0059924 0)
(0.0802389 0.00178887 0)
(0.109965 0.00208681 0)
(0.134809 0.00694564 0)
(0.150928 0.00517099 0)
(0.166589 0.00472836 0)
(0.1855 -0.00226806 0)
(0.199156 -0.0101705 0)
(0.193893 -0.0246108 0)
(0.17251 -0.0173981 0)
(0.134512 0.0119109 0)
(0.0824848 0.0317327 0)
(0.0218078 0.0385616 0)
(-0.0223128 0.0358542 0)
(-0.0477507 0.0274833 0)
(-0.0681266 0.0188412 0)
(-0.0811578 0.00525043 0)
(-0.07396 -0.00593338 0)
(-0.0557472 -0.0176477 0)
(-0.0310985 -0.00769841 0)
(-0.0239695 -0.0280011 0)
(0.0153334 0.167089 0)
(0.0330564 0.165266 0)
(0.0626749 0.172022 0)
(0.0877263 0.165753 0)
(0.105292 0.165311 0)
(0.129171 0.173228 0)
(0.14491 0.177652 0)
(0.161448 0.185165 0)
(0.173836 0.188219 0)
(0.169966 0.206824 0)
(0.177428 0.157437 0)
(0.184436 0.144414 0)
(0.16096 0.117074 0)
(0.110515 0.0817197 0)
(0.0412034 0.0576768 0)
(-0.0234573 0.033194 0)
(-0.0641639 0.0250653 0)
(-0.0817557 0.0156659 0)
(-0.0940276 0.00672043 0)
(-0.0703197 -0.0184663 0)
(-0.0478084 -0.0251528 0)
(-0.010396 -0.0154241 0)
(0.00467362 -0.0306232 0)
(0.0159755 0.0414092 0)
(0.0289855 0.0395283 0)
(0.0562281 0.0446861 0)
(0.0890194 0.0391166 0)
(0.097496 0.0401221 0)
(0.117788 0.0466293 0)
(0.144334 0.0495388 0)
(0.169398 0.0556168 0)
(0.18544 0.0640188 0)
(0.189712 0.0834372 0)
(0.176162 0.10943 0)
(0.1325 0.147432 0)
(0.0869637 0.221071 0)
(0.0695121 0.165215 0)
(0.0156809 0.138116 0)
(-0.034516 0.0827296 0)
(-0.0674125 0.0467777 0)
(-0.0820807 0.0222326 0)
(-0.0938799 0.00197109 0)
(-0.0712402 -0.0289562 0)
(-0.0582238 -0.0457775 0)
(-0.0112984 -0.0300475 0)
(0.00219933 -0.0306664 0)
(0.00824528 0.134383 0)
(0.0189886 0.139504 0)
(0.0343845 0.131235 0)
(0.0584309 0.142202 0)
(0.0635605 0.146622 0)
(0.0695227 0.144356 0)
(0.0915068 0.155378 0)
(0.100872 0.162315 0)
(0.0987292 0.180053 0)
(0.0998752 0.202384 0)
(0.0876468 0.238356 0)
(0.0923875 0.255943 0)
(0.0741259 0.232553 0)
(-0.0137241 0.272926 0)
(-0.0916817 0.264848 0)
(-0.0795959 0.128611 0)
(-0.0846921 0.0681536 0)
(-0.0873964 0.0367307 0)
(-0.0917304 0.000634907 0)
(-0.0685495 -0.0334562 0)
(-0.0722894 -0.0530642 0)
(-0.023868 -0.0464781 0)
(0.00575634 -0.0346694 0)
(-0.0059604 -0.171174 0)
(-0.00073269 -0.173338 0)
(-0.00695966 -0.175506 0)
(-0.00958789 -0.176351 0)
(-0.00405236 -0.173916 0)
(-0.00476998 -0.178863 0)
(-0.00674419 -0.177702 0)
(-0.0164218 -0.171942 0)
(-0.0190185 -0.170588 0)
(-0.014874 -0.170406 0)
(0.00971102 -0.148796 0)
(0.0551473 -0.0139961 0)
(0.0600122 0.263489 0)
(-0.110984 0.318504 0)
(-0.159962 0.291108 0)
(-0.183451 0.233432 0)
(-0.134864 0.0906401 0)
(-0.109466 0.0507255 0)
(-0.0934953 0.0115016 0)
(-0.0665374 -0.0263343 0)
(-0.0774428 -0.0609671 0)
(-0.0495341 -0.0640252 0)
(-0.00156825 -0.0394473 0)
(-0.00573742 0.0140643 0)
(-0.0118509 0.0174272 0)
(-0.0148157 0.00947916 0)
(-0.0122709 0.0207227 0)
(-0.011643 0.0277699 0)
(-0.000691617 0.0237907 0)
(0.00871489 0.0435341 0)
(-0.00430374 0.0577989 0)
(-0.0189077 0.0729765 0)
(-0.0455631 0.0842353 0)
(-0.0973568 0.094215 0)
(-0.147214 0.048601 0)
(-0.107476 0.0467634 0)
(-0.147367 0.256889 0)
(-0.264338 0.306816 0)
(-0.26739 0.251331 0)
(-0.204638 0.146307 0)
(-0.147821 0.0380409 0)
(-0.110402 -0.00281705 0)
(-0.0800465 -0.031618 0)
(-0.0811031 -0.0287702 0)
(-0.0550985 -0.0436823 0)
(-0.00299664 -0.0379628 0)
(-0.00533243 -0.0616753 0)
(-0.00953019 -0.0670604 0)
(-0.01482 -0.0741895 0)
(-0.0167003 -0.0770858 0)
(-0.0090452 -0.0783662 0)
(-0.0103065 -0.0837393 0)
(-0.0134649 -0.0726527 0)
(-0.0254699 -0.0642114 0)
(-0.0267368 -0.0630174 0)
(-0.0320232 -0.054397 0)
(-0.02695 -0.0200984 0)
(-0.0506949 0.0537713 0)
(-0.123912 0.153435 0)
(-0.170321 0.235186 0)
(-0.39837 0.295035 0)
(-0.40583 0.218521 0)
(-0.352459 0.200827 0)
(-0.236578 0.0765084 0)
(-0.173321 0.0388498 0)
(-0.115114 0.0153946 0)
(-0.0826829 0.0762186 0)
(-0.0467032 0.0671218 0)
(0.00423754 0.019345 0)
(-0.318846 -0.429696 0)
(-0.338294 -0.251816 0)
(-0.0518309 -0.148829 0)
(0.21088 -0.181676 0)
(0.426355 -0.184057 0)
(0.572239 -0.192278 0)
(0.690078 -0.209473 0)
(0.769586 -0.228627 0)
(0.802305 -0.261474 0)
(0.80083 -0.285868 0)
(0.786855 -0.29865 0)
(0.763479 -0.320492 0)
(0.694501 -0.339341 0)
(0.616797 -0.32926 0)
(0.557418 -0.285675 0)
(0.460086 -0.191591 0)
(0.273889 -0.088571 0)
(-0.11002 -0.113123 0)
(-0.0178107 -0.184062 0)
(-0.280588 0.152481 0)
(-0.0916412 0.0535236 0)
(0.130272 0.0386522 0)
(0.325215 0.0961551 0)
(0.525016 0.141279 0)
(0.611657 0.077628 0)
(0.671518 0.0232577 0)
(0.743664 0.0234296 0)
(0.784154 0.0327154 0)
(0.799148 0.0431774 0)
(0.832435 0.0508853 0)
(0.875134 0.0937617 0)
(0.855932 0.155282 0)
(0.801948 0.163664 0)
(0.707042 0.172498 0)
(0.628882 0.285894 0)
(0.44216 0.360649 0)
(0.0220614 0.293664 0)
(-0.0147964 0.1828 0)
(-0.181713 0.0491225 0)
(0.151696 -0.210554 0)
(0.297539 -0.17345 0)
(0.489318 -0.0965903 0)
(0.605023 -0.0178765 0)
(0.65272 0.0220262 0)
(0.66819 0.0263786 0)
(0.661829 -0.0963782 0)
(0.665314 -0.181403 0)
(0.678778 -0.193313 0)
(0.681428 -0.197319 0)
(0.692714 -0.182446 0)
(0.692399 -0.152631 0)
(0.664497 -0.13076 0)
(0.572347 -0.1124 0)
(0.478085 0.0539464 0)
(0.359207 0.324516 0)
(-0.0320553 0.259006 0)
(-0.0968774 -0.00736644 0)
(-0.0128386 0.142145 0)
(0.392828 -0.250239 0)
(0.462614 -0.254228 0)
(0.566286 -0.153163 0)
(0.658266 -0.0368078 0)
(0.674705 0.0239404 0)
(0.686503 0.033452 0)
(0.688219 0.0480819 0)
(0.682057 0.0304303 0)
(0.649935 -0.0774854 0)
(0.571192 -0.139341 0)
(0.536246 -0.1316 0)
(0.536667 -0.0900258 0)
(0.509862 -0.0796887 0)
(0.437651 -0.0681472 0)
(0.249734 0.137149 0)
(0.214761 0.432189 0)
(-0.160452 0.385717 0)
(-0.0729352 0.101067 0)
(0.347965 0.0925216 0)
(0.467193 -0.303657 0)
(0.525745 -0.344416 0)
(0.549312 -0.26597 0)
(0.627391 -0.111526 0)
(0.698861 -0.0826891 0)
(0.721764 -0.0604531 0)
(0.721528 -0.0373971 0)
(0.719634 -0.0151943 0)
(0.6937 -0.0042773 0)
(0.643239 -0.0259663 0)
(0.573514 -0.114171 0)
(0.486863 -0.136394 0)
(0.4644 -0.141188 0)
(0.384119 -0.0604228 0)
(0.279541 0.0900344 0)
(0.0707971 0.478636 0)
(-0.306614 0.45354 0)
(-0.0169713 0.0264951 0)
(0.430813 0.0240443 0)
(0.461101 -0.333955 0)
(0.536178 -0.373183 0)
(0.537605 -0.290283 0)
(0.507498 -0.230671 0)
(0.591922 -0.134776 0)
(0.638383 -0.113966 0)
(0.659915 -0.0955039 0)
(0.704897 -0.0640529 0)
(0.705844 -0.0377331 0)
(0.652727 -0.0168256 0)
(0.577092 -0.0127026 0)
(0.502462 -0.0710039 0)
(0.454582 -0.0254805 0)
(0.29905 0.0742148 0)
(0.257853 0.189342 0)
(0.0252149 0.55697 0)
(-0.304346 0.466044 0)
(0.0509677 -0.00293361 0)
(0.388636 -0.148245 0)
(0.404831 -0.383916 0)
(0.49414 -0.395028 0)
(0.515056 -0.330047 0)
(0.478736 -0.237458 0)
(0.484046 -0.170413 0)
(0.539405 -0.119013 0)
(0.560924 -0.0773883 0)
(0.611872 -0.0319403 0)
(0.622472 -0.0155804 0)
(0.594707 -0.0111785 0)
(0.523713 -0.00521959 0)
(0.489493 0.000297185 0)
(0.432736 0.0746695 0)
(0.276684 0.116376 0)
(0.211803 0.21611 0)
(0.0634805 0.565925 0)
(-0.294599 0.457632 0)
(0.138474 -0.101737 0)
(0.413232 -0.323253 0)
(0.393209 -0.398733 0)
(0.474709 -0.409476 0)
(0.500375 -0.337544 0)
(0.47399 -0.230535 0)
(0.457059 -0.153982 0)
(0.481947 -0.106006 0)
(0.496006 -0.0880736 0)
(0.521523 -0.0512862 0)
(0.54155 0.0237069 0)
(0.536656 0.0421533 0)
(0.528308 0.0102994 0)
(0.48986 0.0115956 0)
(0.412949 0.129325 0)
(0.211555 0.166457 0)
(0.0970974 0.281603 0)
(0.0697602 0.599697 0)
(-0.31552 0.421668 0)
(0.234032 -0.176408 0)
(-0.00611606 -0.0598784 0)
(-0.0140983 -0.0600201 0)
(-0.0168346 -0.0629603 0)
(-0.00930842 -0.0582728 0)
(0.00494446 -0.04884 0)
(0.0138308 -0.0485958 0)
(0.0304409 -0.0173032 0)
(0.0190155 0.0133103 0)
(-0.00872137 0.0455376 0)
(-0.057637 0.0639019 0)
(-0.109076 0.0640979 0)
(-0.127799 0.0398793 0)
(-0.121647 0.0798546 0)
(-0.0816299 0.219014 0)
(-0.100854 0.320519 0)
(-0.248516 0.275416 0)
(-0.294298 0.0910762 0)
(-0.29011 -0.00833354 0)
(-0.259089 -0.0130614 0)
(-0.188881 -0.00135821 0)
(-0.0819586 -0.0143057 0)
(-0.0116494 -0.0300687 0)
(0.0507664 0.0283346 0)
(-0.00493793 0.0213642 0)
(-0.0121125 0.00606289 0)
(-0.0143268 -0.0237057 0)
(-0.0070946 -0.0482741 0)
(0.0126544 -0.0489915 0)
(0.020665 -0.0599948 0)
(0.0334365 -0.0277321 0)
(0.0259935 0.00702804 0)
(0.0310086 0.0347007 0)
(0.0230721 0.0615519 0)
(0.00156091 0.0918531 0)
(-0.0078924 0.115719 0)
(-0.0281401 0.159251 0)
(-0.00325686 0.215604 0)
(0.0795077 0.265653 0)
(0.166526 0.259214 0)
(0.143055 0.243564 0)
(0.0498966 0.166018 0)
(0.00853547 0.0377689 0)
(0.056967 -0.0805242 0)
(0.137082 -0.140633 0)
(0.161713 -0.0829488 0)
(0.238975 -0.0578495 0)
(-0.0106014 -0.087128 0)
(-0.0382952 -0.101069 0)
(-0.053102 -0.118309 0)
(-0.0306763 -0.134242 0)
(0.0137885 -0.130193 0)
(0.0304473 -0.135401 0)
(0.047238 -0.08862 0)
(0.0140106 -0.0370379 0)
(-0.0181702 -0.00397099 0)
(-0.0503954 0.0251349 0)
(-0.0536932 0.0449438 0)
(-0.0454863 0.0546519 0)
(-0.0271281 0.102439 0)
(0.029445 0.144304 0)
(0.100422 0.148356 0)
(0.189461 0.0975711 0)
(0.276518 0.0416681 0)
(0.329993 -0.00645114 0)
(0.402397 -0.110322 0)
(0.42939 -0.177651 0)
(0.4288 -0.186315 0)
(0.450874 -0.206667 0)
(0.511915 -0.225136 0)
(-0.0363593 0.0989654 0)
(-0.0909228 0.0916402 0)
(-0.0872969 0.0239858 0)
(-0.0627178 -0.0628074 0)
(-0.0601217 -0.0743495 0)
(-0.123072 -0.0934399 0)
(-0.134833 -0.0319987 0)
(-0.118604 0.03887 0)
(-0.109709 0.0667741 0)
(-0.108244 0.0746191 0)
(-0.0938887 0.063146 0)
(-0.0940676 0.0482234 0)
(-0.0680298 0.0339512 0)
(-0.0186065 0.0358357 0)
(0.0349965 0.0399415 0)
(0.115466 0.00969586 0)
(0.192571 -0.0154526 0)
(0.24547 -0.0910874 0)
(0.343084 -0.162541 0)
(0.359469 -0.252856 0)
(0.412527 -0.325798 0)
(0.446851 -0.380877 0)
(0.492079 -0.429855 0)
(-0.0138994 -0.0291598 0)
(-0.0400252 -0.0843036 0)
(-0.083477 -0.256167 0)
(-0.314555 -0.330053 0)
(-0.564453 -0.25299 0)
(-0.688345 -0.311147 0)
(-0.697337 -0.269629 0)
(-0.549943 -0.174749 0)
(-0.439451 -0.117432 0)
(-0.360274 -0.0547807 0)
(-0.309668 -0.0315945 0)
(-0.275663 -0.0335219 0)
(-0.179727 0.00320598 0)
(-0.0985785 0.0284171 0)
(-0.0256136 0.0108545 0)
(0.0575332 -0.0529456 0)
(0.127124 -0.101923 0)
(0.151235 -0.201657 0)
(0.240859 -0.254951 0)
(0.220698 -0.339248 0)
(0.269608 -0.411667 0)
(0.275217 -0.468587 0)
(0.287852 -0.550872 0)
(0.00730861 -0.347266 0)
(0.0141007 -0.452738 0)
(-0.0680527 -0.515093 0)
(-0.288294 -0.490126 0)
(-0.370915 -0.499302 0)
(-0.288276 -0.729064 0)
(-0.70032 -0.568158 0)
(-0.661763 -0.609356 0)
(-0.614844 -0.543165 0)
(-0.581774 -0.501363 0)
(-0.546553 -0.48608 0)
(-0.482456 -0.490517 0)
(-0.421062 -0.418415 0)
(-0.348795 -0.361486 0)
(-0.257528 -0.317654 0)
(-0.173557 -0.279424 0)
(-0.112549 -0.318082 0)
(-0.105247 -0.442422 0)
(0.0262117 -0.507955 0)
(0.0429231 -0.627413 0)
(0.101955 -0.730454 0)
(0.16065 -0.88601 0)
(0.254795 -1.08566 0)
(0.012359 -0.400483 0)
(-0.0201169 -0.576754 0)
(-0.0593416 -0.558476 0)
(-0.217699 -0.542155 0)
(-0.228089 -0.414043 0)
(0.0496205 -0.0724367 0)
(0.422522 -0.0719556 0)
(0.561254 0.13747 0)
(0.249523 0.44725 0)
(-0.128622 0.724772 0)
(-0.31353 0.922366 0)
(-0.527252 0.286084 0)
(-0.395727 -0.349119 0)
(-0.370545 -0.582147 0)
(-0.316883 -0.685089 0)
(-0.263756 -0.7298 0)
(-0.222023 -0.687331 0)
(-0.206311 -0.52065 0)
(-0.292596 -0.253852 0)
(-0.564425 0.220125 0)
(-0.999456 0.180538 0)
(-1.18835 -0.134722 0)
(-1.19258 -0.135086 0)
(-0.253366 0.201435 0)
(-0.26259 0.148255 0)
(-0.0987125 0.192188 0)
(-0.019829 0.240333 0)
(0.258696 -0.0819565 0)
(0.324352 -0.379379 0)
(0.244251 -0.370862 0)
(0.111436 -0.15771 0)
(-0.137101 0.120756 0)
(-0.205284 -0.154448 0)
(-0.214615 -0.328333 0)
(0.0813596 -0.744607 0)
(0.0874492 -0.684139 0)
(0.131358 -0.358678 0)
(0.0436294 -0.132318 0)
(-0.0635179 -0.0898232 0)
(-0.182849 -0.21083 0)
(-0.224619 -0.286682 0)
(-0.290129 -0.327069 0)
(-0.164599 -0.442996 0)
(-0.0915022 -0.392483 0)
(-0.16543 -0.307124 0)
(-0.338893 -0.116412 0)
(-0.186804 0.36706 0)
(-0.0200134 0.0773384 0)
(-0.0417732 -0.00560672 0)
(0.123129 0.0724995 0)
(0.297234 -0.0438754 0)
(0.228821 -0.152016 0)
(0.22827 -0.035976 0)
(0.141954 0.306148 0)
(-0.0155298 0.414879 0)
(0.135345 0.44507 0)
(-0.0960317 0.443177 0)
(-0.0548511 0.0640797 0)
(-0.18046 -0.117619 0)
(-0.158173 -0.172038 0)
(-0.0669116 -0.17204 0)
(0.0329437 -0.14281 0)
(0.117961 -0.0744488 0)
(0.188394 0.00583762 0)
(0.222247 0.0726469 0)
(0.199818 0.121506 0)
(0.095998 0.132431 0)
(-0.0577205 0.166761 0)
(-0.181427 0.289147 0)
(-0.00889505 0.426333 0)
(0.0886412 0.197047 0)
(-0.010364 0.133357 0)
(0.0518295 0.0513304 0)
(0.115259 -0.0764885 0)
(0.066199 -0.211937 0)
(0.00578858 -0.0948609 0)
(0.0973276 0.293547 0)
(0.0830611 0.350787 0)
(0.172485 0.282051 0)
(0.215513 0.0742172 0)
(0.294023 -0.222346 0)
(0.171312 -0.244526 0)
(0.0837424 -0.179837 0)
(0.0750128 -0.0896272 0)
(0.0590444 -0.0365351 0)
(0.0315383 -0.0473406 0)
(7.69023e-05 -0.0706382 0)
(-0.0253002 -0.0788534 0)
(-0.0247614 -0.055312 0)
(-0.0323908 0.00509767 0)
(-0.0723602 0.0816154 0)
(-0.102119 0.188233 0)
(0.0490872 0.345315 0)
(0.0910364 0.128285 0)
(0.102473 0.00267077 0)
(0.119597 -0.0384387 0)
(0.11462 -0.0661684 0)
(0.044591 -0.100912 0)
(-0.0683317 -0.0928335 0)
(0.0218453 0.180539 0)
(0.161067 0.212732 0)
(0.249534 0.169595 0)
(0.304566 0.105493 0)
(0.265601 0.0330725 0)
(0.128205 -0.0996851 0)
(0.0512322 -0.174164 0)
(0.00741391 -0.199687 0)
(-0.00911864 -0.200667 0)
(-0.0145325 -0.183232 0)
(-0.0159885 -0.145343 0)
(-0.0180279 -0.0815261 0)
(-0.0374567 -0.00714173 0)
(-0.0497887 0.066361 0)
(-0.0609419 0.135311 0)
(-0.064434 0.208374 0)
(0.0571751 0.246165 0)
(0.0916125 0.145059 0)
(0.0873073 0.076428 0)
(0.0663289 0.0250381 0)
(0.046391 -0.0174725 0)
(0.0188401 -0.0596313 0)
(-0.0479413 -0.0532261 0)
(-0.0408371 0.0125117 0)
(0.0671554 0.108452 0)
(0.167493 0.135658 0)
(0.159282 0.109927 0)
(0.142901 0.0412945 0)
(0.124713 -0.032816 0)
(0.0694101 -0.07179 0)
(0.0200427 -0.0725936 0)
(-0.0164478 -0.0567976 0)
(-0.0472846 -0.0403467 0)
(-0.0722794 -0.0181355 0)
(-0.0976808 0.0146598 0)
(-0.121434 0.0578011 0)
(-0.133624 0.113978 0)
(-0.133832 0.169817 0)
(-0.112283 0.224924 0)
(0.0362155 0.170708 0)
(0.0695563 0.108485 0)
(0.0841601 0.0445703 0)
(0.0776284 0.0154423 0)
(0.0585008 0.00225681 0)
(0.0230577 -0.00498038 0)
(-0.020523 -0.00139431 0)
(-0.0419221 0.0361204 0)
(-0.0392416 0.0461186 0)
(0.0181655 0.0964826 0)
(0.0420731 0.0923457 0)
(0.0538451 0.0391489 0)
(0.0358326 -0.0150215 0)
(0.00498795 -0.0554732 0)
(-0.0286958 -0.0772362 0)
(-0.0548356 -0.0802393 0)
(-0.080749 -0.074118 0)
(-0.106452 -0.0578061 0)
(-0.123656 -0.0252331 0)
(-0.129543 0.0176284 0)
(-0.129177 0.06857 0)
(-0.124935 0.124536 0)
(-0.10733 0.174996 0)
(0.022976 0.137495 0)
(0.0472137 0.0971109 0)
(0.0577343 0.0601194 0)
(0.0493884 0.0389557 0)
(0.0353521 0.0253975 0)
(0.0185595 0.0165059 0)
(-0.00233403 0.0186297 0)
(-0.0131003 0.034344 0)
(-0.0173629 0.0426208 0)
(-0.00715813 0.0633014 0)
(0.0224875 0.0727592 0)
(0.0275319 0.0556923 0)
(0.0160346 0.0161894 0)
(-0.00777281 -0.0187928 0)
(-0.0366745 -0.0393049 0)
(-0.0594264 -0.0434005 0)
(-0.0778535 -0.0333822 0)
(-0.0944447 -0.0137609 0)
(-0.109842 0.0176099 0)
(-0.119917 0.0492216 0)
(-0.119178 0.0831752 0)
(-0.107151 0.119507 0)
(-0.0847336 0.148918 0)
(0.0123658 0.108624 0)
(0.0287746 0.0739062 0)
(0.0355916 0.0547044 0)
(0.0307178 0.0445023 0)
(0.0228765 0.037019 0)
(0.0135101 0.0332473 0)
(0.00221188 0.0346596 0)
(-0.00161566 0.040076 0)
(-0.00262301 0.0429042 0)
(0.000712021 0.0568186 0)
(0.013139 0.0599393 0)
(0.0209609 0.0493425 0)
(0.0185355 0.0263884 0)
(0.00381272 0.00674546 0)
(-0.0190471 -0.00930232 0)
(-0.0411645 -0.0192146 0)
(-0.0594217 -0.015759 0)
(-0.0741445 -0.00290536 0)
(-0.0848122 0.019739 0)
(-0.0914381 0.0471657 0)
(-0.0929841 0.0765475 0)
(-0.083627 0.108092 0)
(-0.0675598 0.135032 0)
(0.00811057 0.094151 0)
(0.0168789 0.0680059 0)
(0.0200757 0.0566046 0)
(0.0188345 0.0476867 0)
(0.0154826 0.0409967 0)
(0.0109809 0.0380539 0)
(0.00699672 0.0372789 0)
(0.00574499 0.0410878 0)
(0.00467788 0.04232 0)
(0.00790984 0.050149 0)
(0.0154599 0.051288 0)
(0.0200597 0.0460555 0)
(0.0227958 0.0314751 0)
(0.0167429 0.0173836 0)
(0.00454267 0.0047791 0)
(-0.0100279 -0.00372014 0)
(-0.0297828 -0.00482184 0)
(-0.0445478 0.00469393 0)
(-0.0557494 0.0255371 0)
(-0.0643036 0.0481002 0)
(-0.0698103 0.0682689 0)
(-0.0635857 0.091722 0)
(-0.0498338 0.115702 0)
(0.00476818 0.0850823 0)
(0.01019 0.0623378 0)
(0.0135359 0.055271 0)
(0.0139404 0.049351 0)
(0.0122946 0.0441003 0)
(0.0102235 0.04089 0)
(0.0080594 0.0395731 0)
(0.00747494 0.0406362 0)
(0.00730345 0.04165 0)
(0.00986682 0.0461413 0)
(0.0152835 0.0470944 0)
(0.0201754 0.0423654 0)
(0.022648 0.0317632 0)
(0.019921 0.0232483 0)
(0.0113366 0.0154521 0)
(0.000825453 0.0121474 0)
(-0.015313 0.0148965 0)
(-0.0303884 0.0233626 0)
(-0.0417883 0.0399061 0)
(-0.0472757 0.0612976 0)
(-0.0527541 0.0745969 0)
(-0.0500641 0.085685 0)
(-0.0386375 0.102288 0)
(0.00286911 0.0789562 0)
(0.00709676 0.0579199 0)
(0.0101342 0.053264 0)
(0.0112657 0.0490987 0)
(0.0107459 0.0454891 0)
(0.00908498 0.0427458 0)
(0.00706071 0.0413137 0)
(0.00556235 0.0411196 0)
(0.00452505 0.041207 0)
(0.00522367 0.0422221 0)
(0.00911044 0.0411477 0)
(0.0128608 0.0371354 0)
(0.0124576 0.0328365 0)
(0.00919596 0.029599 0)
(0.00226169 0.0249819 0)
(-0.00755531 0.0252433 0)
(-0.0211782 0.0282923 0)
(-0.0300134 0.0348956 0)
(-0.0359275 0.0463284 0)
(-0.0402555 0.063569 0)
(-0.0384298 0.07448 0)
(-0.0348508 0.0802868 0)
(-0.0240864 0.0906145 0)
(0.00201943 0.0748958 0)
(0.00546493 0.0545984 0)
(0.00780211 0.0514393 0)
(0.00823926 0.0486299 0)
(0.00789044 0.0463446 0)
(0.00620909 0.0444998 0)
(0.00438517 0.0433344 0)
(0.00284051 0.0428075 0)
(0.00145259 0.0422777 0)
(0.00118495 0.04107 0)
(0.00132435 0.0394381 0)
(0.00177909 0.0373131 0)
(-0.000274377 0.0351549 0)
(-0.00249094 0.031992 0)
(-0.00778824 0.0316748 0)
(-0.0142051 0.0345883 0)
(-0.0207012 0.03525 0)
(-0.0262695 0.0380088 0)
(-0.0304854 0.0484936 0)
(-0.0319023 0.0613591 0)
(-0.0272895 0.0686508 0)
(-0.0208893 0.0703838 0)
(-0.0118942 0.0785909 0)
(0.00181392 0.071255 0)
(0.00398225 0.0522033 0)
(0.00479055 0.0508395 0)
(0.00540794 0.0491439 0)
(0.0052988 0.0474936 0)
(0.00490673 0.046223 0)
(0.00422217 0.0449181 0)
(0.00333471 0.0441832 0)
(0.00249941 0.04332 0)
(0.00167684 0.0420627 0)
(0.00037614 0.0408075 0)
(-0.000445959 0.0395563 0)
(-0.0028507 0.0378956 0)
(-0.00597653 0.0366995 0)
(-0.00917922 0.0371681 0)
(-0.0119652 0.0381064 0)
(-0.013248 0.0395396 0)
(-0.0173928 0.0442627 0)
(-0.0212715 0.0520473 0)
(-0.0192682 0.0601804 0)
(-0.0151352 0.063829 0)
(-0.0100888 0.0653721 0)
(-0.00306228 0.0719578 0)
(0.00123992 0.0689388 0)
(0.00252224 0.0512246 0)
(0.00358348 0.0499393 0)
(0.00442106 0.0484045 0)
(0.00467881 0.0472897 0)
(0.00494834 0.0463786 0)
(0.00489794 0.0455454 0)
(0.00457473 0.045036 0)
(0.00423214 0.0445854 0)
(0.0035457 0.0437008 0)
(0.00202063 0.041686 0)
(0.000515155 0.039992 0)
(-0.00125908 0.0403316 0)
(-0.00369398 0.0393138 0)
(-0.00612325 0.0388164 0)
(-0.00880698 0.0389166 0)
(-0.0109357 0.0430323 0)
(-0.0140745 0.0474785 0)
(-0.0151086 0.0516614 0)
(-0.013586 0.0573542 0)
(-0.0108859 0.059704 0)
(-0.00646315 0.059718 0)
(-0.00283296 0.0646031 0)
(0.000884091 0.0674235 0)
(0.00195845 0.0497567 0)
(0.00320586 0.048754 0)
(0.00371641 0.0476957 0)
(0.00396715 0.0469089 0)
(0.00402959 0.0460771 0)
(0.00394855 0.0454168 0)
(0.00398684 0.0448054 0)
(0.00415115 0.0441257 0)
(0.00424755 0.0438591 0)
(0.00338989 0.04321 0)
(0.00173192 0.0425656 0)
(0.00110646 0.0422806 0)
(-9.47499e-05 0.0416388 0)
(-0.00211348 0.0414376 0)
(-0.00487687 0.0422047 0)
(-0.007503 0.0439176 0)
(-0.00767087 0.0465859 0)
(-0.00694245 0.0504198 0)
(-0.00515986 0.0548056 0)
(-0.00197209 0.0560559 0)
(0.00230405 0.0563606 0)
(0.00440799 0.0604907 0)
(0.000791995 0.0659646 0)
(0.00164707 0.0490218 0)
(0.00188705 0.0483541 0)
(0.002203 0.0478352 0)
(0.00226189 0.0470326 0)
(0.00221255 0.0461257 0)
(0.00200825 0.0453515 0)
(0.00172401 0.0447789 0)
(0.00146233 0.0446585 0)
(0.00109255 0.0446913 0)
(0.00095164 0.0446187 0)
(-0.000308137 0.0437543 0)
(-0.00136699 0.0426095 0)
(-0.00217034 0.0433242 0)
(-0.00313599 0.0439013 0)
(-0.00425011 0.045694 0)
(-0.00592933 0.0467577 0)
(-0.00720819 0.0478598 0)
(-0.00677277 0.0509409 0)
(-0.00547997 0.0529153 0)
(-0.00270298 0.0535899 0)
(-0.000274752 0.0547659 0)
(0.0033645 0.0581947 0)
(0.000553398 0.0649619 0)
(0.00119977 0.0484746 0)
(0.00153364 0.0479468 0)
(0.00194023 0.0473389 0)
(0.00203497 0.0468458 0)
(0.00204831 0.0464996 0)
(0.00184271 0.0460094 0)
(0.00148828 0.0453679 0)
(0.00101633 0.0446075 0)
(0.000473198 0.0446567 0)
(-2.10831e-06 0.0443553 0)
(-0.000466506 0.0435642 0)
(-0.00190282 0.0437993 0)
(-0.00312825 0.0431833 0)
(-0.00444487 0.043413 0)
(-0.0046771 0.0445752 0)
(-0.00364907 0.0453532 0)
(-0.00320423 0.0471622 0)
(-0.00300352 0.0483794 0)
(-0.00117527 0.0493678 0)
(0.00140988 0.0498602 0)
(0.00183477 0.0502211 0)
(0.00612034 0.0514635 0)
(0.000614308 0.0639213 0)
(0.00126089 0.0479457 0)
(0.00158402 0.0475949 0)
(0.00192891 0.0473487 0)
(0.00207442 0.0470547 0)
(0.00205854 0.0466091 0)
(0.00202636 0.0462307 0)
(0.00188038 0.0459182 0)
(0.00157138 0.0457045 0)
(0.000877934 0.0450619 0)
(0.000657119 0.0449662 0)
(0.000515835 0.0455101 0)
(0.000274947 0.0454367 0)
(-0.00040552 0.0452764 0)
(-0.001635 0.0455404 0)
(-0.00220474 0.045534 0)
(-0.00382104 0.046432 0)
(-0.00414752 0.0480368 0)
(-0.0034298 0.0483173 0)
(-0.00142823 0.0493318 0)
(-0.000508748 0.0497233 0)
(0.0016913 0.0500213 0)
(0.00478172 0.0481588 0)
(0.000371399 0.0633587 0)
(0.000717494 0.0476528 0)
(0.000923004 0.0472606 0)
(0.00120644 0.046989 0)
(0.00130252 0.046712 0)
(0.00128385 0.0464184 0)
(0.00114975 0.0460792 0)
(0.000892472 0.0457518 0)
(0.000561291 0.0456074 0)
(0.000236605 0.0458755 0)
(-0.000293216 0.0457417 0)
(-0.00129813 0.0452123 0)
(-0.00181042 0.0453079 0)
(-0.00208903 0.046145 0)
(-0.0025508 0.0461414 0)
(-0.00337916 0.0459911 0)
(-0.00305966 0.0467656 0)
(-0.00206807 0.0459161 0)
(-0.000759759 0.0467739 0)
(-0.00108379 0.0470326 0)
(0.00074122 0.0478836 0)
(0.00200181 0.0461924 0)
(0.00448628 0.0450948 0)
(0.000387578 0.0625871 0)
(0.000825046 0.0472413 0)
(0.00100004 0.0469058 0)
(0.00128527 0.0467783 0)
(0.00140353 0.0466844 0)
(0.00154826 0.0466596 0)
(0.00153139 0.0465202 0)
(0.00137981 0.0463924 0)
(0.00113963 0.0462531 0)
(0.000991302 0.0460677 0)
(0.000617139 0.0459786 0)
(7.10081e-05 0.0461234 0)
(-0.0006463 0.0457306 0)
(-0.00157894 0.0456907 0)
(-0.00131849 0.0455303 0)
(-0.000950834 0.0463858 0)
(-0.00148458 0.046252 0)
(-0.00199904 0.047057 0)
(-0.00261212 0.0474305 0)
(-0.00193119 0.046758 0)
(-0.000208535 0.045133 0)
(0.00119256 0.0450069 0)
(0.00220688 0.0437853 0)
(0.000324809 0.0622248 0)
(0.000660273 0.0471696 0)
(0.000799166 0.0469057 0)
(0.0010039 0.0467977 0)
(0.000982361 0.0466715 0)
(0.000977984 0.0465046 0)
(0.000865779 0.0463691 0)
(0.000623045 0.0462726 0)
(0.000250111 0.0461559 0)
(-0.000163793 0.0461118 0)
(-0.000348612 0.0465197 0)
(-2.77622e-05 0.046536 0)
(-0.000351375 0.046765 0)
(-0.00069778 0.0466662 0)
(-0.00195641 0.0471394 0)
(-0.00301131 0.0464823 0)
(-0.00320708 0.0465999 0)
(-0.00276038 0.0466679 0)
(-0.00153217 0.0452835 0)
(-0.00044585 0.0453197 0)
(-0.00103464 0.0459595 0)
(-0.00088883 0.044136 0)
(0.000740066 0.0415615 0)
(0.000303496 0.0615132 0)
(0.000677742 0.0467083 0)
(0.00088398 0.0464627 0)
(0.00122148 0.0465001 0)
(0.00141079 0.0465865 0)
(0.00152238 0.0466477 0)
(0.00153447 0.0467168 0)
(0.00147036 0.0467747 0)
(0.00130637 0.0468372 0)
(0.000926155 0.046848 0)
(0.000203724 0.0466268 0)
(-0.000867009 0.0468471 0)
(-0.00136968 0.0469621 0)
(-0.0016997 0.0470874 0)
(-0.00152348 0.0465777 0)
(-0.00103063 0.0462397 0)
(-0.00105292 0.0463031 0)
(-0.00156255 0.0460535 0)
(-0.00238505 0.0470094 0)
(-0.00314281 0.0461127 0)
(-0.00216002 0.0440067 0)
(-0.00162645 0.0430592 0)
(-0.00171731 0.041652 0)
(0.000255222 0.061254 0)
(0.000565778 0.0466851 0)
(0.000695832 0.0464038 0)
(0.000921097 0.0464323 0)
(0.000978998 0.0464408 0)
(0.000978503 0.0464552 0)
(0.00086453 0.0465245 0)
(0.000672526 0.0466723 0)
(0.000425711 0.0468759 0)
(0.0001891 0.0471718 0)
(8.69195e-05 0.0475483 0)
(0.000262309 0.0475741 0)
(6.66178e-05 0.0473905 0)
(-0.000339434 0.0472851 0)
(-0.000987763 0.0475215 0)
(-0.00215657 0.0476796 0)
(-0.00304401 0.0474825 0)
(-0.00333811 0.0473115 0)
(-0.00312493 0.0457292 0)
(-0.00256247 0.0450929 0)
(-0.00312945 0.0449129 0)
(-0.0037202 0.0433331 0)
(-0.00369784 0.0413086 0)
(0.000278033 0.0606045 0)
(0.000768741 0.0462178 0)
(0.00105255 0.0459811 0)
(0.00144302 0.0461481 0)
(0.0016483 0.0463434 0)
(0.00179233 0.0465694 0)
(0.0017841 0.0467936 0)
(0.00162451 0.0469663 0)
(0.00132013 0.0470962 0)
(0.00087608 0.0471709 0)
(0.00025838 0.0471819 0)
(-0.000584664 0.0473928 0)
(-0.00126062 0.047664 0)
(-0.00181102 0.0477039 0)
(-0.00219974 0.0475595 0)
(-0.00223163 0.0471652 0)
(-0.00223775 0.0468449 0)
(-0.00260336 0.0467673 0)
(-0.00332545 0.0469558 0)
(-0.0041643 0.0461925 0)
(-0.00451796 0.0447331 0)
(-0.00500739 0.0435234 0)
(-0.00579061 0.0419911 0)
(0.000279255 0.060258 0)
(0.000699486 0.0460289 0)
(0.000921982 0.0457716 0)
(0.00124625 0.0460003 0)
(0.00138077 0.0462667 0)
(0.00148489 0.0466064 0)
(0.00148469 0.0470033 0)
(0.00138936 0.0474204 0)
(0.00119303 0.0478268 0)
(0.000931306 0.048185 0)
(0.00061413 0.0484969 0)
(0.000278972 0.0485324 0)
(-0.000128439 0.0485089 0)
(-0.000633486 0.0485835 0)
(-0.00126882 0.0486081 0)
(-0.00209808 0.0486025 0)
(-0.00302244 0.0484348 0)
(-0.00376075 0.0479022 0)
(-0.00426068 0.0470522 0)
(-0.00468597 0.0463643 0)
(-0.00548459 0.0456193 0)
(-0.00653606 0.0443745 0)
(-0.0075812 0.0429002 0)
(0.000366157 0.0595373 0)
(0.000946102 0.0454745 0)
(0.00124447 0.0452545 0)
(0.00169106 0.0455696 0)
(0.00192137 0.0458946 0)
(0.00213095 0.0462839 0)
(0.00221151 0.046701 0)
(0.00216056 0.0471197 0)
(0.00194569 0.0475114 0)
(0.00157624 0.0478366 0)
(0.00105415 0.0481433 0)
(0.000382431 0.0485176 0)
(-0.000360445 0.0487656 0)
(-0.00108609 0.0488508 0)
(-0.00178574 0.0488522 0)
(-0.00242114 0.0487204 0)
(-0.00301227 0.0484987 0)
(-0.00372994 0.0482941 0)
(-0.0046189 0.0480189 0)
(-0.00556913 0.047404 0)
(-0.00653757 0.0465026 0)
(-0.00772358 0.045473 0)
(-0.00912709 0.0442458 0)
(0.000426121 0.0589243 0)
(0.000960155 0.0452823 0)
(0.00117518 0.0450611 0)
(0.00158531 0.0454749 0)
(0.00177946 0.0459059 0)
(0.001999 0.0464071 0)
(0.00218344 0.0469924 0)
(0.0023472 0.0476314 0)
(0.0023975 0.0482817 0)
(0.00226432 0.0489311 0)
(0.00190365 0.0493925 0)
(0.001315 0.049636 0)
(0.000548809 0.0497394 0)
(-0.000368316 0.0498231 0)
(-0.00131882 0.0498627 0)
(-0.00230475 0.0498409 0)
(-0.00328754 0.0496816 0)
(-0.00423854 0.0493508 0)
(-0.00518075 0.0488963 0)
(-0.00618122 0.0483696 0)
(-0.00733467 0.0477096 0)
(-0.0087579 0.0468546 0)
(-0.0103963 0.0458514 0)
(0.000618908 0.0580395 0)
(0.00104342 0.0447159 0)
(0.00102004 0.0444927 0)
(0.00132227 0.04492 0)
(0.00140351 0.0453693 0)
(0.00155836 0.0458802 0)
(0.00171994 0.0464862 0)
(0.00187948 0.0471618 0)
(0.00200098 0.047884 0)
(0.00205761 0.0486866 0)
(0.00199031 0.0494942 0)
(0.00174317 0.0502247 0)
(0.00125706 0.05077 0)
(0.000483345 0.051019 0)
(-0.000572527 0.0509845 0)
(-0.00181307 0.0507536 0)
(-0.00308358 0.0504894 0)
(-0.00429585 0.0502786 0)
(-0.00547776 0.050012 0)
(-0.00668982 0.0496051 0)
(-0.00799944 0.049061 0)
(-0.00953665 0.0484113 0)
(-0.0113399 0.0476764 0)
(0.000701634 0.0573326 0)
(0.000858559 0.0449636 0)
(0.000298303 0.0448142 0)
(0.000273371 0.0452267 0)
(2.30773e-05 0.0456985 0)
(-4.61643e-05 0.0461874 0)
(-0.000145223 0.0466644 0)
(-0.000180342 0.047251 0)
(-0.000133724 0.0479843 0)
(-2.6458e-05 0.0487839 0)
(7.49842e-05 0.0496149 0)
(0.000117531 0.0503877 0)
(2.3727e-05 0.0510784 0)
(-0.000244432 0.0516837 0)
(-0.000685121 0.0521487 0)
(-0.0013644 0.0523981 0)
(-0.00240516 0.0522829 0)
(-0.00388401 0.0517985 0)
(-0.00548095 0.0512535 0)
(-0.00694257 0.0508807 0)
(-0.00843536 0.0505401 0)
(-0.0100724 0.0501222 0)
(-0.0119759 0.0496491 0)
(0.000719036 0.0565788 0)
(0.000245498 0.0454028 0)
(-0.00124725 0.0452609 0)
(-0.00192956 0.0454947 0)
(-0.0027944 0.045857 0)
(-0.00337451 0.046231 0)
(-0.00387936 0.0466644 0)
(-0.00420907 0.0471592 0)
(-0.0043617 0.047757 0)
(-0.00431353 0.0484523 0)
(-0.00408524 0.0492781 0)
(-0.00376695 0.0501608 0)
(-0.00347302 0.0509793 0)
(-0.00321339 0.0517269 0)
(-0.00306667 0.0522954 0)
(-0.00314578 0.0527258 0)
(-0.00348624 0.0530841 0)
(-0.00401863 0.0533384 0)
(-0.00497141 0.0531927 0)
(-0.00656242 0.0526516 0)
(-0.00848417 0.052141 0)
(-0.0102774 0.0518726 0)
(-0.012294 0.0516864 0)
(0.000563932 0.0563495 0)