/*--------------------------------*- C++ -*----------------------------------*\
| =========                 |                                                 |
| \\      /  F ield         | OpenFOAM: The Open Source CFD Toolbox           |
|  \\    /   O peration     | Version:  2.4.0                                 |
|   \\  /    A nd           | Web:      www.OpenFOAM.org                      |
|    \\/     M anipulation  |                                                 |
\*---------------------------------------------------------------------------*/
FoamFile
{
    version     2.0;
    format      ascii;
    class       volScalarField;
    location    "0.7";
    object      alpha.air;
}
// * * * * * * * * * * * * * * * * * * * * * * * * * * * * * * * * * * * * * //

dimensions      [0 0 0 0 0 0 0];

internalField   nonuniform List<scalar> 
2268
(
3.53129e-12
4.36589e-12
2.53289e-12
4.04741e-12
4.68376e-12
3.31892e-12
2.55012e-12
1.85594e-12
1.77457e-12
1.54052e-12
1.01408e-12
5.47971e-13
2.52966e-13
1.16612e-13
7.30421e-14
4.98292e-14
3.05115e-14
1.69944e-14
1.0339e-14
1.0719e-14
9.19257e-15
2.54071e-15
2.48907e-15
2.78091e-11
3.17452e-11
2.32844e-11
3.03295e-11
3.30242e-11
2.65197e-11
2.20859e-11
1.79561e-11
1.61854e-11
1.2975e-11
8.38024e-12
4.36762e-12
1.82212e-12
7.81803e-13
4.41827e-13
2.87707e-13
1.74631e-13
1.03679e-13
7.06449e-14
7.52682e-14
6.4232e-14
1.98632e-14
1.31242e-14
9.51378e-11
1.07112e-10
9.19607e-11
1.05573e-10
1.09583e-10
9.24214e-11
7.59076e-11
5.9261e-11
4.54923e-11
3.46946e-11
2.39068e-11
1.49138e-11
7.78624e-12
3.56823e-12
1.76555e-12
9.7908e-13
5.40569e-13
3.29615e-13
2.63879e-13
2.89217e-13
2.37175e-13
8.83851e-14
3.40111e-14
2.37846e-10
2.46453e-10
2.46156e-10
2.56064e-10
2.55886e-10
2.46482e-10
2.42405e-10
2.41247e-10
2.39715e-10
2.37748e-10
1.7423e-10
4.63836e-11
1.53435e-11
6.9323e-12
3.47651e-12
2.04295e-12
1.22156e-12
8.22732e-13
7.02274e-13
6.85422e-13
5.11855e-13
2.1883e-13
6.16476e-14
5.67159e-11
6.40027e-11
5.78137e-11
7.78391e-11
8.6116e-11
6.56002e-11
6.56067e-11
6.56087e-11
6.56206e-11
7.66743e-11
1.63538e-10
1.60942e-10
6.90819e-11
2.15999e-11
8.94252e-12
4.17314e-12
2.43187e-12
1.65788e-12
1.39027e-12
1.17602e-12
8.03021e-13
4.09862e-13
1.06599e-13
5.67157e-11
5.68824e-11
5.78167e-11
6.65422e-11
5.94281e-11
6.92031e-11
9.76663e-11
1.14932e-10
1.52874e-10
1.59541e-10
1.09112e-10
1.18674e-10
1.09513e-10
3.75635e-11
1.2048e-11
6.30475e-12
3.90682e-12
2.85741e-12
2.29537e-12
1.64849e-12
1.06565e-12
6.50748e-13
2.22175e-13
5.6658e-11
5.69229e-11
5.86828e-11
6.03278e-11
7.41063e-11
4.82116e-10
2.12244e-10
2.81563e-10
6.44495e-10
7.83513e-10
3.96697e-10
1.34329e-10
9.60504e-11
3.58467e-11
1.42949e-11
8.63758e-12
5.74814e-12
4.74612e-12
2.9462e-12
1.83538e-12
1.20728e-12
8.52624e-13
4.58916e-13
5.68841e-11
5.71187e-11
1.42367e-10
6.05719e-11
3.52537e-10
2.34599e-09
7.78372e-10
6.43656e-10
9.48614e-10
1.33013e-09
1.44575e-09
6.54421e-10
1.65386e-10
4.49854e-11
9.36402e-12
7.46582e-12
4.14537e-12
1.6435e-12
1.45133e-12
1.2584e-12
1.0643e-12
8.67839e-13
6.63947e-13
4.35762e-06
6.77045e-06
2.66903e-06
1.29281e-06
1.29299e-06
1.29323e-06
1.29343e-06
1.2936e-06
1.29388e-06
1.29388e-06
1.29414e-06
1.81313e-06
4.3854e-05
0.000118438
0.000100033
2.50364e-05
1.19194e-05
1.19168e-05
1.28206e-05
7.86033e-06
8.85502e-05
6.58787e-05
4.68056e-05
2.03896e-05
7.69279e-06
2.23161e-06
1.69644e-06
4.49594e-06
2.72297e-06
5.10345e-06
2.16785e-05
1.7308e-05
3.93472e-05
9.95301e-05
4.46483e-05
1.34501e-05
1.19169e-05
3.73399e-05
0.000417052
0.00075456
0.00117981
0.00177458
0.00100925
0.000633133
0.000361731
0.000687326
0.0035277
0.0016055
0.00136649
0.000410518
7.04849e-05
6.83573e-06
4.16574e-05
9.66324e-05
5.28411e-05
1.19566e-05
3.09477e-05
0.0007817
0.00286176
0.00661951
0.00665387
0.00607566
0.00316435
0.00561828
0.0453362
0.0521727
0.0308258
0.00322119
5.93891e-05
3.23081e-05
3.30497e-06
6.179e-06
0.000637477
0.000108784
1.29102e-05
3.10528e-05
0.000262727
0.000161093
8.3118e-05
0.00091971
0.000264556
0.000951158
0.00410975
0.0485137
0.0245465
0.00869003
0.00106862
1.84751e-05
1.45899e-06
9.26873e-07
2.75101e-06
0.000637981
0.000116124
5.0839e-05
5.69589e-05
0.000105284
9.02282e-05
8.23722e-05
8.2475e-05
0.000139848
0.00973818
0.0793834
0.0835127
0.0807475
0.0158883
0.000611447
4.92612e-06
9.14933e-07
9.14927e-07
2.03392e-06
0.000451253
0.00057019
8.49099e-05
0.00011449
0.000841475
0.000151144
8.27947e-05
8.25537e-05
0.000118266
0.00213905
0.00546381
0.0217941
0.0244686
0.00841784
0.000542725
9.41231e-06
9.14924e-07
9.14928e-07
1.79993e-06
0.000141325
0.00155072
8.50173e-05
0.000142754
0.00373317
8.2754e-05
8.26897e-05
8.2596e-05
8.26658e-05
8.27261e-05
0.000107324
0.000741151
0.0135884
0.0372024
0.0043232
5.80983e-05
3.43385e-06
1.49829e-06
1.7759e-06
2.88739e-05
0.00155095
0.000306273
0.000346575
4.56848e-08
4.86483e-08
4.82579e-08
1.46703e-08
7.79837e-09
5.751e-09
2.09721e-09
8.70649e-10
9.65761e-10
1.81909e-09
2.63417e-09
2.51289e-09
1.26382e-09
1.02436e-09
1.2066e-09
6.24006e-10
1.57343e-10
4.21017e-10
1.64294e-08
1.84333e-07
7.36188e-07
1.57559e-06
1.2392e-06
3.96486e-07
3.46437e-07
1.87014e-07
8.78591e-08
3.29696e-08
2.17136e-08
8.47848e-09
3.12063e-09
1.57808e-09
1.51892e-09
1.79127e-09
2.30869e-09
2.75942e-09
3.12366e-09
2.87837e-09
2.70775e-09
4.63822e-09
1.43605e-07
2.8106e-06
1.73111e-05
3.7369e-05
3.43759e-05
2.55774e-05
7.91718e-07
6.80863e-07
7.08197e-07
6.38378e-07
4.52092e-07
8.05692e-07
4.20758e-07
1.35623e-07
2.79407e-08
8.27248e-09
3.46753e-09
2.2725e-09
2.42191e-09
3.37819e-09
4.41967e-09
2.463e-08
1.52948e-07
2.61929e-06
3.96712e-05
0.000267036
0.000751407
0.00147971
0.00142642
8.05245e-07
6.42633e-06
1.54509e-05
1.80545e-05
1.3075e-05
6.30372e-06
1.96549e-06
1.27238e-07
5.05718e-08
3.07935e-08
1.18722e-08
2.39012e-09
2.39898e-09
2.40921e-09
2.2876e-05
0.00017758
0.000483606
0.00340798
0.018555
0.0511912
0.100754
0.173333
0.226643
0.000150106
0.000151156
0.00040682
0.0158274
0.0663328
0.0427599
0.00698651
0.000198484
1.46182e-05
8.46876e-07
2.388e-06
0.000213199
0.00497905
0.0142397
0.0287777
0.0558845
0.0869692
0.231146
0.400926
0.585406
0.799383
0.926978
0.980359
0.525008
0.464357
0.450098
0.667674
0.84959
0.864486
0.682782
0.464375
0.352041
0.305485
0.327217
0.396189
0.438486
0.458205
0.541286
0.667403
0.821149
0.965693
0.996009
0.999931
0.999993
0.999994
0.999798
0.982661
0.972952
0.973016
0.991245
0.998855
0.999607
0.999999
0.999926
0.998507
0.993599
0.994222
0.999936
0.999853
0.999883
0.999976
0.999994
0.999997
0.999997
0.999997
0.999997
0.999996
0.999997
0.999995
0.999917
0.999828
0.999866
0.999976
0.999999
0.999999
0.999999
1
0.999999
0.999995
0.999998
0.999999
0.999999
0.999999
0.999999
1
0.999999
0.999999
0.999999
0.999998
0.999998
0.999998
0.999999
0.999999
0.999999
0.999999
0.999999
0.999999
0.999999
0.999999
0.999999
1
1
1
0.999999
0.999999
0.999999
0.999999
0.999999
0.999999
0.999999
0.999999
0.999999
0.999999
0.999998
0.999999
0.999999
0.999999
0.999999
0.999999
0.999999
0.999999
0.999999
1
1
1
1
1
0.999999
0.999999
0.999999
0.999999
0.999999
0.999999
0.999999
1
0.999999
0.999998
0.999998
0.999999
0.999999
0.999999
0.999999
0.999999
0.999999
0.999999
1
1
1
1
1
0.999999
0.999999
0.999999
0.999999
0.999999
0.999999
0.999999
1
1
0.999999
0.999998
0.999999
0.999999
0.999999
0.999999
0.999999
0.999999
0.999999
1
1
1
1
1
0.999999
0.999999
0.999999
1
1
1
1
1
1
0.999999
0.999998
0.999999
0.999998
0.999999
0.999999
0.999999
0.999999
0.999999
1
1
1
1
1
1
0.999999
1
1
1
1
1
1
1
0.999999
0.999999
0.999998
0.999999
0.999999
0.999999
0.999999
0.999999
1
1
1
1
1
1
0.999999
1
0.999999
1
1
1
1
1
1
1
0.999999
0.999999
0.999999
0.999999
0.999999
0.999999
0.999999
1
1
1
1
1
1
1
0.999999
1
1
1
1
1
1
1
0.999999
0.999999
0.999999
0.999999
0.999999
0.999999
0.999999
1
1
1
1
1
1
1
0.999999
0.999999
1
1
1
0.999999
1
1
0.999999
0.999999
0.999999
0.999999
0.999999
0.999999
0.999999
0.999999
1
1
1
1
1
1
1
0.999999
0.999999
1
1
1
1
1
1
0.999999
0.999999
0.999999
0.999999
0.999999
0.999999
0.999999
1
1
1
1
1
1
1
1
0.999999
0.999999
0.999999
1
1
1
1
1
0.999999
0.999999
0.999999
0.999999
0.999999
0.999999
0.999999
1
1
1
1
1
1
1
1
0.999999
0.999999
1
0.999999
1
1
1
1
1
0.999999
0.999999
0.999999
0.999999
0.999999
0.999999
1
1
1
1
1
1
1
1
0.999999
0.999999
0.999999
1
1
1
1
1
1
1
1
0.999999
0.999999
0.999999
1
1
1
1
1
1
1
1
1
1
0.999999
1
0.999999
0.999999
1
1
1
1
1
1
0.999999
0.999999
0.999999
1
1
1
1
1
1
1
1
1
1
1
0.999999
0.999999
0.999999
0.999999
0.999999
0.999999
0.999999
0.999999
1
0.999999
0.999999
0.999999
1
1
1
1
1
1
1
1
1
1
1
1
0.999999
0.999999
0.999999
0.999999
0.999999
0.999999
0.999999
0.999999
0.999999
0.999999
0.999999
1
1
1
1
1
1
1
1
1
1
1
0.999999
1
0.999999
0.999999
0.999999
0.999999
0.999998
0.999998
0.999999
0.999999
0.999999
1
1
1
1
1
1
1
1
1
1
1
1
1
1
0.999999
0.999999
0.999999
0.999998
0.999998
0.999998
0.999998
0.999999
0.999999
1
1
1
1
1
1
1
1
1
1
1
1
1
1
1
0.999999
0.999999
0.999998
0.999998
0.999998
0.999998
0.999999
0.999999
1
1
1
1
1
1
1
1
1
1
1
1
1
1
1
0.999999
0.999999
0.999999
0.999998
0.999998
0.999997
1
1
1
1
1
1
1
1
1
1
1
1
1
1
1
1
1
1
0.999999
0.999999
0.999998
0.999998
0.999997
0.999999
1
1
1
1
1
1
1
1
1
1
1
1
1
1
1
1
1
0.999999
0.999999
0.999999
0.999998
0.999997
1
1
1
1
1
1
1
1
1
1
1
1
1
1
1
1
1
1
1
0.999999
0.999999
0.999998
0.999997
1
1
1
1
1
1
1
1
1
1
1
1
1
1
1
1
1
1
1
1
0.999999
0.999998
0.999998
1
1
1
1
1
1
1
1
1
1
1
1
1
1
1
1
1
1
1
1
0.999999
0.999999
0.999998
1
1
1
1
1
1
1
1
1
1
1
1
1
1
1
1
1
1
1
1
1
0.999999
0.999998
1
1
1
1
1
1
1
1
1
1
1
1
1
1
1
1
1
1
1
1
1
0.999999
0.999998
1
1
1
1
1
1
1
1
1
1
1
1
1
1
1
1
1
0.999999
1
1
1
0.999999
0.999999
1
1
1
1
1
1
1
1
1
1
1
1
1
1
1
1
0.999999
0.999999
0.999999
1
1
1
0.999999
1
1
1
1
1
1
1
1
1
1
1
1
1
1
1
1
0.999999
0.999999
0.999999
0.999999
1
0.999999
0.999999
1
1
1
1
1
1
1
1
1
1
1
1
1
1
1
1
0.999999
0.999999
0.999999
0.999999
0.999999
1
0.999999
1
1
1
1
1
1
1
1
1
1
1
1
1
1
1
1
0.999999
0.999999
0.999999
0.999999
0.999999
1
0.999999
1
1
1
1
1
1
1
1
1
1
1
1
1
1
1
1
0.999999
0.999999
0.999999
0.999999
1
0.999999
1
1
1
1
1
1
1
1
1
1
1
1
1
1
1
1
1
0.999999
0.999999
0.999999
0.999999
0.999999
1
0.999999
1
1
1
1
1
1
1
1
1
1
1
1
1
1
1
1
1
1
1
1
1
1
0.999999
2.7787e-06
4.81834e-06
8.45119e-06
1.00382e-05
2.90314e-05
4.09205e-05
8.45427e-05
6.53613e-05
0.00116112
0.000680624
0.00042985
0.000784337
0.135734
0.00207826
0.00100131
0.0226093
0.882106
0.38319
0.0773182
0.114304
0.994749
0.910356
0.689403
0.641197
0.999818
0.996928
0.989451
0.987167
0.999999
0.999987
0.999968
0.999965
0.999999
0.999999
0.999999
0.999999
0.999999
0.999999
0.999998
0.999998
0.999998
0.999997
0.999997
0.999997
0.999998
0.999997
0.999997
0.999997
0.999998
0.999997
0.999997
0.999997
0.999999
0.999997
0.999997
0.999998
0.999998
0.999998
0.999997
0.999998
0.999999
0.999997
0.999997
0.999997
0.999998
0.999998
0.999997
0.999997
0.999998
0.999998
0.999998
0.999997
0.999999
0.999999
0.999998
0.999997
0.999999
0.999998
0.999998
0.999998
0.999999
0.999999
0.999998
0.999998
0.999999
0.999998
0.999998
0.999998
0.999999
0.999999
0.999998
0.999998
0.999998
0.999998
0.999997
0.999997
0.999998
0.999998
0.999997
0.999997
0.999997
0.999997
0.999996
0.999996
0.999997
0.999997
0.999996
0.999996
0.999997
0.999996
0.999996
0.999996
0.999997
0.999996
0.999995
0.999995
0.999996
0.999996
0.999995
0.999995
0.999996
0.999995
0.999995
0.999995
0.999997
0.999996
0.999995
0.999995
0.999997
0.999996
0.999995
0.999996
0.999997
0.999997
0.999995
0.999996
0.999997
0.999996
0.999996
0.999996
0.999998
0.999998
0.999996
0.999997
0.999997
0.999997
0.999997
0.999997
0.999998
0.999998
0.999997
0.999998
0.999998
0.999998
0.999998
0.999998
0.999998
0.999999
0.999998
0.999998
0.999998
0.999997
0.999998
0.999998
0.999998
0.999998
0.999998
0.999999
0.000421766
0.0144832
0.147808
0.0820909
0.0219445
0.00431968
0.000450732
0.000813718
0.0343967
0.047324
0.0277038
0.00204543
1.83452e-05
2.77171e-06
1.77955e-06
5.86664e-06
0.000592975
0.00312181
0.00311927
0.000956994
0.261809
0.738815
0.731035
0.29558
0.10782
0.0462285
0.0548022
0.0481801
0.0348341
0.0185197
0.00210108
7.44986e-05
1.48275e-05
9.44968e-06
2.59662e-05
0.000119767
0.00165027
0.00722384
0.0293462
0.63987
0.77513
0.687153
0.310251
0.178813
0.239311
0.254946
0.220831
0.043381
0.00483194
0.00190633
0.00214134
0.0107964
0.00586171
0.00242385
0.000512933
0.000720595
0.00221474
0.122183
0.149803
0.0432503
0.0345804
0.0347483
0.0345638
0.0353997
0.150519
0.229385
0.240223
0.0677015
0.00200439
0.0104512
0.245584
0.308426
0.294993
0.00772108
0.00100576
0.00130621
0.278606
0.475062
0.286648
0.216324
0.148646
0.0506131
0.00986963
0.00974597
0.0554957
0.334235
0.334629
0.0484708
0.0113936
0.326701
0.44166
0.441351
0.166768
0.0141048
0.00131156
0.874746
0.981789
0.980801
0.953612
0.855923
0.513018
0.109712
0.00709899
0.00594063
0.02814
0.308615
0.117623
0.0117599
0.156214
0.304022
0.269355
0.169015
0.0284665
0.00131684
0.997028
0.999889
0.999979
0.999969
0.998216
0.936822
0.465193
0.0333888
0.00574651
0.00650538
0.0713798
0.223366
0.0432247
0.0372856
0.068734
0.0634372
0.0463111
0.0135558
0.00132218
0.999994
0.999998
0.999996
0.999672
0.996262
0.925462
0.497989
0.0598957
0.00973249
0.130942
0.485848
0.735882
0.21072
0.0358654
0.00454481
0.00351408
0.0028337
0.00270493
0.00132749
0.999999
0.999998
0.999954
0.994215
0.90942
0.505863
0.0998949
0.0532169
0.137703
0.641896
0.946733
0.966239
0.602207
0.174982
0.00703383
0.00426693
0.0744992
0.0142825
0.0013328
0.999998
0.999997
0.999875
0.978157
0.680857
0.129293
0.0337846
0.0559319
0.455494
0.919277
0.974048
0.974069
0.831822
0.26734
0.0884746
0.177352
0.737593
0.269798
0.00983419
0.999997
0.999998
0.999797
0.964349
0.552027
0.0628259
0.0320341
0.115726
0.659992
0.964991
0.974102
0.974067
0.953857
0.607693
0.272457
0.521447
0.854212
0.774482
0.229321
0.999998
0.999999
0.999872
0.973121
0.667544
0.175481
0.0322614
0.146885
0.674625
0.969063
0.974102
0.974177
0.974165
0.950016
0.783036
0.696808
0.854491
0.778617
0.180857
0.999998
0.999999
0.999988
0.997554
0.945357
0.639743
0.188828
0.133013
0.326881
0.900963
0.97412
0.974118
0.974258
0.974243
0.959853
0.68037
0.375109
0.373738
0.0204305
0.999999
0.999999
0.999999
0.999925
0.998491
0.953777
0.602378
0.138767
0.104596
0.523475
0.943079
0.972294
0.966821
0.957062
0.886
0.446647
0.0353691
0.026328
0.000245899
0.999998
0.999999
0.999999
0.999999
0.999983
0.998115
0.909432
0.397684
0.101808
0.102165
0.432735
0.62442
0.592739
0.482937
0.327278
0.0739456
0.00169486
9.15555e-05
3.46587e-05
0.999998
0.999998
0.999998
0.999999
0.999999
0.999985
0.990437
0.781959
0.184127
0.0334613
0.0268832
0.0408758
0.0382704
0.0215907
0.00868448
0.00180586
0.000381056
0.000127673
0.000155741
0.999997
0.999997
0.999998
0.999998
0.999999
0.999999
0.999834
0.971191
0.673091
0.156659
0.0286848
0.020066
0.0208417
0.0297278
0.0397681
0.0372147
0.0264893
0.020246
0.022297
0.999997
0.999997
0.999997
0.999997
0.999998
0.999999
0.999999
0.999635
0.96911
0.726481
0.391983
0.295958
0.300305
0.373018
0.457199
0.477188
0.428348
0.335029
0.319153
0.999997
0.999997
0.999997
0.999997
0.999998
0.999999
0.999999
1
0.999835
0.993206
0.948912
0.895435
0.887833
0.933018
0.975295
0.988022
0.990211
0.978463
0.971162
0.999998
0.999997
0.999997
0.999997
0.999998
0.999999
0.999999
1
0.999999
0.999963
0.999856
0.999763
0.999759
0.999935
0.999996
0.999992
0.999921
0.999899
0.999996
0.999998
0.999997
0.999997
0.999997
0.999998
0.999999
1
1
1
1
1
1
1
1
1
0.999995
0.999956
0.999986
1
0.999998
0.999998
0.999998
0.999998
0.999998
0.999999
1
1
1
1
1
1
1
1
1
0.999996
0.999988
1
1
0.999998
0.999998
0.999998
0.999998
0.999999
0.999999
1
1
1
1
1
1
1
1
1
1
1
1
1
0.999998
0.999998
0.999998
0.999998
0.999999
1
1
1
1
1
1
1
1
1
1
1
1
1
1
0.999998
0.999998
0.999998
0.999999
0.999999
1
1
1
1
1
1
1
1
1
1
1
1
0.999973
0.999562
0.999997
0.999997
0.999998
0.999999
0.999999
1
1
1
1
1
1
1
1
1
0.999999
0.999973
0.999454
0.993349
0.9664
0.999997
0.999997
0.999998
0.999999
0.999999
1
1
1
1
1
1
1
1
1
0.999914
0.99707
0.968615
0.849221
0.628678
0.999997
0.999997
0.999998
0.999998
0.999999
1
1
1
1
1
1
1
1
0.999999
0.999524
0.982361
0.820638
0.409044
0.109055
0.999996
0.999997
0.999997
0.999998
0.999999
1
1
1
1
1
1
1
1
0.999997
0.999122
0.970339
0.729989
0.205317
0.0141738
0.999996
0.999997
0.999997
0.999998
0.999999
1
1
1
1
1
1
1
1
0.999995
0.999011
0.974277
0.828396
0.424604
0.0141736
0.999996
0.999997
0.999997
0.999998
0.999999
1
1
1
1
1
1
1
1
0.999994
0.999255
0.994869
0.984593
0.892427
0.0180231
0.999996
0.999997
0.999997
0.999998
0.999999
1
1
1
1
1
1
1
1
0.999993
0.99969
0.999899
0.999972
0.993279
0.0776386
0.999997
0.999997
0.999998
0.999998
0.999999
0.999999
1
1
1
1
1
1
1
0.999989
0.999961
0.999996
0.999999
0.994522
0.417107
0.999997
0.999997
0.999998
0.999999
0.999999
0.999999
1
1
1
1
1
1
1
0.999992
0.99999
0.999999
1
0.993094
0.906795
0.999997
0.999998
0.999998
0.999999
0.999999
0.999999
1
1
1
1
1
1
1
0.999994
0.999995
1
0.999999
0.999489
0.999237
0.999998
0.999998
0.999998
0.999999
0.999999
0.999999
1
1
1
1
1
1
1
0.999996
0.999998
1
0.999999
0.999999
1
0.999998
0.999998
0.999999
0.999999
0.999999
0.999999
1
1
1
1
1
1
1
0.999999
0.999999
1
1
1
1
0.999998
0.999999
0.999999
0.999999
0.999999
0.999999
0.999999
0.999999
0.999999
0.999999
1
1
1
1
1
1
1
1
1
0.999999
0.999999
0.999999
0.999999
0.999999
0.999999
0.999999
0.999999
0.999999
0.999999
0.999999
1
1
1
1
1
1
1
1
0.999999
0.999999
0.999999
0.999999
0.999999
0.999999
0.999999
0.999999
0.999999
0.999999
0.999999
0.999999
1
1
1
1
1
1
1
0.999999
0.999999
0.999999
0.999999
0.999999
0.999999
0.999999
0.999999
0.999999
0.999999
0.999999
0.999999
0.999999
1
1
1
1
1
1
0.999999
0.999999
0.999999
0.999999
0.999999
0.999999
0.999999
0.999999
0.999999
0.999999
0.999999
1
1
1
1
1
1
1
1
)
;

boundaryField
{
    leftWall
    {
        type            alphaContactAngle;
        thetaProperties 6 ( ( water mercury ) 90 0 0 0 ( water air ) 90 0 0 0 ( water oil ) 90 0 0 0 ( mercury air ) 90 0 0 0 ( oil mercury ) 90 0 0 0 ( oil air ) 90 0 0 0 );
        value           nonuniform List<scalar> 
50
(
3.53129e-12
2.78091e-11
9.51378e-11
2.37846e-10
5.67159e-11
5.67157e-11
5.6658e-11
5.68841e-11
4.56848e-08
3.96486e-07
7.91718e-07
8.05245e-07
0.000150106
0.525008
0.982661
0.999917
0.999999
0.999999
0.999999
0.999999
0.999999
0.999998
0.999999
0.999999
0.999999
0.999999
0.999999
0.999999
0.999999
0.999999
0.999999
0.999999
0.999999
0.999999
0.999999
1
0.999999
1
1
1
1
1
1
1
1
1
1
1
1
1
)
;
    }
    rightWall
    {
        type            alphaContactAngle;
        thetaProperties 6 ( ( water mercury ) 90 0 0 0 ( water air ) 90 0 0 0 ( water oil ) 90 0 0 0 ( mercury air ) 90 0 0 0 ( oil mercury ) 90 0 0 0 ( oil air ) 90 0 0 0 );
        value           nonuniform List<scalar> 
50
(
1.28206e-05
3.73399e-05
3.09477e-05
3.10528e-05
5.69589e-05
0.00011449
0.000142754
0.000346575
0.00311927
0.00722384
0.00221474
0.00130621
0.00131156
0.00131684
0.00132218
0.00132749
0.0013328
0.00983419
0.229321
0.180857
0.0204305
0.000245899
3.46587e-05
0.000155741
0.022297
0.319153
0.971162
0.999996
1
1
1
1
0.999562
0.9664
0.628678
0.109055
0.0141738
0.0141736
0.0180231
0.0776386
0.417107
0.906795
0.999237
1
1
1
1
1
1
1
)
;
    }
    lowerWall
    {
        type            alphaContactAngle;
        thetaProperties 6 ( ( water mercury ) 90 0 0 0 ( water air ) 90 0 0 0 ( water oil ) 90 0 0 0 ( mercury air ) 90 0 0 0 ( oil mercury ) 90 0 0 0 ( oil air ) 90 0 0 0 );
        value           nonuniform List<scalar> 
62
(
3.53129e-12
4.36589e-12
2.53289e-12
4.04741e-12
4.68376e-12
3.31892e-12
2.55012e-12
1.85594e-12
1.77457e-12
1.54052e-12
1.01408e-12
5.47971e-13
2.52966e-13
1.16612e-13
7.30421e-14
4.98292e-14
3.05115e-14
1.69944e-14
1.0339e-14
1.0719e-14
9.19257e-15
2.54071e-15
2.48907e-15
2.48907e-15
1.31242e-14
3.40111e-14
6.16476e-14
1.06599e-13
2.22175e-13
4.58916e-13
6.63947e-13
2.7787e-06
4.81834e-06
8.45119e-06
1.00382e-05
4.35762e-06
7.86033e-06
0.000417052
0.0007817
0.000262727
0.000105284
0.000841475
0.00373317
4.35762e-06
6.77045e-06
2.66903e-06
1.29281e-06
1.29299e-06
1.29323e-06
1.29343e-06
1.2936e-06
1.29388e-06
1.29388e-06
1.29414e-06
1.81313e-06
4.3854e-05
0.000118438
0.000100033
2.50364e-05
1.19194e-05
1.19168e-05
1.28206e-05
)
;
    }
    atmosphere
    {
        type            inletOutlet;
        inletValue      uniform 1;
        value           nonuniform List<scalar> 
46
(
1
1
1
1
1
1
1
1
1
1
1
1
1
1
1
1
1
1
1
1
1
1
0.999999
0.999998
0.999998
0.999998
0.999999
0.999999
0.999999
0.999999
0.999999
0.999999
0.999999
0.999999
0.999999
1
1
1
1
1
1
1
1
1
1
1
)
;
    }
    defaultFaces
    {
        type            empty;
    }
}


// ************************************************************************* //
