/*--------------------------------*- C++ -*----------------------------------*\
| =========                 |                                                 |
| \\      /  F ield         | OpenFOAM: The Open Source CFD Toolbox           |
|  \\    /   O peration     | Version:  2.4.0                                 |
|   \\  /    A nd           | Web:      www.OpenFOAM.org                      |
|    \\/     M anipulation  |                                                 |
\*---------------------------------------------------------------------------*/
FoamFile
{
    version     2.0;
    format      ascii;
    class       volScalarField;
    location    "0.7";
    object      alpha.oil;
}
// * * * * * * * * * * * * * * * * * * * * * * * * * * * * * * * * * * * * * //

dimensions      [0 0 0 0 0 0 0];

internalField   nonuniform List<scalar> 
2268
(
2.0305e-17
1.1954e-16
1.67227e-16
5.14133e-16
8.24728e-16
7.43635e-16
2.37951e-15
1.8508e-15
2.67386e-15
2.86372e-15
1.36993e-14
1.67357e-13
1.59801e-12
1.12242e-11
4.83259e-11
1.617e-10
5.21369e-10
1.95806e-09
4.74435e-09
1.21349e-08
2.01991e-07
3.23984e-06
9.18156e-06
2.46932e-16
1.37848e-15
3.11568e-15
5.89664e-15
9.06792e-15
1.19103e-14
6.03473e-14
5.51351e-14
6.57838e-14
5.17623e-14
5.00528e-14
2.90276e-13
2.76677e-12
1.58457e-11
5.46936e-11
1.34438e-10
8.07227e-10
4.00558e-09
9.59933e-09
2.26728e-08
1.53062e-07
3.36665e-06
1.23657e-05
1.47847e-15
8.19722e-15
2.83541e-14
3.54622e-14
5.77432e-14
1.38387e-13
7.63963e-13
7.20948e-13
7.3154e-13
5.47165e-13
3.03042e-13
3.54665e-13
2.14051e-12
1.31351e-11
5.15736e-11
1.45466e-10
1.28724e-09
5.54047e-09
1.57033e-08
2.92308e-08
5.86508e-08
9.06092e-07
1.16902e-05
5.92714e-15
3.53084e-14
1.59443e-13
1.46624e-13
3.73223e-13
1.68099e-12
6.69327e-12
6.45661e-12
6.49658e-12
5.65466e-12
3.21806e-12
1.34092e-12
2.33958e-12
1.28527e-11
4.45388e-11
2.33385e-10
2.35136e-09
8.44601e-09
3.48001e-08
6.76152e-08
1.73682e-07
1.08693e-06
1.14078e-05
1.84812e-14
1.3286e-13
6.00695e-13
4.70515e-13
3.29824e-12
1.52538e-11
3.88587e-11
3.21393e-11
3.36239e-11
4.23868e-11
1.46231e-11
4.12449e-12
3.81204e-12
1.61291e-11
4.86039e-11
2.76768e-10
4.44189e-09
1.694e-08
7.65135e-08
2.30272e-07
7.85743e-07
2.74435e-06
1.23522e-05
5.28709e-14
4.77472e-13
1.67427e-12
1.57931e-12
3.15762e-11
1.74629e-10
8.36691e-10
8.79483e-10
1.17735e-09
2.89382e-10
2.41589e-11
1.85259e-10
1.75942e-09
1.22363e-09
1.12787e-09
2.97663e-09
1.6783e-08
9.6425e-08
3.71931e-07
1.30726e-06
2.24229e-06
4.44399e-06
1.35261e-05
1.60495e-13
1.84412e-12
3.17519e-12
2.59899e-12
2.58947e-10
2.4149e-08
7.97372e-09
7.06803e-09
2.29975e-08
9.45398e-09
4.80043e-10
1.22855e-09
3.08197e-08
9.43811e-08
1.05178e-07
3.44643e-07
3.45241e-06
7.46802e-06
6.41153e-06
3.24245e-06
3.15876e-06
4.15642e-06
1.00386e-05
6.40823e-13
5.5986e-12
2.99354e-12
2.7923e-12
2.41485e-09
7.40584e-07
3.36076e-08
8.99324e-09
9.71583e-08
1.56562e-07
3.22452e-08
1.18195e-09
7.24668e-08
7.09098e-07
3.03403e-06
2.00162e-05
5.91749e-05
9.04002e-05
5.16003e-05
3.12335e-06
3.12335e-06
3.12335e-06
3.12335e-06
0.218924
0.218048
0.216706
0.216011
0.215907
0.215709
0.2154
0.214669
0.213883
0.213876
0.213575
0.213159
0.212724
0.21215
0.211722
0.211594
0.211212
0.210572
0.210249
0.353137
0.593061
0.414633
0.23333
0.216072
0.21586
0.215699
0.218915
0.23382
0.240779
0.240555
0.244264
0.244149
0.234674
0.213055
0.211255
0.210431
0.210132
0.209834
0.72127
0.701751
0.563236
0.3902
0.342687
0.359899
0.414425
0.526284
0.669472
0.797117
0.869328
0.883905
0.8674
0.769349
0.570574
0.27687
0.209594
0.209942
0.209354
0.833755
0.614155
0.40322
0.266334
0.211338
0.206584
0.230307
0.305389
0.457832
0.652365
0.839859
0.949779
0.972737
0.973189
0.949961
0.664338
0.241605
0.20947
0.20914
0.694086
0.431236
0.241133
0.186124
0.178163
0.173568
0.18529
0.232071
0.320281
0.44938
0.632852
0.826781
0.954685
0.972778
0.973568
0.904832
0.331447
0.212905
0.27147
0.355509
0.213632
0.183797
0.184287
0.169353
0.161009
0.128547
0.12795
0.14574
0.254562
0.437284
0.688505
0.906427
0.972848
0.972828
0.937831
0.409971
0.253693
0.580597
0.133328
0.136124
0.184353
0.242944
0.211245
0.170497
0.153191
0.13107
0.142994
0.198698
0.33306
0.58537
0.84816
0.963722
0.973499
0.961684
0.559289
0.416163
0.750629
0.115851
0.183093
0.275742
0.346516
0.321769
0.268491
0.199282
0.152633
0.166507
0.233726
0.356654
0.558173
0.798958
0.942331
0.972848
0.973063
0.803181
0.729059
0.803545
3.87873e-12
2.23028e-10
3.00732e-07
6.04279e-07
1.42329e-06
1.85058e-05
2.67621e-05
2.91236e-05
1.2162e-05
4.3402e-06
1.17347e-06
3.08758e-07
1.51235e-07
8.61412e-07
1.26982e-05
6.35381e-05
0.000151799
0.000343675
0.000734712
0.0013217
0.00214012
0.00304787
0.00285711
4.23465e-10
9.66816e-08
9.16091e-06
0.000182999
0.000452296
0.00359784
0.00321369
0.00213085
0.00100536
0.000482674
0.000227419
0.000121619
2.59217e-05
2.91024e-06
3.10756e-06
4.44326e-06
5.32884e-05
0.000777465
0.00522267
0.0163945
0.0281005
0.0374249
0.0414663
1.4345e-08
3.84179e-05
0.00635518
0.0312462
0.0460285
0.114542
0.105672
0.0580003
0.0265055
0.0125807
0.0056628
0.00239494
0.000619347
0.000218552
0.000106878
0.000646297
0.00259668
0.0112667
0.0329509
0.0803401
0.136197
0.185278
0.219917
1.88515e-05
0.00908615
0.180406
0.385485
0.537336
0.6912
0.631264
0.472056
0.359596
0.262485
0.185389
0.117849
0.0478407
0.0184055
0.0288596
0.0935437
0.137074
0.212479
0.287043
0.342467
0.401911
0.426893
0.438678
0.00251495
0.129182
0.609071
0.893622
0.894288
0.894344
0.894288
0.88768
0.856644
0.81474
0.779857
0.730438
0.639318
0.581
0.580679
0.58036
0.536979
0.488901
0.418136
0.318041
0.168
0.0643193
0.0174335
0.0124896
0.185242
0.426387
0.322948
0.150168
0.135211
0.317029
0.534602
0.641098
0.677707
0.653207
0.594098
0.558121
0.536469
0.452457
0.326541
0.174925
0.033668
0.00388563
5.48763e-05
2.48837e-06
3.89597e-06
0.00019814
0.00284187
0.0166647
0.0239552
0.00861848
0.00114355
0.000392496
5.27007e-07
7.33786e-05
0.00149116
0.00638418
0.00575756
6.36829e-05
0.000146256
0.000115656
2.22515e-05
4.4984e-06
1.25795e-06
3.09595e-07
1.17301e-07
8.33424e-08
4.00951e-07
1.57404e-06
7.67005e-06
5.8377e-05
0.000143924
0.000125292
2.34688e-05
5.05109e-07
8.29966e-08
1.25173e-08
6.8947e-08
5.65182e-07
4.66108e-06
1.98452e-06
7.7303e-08
2.71664e-08
2.715e-08
2.71592e-08
7.1562e-08
2.22854e-07
1.56413e-07
1.15391e-07
6.17254e-08
2.57143e-07
8.37928e-07
2.02571e-06
1.38705e-07
1.61578e-07
2.87588e-07
3.76347e-07
1.59209e-07
3.35547e-08
1.24859e-08
2.02995e-08
3.89337e-08
2.3105e-08
2.31048e-08
2.31045e-08
3.17167e-08
9.94691e-08
1.74836e-07
1.89203e-07
1.98466e-07
1.66633e-07
9.7988e-08
5.83824e-08
1.14655e-07
3.73418e-07
8.68622e-07
3.86691e-08
3.54473e-08
7.09228e-08
9.70237e-08
2.17657e-08
1.98509e-09
1.32784e-08
4.5179e-08
3.57228e-08
2.31045e-08
2.31045e-08
2.31045e-08
5.68038e-08
2.27112e-07
3.06912e-07
3.9603e-07
3.85664e-07
3.83051e-07
1.95413e-07
5.85676e-08
5.81052e-08
1.4679e-07
3.26897e-07
2.213e-08
1.23508e-08
1.6937e-08
1.48915e-08
1.88104e-09
1.22771e-09
1.26243e-08
5.40487e-08
5.40184e-08
3.56559e-08
2.91622e-08
3.5236e-08
6.5578e-08
2.29275e-07
3.62998e-07
3.63026e-07
2.75114e-07
2.16264e-07
1.33927e-07
6.45722e-08
5.79592e-08
6.2553e-08
1.68011e-07
1.32698e-08
5.0721e-09
2.96749e-09
1.02015e-09
5.41847e-11
2.80895e-10
5.92423e-09
2.88256e-08
3.16516e-08
5.81687e-08
7.5984e-08
7.59872e-08
5.097e-08
8.03846e-08
1.88445e-07
5.73777e-08
3.26251e-08
3.77071e-08
5.7444e-08
8.20963e-08
7.46864e-08
6.47518e-08
4.86106e-08
5.94717e-09
1.71508e-09
5.47859e-10
4.52278e-11
1.64621e-11
2.09097e-11
4.89471e-10
5.76018e-09
1.59382e-08
5.55892e-08
6.74932e-08
3.21389e-08
3.96057e-08
3.26491e-08
3.94334e-08
3.82559e-08
3.5212e-08
2.53054e-08
3.25152e-08
4.98732e-08
5.72809e-08
4.28091e-08
2.34166e-08
1.53696e-09
4.20185e-10
1.89731e-11
7.48233e-12
8.74762e-12
1.45188e-11
4.8232e-11
7.14837e-10
3.81224e-09
2.20118e-08
1.62576e-08
8.087e-09
1.9609e-08
2.793e-08
4.37835e-08
8.50736e-08
5.77904e-08
2.45131e-08
1.76838e-08
2.23217e-08
2.58895e-08
1.84223e-08
1.34203e-08
2.43232e-10
1.65495e-11
3.09857e-12
2.75982e-12
5.53715e-12
1.00419e-11
2.52366e-11
6.85032e-11
2.24039e-10
1.22349e-09
9.44374e-10
6.31996e-09
1.32951e-08
3.83024e-08
1.00903e-07
1.22571e-07
6.18182e-08
3.98486e-08
1.17868e-08
1.02752e-08
1.08808e-08
8.08926e-09
6.49657e-09
5.75694e-12
1.77333e-12
5.49083e-13
1.28081e-12
3.18128e-12
6.0431e-12
1.55014e-11
4.72434e-11
1.13501e-10
2.13024e-10
4.60871e-10
2.77616e-09
8.94473e-09
4.52489e-08
1.22666e-07
1.22671e-07
9.44401e-08
3.46714e-08
1.86156e-08
6.57888e-09
4.49134e-09
3.7137e-09
2.92707e-09
8.19773e-13
1.83101e-13
1.31823e-13
5.68896e-13
1.49715e-12
3.09772e-12
8.94939e-12
2.97865e-11
7.97022e-11
1.79746e-10
2.8328e-10
9.49555e-10
7.35164e-09
4.09354e-08
9.97331e-08
1.05559e-07
6.55385e-08
4.45701e-08
1.83123e-08
7.54564e-09
3.05275e-09
1.77135e-09
1.49897e-09
9.45436e-14
1.83437e-14
4.1781e-14
2.11928e-13
5.72922e-13
1.37876e-12
4.76209e-12
1.73042e-11
4.94858e-11
1.24402e-10
1.73548e-10
5.09031e-10
7.29504e-09
3.04688e-08
4.62299e-08
6.17121e-08
5.5704e-08
3.14789e-08
1.68251e-08
7.94044e-09
2.83332e-09
1.11143e-09
6.90262e-10
8.66572e-15
2.22248e-15
1.25971e-14
6.31947e-14
1.83331e-13
5.63068e-13
2.37205e-12
9.34759e-12
2.81428e-11
6.96875e-11
1.00489e-10
2.43541e-10
5.05841e-09
1.56435e-08
2.57034e-08
2.94091e-08
3.84037e-08
2.58596e-08
1.3066e-08
6.7768e-09
2.486e-09
7.78927e-10
2.9363e-10
6.67258e-16
3.64719e-16
3.03607e-15
1.5099e-14
5.10727e-14
2.10769e-13
1.02257e-12
4.16757e-12
1.27478e-11
2.96268e-11
4.35101e-11
8.7817e-11
1.31965e-09
6.75363e-09
1.21645e-08
1.97258e-08
2.36709e-08
1.36577e-08
8.60118e-09
4.65456e-09
1.8222e-09
5.4287e-10
1.53028e-10
4.60993e-17
5.99831e-17
5.52624e-16
2.86237e-15
1.2129e-14
6.40781e-14
3.36431e-13
1.39622e-12
4.27845e-12
9.52187e-12
1.41598e-11
2.61378e-11
1.54471e-10
1.97057e-09
5.27819e-09
7.99043e-09
1.19254e-08
7.8338e-09
4.52284e-09
2.29473e-09
9.76436e-10
3.05858e-10
9.3318e-11
3.10467e-18
8.06479e-18
7.70341e-17
4.37744e-16
2.35785e-15
1.46927e-14
8.08977e-14
3.42158e-13
1.06304e-12
2.3852e-12
3.8269e-12
7.95209e-12
2.17963e-11
4.80728e-10
1.39073e-09
2.94649e-09
4.55531e-09
3.39459e-09
1.9193e-09
9.89549e-10
4.16648e-10
1.47754e-10
4.66613e-11
2.18512e-19
8.5981e-19
8.53432e-18
5.54148e-17
3.68483e-16
2.55649e-15
1.46339e-14
6.37553e-14
2.06745e-13
5.02515e-13
9.60465e-13
2.20207e-12
7.4897e-12
8.82211e-11
3.04947e-10
7.02813e-10
1.24119e-09
1.0797e-09
6.25288e-10
3.20877e-10
1.41918e-10
5.37219e-11
1.79837e-11
1.60903e-20
7.46638e-20
7.86068e-19
5.99496e-18
4.76436e-17
3.59598e-16
2.16415e-15
9.9974e-15
3.56162e-14
1.0156e-13
2.47862e-13
6.39404e-13
2.0939e-12
1.41229e-11
5.3278e-11
1.36916e-10
2.48977e-10
2.58089e-10
1.6017e-10
8.20301e-11
3.75655e-11
1.51564e-11
5.87265e-12
1.17067e-21
5.4632e-21
6.29217e-20
5.77539e-19
5.37674e-18
4.4116e-17
2.85506e-16
1.44931e-15
5.93099e-15
2.039e-14
6.11662e-14
1.74695e-13
5.33883e-13
2.27267e-12
8.10132e-12
2.13072e-11
3.95802e-11
4.78721e-11
3.32631e-11
1.80192e-11
8.71146e-12
3.766e-12
1.60625e-12
7.9424e-23
3.50388e-22
4.62788e-21
5.23709e-20
5.64752e-19
5.07491e-18
3.59975e-17
2.04701e-16
9.64389e-16
3.84991e-15
1.32229e-14
4.08432e-14
1.21079e-13
3.88825e-13
1.18364e-12
2.95879e-12
5.55326e-12
7.46987e-12
5.85314e-12
3.54633e-12
1.86154e-12
8.54743e-13
3.84594e-13
4.90057e-24
2.07238e-23
3.3183e-22
4.64669e-21
5.69212e-20
5.57792e-19
4.31409e-18
2.70085e-17
1.40836e-16
6.18241e-16
2.30941e-15
7.54261e-15
2.23053e-14
6.35011e-14
1.68314e-13
3.85815e-13
7.12393e-13
1.011e-12
8.92866e-13
6.11126e-13
3.49227e-13
1.69878e-13
7.9798e-14
2.74052e-25
1.19274e-24
2.39062e-23
3.99389e-22
5.37483e-21
5.63336e-20
4.64636e-19
3.1063e-18
1.72505e-17
8.03267e-17
3.17581e-16
1.08146e-15
3.23453e-15
8.836e-15
2.1687e-14
4.66278e-14
8.42705e-14
1.22109e-13
1.18515e-13
8.94357e-14
5.51454e-14
2.86323e-14
1.41898e-14
1.40523e-26
6.89679e-26
1.69273e-24
3.18694e-23
4.55889e-22
5.00213e-21
4.30905e-20
3.00764e-19
1.73884e-18
8.41688e-18
3.4622e-17
1.21993e-16
3.72236e-16
1.01263e-15
2.41771e-15
5.02066e-15
8.92504e-15
1.29776e-14
1.35115e-14
1.1074e-14
7.3534e-15
4.08996e-15
2.17627e-15
6.73233e-28
3.96087e-27
1.12355e-25
2.27276e-24
3.37893e-23
3.82441e-22
3.39528e-21
2.44254e-20
1.45393e-19
7.25485e-19
3.08212e-18
1.11739e-17
3.47917e-17
9.54669e-17
2.26982e-16
4.6683e-16
8.28642e-16
1.21406e-15
1.33837e-15
1.17229e-15
8.33227e-16
5.01825e-16
2.92527e-16
3.07836e-29
2.17683e-28
6.74641e-27
1.42351e-25
2.1711e-24
2.5132e-23
2.28245e-22
1.68084e-21
1.02416e-20
5.23856e-20
2.28522e-19
8.50091e-19
2.70689e-18
7.54837e-18
1.81448e-17
3.75542e-17
6.71265e-17
9.96107e-17
1.1514e-16
1.07385e-16
8.20128e-17
5.38996e-17
3.49551e-17
1.36327e-30
1.10497e-29
3.60168e-28
7.80449e-27
1.21286e-25
1.4297e-24
1.32362e-23
9.94757e-23
6.18887e-22
3.23764e-21
1.447e-20
5.51271e-20
1.79471e-19
5.09939e-19
1.2465e-18
2.61609e-18
4.75111e-18
7.21095e-18
8.74095e-18
8.66165e-18
7.1159e-18
5.15064e-18
3.77464e-18
5.87415e-32
5.08298e-31
1.70413e-29
3.76222e-28
5.93661e-27
7.11015e-26
6.69897e-25
5.13091e-24
3.25608e-23
1.73995e-22
7.95466e-22
3.10064e-21
1.03265e-20
2.9973e-20
7.48512e-20
1.60309e-19
2.97632e-19
4.6458e-19
5.90617e-19
6.22789e-19
5.53486e-19
4.45072e-19
3.75382e-19
2.44309e-33
2.10294e-32
7.16527e-31
1.60569e-29
2.56873e-28
3.12312e-27
2.99342e-26
2.33634e-25
1.5125e-24
8.25344e-24
3.85904e-23
1.53911e-22
5.24574e-22
1.55736e-21
3.98306e-21
8.73861e-21
1.66677e-20
2.69153e-20
3.59848e-20
4.04714e-20
3.91195e-20
3.53023e-20
3.58743e-20
9.68168e-35
7.82889e-34
2.69356e-32
6.11683e-31
9.91403e-30
1.22305e-28
1.19214e-27
9.48183e-27
6.2674e-26
3.49586e-25
1.67323e-24
6.83592e-24
2.38753e-23
7.26065e-23
1.90513e-22
4.29487e-22
8.44551e-22
1.41696e-21
1.99744e-21
2.4042e-21
2.54517e-21
2.62028e-21
3.73587e-21
3.60754e-36
2.63581e-35
9.12494e-34
2.09795e-32
3.44361e-31
4.30907e-30
4.27004e-29
3.46189e-28
2.33763e-27
1.33429e-26
6.54382e-26
2.74304e-25
9.83888e-25
3.07369e-24
8.29955e-24
1.92896e-23
3.92071e-23
6.85139e-23
1.02071e-22
1.32026e-22
1.54318e-22
1.88413e-22
5.17817e-22
1.25286e-37
8.08907e-37
2.8131e-35
6.54233e-34
1.08721e-32
1.37947e-31
1.38909e-30
1.14768e-29
7.91469e-29
4.624e-28
2.32549e-27
1.00184e-26
3.6988e-26
1.1902e-25
3.31719e-25
7.97813e-25
1.68396e-24
3.07999e-24
4.86162e-24
6.77607e-24
8.83622e-24
1.41488e-23
9.63754e-23
4.0436e-39
2.30471e-38
8.08708e-37
1.89995e-35
3.19189e-34
4.09709e-33
4.18285e-32
3.51167e-31
2.46614e-30
1.47077e-29
7.56964e-29
3.34951e-28
1.27387e-27
4.22915e-27
1.22057e-26
3.05052e-26
6.71842e-26
1.29245e-25
2.17349e-25
3.29036e-25
4.87953e-25
1.24639e-24
1.94908e-23
1.21699e-40
6.23897e-40
2.20799e-38
5.22511e-37
8.84904e-36
1.14624e-34
1.18339e-33
1.00652e-32
7.17551e-32
4.35329e-31
2.28476e-30
1.03538e-29
4.0475e-29
1.38493e-28
4.1446e-28
1.07903e-27
2.48729e-27
5.05644e-27
9.12089e-27
1.51499e-26
2.67627e-26
1.37497e-25
3.75165e-24
3.44143e-42
1.61685e-41
5.76483e-40
1.37103e-38
2.33464e-37
3.04351e-36
3.16937e-35
2.72337e-34
1.96419e-33
1.20826e-32
6.44507e-32
2.97805e-31
1.19163e-30
4.18924e-30
1.29632e-29
3.51633e-29
8.50943e-29
1.83818e-28
3.58187e-28
6.62834e-28
1.58981e-27
1.9055e-26
6.92424e-25
9.2072e-44
4.01841e-43
1.44071e-41
3.43779e-40
5.87646e-39
7.69525e-38
8.06468e-37
6.98316e-36
5.08351e-35
3.16337e-34
1.71018e-33
8.03415e-33
3.28131e-32
1.18197e-31
3.76957e-31
1.06213e-30
2.69212e-30
6.17794e-30
1.31013e-29
2.89286e-29
1.50795e-28
3.92152e-27
1.53431e-25
2.34344e-45
9.62229e-45
3.463e-43
8.28173e-42
1.41974e-40
1.86541e-39
1.9645e-38
1.7113e-37
1.25519e-36
7.88136e-36
4.30628e-35
2.05048e-34
8.52069e-34
3.13715e-33
1.0283e-32
3.00318e-32
7.95281e-32
1.94097e-31
4.62139e-31
1.75463e-30
3.18712e-29
1.17203e-27
4.70987e-26
0.00543131
0.00776887
0.0134725
0.0241509
0.0470018
0.0583869
0.0815469
0.117841
0.247235
0.2873
0.344295
0.411764
0.53088
0.686622
0.756381
0.845967
0.0938595
0.537416
0.84274
0.844444
0.00504478
0.0877369
0.306542
0.35618
0.000186087
0.00306945
0.0105398
0.0128269
4.32677e-06
1.56613e-05
3.49634e-05
3.72096e-05
2.00014e-06
1.93331e-06
2.08104e-06
1.58569e-06
6.1964e-07
5.7319e-07
6.06373e-07
5.71159e-07
2.50834e-07
2.81508e-07
3.45098e-07
4.17354e-07
9.22406e-08
1.501e-07
1.99695e-07
1.84352e-07
2.25067e-08
5.93715e-08
8.10865e-08
6.49085e-08
1.53644e-08
2.13631e-08
3.06262e-08
2.90025e-08
9.27165e-09
1.43171e-08
1.71373e-08
2.12121e-08
5.25983e-09
6.63972e-09
1.02192e-08
1.07406e-08
2.0579e-09
2.96546e-09
3.58762e-09
5.17948e-09
8.86558e-10
7.93954e-10
1.30942e-09
1.59089e-09
1.86195e-10
2.56915e-10
3.02027e-10
5.14783e-10
7.37178e-11
8.14319e-11
7.96238e-11
6.65761e-11
4.36223e-11
3.18632e-11
2.93147e-11
2.5366e-11
2.17035e-11
1.3609e-11
1.0839e-11
9.64036e-12
8.84463e-12
5.36503e-12
3.95328e-12
3.41593e-12
3.01011e-12
1.84949e-12
1.31657e-12
1.08591e-12
8.64737e-13
5.47553e-13
3.87104e-13
3.05875e-13
2.14052e-13
1.3966e-13
9.95188e-14
7.67571e-14
4.58252e-14
3.09236e-14
2.24862e-14
1.77366e-14
8.4953e-15
5.99933e-15
4.57887e-15
4.19526e-15
1.38634e-15
1.03991e-15
8.87515e-16
1.18143e-15
2.02002e-16
1.6558e-16
1.7972e-16
4.16857e-16
2.68596e-17
2.58768e-17
4.55834e-17
1.86707e-16
3.39662e-18
4.75907e-18
1.70732e-17
1.03167e-16
4.51075e-19
1.22394e-18
7.55966e-18
5.55824e-17
8.07524e-20
4.61995e-19
3.80699e-18
3.15449e-17
2.26748e-20
2.03937e-19
1.95601e-18
1.7964e-17
7.2835e-21
8.03461e-20
8.61498e-19
8.75385e-18
2.1407e-21
2.68144e-20
3.18561e-19
3.56727e-18
5.45837e-22
7.60983e-21
9.97176e-20
1.22462e-18
1.22444e-22
1.89965e-21
2.75575e-20
3.72001e-19
2.55312e-23
4.43202e-22
7.2565e-21
1.11263e-19
6.13168e-24
1.16008e-22
2.112e-21
3.67881e-20
1.94383e-24
3.76737e-23
6.99397e-22
1.22566e-20
0.12767
0.299514
0.322229
0.433377
0.502889
0.478282
0.400198
0.29036
0.229128
0.231971
0.318913
0.503629
0.708901
0.883919
0.965761
0.972815
0.952992
0.920687
0.846191
0.257059
0.337271
0.204882
0.241783
0.647149
0.7382
0.685276
0.584631
0.444326
0.318128
0.331586
0.446293
0.598815
0.80328
0.952208
0.969806
0.969651
0.968891
0.883899
0.54559
0.299563
0.224315
0.312828
0.689665
0.820928
0.757097
0.686956
0.625608
0.571192
0.413947
0.416346
0.468782
0.690391
0.932055
0.927823
0.947779
0.950368
0.891056
0.847112
0.848721
0.956736
0.965406
0.965221
0.965382
0.96451
0.848996
0.761086
0.702545
0.627014
0.484943
0.460472
0.440246
0.62394
0.588899
0.821246
0.837931
0.818663
0.71751
0.524893
0.713347
0.783669
0.851328
0.949279
0.98992
0.990034
0.944168
0.664954
0.599679
0.60522
0.494399
0.348772
0.364458
0.34145
0.500345
0.631263
0.708046
0.125027
0.0182139
0.0192029
0.0463913
0.144073
0.486861
0.889807
0.992169
0.993354
0.971447
0.676782
0.765671
0.612518
0.436464
0.32824
0.319011
0.342834
0.476199
0.631301
0.00297393
0.00011429
2.47286e-05
3.59674e-05
0.00178761
0.0631181
0.534116
0.965265
0.99321
0.992872
0.928373
0.766823
0.751085
0.579074
0.466682
0.417746
0.434757
0.47536
0.624681
8.46942e-06
4.20859e-06
7.27471e-06
0.000332416
0.00373619
0.0743087
0.500402
0.937771
0.988446
0.868337
0.513939
0.263824
0.730167
0.699538
0.587736
0.538989
0.492462
0.504051
0.642491
1.0515e-06
1.04629e-06
4.78917e-05
0.00578639
0.090428
0.492653
0.896734
0.943168
0.860059
0.357512
0.0532184
0.0337179
0.394349
0.699362
0.673652
0.61192
0.520245
0.567544
0.685188
4.43352e-07
5.8951e-07
0.00012523
0.0218275
0.318437
0.867245
0.961258
0.939252
0.542309
0.0804802
0.0259074
0.0258881
0.167603
0.699126
0.698871
0.538617
0.166472
0.487441
0.692901
3.12334e-07
4.34995e-07
0.000204262
0.0356201
0.446832
0.932226
0.960961
0.877819
0.337974
0.034892
0.0258544
0.02589
0.0459802
0.384337
0.666103
0.369548
0.0855751
0.159821
0.499634
1.67156e-07
4.82241e-07
0.000129897
0.0268508
0.331332
0.818919
0.958645
0.843714
0.321828
0.0308082
0.0258547
0.0257796
0.0257925
0.0496424
0.210838
0.271561
0.0795184
0.100627
0.483738
8.35123e-08
4.14023e-07
1.34062e-05
0.00244414
0.0543228
0.356376
0.799999
0.853389
0.662089
0.0979226
0.0258368
0.0258387
0.0256985
0.0257003
0.0381036
0.270028
0.416556
0.307321
0.621796
4.99524e-08
1.81665e-07
1.5313e-06
7.66941e-05
0.00149461
0.0454577
0.390373
0.844881
0.876033
0.467166
0.0558533
0.02719
0.0324375
0.041855
0.111052
0.505626
0.770748
0.645689
0.651745
2.85016e-08
8.03841e-08
5.49376e-07
1.62836e-06
1.75854e-05
0.00184744
0.0886366
0.588235
0.875099
0.870956
0.548145
0.360171
0.386965
0.48529
0.633595
0.853353
0.839866
0.751813
0.683891
1.71228e-08
3.34039e-08
1.47398e-07
6.17326e-07
1.08994e-06
1.58042e-05
0.00940163
0.213069
0.791976
0.930246
0.929662
0.907666
0.899303
0.895609
0.893284
0.881006
0.836696
0.767869
0.740095
7.61108e-09
1.20922e-08
3.8254e-08
2.06354e-07
3.74522e-07
1.01317e-06
0.000165843
0.0282684
0.317995
0.812869
0.925619
0.92579
0.908837
0.887276
0.864318
0.849679
0.844033
0.843859
0.843812
2.89966e-09
4.12838e-09
1.18665e-08
7.90128e-08
1.48977e-07
4.5079e-07
7.37007e-07
0.000359745
0.0303216
0.267891
0.593557
0.683912
0.677397
0.60382
0.519919
0.499172
0.543486
0.632786
0.650421
6.02373e-10
1.511e-09
4.08328e-09
2.10949e-08
5.82573e-08
1.61766e-07
3.69058e-07
9.58794e-07
0.00016218
0.00667528
0.050375
0.103137
0.110568
0.065803
0.0240959
0.0114356
0.00895034
0.0198054
0.0265484
5.17165e-11
3.47457e-10
1.18816e-09
4.94369e-09
1.51128e-08
4.75434e-08
1.45956e-07
4.08238e-07
2.0926e-06
3.80673e-05
0.000142129
0.000232742
0.000237857
6.54894e-05
5.14539e-06
9.53274e-06
8.04171e-05
0.000101608
5.85107e-06
2.2475e-11
3.47517e-11
3.6748e-10
1.15171e-09
3.94013e-09
8.81637e-09
4.32047e-08
1.15186e-07
2.69361e-07
8.62447e-07
1.40628e-06
1.85547e-06
2.31825e-06
2.37293e-06
2.36608e-06
7.38205e-06
4.53863e-05
1.60743e-05
2.5251e-06
1.04004e-11
1.83396e-11
1.12501e-10
4.2362e-10
1.50799e-09
4.31346e-09
1.47453e-08
3.80575e-08
7.62266e-08
1.58298e-07
4.20955e-07
1.24009e-06
1.99931e-06
2.41205e-06
2.4534e-06
6.51305e-06
1.39158e-05
2.05204e-06
2.47695e-06
3.89713e-12
9.20783e-12
3.12909e-11
1.43761e-10
5.59637e-10
2.05465e-09
7.23151e-09
2.05415e-08
5.75764e-08
1.55985e-07
3.5725e-07
8.17275e-07
1.55821e-06
2.13312e-06
2.49014e-06
2.1535e-06
1.61252e-06
1.64373e-06
2.55431e-06
1.21957e-12
3.25895e-12
1.33444e-11
4.3126e-11
1.96063e-10
8.31067e-10
3.4404e-09
1.39048e-08
5.21325e-08
1.7342e-07
4.56625e-07
8.46744e-07
1.47915e-06
2.0759e-06
2.46276e-06
2.14197e-06
1.61193e-06
1.85627e-06
2.77804e-06
3.2253e-13
8.78515e-13
3.97835e-12
1.64254e-11
6.22907e-11
3.13682e-10
1.67713e-09
9.13609e-09
4.58511e-08
1.95306e-07
6.02246e-07
1.04841e-06
1.61876e-06
2.1862e-06
2.50663e-06
2.07702e-06
1.883e-06
2.89853e-05
0.000440842
7.67779e-14
2.13192e-13
1.05237e-12
5.08045e-12
2.40983e-11
1.27338e-10
8.16373e-10
5.53783e-09
4.00505e-08
2.28817e-07
7.78042e-07
1.51501e-06
1.93808e-06
2.42334e-06
3.49174e-06
2.87117e-05
0.000548097
0.00665339
0.0336027
1.97986e-14
7.10885e-14
4.10287e-13
2.25999e-12
1.16557e-11
6.0603e-11
3.71861e-10
3.11904e-09
3.73803e-08
2.95165e-07
9.89016e-07
1.75771e-06
2.18676e-06
2.44892e-06
8.82742e-05
0.00293175
0.0313863
0.150781
0.371324
7.3656e-15
4.23045e-14
2.8831e-13
1.7878e-12
1.00089e-11
5.14583e-11
2.64374e-10
1.93528e-09
2.92295e-08
2.4025e-07
9.17533e-07
1.70737e-06
2.18837e-06
3.02871e-06
0.000477223
0.0176397
0.179363
0.590957
0.890947
3.68572e-15
2.84063e-14
2.15124e-13
1.4575e-12
8.84163e-12
4.80585e-11
2.31651e-10
1.08744e-09
8.18476e-09
6.77252e-08
3.75689e-07
1.10929e-06
1.65272e-06
4.56224e-06
0.000879402
0.0296623
0.270012
0.794685
0.985829
1.93393e-15
1.7742e-14
1.50054e-13
1.12953e-12
7.58006e-12
4.48114e-11
2.18412e-10
6.98501e-10
3.04401e-09
1.94788e-08
9.62113e-08
4.81825e-07
1.05333e-06
6.1421e-06
0.000989724
0.0257248
0.171606
0.575398
0.985829
1.09981e-15
1.16506e-14
1.10682e-13
9.27571e-13
6.81322e-12
4.29499e-11
2.13955e-10
7.0049e-10
2.68324e-09
1.0124e-08
4.245e-08
1.51e-07
5.74015e-07
7.15978e-06
0.000746283
0.00513328
0.0154086
0.107575
0.981979
7.08344e-16
8.60749e-15
9.27118e-14
8.71833e-13
7.08713e-12
4.87158e-11
2.67695e-10
9.95638e-10
3.0626e-09
1.00834e-08
3.22201e-08
1.16689e-07
5.7138e-07
7.89322e-06
0.000311247
0.000103228
2.89459e-05
0.00672297
0.922363
4.26781e-16
5.88256e-15
7.16166e-14
7.58476e-13
6.87785e-12
5.19518e-11
3.07889e-10
1.2304e-09
4.20687e-09
2.0603e-08
3.81995e-08
1.07239e-07
6.6183e-07
1.21282e-05
4.05035e-05
5.67182e-06
2.02126e-06
0.00547876
0.582894
2.64766e-16
4.05619e-15
5.48014e-14
6.45048e-13
6.51328e-12
5.43078e-11
3.40946e-10
1.36375e-09
9.51901e-09
2.86699e-08
8.54845e-08
1.3162e-07
5.86845e-07
8.82066e-06
1.17677e-05
3.15213e-06
2.04067e-06
0.00690718
0.0932048
1.64653e-16
2.79322e-15
4.18135e-14
5.50092e-13
6.29697e-12
6.00949e-11
4.28598e-10
2.02402e-09
1.78998e-08
7.54345e-08
2.35027e-07
6.30207e-07
9.2452e-07
7.06629e-06
6.95453e-06
2.34049e-06
2.10425e-06
0.000512138
0.000763452
8.76063e-17
1.63685e-15
2.67344e-14
3.79525e-13
4.58073e-12
4.38654e-11
3.13754e-10
2.60429e-09
1.98e-08
9.61795e-08
3.13043e-07
1.00893e-06
1.27677e-06
6.13222e-06
4.26621e-06
1.97204e-06
2.06583e-06
1.78067e-06
4.42759e-07
3.86982e-17
7.82383e-16
1.35509e-14
1.99513e-13
2.44674e-12
2.37882e-11
1.83717e-10
1.66057e-09
1.1981e-08
6.14808e-08
2.20308e-07
8.96355e-07
1.48451e-06
3.26406e-06
2.57296e-06
1.64714e-06
9.55434e-07
3.40532e-07
8.22941e-08
1.43083e-17
3.09701e-16
5.62284e-15
8.47472e-14
1.03701e-12
9.67026e-12
6.02334e-11
7.39037e-10
4.70845e-09
2.41827e-08
9.19725e-08
3.11301e-07
1.19497e-06
1.82496e-06
1.88599e-06
1.01773e-06
4.32481e-07
1.23445e-07
7.75581e-08
4.70457e-18
1.09516e-16
2.0966e-15
3.26241e-14
4.01364e-13
3.64744e-12
2.155e-11
2.79547e-10
1.56967e-09
7.51431e-09
2.92138e-08
9.42896e-08
3.39226e-07
7.24113e-07
7.68095e-07
2.92637e-07
7.82096e-08
4.55022e-08
7.38078e-08
1.60374e-18
4.18229e-17
8.74545e-16
1.46261e-14
1.94071e-13
2.02084e-12
1.68402e-11
1.28312e-10
6.9346e-10
3.01384e-09
1.06481e-08
3.37551e-08
9.49334e-08
1.93864e-07
2.27572e-07
7.06507e-08
3.80536e-08
2.90486e-08
4.45711e-08
6.12448e-19
1.93879e-17
4.96181e-16
1.00393e-14
1.58768e-13
1.95679e-12
1.87915e-11
1.40666e-10
8.08234e-10
3.58685e-09
1.2285e-08
3.68837e-08
8.79924e-08
1.23985e-07
6.84149e-08
1.20488e-08
3.92293e-08
2.66735e-08
8.6372e-09
1.97957e-19
6.30583e-18
1.6745e-16
3.61375e-15
6.25578e-14
8.64503e-13
9.47391e-12
8.12562e-11
5.30258e-10
2.52416e-09
8.46917e-09
1.67587e-08
2.05406e-08
1.39279e-09
1.32387e-08
5.46406e-09
1.73441e-08
1.19713e-08
3.09383e-09
)
;

boundaryField
{
    leftWall
    {
        type            zeroGradient;
    }
    rightWall
    {
        type            zeroGradient;
    }
    lowerWall
    {
        type            zeroGradient;
    }
    atmosphere
    {
        type            inletOutlet;
        inletValue      uniform 0;
        value           nonuniform List<scalar> 
46
(
2.34344e-45
9.62229e-45
3.463e-43
8.28173e-42
1.41974e-40
1.86541e-39
1.9645e-38
1.7113e-37
1.25519e-36
7.88136e-36
4.30628e-35
2.05048e-34
8.52069e-34
3.13715e-33
1.0283e-32
3.00318e-32
7.95281e-32
1.94097e-31
4.62139e-31
1.75463e-30
3.18712e-29
1.17203e-27
4.70987e-26
1.94383e-24
3.76737e-23
6.99397e-22
1.22566e-20
1.97957e-19
6.30583e-18
1.6745e-16
3.61375e-15
6.25578e-14
8.64503e-13
9.47391e-12
8.12562e-11
0
0
0
0
0
0
0
0
0
0
0
)
;
    }
    defaultFaces
    {
        type            empty;
    }
}


// ************************************************************************* //
