/*--------------------------------*- C++ -*----------------------------------*\
| =========                 |                                                 |
| \\      /  F ield         | OpenFOAM: The Open Source CFD Toolbox           |
|  \\    /   O peration     | Version:  2.4.0                                 |
|   \\  /    A nd           | Web:      www.OpenFOAM.org                      |
|    \\/     M anipulation  |                                                 |
\*---------------------------------------------------------------------------*/
FoamFile
{
    version     2.0;
    format      ascii;
    class       volScalarField;
    location    "0.7";
    object      alpha.mercury;
}
// * * * * * * * * * * * * * * * * * * * * * * * * * * * * * * * * * * * * * //

dimensions      [0 0 0 0 0 0 0];

internalField   nonuniform List<scalar> 
2268
(
1
1
1
1
1
1
1
1
1
1
1
1
1
1
1
1
1
1
1
1
1
0.999997
0.999991
0.99996
0.999951
0.999975
0.999963
0.999957
0.999979
0.999991
0.999998
0.999999
0.999999
1
1
1
1
1
1
1
1
1
1
1
0.999996
0.999987
0.975862
0.974434
0.978892
0.976774
0.97688
0.982522
0.98809
0.994906
0.998923
0.999832
0.999978
0.999997
0.999999
0.999999
1
1
1
1
1
1
1
0.999999
0.999988
0.40636
0.40348
0.414273
0.408683
0.411907
0.430336
0.462145
0.51511
0.601971
0.744201
0.950382
0.998562
0.999973
0.999998
0.999999
1
1
1
1
1
1
0.999999
0.999988
0.000131564
0.000126189
0.000130001
0.000121848
0.000115025
0.000112341
0.000117061
0.000144329
0.00116492
0.0348593
0.252283
0.733477
0.988219
0.999691
0.999962
0.99999
0.999998
0.999999
0.999999
0.999999
0.999999
0.999997
0.999987
5.09775e-06
5.03462e-06
5.02994e-06
5.03462e-06
5.02994e-06
5.0383e-06
5.03463e-06
5.04567e-06
5.04657e-06
6.80956e-05
0.00625726
0.158286
0.796872
0.993824
0.999722
0.999953
0.999982
0.999989
0.999991
0.999994
0.999994
0.999988
0.999986
7.13615e-06
6.7755e-06
6.24953e-06
6.04391e-06
5.28019e-06
5.05034e-06
5.05528e-06
5.04579e-06
5.04664e-06
5.09734e-06
0.000101313
0.0282876
0.446141
0.949724
0.998077
0.999773
0.999898
0.999934
0.999832
0.999555
0.99813
0.997166
0.999613
7.38196e-06
6.8512e-06
5.8091e-06
5.7014e-06
5.22317e-06
4.3408e-06
5.10102e-06
5.35499e-06
5.4932e-06
6.03298e-06
3.39241e-05
0.00937474
0.207222
0.771213
0.987893
0.99795
0.99789
0.992521
0.973916
0.952642
0.913625
0.901182
0.962704
0.780809
0.781094
0.781717
0.782757
0.78351
0.784088
0.784544
0.785318
0.786113
0.786121
0.786423
0.786838
0.787232
0.787731
0.788174
0.788348
0.788635
0.789155
0.789393
0.646591
0.403076
0.568524
0.736881
0.759024
0.769253
0.776254
0.777311
0.765169
0.759071
0.759415
0.755707
0.755832
0.765285
0.78684
0.788673
0.789413
0.789476
0.789647
0.277927
0.271247
0.329863
0.372621
0.336351
0.332686
0.327203
0.306971
0.24799
0.173053
0.120437
0.112992
0.131912
0.230567
0.429238
0.722862
0.790156
0.789663
0.790086
0.164866
0.269577
0.257094
0.13969
0.0333917
0.00685845
0.00290236
0.00115347
0.000879802
0.000236432
0.000447507
0.00072191
0.0100481
0.0249226
0.0494969
0.334057
0.757903
0.790087
0.790283
0.266684
0.275384
0.199671
0.0550427
0.00586601
0.000815885
0.000555971
0.000264317
0.000266899
0.000111977
6.08943e-05
6.08668e-05
0.000202392
0.0162274
0.0250353
0.092718
0.667726
0.786517
0.726554
0.280848
0.274336
0.113196
0.0221152
0.00177438
0.00036661
0.000409214
0.000564953
0.000373611
0.000157151
6.91151e-05
6.08938e-05
6.08671e-05
0.00450769
0.0235668
0.0592469
0.58828
0.745152
0.40754
0.208469
0.163506
0.0663532
0.0083618
0.000829949
7.26739e-05
7.9165e-05
0.000352546
0.000108219
7.36403e-05
7.46002e-05
6.44559e-05
6.0894e-05
0.000493475
0.0172425
0.0348184
0.436745
0.578885
0.223416
0.199663
0.117221
0.0264457
0.00305465
0.000304933
7.2879e-05
3.37488e-05
3.37553e-05
4.33808e-05
5.90084e-05
7.46301e-05
6.586e-05
6.51778e-05
0.000137601
0.00750532
0.0217174
0.190315
0.258533
0.170214
3.14441e-06
2.72319e-06
2.37626e-06
2.28859e-06
2.08756e-06
1.42769e-06
1.72127e-06
1.93306e-06
2.28749e-06
3.79891e-06
8.60692e-06
0.00100681
0.0336599
0.204347
0.514514
0.701876
0.7238
0.660874
0.52999
0.42406
0.346202
0.341161
0.469126
4.76509e-07
4.31618e-07
3.32372e-07
2.69864e-07
2.33353e-07
1.43334e-07
1.86177e-07
2.82125e-07
4.33013e-07
7.66234e-07
1.87391e-06
7.86227e-05
0.000984587
0.00988391
0.0224941
0.0166434
0.0206972
0.03344
0.0316488
0.0234993
0.0138405
0.00755408
0.00672128
8.032e-08
5.21928e-08
2.36795e-08
1.33798e-08
1.15779e-08
6.32964e-09
8.31287e-09
1.53059e-08
3.10891e-08
6.06414e-08
1.26841e-07
7.96782e-07
8.09828e-05
0.000141874
0.000253417
0.00014631
0.000141281
0.000157377
0.000133826
8.42936e-05
4.37916e-05
2.41142e-05
1.87996e-05
5.69175e-09
2.17958e-09
4.80319e-10
2.69283e-10
2.46022e-10
1.31496e-10
2.07721e-10
4.95058e-10
1.08539e-09
2.05219e-09
3.07042e-09
7.15862e-09
4.36626e-07
8.54322e-07
9.11972e-06
6.4848e-06
8.29109e-06
8.76061e-06
8.04589e-06
6.5525e-06
4.29591e-06
2.90447e-06
2.85527e-06
4.10595e-10
3.50997e-11
7.75772e-12
8.27866e-12
1.75556e-11
2.80047e-11
3.732e-11
3.85825e-11
3.88064e-11
3.90756e-11
3.38111e-11
3.03846e-11
9.72689e-11
5.62469e-10
8.20428e-09
2.49202e-08
9.47917e-08
1.38439e-07
1.41895e-07
1.24906e-07
9.30845e-08
6.69164e-08
4.61055e-08
1.2068e-11
2.2421e-11
2.49282e-12
1.87083e-12
2.01449e-12
1.68058e-12
1.22598e-12
2.06975e-12
3.72919e-12
5.80782e-12
5.50696e-12
4.05185e-12
3.60319e-12
4.18653e-12
5.1913e-12
5.51737e-12
6.35945e-12
5.85408e-12
4.41142e-12
3.02247e-12
4.32016e-12
9.73796e-12
3.05584e-10
2.92404e-12
4.40302e-12
1.87274e-12
7.82196e-13
5.34458e-13
2.82823e-13
4.45499e-14
4.71781e-14
6.45034e-14
9.11978e-13
1.82504e-12
1.94704e-12
2.44252e-12
3.78843e-12
4.17969e-12
2.68286e-12
1.55235e-12
1.4297e-12
1.89316e-12
3.03882e-12
5.72991e-12
9.27981e-12
1.32871e-11
1.21361e-12
2.58646e-12
2.20028e-12
7.76211e-13
3.38686e-13
1.26646e-13
3.83293e-14
1.07515e-13
3.7794e-13
7.05409e-13
5.91502e-13
2.44355e-13
7.65858e-14
2.76932e-13
1.02335e-12
1.31185e-12
1.43392e-12
9.94807e-13
8.29275e-13
1.44287e-12
4.87944e-12
9.06702e-12
1.30202e-11
7.45989e-13
1.46194e-12
1.61419e-12
6.48425e-13
2.42113e-13
6.0317e-14
1.41828e-14
9.44426e-15
2.36787e-13
4.77315e-13
2.90739e-13
1.5033e-14
1.43778e-14
1.34043e-14
4.72248e-15
2.65804e-15
1.96593e-15
5.5458e-15
6.85887e-14
5.62967e-13
2.54557e-12
6.6939e-12
1.13313e-11
4.05863e-13
5.41179e-13
5.83934e-13
1.91004e-13
2.69382e-14
3.36698e-15
1.06619e-15
1.15863e-14
1.47621e-13
2.35679e-13
1.28549e-13
1.79075e-14
5.454e-15
6.33229e-16
6.06692e-17
1.57147e-17
3.12611e-17
1.54797e-16
5.62486e-15
1.11782e-13
9.24304e-13
3.48788e-12
7.49404e-12
2.1109e-13
1.47813e-13
1.1392e-13
2.73285e-14
3.03632e-15
2.10571e-16
1.64958e-15
1.22573e-14
8.28096e-14
1.05585e-13
5.86839e-14
2.1682e-14
5.16074e-15
5.10849e-16
1.32764e-17
1.43339e-17
7.8756e-17
5.13315e-16
4.70464e-15
4.30763e-14
3.08214e-13
1.3965e-12
3.84357e-12
9.24122e-14
3.62199e-14
1.41768e-14
1.97692e-15
9.99617e-17
5.81867e-18
7.82064e-16
5.54202e-15
3.43089e-14
3.32011e-14
1.51827e-14
3.92371e-15
5.39008e-16
4.5551e-17
5.66406e-18
3.90254e-17
2.19724e-16
1.08659e-15
5.40079e-15
2.75756e-14
1.37168e-13
5.86641e-13
1.87877e-12
2.96961e-14
7.97924e-15
1.67696e-15
1.7718e-16
9.67898e-18
2.82703e-19
6.28336e-17
1.1218e-15
7.17417e-15
7.60342e-15
3.19278e-15
5.90258e-16
3.96769e-17
1.54726e-18
1.34999e-17
9.87184e-17
5.54443e-16
2.55536e-15
1.02097e-14
3.78557e-14
1.35176e-13
4.65826e-13
1.48612e-12
6.57422e-15
1.34996e-15
1.86829e-16
1.54433e-17
7.39491e-19
1.86739e-20
4.36466e-18
1.17146e-16
8.09219e-16
1.16243e-15
4.90949e-16
6.5254e-17
2.46979e-18
1.31904e-18
1.20865e-17
7.43121e-17
3.7857e-16
1.76303e-15
7.61657e-15
3.01661e-14
1.10075e-13
3.78227e-13
1.25156e-12
1.02782e-15
1.65092e-16
1.70312e-17
1.13816e-18
4.65194e-20
1.03862e-21
2.7023e-19
9.41162e-18
7.02801e-17
1.30978e-16
5.88355e-17
6.56117e-18
1.84072e-19
4.5404e-19
4.03945e-18
2.51812e-17
1.33762e-16
6.67332e-16
3.14691e-15
1.37651e-14
5.55331e-14
2.08341e-13
7.45331e-13
1.20747e-16
1.51845e-17
1.25495e-18
7.02385e-20
2.48949e-21
5.03248e-23
1.38043e-20
6.27227e-19
5.19717e-18
1.19462e-17
5.56807e-18
5.57521e-19
1.9647e-20
9.14966e-20
6.75954e-19
4.20971e-18
2.56786e-17
1.52366e-16
8.4036e-16
4.16535e-15
1.86977e-14
7.74116e-14
3.01343e-13
1.12468e-17
1.11356e-18
7.7523e-20
3.75632e-21
1.18125e-22
2.20009e-24
6.26769e-22
3.59244e-20
3.32802e-19
9.07534e-19
4.31654e-19
3.99426e-20
3.1585e-21
1.63608e-20
9.49763e-20
5.61411e-19
3.79512e-18
2.60852e-17
1.66275e-16
9.30319e-16
4.59783e-15
2.08552e-14
9.01636e-14
8.68438e-19
6.79818e-20
4.11744e-21
1.77621e-22
5.07364e-24
8.82078e-26
2.6279e-23
1.81178e-21
1.85975e-20
5.81804e-20
2.78602e-20
2.46511e-21
5.49898e-22
2.69133e-21
1.29689e-20
7.32008e-20
5.16325e-19
3.79367e-18
2.65385e-17
1.63386e-16
8.65364e-16
4.24071e-15
2.06334e-14
5.73492e-20
3.55467e-21
1.91215e-22
7.46481e-24
1.95795e-25
3.18146e-27
1.01834e-24
8.23698e-23
9.22721e-22
3.20052e-21
1.52014e-21
1.38383e-22
8.67229e-23
4.04697e-22
1.82546e-21
9.99022e-21
6.66215e-20
4.79681e-19
3.5111e-18
2.31632e-17
1.29411e-16
6.82742e-16
3.66421e-15
3.30522e-21
1.62342e-22
7.84964e-24
2.80162e-25
6.81388e-27
1.06196e-28
3.6496e-26
3.37335e-24
4.10337e-23
1.55135e-22
7.27519e-23
7.84401e-24
1.19532e-23
5.66915e-23
2.6491e-22
1.40911e-21
8.29302e-21
5.40832e-20
3.89863e-19
2.7104e-18
1.58482e-17
8.78085e-17
5.20591e-16
1.68673e-22
6.58928e-24
2.89736e-25
9.56139e-27
2.18278e-28
3.5328e-30
1.20675e-27
1.25144e-25
1.64585e-24
6.74636e-24
3.12801e-24
5.02541e-25
1.50464e-24
7.67897e-24
3.86729e-23
2.01819e-22
1.05982e-21
5.99057e-21
3.949e-20
2.71261e-19
1.61469e-18
9.30362e-18
6.15767e-17
7.73196e-24
2.41116e-25
9.72464e-27
2.99563e-28
6.46318e-30
1.32344e-31
3.69544e-29
4.2304e-27
5.99658e-26
2.65827e-25
1.23899e-25
3.85825e-26
1.78395e-25
1.0004e-24
5.40974e-24
2.82188e-23
1.39798e-22
6.92076e-22
3.85641e-21
2.42279e-20
1.41228e-19
8.46494e-19
6.39904e-18
3.21583e-25
8.02599e-27
2.97691e-28
8.6008e-30
1.75834e-31
6.50574e-33
1.07084e-30
1.30684e-28
1.98591e-27
9.50724e-27
4.64938e-27
3.40371e-27
2.02066e-26
1.2378e-25
7.0754e-25
3.73711e-24
1.80585e-23
8.17275e-23
3.8386e-22
2.05219e-21
1.11481e-20
7.02896e-20
6.29276e-19
1.22168e-26
2.44893e-28
8.39488e-30
2.28702e-31
4.4633e-33
4.09948e-34
3.10688e-32
3.72582e-30
6.0292e-29
3.11083e-28
1.76912e-28
3.17373e-28
2.15768e-27
1.41102e-26
8.41139e-26
4.55409e-25
2.19459e-24
9.498e-24
3.96489e-23
1.76794e-22
8.52344e-22
5.65496e-21
6.05181e-20
4.26809e-28
6.92354e-30
2.19672e-31
5.66821e-33
1.06781e-34
2.75621e-35
1.0041e-33
9.98574e-32
1.70044e-30
9.48317e-30
7.66845e-30
2.90884e-29
2.13988e-28
1.46133e-27
8.99181e-27
4.9779e-26
2.42354e-25
1.04723e-24
4.1492e-24
1.61802e-23
6.86349e-23
4.63253e-22
5.61946e-21
1.37571e-29
1.80934e-31
5.32993e-33
1.30722e-34
2.42321e-36
1.76766e-36
3.98074e-35
2.60987e-33
4.56705e-32
2.79149e-31
4.09293e-31
2.50053e-30
1.94064e-29
1.37134e-28
8.66727e-28
4.91249e-27
2.44765e-26
1.07599e-25
4.22747e-25
1.55947e-24
6.07985e-24
3.91859e-23
4.90564e-22
4.11467e-31
4.41605e-33
1.20642e-34
2.82109e-36
5.3814e-38
1.04568e-37
1.88536e-36
7.15015e-35
1.22779e-33
8.52356e-33
2.53838e-32
1.97462e-31
1.59301e-30
1.16248e-29
7.55954e-29
4.38753e-28
2.24714e-27
1.01745e-26
4.10904e-26
1.53064e-25
5.88089e-25
3.53501e-24
4.14681e-23
1.14516e-32
1.0081e-34
2.55193e-36
5.70077e-38
1.22935e-39
5.67206e-39
9.53395e-38
2.25656e-36
3.60273e-35
2.97099e-34
1.62348e-33
1.42134e-32
1.18574e-31
8.90912e-31
5.95994e-30
3.56666e-29
1.8963e-28
8.96253e-28
3.78346e-27
1.48275e-26
6.17807e-26
3.84644e-25
4.05846e-24
2.97518e-34
2.16322e-36
5.06344e-38
1.08377e-39
3.12657e-41
2.8266e-40
4.73246e-39
8.50567e-38
1.24998e-36
1.22991e-35
9.89626e-35
9.27511e-34
8.01381e-33
6.22974e-32
4.31137e-31
2.66249e-30
1.47366e-29
7.29824e-29
3.28097e-28
1.44547e-27
7.62759e-27
6.06674e-26
6.54105e-25
7.23292e-36
4.364e-38
9.42397e-40
1.93554e-41
9.22669e-43
1.29746e-41
2.21972e-40
3.58001e-39
5.05324e-38
5.68067e-37
5.61589e-36
5.52702e-35
4.93947e-34
3.97752e-33
2.85141e-32
1.82691e-31
1.06117e-30
5.5805e-30
2.77824e-29
1.54024e-28
1.23478e-27
1.41154e-26
1.77867e-25
1.65004e-37
8.3453e-40
1.65382e-41
3.26847e-43
3.06061e-44
5.5011e-43
9.71016e-42
1.53672e-40
2.17699e-39
2.66506e-38
2.93136e-37
3.01057e-36
2.79087e-35
2.33649e-34
1.74453e-33
1.16633e-32
7.14012e-32
4.07585e-31
2.45501e-30
2.07494e-29
2.68754e-28
4.08347e-27
6.03312e-26
3.53711e-39
1.50851e-41
2.73278e-43
5.21205e-45
1.05518e-45
2.15894e-44
3.94799e-43
6.36935e-42
9.27311e-41
1.20383e-39
1.41342e-38
1.51182e-37
1.45543e-36
1.26858e-35
9.88327e-35
6.92394e-34
4.53824e-33
3.00761e-32
2.63148e-31
3.77296e-30
6.94291e-29
1.27716e-27
2.16785e-26
7.14086e-41
2.60255e-43
4.27195e-45
7.90549e-47
3.56733e-47
7.8574e-46
1.49118e-44
2.48843e-43
3.75838e-42
5.11345e-41
6.30605e-40
7.02396e-39
7.03657e-38
6.39979e-37
5.2223e-36
3.87269e-35
2.8291e-34
2.51961e-33
3.77953e-32
8.24134e-31
1.88486e-29
4.00896e-28
7.7312e-27
1.35868e-42
4.27561e-45
6.31429e-47
1.14516e-48
1.14722e-48
2.65714e-47
5.23953e-46
9.09543e-45
1.43018e-43
2.03058e-42
2.617e-41
3.03842e-40
3.17239e-39
3.01467e-38
2.58786e-37
2.07562e-36
1.86528e-35
2.71526e-34
6.66301e-33
1.87241e-31
4.98676e-30
1.20658e-28
2.62889e-27
2.43987e-44
6.73205e-47
8.84103e-49
1.60223e-50
3.46776e-50
8.36523e-49
1.71439e-47
3.10173e-46
5.08628e-45
7.5338e-44
1.01422e-42
1.22966e-41
1.34092e-40
1.3341e-39
1.21515e-38
1.10903e-37
1.45224e-36
3.6449e-35
1.22639e-33
4.06393e-32
1.23124e-30
3.36398e-29
8.24764e-28
4.13785e-46
1.01272e-48
1.17273e-50
2.20626e-52
9.82333e-52
2.45819e-50
5.23535e-49
9.87845e-48
1.69023e-46
2.61396e-45
3.67852e-44
4.66658e-43
5.32931e-42
5.57699e-41
5.49846e-40
6.30383e-39
1.37698e-37
5.19513e-36
2.12759e-34
8.05267e-33
2.74867e-31
8.43637e-30
2.3173e-28
6.63752e-48
1.44045e-50
1.46968e-52
3.08064e-54
2.61405e-53
6.77359e-52
1.49841e-50
2.94736e-49
5.25931e-48
8.49436e-47
1.25055e-45
1.6629e-44
1.99428e-43
2.21062e-42
2.4528e-41
4.03903e-40
1.44144e-38
7.00619e-37
3.30402e-35
1.41163e-33
5.42968e-32
1.87075e-30
5.74559e-29
1.01053e-49
1.90627e-52
1.75194e-54
4.63068e-56
6.72793e-55
1.80251e-53
4.13582e-52
8.45441e-51
1.5667e-49
2.62987e-48
4.02844e-47
5.58842e-46
7.0364e-45
8.38097e-44
1.13624e-42
3.01933e-41
1.53908e-39
8.71366e-38
4.57347e-36
2.17332e-34
9.3513e-33
3.62101e-31
1.24877e-29
1.46905e-51
2.37338e-54
2.02799e-56
7.89348e-58
1.70466e-56
4.72142e-55
1.12371e-53
2.38561e-52
4.58572e-51
7.99176e-50
1.27359e-48
1.85559e-47
2.54397e-46
3.82104e-45
8.99475e-44
3.7878e-42
2.02345e-40
1.13815e-38
6.15763e-37
3.108e-35
1.4558e-33
6.25002e-32
2.42471e-30
2.05651e-53
2.89806e-56
2.30337e-58
1.52988e-59
4.25624e-58
1.21809e-56
3.00612e-55
6.62574e-54
1.3247e-52
2.43335e-51
4.27098e-50
7.89232e-49
1.88901e-47
6.59474e-46
2.86748e-44
1.31924e-42
6.04307e-41
2.73549e-39
1.22979e-37
5.50422e-36
2.44481e-34
1.07429e-32
4.47528e-31
2.79182e-55
3.49527e-58
2.58505e-60
3.22106e-61
1.03873e-59
3.07652e-58
7.92917e-57
1.86302e-55
4.22518e-54
1.03659e-52
3.20683e-51
1.28003e-49
5.81868e-48
2.70378e-46
1.22684e-44
5.37965e-43
2.27732e-41
9.38385e-40
3.78706e-38
1.51219e-36
6.03726e-35
2.4369e-33
9.92003e-32
3.69179e-57
4.16708e-60
2.87057e-62
7.08202e-63
2.50905e-61
7.87939e-60
2.29717e-58
7.14252e-57
2.74559e-55
1.31747e-53
6.96102e-52
3.66203e-50
1.84464e-48
8.8203e-47
4.01032e-45
1.74655e-43
7.34999e-42
3.00354e-40
1.2032e-38
4.76117e-37
1.8756e-35
7.43738e-34
3.00617e-32
0.520631
0.512162
0.483702
0.445639
0.00776018
0.00970757
0.00999517
0.00911992
1.63309e-05
1.47169e-05
1.33015e-05
1.11134e-05
3.54465e-06
4.34053e-06
4.0123e-06
2.16102e-06
2.48871e-07
1.18562e-06
1.2702e-06
4.91662e-07
5.59338e-09
4.32437e-08
6.93743e-08
2.28721e-08
5.44371e-11
1.94902e-10
2.69113e-10
1.62138e-10
1.71312e-11
1.84002e-11
4.20012e-11
8.87182e-11
1.63798e-11
1.96848e-11
3.22458e-11
4.84373e-11
1.16239e-11
1.38548e-11
1.75083e-11
2.21269e-11
7.18316e-12
9.00692e-12
1.22093e-11
1.82893e-11
4.71409e-12
7.55831e-12
1.43606e-11
3.07182e-11
4.76648e-12
9.42713e-12
2.09754e-11
4.9777e-11
4.44504e-12
9.43784e-12
2.10577e-11
4.86857e-11
2.80916e-12
6.22123e-12
1.39049e-11
3.12395e-11
1.2193e-12
2.83036e-12
6.43858e-12
1.42468e-11
3.90779e-13
9.49071e-13
2.23095e-12
5.09386e-12
9.51819e-14
2.4414e-13
6.04528e-13
1.4502e-12
1.81722e-14
5.00772e-14
1.34611e-13
3.50843e-13
2.8288e-15
8.59781e-15
2.60893e-14
7.69838e-14
3.82617e-16
1.3366e-15
4.75029e-15
1.63552e-14
4.74101e-17
1.97674e-16
8.33035e-16
3.34629e-15
5.67797e-18
2.83318e-17
1.38145e-16
6.34314e-16
6.48652e-19
3.76107e-18
2.05214e-17
1.05345e-16
6.79392e-20
4.43432e-19
2.65502e-18
1.49853e-17
6.33869e-21
4.51068e-20
2.92975e-19
1.79901e-18
5.35475e-22
4.00184e-21
2.76584e-20
1.82349e-19
4.75319e-23
3.45887e-22
2.41481e-21
1.64822e-20
6.88163e-24
4.39502e-23
2.75598e-22
1.7311e-21
1.97057e-24
1.22298e-23
7.17933e-23
4.05154e-22
7.59187e-25
5.11281e-24
3.21906e-23
1.91149e-22
3.11692e-25
2.33154e-24
1.63076e-23
1.07465e-22
1.26648e-25
1.05592e-24
8.25557e-24
6.09997e-23
4.88868e-26
4.54444e-25
3.97727e-24
3.30554e-23
1.73467e-26
1.7972e-25
1.76151e-24
1.64933e-23
5.48928e-27
6.32165e-26
6.90593e-25
7.22119e-24
1.5278e-27
1.95143e-26
2.36394e-25
2.73141e-24
3.72547e-28
5.27263e-27
7.05601e-26
8.94631e-25
8.14915e-29
1.28653e-27
1.91255e-26
2.66931e-25
1.68412e-29
2.97854e-28
4.98967e-27
7.85976e-26
4.00971e-30
7.65686e-29
1.40447e-27
2.45669e-26
1.24046e-30
2.39898e-29
4.43478e-28
7.7214e-27
0.212702
0.0441306
0.00554248
0.00142762
0.000131738
5.86077e-05
3.3782e-05
3.46493e-05
5.68781e-05
7.2999e-05
7.14082e-05
6.35129e-05
6.76892e-05
0.000117675
0.00140579
0.0163098
0.0399294
0.0610717
0.124771
0.00284879
0.000618337
3.75322e-05
1.10178e-05
1.25229e-05
1.8762e-05
2.214e-05
2.04978e-05
2.18044e-05
3.07443e-05
4.18716e-05
5.02425e-05
6.58413e-05
9.57277e-05
0.000188496
0.00343033
0.0174623
0.0129648
0.0781866
1.19562e-05
4.63093e-06
5.01483e-06
4.86264e-06
1.039e-05
1.80252e-05
2.09375e-05
2.2291e-05
2.18386e-05
2.89845e-05
4.01147e-05
4.8682e-05
5.71591e-05
9.44275e-05
0.000116777
0.00022853
0.00364762
0.00309359
0.038157
1.00262e-06
1.00959e-06
2.90407e-06
1.31779e-05
2.18881e-05
2.63296e-05
3.10683e-05
3.2814e-05
2.73993e-05
3.01118e-05
3.12781e-05
3.93924e-05
4.83363e-05
5.33584e-05
5.15717e-05
4.30596e-05
0.000226773
0.000268697
0.0188642
1.4579e-07
1.17428e-06
4.57473e-06
7.24206e-06
1.00447e-05
1.9344e-05
3.10403e-05
3.64535e-05
3.73041e-05
2.06238e-05
2.03589e-05
3.31205e-05
3.92723e-05
3.42138e-05
3.43657e-05
3.36496e-05
4.3764e-05
0.000120593
0.0101747
8.75118e-09
7.51045e-08
1.37673e-07
2.96926e-07
1.12043e-06
7.10289e-06
2.3378e-05
3.66402e-05
4.03395e-05
4.05766e-05
2.85051e-05
3.44858e-05
3.65694e-05
3.66106e-05
3.64128e-05
3.53211e-05
4.13669e-05
0.00029755
0.00804681
2.54514e-10
5.21382e-10
4.05429e-10
4.0412e-10
1.66312e-08
1.39704e-06
1.66872e-05
3.61258e-05
3.85997e-05
4.058e-05
3.87004e-05
2.11394e-05
3.07323e-05
3.46004e-05
3.88922e-05
4.02899e-05
5.43743e-05
0.000758107
0.0101281
2.03084e-10
3.62129e-10
3.57839e-10
4.80791e-10
2.71282e-08
1.66444e-06
1.76468e-05
3.79428e-05
4.22014e-05
4.03897e-05
2.43374e-05
6.23855e-06
1.63908e-05
2.91331e-05
3.6778e-05
3.78178e-05
6.18999e-05
0.00171379
0.0152039
6.79469e-11
8.79871e-11
2.29731e-10
1.2725e-08
8.96543e-07
1.19651e-05
3.47845e-05
4.31169e-05
4.47443e-05
3.83329e-05
6.44448e-06
1.04613e-06
2.59762e-06
1.84287e-05
3.57523e-05
2.45488e-05
7.61927e-05
0.00316441
0.0202815
2.66265e-11
9.82144e-11
4.23232e-10
1.20591e-07
5.00008e-06
2.70982e-05
4.34252e-05
4.67025e-05
4.54732e-05
1.6328e-05
2.20203e-06
1.04167e-06
1.04588e-06
6.28949e-06
2.21652e-05
2.09155e-05
9.1894e-05
0.00549463
0.024596
4.08161e-11
2.60577e-10
1.12636e-09
3.01963e-07
8.89116e-06
3.50733e-05
4.86906e-05
4.90794e-05
3.25447e-05
5.06378e-06
1.23929e-06
1.03346e-06
1.02611e-06
1.29085e-06
3.24748e-06
3.88814e-05
0.00088141
0.00328634
0.0192031
1.13988e-10
4.32665e-10
1.34357e-09
3.15976e-07
8.94234e-06
3.62812e-05
5.06493e-05
5.19774e-05
2.62997e-05
2.19685e-06
1.03217e-06
1.02612e-06
1.02203e-06
1.01381e-06
1.10196e-06
1.2451e-05
0.000121343
0.00180324
0.0173675
1.47499e-10
5.26602e-10
8.42858e-10
4.79147e-08
2.29199e-06
2.1348e-05
5.42585e-05
5.97736e-05
4.80309e-05
5.95928e-06
1.02556e-06
1.02397e-06
1.01467e-06
1.01096e-06
1.01093e-06
4.10793e-06
2.15138e-05
0.000359137
0.0144182
1.26575e-10
3.939e-10
6.35587e-10
3.88772e-09
1.16745e-07
3.46826e-06
3.08425e-05
6.55669e-05
7.03368e-05
3.12829e-05
2.76231e-06
1.10218e-06
1.39237e-06
1.76295e-06
2.32995e-06
1.35794e-05
5.52963e-05
0.000485248
0.0101061
6.80102e-11
2.30012e-10
4.42495e-10
4.94609e-10
2.37556e-09
1.86531e-07
7.89269e-06
5.27993e-05
7.82626e-05
7.83863e-05
4.02475e-05
2.19795e-05
2.33738e-05
3.67424e-05
4.40231e-05
9.1912e-05
0.000322348
0.00106024
0.00867945
3.13131e-11
1.0534e-10
2.39756e-10
3.50471e-10
4.00877e-10
1.08947e-09
8.32979e-07
2.08712e-05
8.33002e-05
0.000105097
0.000107253
9.82835e-05
0.00010398
0.00014887
0.000178785
0.000189925
0.000417217
0.00250722
0.0090736
1.15842e-11
3.84284e-11
1.05241e-10
2.16746e-10
3.37526e-10
4.03572e-10
1.39468e-08
2.65839e-06
3.6314e-05
0.000107271
0.000136846
0.000144512
0.00018001
0.000267523
0.000452507
0.000785471
0.00203727
0.00573573
0.0109361
3.60213e-12
1.23491e-11
4.13316e-11
1.1003e-10
2.4686e-10
4.02114e-10
5.39248e-10
1.6558e-08
2.1874e-06
2.84563e-05
9.38272e-05
0.00015427
0.000210764
0.000350494
0.000699638
0.00146538
0.00374974
0.00761445
0.0104749
9.83896e-13
3.93385e-12
1.44073e-11
4.54544e-11
1.39716e-10
3.10621e-10
5.19361e-10
6.12662e-10
1.97632e-09
2.05463e-07
4.28545e-06
2.48917e-05
6.8546e-05
0.000122741
0.000191713
0.000336805
0.000671803
0.00152871
0.00210756
2.52574e-13
1.18916e-12
5.08907e-12
1.73531e-11
6.09236e-11
1.69448e-10
3.66464e-10
6.47853e-10
7.59204e-10
9.93531e-10
4.86746e-08
5.14742e-07
8.73165e-07
6.60609e-07
4.31413e-07
3.76219e-07
4.22888e-07
1.17776e-06
8.40695e-07
6.3253e-14
3.47116e-13
1.69761e-12
7.02322e-12
2.12882e-11
6.13058e-11
1.91577e-10
4.33973e-10
8.87024e-10
1.6778e-09
2.11009e-09
2.15881e-09
2.31833e-09
5.19249e-09
7.17686e-09
5.81145e-09
4.08684e-09
2.37951e-09
1.79146e-09
1.49879e-14
9.34916e-14
5.21548e-13
2.51666e-12
9.84951e-12
2.90153e-11
9.85713e-11
2.63661e-10
6.36793e-10
1.4788e-09
2.936e-09
3.54274e-09
3.42594e-09
4.60908e-09
7.63282e-09
5.30822e-09
4.07386e-09
2.14524e-09
7.53838e-10
3.20955e-15
2.23492e-14
1.41526e-13
7.76539e-13
3.52771e-12
1.35342e-11
4.87375e-11
1.62634e-10
5.21216e-10
1.51747e-09
3.65447e-09
4.7787e-09
4.32038e-09
4.57305e-09
5.95132e-09
9.28932e-09
8.9339e-09
5.27792e-09
7.87688e-10
5.91567e-16
4.56479e-15
3.26271e-14
2.01987e-13
1.06493e-12
5.16775e-12
2.44472e-11
1.14592e-10
4.78285e-10
1.69137e-09
4.55805e-09
6.74442e-09
6.65546e-09
5.18155e-09
4.86594e-09
8.54979e-09
7.90382e-09
5.43163e-09
3.74876e-10
9.18374e-17
7.78712e-16
6.20071e-15
4.32789e-14
2.71893e-13
1.74751e-12
1.18474e-11
7.46222e-11
4.22231e-10
1.89287e-09
5.82311e-09
1.01778e-08
9.0434e-09
5.40372e-09
4.87639e-09
8.6553e-09
6.12983e-09
3.1117e-09
1.28514e-10
1.18485e-17
1.09398e-16
9.54773e-16
7.52597e-15
5.70229e-14
4.90294e-13
4.7546e-12
4.29795e-11
3.67188e-10
2.18019e-09
7.26109e-09
1.43171e-08
1.07726e-08
5.39745e-09
7.06819e-09
8.36295e-09
2.5984e-09
1.16532e-09
3.81986e-11
1.27435e-18
1.26217e-17
1.18311e-16
1.03138e-15
9.08535e-15
1.00129e-13
1.43135e-12
2.18749e-11
3.38804e-10
2.72555e-09
8.66287e-09
1.41098e-08
1.23969e-08
7.79167e-09
8.22061e-09
3.09419e-09
5.08442e-10
1.1795e-10
1.22149e-11
1.18568e-19
1.22495e-18
1.20518e-17
1.13749e-16
1.1615e-15
1.67816e-14
3.792e-13
1.01274e-11
2.535e-10
2.16654e-09
7.59354e-09
1.29286e-08
1.34483e-08
1.16931e-08
5.87473e-09
5.35285e-10
9.48789e-11
1.48504e-11
8.37064e-12
1.16723e-20
1.19029e-19
1.16234e-18
1.13343e-17
1.29013e-16
2.28926e-15
6.8413e-14
2.25045e-12
5.857e-11
6.74867e-10
3.57994e-09
9.36636e-09
1.25883e-08
7.40937e-09
1.80247e-09
2.49666e-10
2.25262e-11
5.45489e-12
6.91007e-12
2.40506e-21
2.32028e-20
2.07601e-19
1.79618e-18
1.75435e-17
2.67938e-16
6.77019e-15
2.17114e-13
6.47441e-12
1.16832e-10
9.54808e-10
4.29133e-09
6.7813e-09
3.31022e-09
5.27671e-10
1.08026e-10
7.952e-12
3.39358e-12
5.93893e-12
1.16799e-21
1.21097e-20
1.12787e-19
9.43322e-19
7.27506e-18
5.87684e-17
7.18608e-16
1.78132e-14
5.94956e-13
1.45884e-11
2.10905e-10
1.12662e-09
3.06055e-09
1.16823e-09
3.54096e-10
4.17794e-11
5.70467e-12
2.40837e-12
5.02006e-12
7.23139e-22
8.51367e-21
8.95352e-20
8.32637e-19
6.81915e-18
4.90081e-17
3.20495e-16
2.6342e-15
5.29565e-14
1.45178e-12
3.03375e-11
3.05159e-10
7.2925e-10
3.49193e-10
2.93709e-10
4.15147e-11
7.60212e-12
2.18599e-12
4.09854e-12
4.5803e-22
6.18244e-21
7.45649e-20
7.96534e-19
7.47181e-18
6.06401e-17
4.18588e-16
2.46122e-15
1.42033e-14
1.58226e-13
3.48441e-12
2.76247e-11
1.22228e-10
1.20011e-10
2.19912e-10
7.50432e-11
1.23174e-11
2.47448e-12
3.24028e-12
2.78465e-22
4.33358e-21
6.05885e-20
7.55746e-19
8.33746e-18
7.98963e-17
6.4802e-16
4.33532e-15
2.36136e-14
1.10113e-13
6.29655e-13
3.83895e-12
1.61254e-11
4.89706e-11
1.54448e-10
8.1375e-11
1.72887e-11
3.31709e-12
2.50163e-12
1.56328e-22
2.80875e-21
4.58753e-20
6.82047e-19
9.20612e-18
1.10893e-16
1.15563e-15
1.00468e-14
7.03554e-14
3.86113e-13
1.60295e-12
4.67249e-12
1.22476e-11
4.10602e-11
1.14167e-10
6.87195e-11
1.67421e-11
4.33959e-12
2.08413e-12
7.56702e-23
1.51926e-21
2.75046e-20
4.49648e-19
6.61528e-18
8.62112e-17
9.71164e-16
9.18841e-15
7.07748e-14
4.25512e-13
1.87678e-12
5.90182e-12
1.42395e-11
4.11188e-11
7.96964e-11
4.67198e-11
1.11746e-11
4.09195e-12
1.7427e-12
3.10819e-23
6.75065e-22
1.29267e-20
2.18401e-19
3.25223e-18
4.23526e-17
4.75651e-16
4.51864e-15
3.55147e-14
2.25187e-13
1.09153e-12
4.03154e-12
1.21149e-11
3.63307e-11
3.67275e-11
1.74391e-11
7.56828e-12
2.79088e-12
1.28908e-12
1.09421e-23
2.52724e-22
5.00997e-21
8.5142e-20
1.24223e-18
1.55314e-17
1.65526e-16
1.48791e-15
1.11399e-14
6.86641e-14
3.36186e-13
1.42156e-12
6.29401e-12
1.84125e-11
1.48394e-11
7.134e-12
3.09389e-12
1.19455e-12
8.25008e-13
3.52716e-24
8.69848e-23
1.7931e-21
3.08285e-20
4.41554e-19
5.26707e-18
5.22747e-17
4.30489e-16
2.94727e-15
1.6785e-14
7.87335e-14
3.4718e-13
1.64023e-12
3.66407e-12
2.2144e-12
1.12049e-12
5.89164e-13
3.25244e-13
5.24508e-13
1.16887e-24
3.16038e-23
6.89244e-22
1.21505e-20
1.73361e-19
2.00186e-18
1.86907e-17
1.40655e-16
8.58113e-16
4.22493e-15
1.72474e-14
6.13034e-14
2.10861e-13
2.90591e-13
2.15852e-13
1.24901e-13
1.18751e-13
1.16119e-13
3.44656e-13
4.0875e-25
1.28594e-23
3.26425e-22
6.55847e-21
1.03333e-19
1.27308e-18
1.22253e-17
9.13021e-17
5.30979e-16
2.41263e-15
8.44735e-15
2.20516e-14
5.00447e-14
5.75079e-14
6.07837e-14
3.05256e-14
4.39694e-14
4.73851e-14
1.82455e-13
1.23579e-25
3.88486e-24
1.0163e-22
2.16028e-21
3.68629e-20
5.02804e-19
5.44784e-18
4.63176e-17
3.02405e-16
1.46609e-15
5.11739e-15
1.18417e-14
2.23277e-14
1.45458e-14
1.53293e-14
5.4627e-15
1.04097e-14
1.14082e-14
5.72302e-14
)
;

boundaryField
{
    leftWall
    {
        type            zeroGradient;
    }
    rightWall
    {
        type            zeroGradient;
    }
    lowerWall
    {
        type            zeroGradient;
    }
    atmosphere
    {
        type            inletOutlet;
        inletValue      uniform 0;
        value           nonuniform List<scalar> 
46
(
3.69179e-57
4.16708e-60
2.87057e-62
7.08202e-63
2.50905e-61
7.87939e-60
2.29717e-58
7.14252e-57
2.74559e-55
1.31747e-53
6.96102e-52
3.66203e-50
1.84464e-48
8.8203e-47
4.01032e-45
1.74655e-43
7.34999e-42
3.00354e-40
1.2032e-38
4.76117e-37
1.8756e-35
7.43738e-34
3.00617e-32
1.24046e-30
2.39898e-29
4.43478e-28
7.7214e-27
1.23579e-25
3.88486e-24
1.0163e-22
2.16028e-21
3.68629e-20
5.02804e-19
5.44784e-18
4.63176e-17
0
0
0
0
0
0
0
0
0
0
0
)
;
    }
    defaultFaces
    {
        type            empty;
    }
}


// ************************************************************************* //
