/*--------------------------------*- C++ -*----------------------------------*\
| =========                 |                                                 |
| \\      /  F ield         | OpenFOAM: The Open Source CFD Toolbox           |
|  \\    /   O peration     | Version:  2.4.0                                 |
|   \\  /    A nd           | Web:      www.OpenFOAM.org                      |
|    \\/     M anipulation  |                                                 |
\*---------------------------------------------------------------------------*/
FoamFile
{
    version     2.0;
    format      ascii;
    class       volScalarField;
    location    "0.7";
    object      alphas;
}
// * * * * * * * * * * * * * * * * * * * * * * * * * * * * * * * * * * * * * //

dimensions      [0 0 0 0 0 0 0];

internalField   nonuniform List<scalar> 
2268
(
2
2
2
2
2
2
2
2
2
2
2
2
2
2
2
2
2
2
2
2
2
2
1.99999
1.99992
1.9999
1.99995
1.99993
1.99991
1.99996
1.99998
2
2
2
2
2
2
2
2
2
2
2
2
2
2
2
1.99999
1.95172
1.94887
1.95778
1.95355
1.95376
1.96504
1.97618
1.98981
1.99785
1.99966
1.99996
1.99999
2
2
2
2
2
2
2
2
2
2
1.99999
0.812719
0.806959
0.828545
0.817367
0.823814
0.860673
0.92429
1.03022
1.20394
1.4884
1.90076
1.99712
1.99995
2
2
2
2
2
2
2
2
2
1.99999
0.000263127
0.000252379
0.000260002
0.000243696
0.000230049
0.000224681
0.000234122
0.000288659
0.00232983
0.0697185
0.504567
1.46695
1.97644
1.99938
1.99992
1.99998
2
2
2
2
2
2
1.99999
1.01957e-05
1.00694e-05
1.00601e-05
1.00694e-05
1.00601e-05
1.0077e-05
1.00704e-05
1.00926e-05
1.00948e-05
0.000136192
0.0125145
0.316572
1.59374
1.98765
1.99944
1.99991
1.99996
1.99998
1.99998
1.99999
1.99999
1.99998
1.99999
1.42725e-05
1.35512e-05
1.24992e-05
1.2088e-05
1.05609e-05
1.01263e-05
1.01192e-05
1.00995e-05
1.01182e-05
1.02065e-05
0.000202628
0.0565752
0.892282
1.89945
1.99615
1.99955
1.9998
1.99988
1.99967
1.99911
1.99626
1.99434
1.99924
1.47641e-05
1.37026e-05
1.16186e-05
1.1403e-05
1.04498e-05
9.42923e-06
1.0238e-05
1.07209e-05
1.10864e-05
1.22265e-05
6.78849e-05
0.0187495
0.414444
1.54243
1.97579
1.99592
1.99584
1.98513
1.94788
1.90529
1.82725
1.80237
1.92541
1.78055
1.78026
1.78015
1.78153
1.78293
1.78389
1.78449
1.78531
1.78611
1.78612
1.78642
1.78684
1.78732
1.78797
1.78837
1.78837
1.78852
1.78892
1.78907
1.64634
1.39948
1.55188
1.70723
1.73418
1.75439
1.76821
1.77354
1.76417
1.75893
1.7594
1.75574
1.75587
1.76536
1.78703
1.78874
1.7893
1.78912
1.78924
1.27838
1.24651
1.2265
1.14077
1.01842
1.02717
1.06992
1.14229
1.17603
1.14804
1.1143
1.11112
1.13143
1.2305
1.42917
1.72288
1.79006
1.7893
1.78962
1.16583
1.16189
0.937268
0.565674
0.296349
0.229794
0.252966
0.443704
0.616109
0.745315
0.850417
0.951401
0.99293
1.02304
1.04897
1.33436
1.75774
1.78968
1.7898
1.22824
0.982486
0.640725
0.298968
0.190688
0.178053
0.198732
0.378141
0.394454
0.475674
0.636179
0.826958
0.955094
1.00524
1.02365
1.09218
1.66725
1.78609
1.72475
0.917521
0.762575
0.410436
0.228764
0.173321
0.190956
0.367516
0.379618
0.38873
0.302541
0.439257
0.688641
0.906551
0.981867
1.01997
1.05768
1.58824
1.74425
1.39602
0.552791
0.46359
0.317308
0.259915
0.213259
0.177059
0.169741
0.197158
0.216616
0.224098
0.334837
0.585527
0.848285
0.964711
1.00799
1.03174
1.43743
1.57419
1.19789
0.526376
0.417784
0.328882
0.352873
0.322627
0.268885
0.199672
0.154924
0.207359
0.345451
0.369773
0.558479
0.799099
0.94261
0.987864
1.01658
1.18846
1.24704
1.14501
6.42587e-06
5.59255e-06
5.19802e-06
5.22546e-06
5.62181e-06
2.13784e-05
3.0211e-05
3.29923e-05
1.67398e-05
1.19435e-05
1.83952e-05
0.00201393
0.06732
0.408695
1.02904
1.40382
1.44775
1.32209
1.06072
0.849442
0.694547
0.685375
0.941112
2.1429e-06
1.99923e-06
1.03867e-05
0.000183802
0.000452861
0.00359819
0.00321408
0.00213143
0.00100623
0.000484211
0.000231172
0.000278871
0.0019951
0.0197707
0.0449912
0.0332913
0.0414478
0.0676579
0.0685287
0.063445
0.0558936
0.0526362
0.0549856
2.55014e-06
4.05649e-05
0.00635735
0.0312481
0.0460299
0.114544
0.105673
0.0580007
0.0265056
0.0125809
0.00566306
0.00239654
0.00078132
0.000502309
0.000613725
0.000938991
0.0028797
0.0115893
0.0333376
0.0813098
0.138539
0.189765
0.224234
2.12786e-05
0.00910543
0.180452
0.385539
0.537376
0.691219
0.63127
0.472056
0.359596
0.262485
0.185389
0.117849
0.0478416
0.0184073
0.0289465
0.0940894
0.138542
0.22272
0.342724
0.496054
0.704182
0.946898
1.11861
0.00296527
0.129635
0.610292
0.941104
1.09329
1.02262
0.915248
0.888275
0.856688
0.814743
0.779864
0.731078
0.654255
0.623719
0.667012
0.748014
0.797887
1.18234
1.62091
2.07426
2.56615
2.84525
2.95851
1.58751
1.57831
1.77668
2.32597
2.69894
2.72867
2.36537
1.92773
1.69722
1.59416
1.63486
1.78266
1.87358
1.91108
2.07631
2.32875
2.63837
2.93075
2.99191
2.99985
2.99998
2.99999
2.99959
2.95082
2.93552
2.943
2.98235
2.99771
2.99921
3
2.99985
2.99701
2.98718
2.98842
2.99987
2.9997
2.99976
2.99995
2.99999
2.99999
2.99999
2.99999
2.99999
2.99999
2.99999
2.99999
2.99981
2.99963
2.99972
2.99995
3
3
3
3
3
2.99999
2.99999
3
3
3
3
3
3
3
3
2.99999
2.99999
2.99999
3
3
3
3
3
3
3
3
3
3
3
3
3
3
3
3
3
3
3
3
3
3
2.99999
3
3
3
3
3
3
3
3
3
3
3
3
3
3
3
3
3
3
3
3
3
3
3
2.99999
3
3
3
3
3
3
3
3
3
3
3
3
3
3
3
3
3
3
3
3
3
3
2.99999
3
3
3
3
3
3
3
3
3
3
3
3
3
3
3
3
3
3
3
3
3
3
2.99999
3
3
3
3
3
3
3
3
3
3
3
3
3
3
3
3
3
3
3
3
3
3
3
3
3
3
3
3
3
3
3
3
3
3
3
3
3
3
3
3
3
3
3
3
3
3
3
3
3
3
3
3
3
3
3
3
3
3
3
3
3
3
3
3
3
3
3
3
3
3
3
3
3
3
3
3
3
3
3
3
3
3
3
3
3
3
3
3
3
3
3
3
3
3
3
3
3
3
3
3
3
3
3
3
3
3
3
3
3
3
3
3
3
3
3
3
3
3
3
3
3
3
3
3
3
3
3
3
3
3
3
3
3
3
3
3
3
3
3
3
3
3
3
3
3
3
3
3
3
3
3
3
3
3
3
3
3
3
3
3
3
3
3
3
3
3
3
3
3
3
3
3
3
3
3
3
3
3
3
3
3
3
3
3
3
3
3
3
3
3
3
3
3
3
3
3
3
3
3
3
3
3
3
3
3
3
3
3
3
3
3
3
3
3
3
3
3
3
3
3
3
3
3
3
3
3
3
3
3
3
3
3
3
3
3
3
3
3
3
3
3
3
3
3
3
3
3
3
3
3
3
3
3
3
3
3
3
3
3
3
3
3
3
3
3
3
3
3
3
3
3
3
3
3
2.99999
3
3
3
3
3
3
3
3
3
3
3
3
3
3
3
3
3
3
3
3
3
2.99999
2.99999
2.99999
3
3
3
3
3
3
3
3
3
3
3
3
3
3
3
3
3
3
3
3
2.99999
2.99999
2.99999
3
3
3
3
3
3
3
3
3
3
3
3
3
3
3
3
3
3
3
3
2.99999
2.99999
2.99999
3
3
3
3
3
3
3
3
3
3
3
3
3
3
3
3
3
3
3
3
2.99999
2.99999
2.99999
3
3
3
3
3
3
3
3
3
3
3
3
3
3
3
3
3
3
3
3
3
2.99999
2.99999
3
3
3
3
3
3
3
3
3
3
3
3
3
3
3
3
3
3
3
3
3
2.99999
2.99999
3
3
3
3
3
3
3
3
3
3
3
3
3
3
3
3
3
3
3
3
3
3
2.99999
3
3
3
3
3
3
3
3
3
3
3
3
3
3
3
3
3
3
3
3
3
3
2.99999
3
3
3
3
3
3
3
3
3
3
3
3
3
3
3
3
3
3
3
3
3
3
2.99999
3
3
3
3
3
3
3
3
3
3
3
3
3
3
3
3
3
3
3
3
3
3
2.99999
3
3
3
3
3
3
3
3
3
3
3
3
3
3
3
3
3
3
3
3
3
3
3
3
3
3
3
3
3
3
3
3
3
3
3
3
3
3
3
3
3
3
3
3
3
3
3
3
3
3
3
3
3
3
3
3
3
3
3
3
3
3
3
3
3
3
3
3
3
3
3
3
3
3
3
3
3
3
3
3
3
3
3
3
3
3
3
3
3
3
3
3
3
3
3
3
3
3
3
3
3
3
3
3
3
3
3
3
3
3
3
3
3
3
3
3
3
3
3
3
3
3
3
3
3
3
3
3
3
3
3
3
3
3
3
3
3
3
3
3
3
3
3
3
3
3
3
3
3
3
3
3
3
3
3
3
3
3
3
3
3
3
3
3
3
3
3
3
3
3
3
3
3
3
3
3
3
3
3
3
3
3
3
3
1.0467
1.03211
0.980902
0.915459
0.0626093
0.0779248
0.101791
0.136276
0.250751
0.289372
0.345611
0.41414
0.938088
0.692866
0.759393
0.9138
2.74018
1.68699
1.0747
1.18736
2.98929
2.81881
2.37475
2.27977
2.99964
2.99385
2.97889
2.97433
3
2.99998
2.99994
2.99993
3
3
3
3
3
3
3
3
2.99999
2.99999
2.99999
2.99999
2.99999
2.99999
2.99999
2.99999
3
2.99999
2.99999
2.99999
3
2.99999
2.99999
2.99999
3
2.99999
2.99999
2.99999
3
2.99999
2.99999
2.99999
2.99999
2.99999
2.99999
2.99999
2.99999
2.99999
2.99999
2.99999
3
3
2.99999
2.99999
3
3
3
2.99999
3
3
2.99999
2.99999
3
3
2.99999
2.99999
3
3
2.99999
2.99999
3
2.99999
2.99999
2.99999
2.99999
2.99999
2.99999
2.99999
2.99999
2.99999
2.99999
2.99999
2.99999
2.99999
2.99999
2.99999
2.99999
2.99999
2.99999
2.99999
2.99999
2.99999
2.99999
2.99999
2.99999
2.99999
2.99998
2.99999
2.99999
2.99999
2.99999
2.99999
2.99999
2.99999
2.99998
2.99999
2.99999
2.99999
2.99999
2.99999
2.99999
2.99999
2.99999
2.99999
2.99999
2.99999
2.99999
2.99999
2.99999
2.99999
2.99999
2.99999
2.99999
2.99999
2.99999
2.99999
3
2.99999
2.99999
2.99999
2.99999
2.99999
2.99999
2.99999
3
3
2.99999
2.99999
2.99999
2.99999
2.99999
2.99999
2.99999
2.99999
2.99999
3
0.554339
0.431225
0.776736
0.682505
0.568986
0.491359
0.401618
0.292871
0.332431
0.374089
0.402168
0.509893
0.709091
0.884163
0.968578
1.00545
1.03463
1.0522
1.10509
0.265627
1.12394
2.4214
2.43491
1.53391
1.0617
0.824005
0.749079
0.58891
0.422692
0.387229
0.452697
0.59917
0.803516
0.952614
0.976744
1.00494
0.999772
1.06194
0.633652
2.21918
2.54972
2.3743
1.62044
1.3574
1.47507
1.45184
1.28815
0.701393
0.428523
0.422163
0.47532
0.722969
0.949874
0.935552
0.956613
0.958717
0.974014
1.21366
1.29813
1.08649
1.06917
1.06951
1.06913
1.07077
1.30062
1.4493
1.42327
0.830181
0.491035
0.491923
1.1771
1.54932
1.47396
0.844863
0.841485
0.86031
1.55333
1.95008
1.5733
1.43265
1.29728
1.10116
1.01959
1.01934
1.11073
1.6677
1.60361
0.750699
0.528659
1.32894
1.68951
1.66557
1.00074
0.673818
0.732331
2.74927
2.96358
2.9616
2.90723
2.71184
2.02593
1.21899
1.01354
1.01126
1.05595
1.60268
1.11861
0.64787
0.905179
1.24038
1.12715
0.849962
0.562194
0.651346
2.99406
2.99978
2.99996
2.99994
2.99643
2.87359
1.92973
1.0655
1.01053
1.01247
1.14259
1.43696
0.88082
0.691
0.672962
0.608138
0.573799
0.517544
0.648903
2.99999
3
3
2.99935
2.99252
2.8507
1.99441
1.11753
1.01773
1.26124
1.97153
2.47148
1.36236
0.807193
0.601444
0.549607
0.501087
0.515593
0.676881
3
2.99999
2.99991
2.98843
2.81869
2.01027
1.19649
1.1029
1.27326
2.28328
2.89343
2.93244
2.20097
1.22435
0.694825
0.62477
0.743895
0.61672
0.729749
2.99999
2.99999
2.99975
2.9563
2.36102
1.25518
1.0627
1.10714
1.90888
2.83834
2.94806
2.9481
2.66307
1.50116
0.964339
1.07071
2.37944
1.30782
0.771595
2.99999
2.99999
2.9996
2.92867
2.10293
1.12077
1.05716
1.22509
2.31801
2.92988
2.94816
2.94809
2.90755
2.20742
1.48348
1.93397
2.64997
2.48984
1.226
2.99999
3
2.99975
2.94621
2.33398
1.34543
1.05553
1.28447
2.34576
2.938
2.94816
2.94831
2.94829
2.89969
2.55995
2.36201
2.64323
2.44008
1.06104
2.99999
3
2.99998
2.99511
2.8904
2.27565
1.36659
1.25255
1.64283
2.80082
2.9482
2.94819
2.94847
2.94843
2.91766
2.31115
1.54193
1.42925
0.711924
3
3
3
2.99985
2.99697
2.9068
2.19757
1.26131
1.18996
2.03765
2.8851
2.94407
2.9329
2.91304
2.76906
1.84559
0.876965
0.725643
0.672695
2.99999
3
3
3
2.99997
2.99619
2.81695
1.78139
1.18068
1.17761
1.84643
2.23347
2.16523
1.93418
1.61552
1.07537
0.845595
0.754208
0.701354
2.99999
2.99999
3
3
3
2.99997
2.98071
2.55899
1.34452
1.03084
1.01053
1.03049
1.01432
0.960679
0.919695
0.886803
0.838673
0.773266
0.758709
2.99999
2.99999
2.99999
2.99999
3
3
2.99967
2.94185
2.33734
1.28306
1.01195
0.986277
0.971722
0.976994
0.984528
0.962894
0.927576
0.916068
0.932575
2.99999
2.99999
2.99999
2.99999
2.99999
3
3
2.99927
2.93766
2.44739
1.76969
1.57209
1.57873
1.72357
1.89291
1.93367
1.83603
1.6531
1.62883
2.99999
2.99999
2.99999
2.99999
2.99999
3
3
3
2.99967
2.98629
2.89712
2.78949
2.77421
2.8651
2.95036
2.97618
2.98093
2.95825
2.94425
2.99999
2.99999
2.99999
2.99999
2.99999
3
3
3
3
2.99993
2.99971
2.99952
2.99952
2.99987
3
2.99999
2.99984
2.9998
3
2.99999
2.99999
2.99999
2.99999
2.99999
3
3
3
3
3
3
3
3
3
3
2.99999
2.99991
2.99997
3
2.99999
2.99999
2.99999
2.99999
2.99999
3
3
3
3
3
3
3
3
3
3
2.99999
2.99998
3
3
2.99999
2.99999
2.99999
2.99999
3
3
3
3
3
3
3
3
3
3
3
3
3
3
3
2.99999
2.99999
2.99999
3
3
3
3
3
3
3
3
3
3
3
3
3
3
3
3
2.99999
2.99999
2.99999
3
3
3
3
3
3
3
3
3
3
3
3
3
3
2.99995
2.99913
2.99999
2.99999
2.99999
3
3
3
3
3
3
3
3
3
3
3
3
2.99995
2.99891
2.9867
2.9328
2.99999
2.99999
2.99999
3
3
3
3
3
3
3
3
3
3
3
2.99983
2.99414
2.93723
2.69844
2.25736
2.99999
2.99999
2.99999
3
3
3
3
3
3
3
3
3
3
3
2.99905
2.96472
2.64128
1.81809
1.21811
2.99999
2.99999
2.99999
3
3
3
3
3
3
3
3
3
3
3
2.99824
2.94068
2.45998
1.41064
1.02835
2.99999
2.99999
2.99999
3
3
3
3
3
3
3
3
3
3
2.99999
2.99802
2.94856
2.65679
1.84921
1.02835
2.99999
2.99999
2.99999
3
3
3
3
3
3
3
3
3
3
2.99999
2.99851
2.98974
2.96919
2.78486
1.03605
2.99999
2.99999
2.99999
3
3
3
3
3
3
3
3
3
3
2.99999
2.99938
2.9998
2.99995
2.98656
1.15528
2.99999
2.99999
2.99999
3
3
3
3
3
3
3
3
3
3
2.99998
2.99992
2.99999
3
2.98905
1.83421
2.99999
2.99999
2.99999
3
3
3
3
3
3
3
3
3
3
2.99999
2.99998
3
3
2.98619
2.81359
2.99999
2.99999
2.99999
3
3
3
3
3
3
3
3
3
3
2.99999
2.99999
3
3
2.99898
2.99847
2.99999
2.99999
3
3
3
3
3
3
3
3
3
3
3
2.99999
3
3
3
3
3
2.99999
2.99999
3
3
3
3
3
3
3
3
3
3
3
3
3
3
3
3
3
3
3
3
3
3
3
3
3
3
3
3
3
3
3
3
3
3
3
3
3
3
3
3
3
3
3
3
3
3
3
3
3
3
3
3
3
3
3
3
3
3
3
3
3
3
3
3
3
3
3
3
3
3
3
3
3
3
3
3
3
3
3
3
3
3
3
3
3
3
3
3
3
3
3
3
3
3
3
3
3
3
3
3
3
3
3
3
3
3
3
3
3
3
3
3
)
;

boundaryField
{
    leftWall
    {
        type            zeroGradient;
    }
    rightWall
    {
        type            zeroGradient;
    }
    lowerWall
    {
        type            zeroGradient;
    }
    atmosphere
    {
        type            zeroGradient;
    }
    defaultFaces
    {
        type            empty;
    }
}


// ************************************************************************* //
