/*--------------------------------*- C++ -*----------------------------------*\
| =========                 |                                                 |
| \\      /  F ield         | OpenFOAM: The Open Source CFD Toolbox           |
|  \\    /   O peration     | Version:  2.4.0                                 |
|   \\  /    A nd           | Web:      www.OpenFOAM.org                      |
|    \\/     M anipulation  |                                                 |
\*---------------------------------------------------------------------------*/
FoamFile
{
    version     2.0;
    format      ascii;
    class       volScalarField;
    location    "0.7";
    object      alpha.water;
}
// * * * * * * * * * * * * * * * * * * * * * * * * * * * * * * * * * * * * * //

dimensions      [0 0 0 0 0 0 0];

internalField   nonuniform List<scalar> 
2268
(
2.53959e-08
2.41536e-08
1.30679e-08
1.64171e-08
1.9562e-08
1.6408e-08
1.55497e-08
1.50343e-08
1.76891e-08
2.01209e-08
1.74866e-08
1.41357e-08
9.71953e-09
8.49817e-09
8.17254e-09
7.4285e-09
5.0012e-09
3.33118e-09
3.00906e-09
3.37055e-09
2.41459e-09
9.32837e-10
2.81183e-10
3.95629e-05
4.89687e-05
2.47564e-05
3.72312e-05
4.25346e-05
2.08001e-05
9.10013e-06
2.16774e-06
7.31548e-07
4.14147e-07
1.95006e-07
6.513e-08
3.91633e-08
3.48759e-08
3.19804e-08
2.72818e-08
2.1196e-08
1.48506e-08
1.11317e-08
1.07447e-08
8.73676e-09
1.56681e-09
5.72645e-10
0.0241376
0.0255663
0.0211081
0.0232254
0.0231203
0.0174778
0.0119101
0.00509425
0.00107694
0.000167537
2.20701e-05
2.70136e-06
6.08372e-07
4.62323e-07
2.69903e-07
1.01289e-07
4.72325e-08
3.34574e-08
3.25092e-08
4.23524e-08
3.57563e-08
9.68616e-09
3.00449e-09
0.59364
0.59652
0.585727
0.591316
0.588093
0.569664
0.537855
0.48489
0.398029
0.255799
0.0496175
0.00143769
2.71429e-05
1.78872e-06
5.41509e-07
2.38092e-07
1.54318e-07
1.40658e-07
1.73635e-07
2.35958e-07
1.45752e-07
4.78407e-08
9.40517e-09
0.999868
0.999874
0.99987
0.999878
0.999885
0.999887
0.999883
0.999855
0.998835
0.965141
0.747717
0.266523
0.0117811
0.000308533
3.81898e-05
9.58692e-06
1.98503e-06
7.0625e-07
8.30434e-07
1.01355e-06
4.5945e-07
1.28862e-07
2.28806e-08
0.999995
0.999995
0.999995
0.999995
0.999995
0.999995
0.999995
0.999995
0.999995
0.999932
0.993743
0.841714
0.203128
0.00617652
0.000278143
4.71173e-05
1.7722e-05
1.10975e-05
8.28714e-06
4.75551e-06
4.00906e-06
7.23793e-06
4.24388e-07
0.999993
0.999993
0.999994
0.999994
0.999995
0.999995
0.999995
0.999995
0.999995
0.999995
0.999899
0.971712
0.553859
0.0502758
0.00192293
0.000226229
9.85277e-05
5.8405e-05
0.000161575
0.000442158
0.00186714
0.00282984
0.000376754
0.999993
0.999993
0.999994
0.999994
0.999995
0.999995
0.999995
0.999995
0.999994
0.999994
0.999966
0.990625
0.792778
0.228786
0.0121036
0.00203026
0.00205128
0.00738826
0.0260324
0.0473544
0.0863719
0.0988152
0.0372931
0.000264398
0.000851688
0.00157503
0.00123118
0.00058174
0.000202883
5.56305e-05
1.27438e-05
4.4402e-06
3.17078e-06
2.62731e-06
2.36001e-06
2.21953e-06
2.40395e-06
5.29969e-06
3.38504e-05
0.00014192
0.000262836
0.000346486
0.00026584
0.0037761
0.0167776
0.0297426
0.0248844
0.0148797
0.00804599
0.00377391
0.00100701
0.000147768
2.55965e-05
8.33207e-06
2.62044e-06
2.15675e-06
6.47515e-06
2.88832e-05
0.000144421
0.000382227
0.000483568
0.000386556
0.0262476
0.105721
0.235404
0.319954
0.306783
0.258011
0.166058
0.0790115
0.028225
0.00886953
0.00269295
0.000618574
7.85695e-05
0.000148527
0.00017307
0.000198767
0.000385421
0.000530648
0.000598323
0.113407
0.333066
0.587323
0.749195
0.783393
0.761173
0.648123
0.489117
0.316574
0.156474
0.0494413
0.0171837
0.0018864
0.000537125
0.000969415
0.000384593
0.000431611
0.000546679
0.0389681
0.29322
0.559112
0.757914
0.815707
0.824665
0.810044
0.719151
0.654907
0.541819
0.36602
0.173141
0.0451131
0.0109948
0.00139587
0.00181422
0.000713197
0.000528437
0.00192138
0.363538
0.511941
0.702924
0.793516
0.828733
0.828887
0.791661
0.787973
0.773139
0.729394
0.562037
0.311431
0.0935131
0.0226446
0.00360489
0.00247293
0.0011812
0.00107237
0.0117507
0.657361
0.700218
0.74921
0.748611
0.787807
0.827292
0.841266
0.846783
0.83243
0.792812
0.666324
0.414557
0.15178
0.0357857
0.00925797
0.00335814
0.00241762
0.00486876
0.0258142
0.680753
0.699603
0.697729
0.650346
0.677843
0.731353
0.800576
0.846592
0.819861
0.729013
0.638949
0.441705
0.200974
0.0575318
0.0196467
0.00519268
0.00495509
0.0121034
0.0258962
0.999997
0.999997
0.999997
0.999997
0.999996
0.99998
0.999971
0.999969
0.999986
0.999992
0.99999
0.998993
0.96634
0.795652
0.485473
0.29806
0.276048
0.338782
0.469275
0.574618
0.651657
0.655789
0.528016
0.999999
0.999999
0.99999
0.999817
0.999547
0.996402
0.996786
0.997869
0.998994
0.999517
0.999771
0.9998
0.998989
0.990113
0.977503
0.983352
0.979249
0.965782
0.963126
0.960089
0.958022
0.954987
0.951787
0.999999
0.999961
0.993644
0.968753
0.953971
0.885457
0.894328
0.942
0.973494
0.987419
0.994337
0.997604
0.9993
0.99964
0.99964
0.999207
0.997262
0.988573
0.966876
0.919308
0.863008
0.813218
0.778637
0.99998
0.990907
0.819579
0.614497
0.46265
0.308793
0.368734
0.527944
0.640404
0.737515
0.814612
0.882151
0.952159
0.981594
0.971108
0.906272
0.862434
0.784104
0.694394
0.606335
0.49733
0.39977
0.334676
0.997335
0.870667
0.390522
0.0905503
0.0393792
0.0628958
0.0987254
0.112121
0.143342
0.185259
0.22014
0.269349
0.355703
0.40476
0.390543
0.363755
0.376051
0.279952
0.180937
0.0965516
0.0326153
0.00870052
0.00220931
0.462502
0.3504
0.123514
0.00937794
0.000241632
0.000302699
0.000188919
0.00102275
0.00686076
0.0168075
0.0195762
0.00971247
0.00339221
0.00532511
0.0062566
0.00605534
0.00392488
0.000637479
0.000102098
1.02889e-05
1.03274e-06
2.02051e-07
6.5014e-06
0.0144966
0.0103828
0.00302826
0.000135732
9.26087e-07
3.71109e-08
1.13469e-09
7.31843e-09
1.45869e-06
1.7073e-05
1.95829e-05
2.90893e-07
5.26096e-07
7.89511e-07
8.40727e-07
2.82115e-07
4.45668e-08
7.35259e-09
3.98199e-09
1.98713e-09
2.92953e-09
1.35687e-08
5.0981e-08
2.39267e-05
2.71185e-05
7.86691e-06
4.50931e-07
1.39273e-07
2.18525e-08
1.1388e-09
5.50209e-09
3.4883e-09
2.67511e-09
2.6008e-09
2.41306e-09
2.59155e-09
9.48257e-10
5.03852e-10
1.50894e-09
5.45462e-09
1.62676e-09
2.48064e-09
1.30529e-09
1.23963e-09
5.43737e-09
1.24782e-08
1.87872e-08
1.90361e-08
2.75705e-08
3.27595e-08
2.01367e-08
6.59747e-09
1.17604e-09
5.14652e-09
5.01057e-09
2.25954e-09
2.25948e-09
2.29097e-09
3.01598e-09
1.89355e-09
4.42891e-10
9.28292e-11
2.97259e-11
1.24567e-11
9.28049e-12
2.94133e-11
5.69848e-10
1.97794e-09
4.88471e-09
1.87378e-08
1.86217e-08
1.85626e-08
1.60217e-08
3.38074e-09
3.88314e-10
9.04352e-10
5.9169e-09
6.57324e-09
3.20339e-09
2.35772e-09
3.58649e-09
5.47591e-09
3.32774e-09
6.64512e-10
1.42458e-10
2.64849e-11
1.15778e-11
7.07966e-12
6.87412e-12
6.90846e-11
7.76166e-10
1.7887e-09
3.65259e-08
3.26758e-08
2.33643e-08
1.17786e-08
1.85654e-09
3.12157e-10
1.15084e-09
5.06823e-09
5.91835e-09
3.8373e-09
2.76397e-09
4.15375e-09
5.47502e-09
1.86803e-09
1.54351e-10
3.24886e-11
1.31549e-11
5.26056e-12
3.36289e-12
3.99796e-12
8.50089e-12
1.10109e-10
7.82253e-10
5.05747e-08
3.56793e-08
1.70817e-08
3.79898e-09
1.46186e-10
1.05685e-10
5.14975e-10
2.02609e-09
3.03118e-09
3.31582e-09
5.2538e-09
6.4801e-09
4.6928e-09
6.95037e-10
1.05758e-11
1.58901e-12
6.62478e-13
5.56638e-13
8.38279e-13
1.46385e-12
2.98562e-12
6.03503e-12
1.04948e-10
4.77395e-08
2.37031e-08
8.76901e-09
4.62663e-10
3.63372e-11
3.05087e-11
5.93069e-11
4.52019e-10
1.39204e-09
3.31018e-09
4.43138e-09
2.77694e-09
4.76644e-10
8.99851e-12
8.06277e-13
1.67646e-13
7.29179e-14
8.74564e-14
2.00752e-13
4.71558e-13
1.10271e-12
2.56105e-12
6.88396e-12
2.39671e-08
1.08721e-08
9.32841e-10
2.82843e-11
1.70503e-11
1.44105e-11
1.98395e-11
6.68285e-11
3.18019e-10
1.42338e-09
1.16602e-09
3.97716e-10
1.98496e-11
1.23322e-12
1.09511e-13
1.25113e-14
8.83655e-15
1.57199e-14
4.33168e-14
1.25942e-13
3.55379e-13
9.91903e-13
3.04971e-12
6.33282e-09
9.14114e-10
2.69548e-11
1.28298e-11
7.2591e-12
6.24409e-12
8.06198e-12
1.38203e-11
1.78888e-11
9.59274e-11
4.61974e-11
2.96717e-11
3.34094e-12
4.19104e-13
3.11796e-14
1.47799e-15
1.72934e-15
3.64519e-15
9.50061e-15
2.89114e-14
9.35957e-14
3.04495e-13
1.05295e-12
1.9842e-10
1.77822e-11
9.4336e-12
4.85049e-12
2.78769e-12
2.43791e-12
3.01605e-12
4.29438e-12
5.03585e-12
8.33167e-12
7.37194e-12
4.40464e-12
9.03148e-13
1.80202e-13
2.01148e-14
9.70058e-16
3.72578e-16
8.34017e-16
2.03394e-15
5.82155e-15
1.99649e-14
7.32059e-14
2.77542e-13
6.53101e-12
5.46075e-12
2.99783e-12
1.52672e-12
9.16605e-13
8.07319e-13
9.79623e-13
1.32991e-12
1.47486e-12
2.07601e-12
1.51878e-12
8.59955e-13
2.71983e-13
6.76849e-14
9.65868e-15
5.97921e-16
7.55604e-17
1.69918e-16
4.12677e-16
1.0712e-15
3.52802e-15
1.39223e-14
5.84027e-14
2.09791e-12
1.46271e-12
7.49637e-13
3.86626e-13
2.38415e-13
2.11355e-13
2.61261e-13
3.51996e-13
3.85402e-13
4.4404e-13
3.36143e-13
1.89943e-13
7.07046e-14
1.87125e-14
2.73224e-15
1.63954e-16
1.32862e-17
3.03324e-17
7.62382e-17
1.85255e-16
5.36572e-16
2.12383e-15
9.80083e-15
4.70265e-13
2.95524e-13
1.44768e-13
7.55455e-14
4.67884e-14
4.23053e-14
5.52775e-14
7.57108e-14
8.3036e-14
8.46588e-14
6.49387e-14
3.69048e-14
1.43681e-14
3.77287e-15
5.23794e-16
2.89977e-17
1.99137e-18
4.72527e-18
1.25436e-17
3.0038e-17
7.41683e-17
2.70837e-16
1.30951e-15
8.22245e-14
4.52151e-14
2.15535e-14
1.13171e-14
6.9904e-15
6.54541e-15
9.11047e-15
1.27109e-14
1.39111e-14
1.31325e-14
9.9272e-15
5.63657e-15
2.21325e-15
5.66923e-16
7.45225e-17
3.76381e-18
2.60883e-19
6.61747e-19
1.86159e-18
4.56312e-18
9.84347e-18
3.00524e-17
1.42979e-16
1.14926e-14
5.38738e-15
2.52293e-15
1.32541e-15
8.15803e-16
7.96918e-16
1.17431e-15
1.66338e-15
1.80804e-15
1.61494e-15
1.18647e-15
6.70291e-16
2.63525e-16
6.57829e-17
8.21252e-18
3.74306e-19
3.18812e-20
8.9031e-20
2.61632e-19
6.5804e-19
1.3131e-18
3.18284e-18
1.34911e-17
1.3099e-15
5.14005e-16
2.37284e-16
1.24327e-16
7.63579e-17
7.80054e-17
1.20649e-16
1.72758e-16
1.86209e-16
1.5968e-16
1.13724e-16
6.3609e-17
2.49996e-17
6.11528e-18
7.32701e-19
3.11187e-20
3.92749e-21
1.18983e-20
3.5699e-20
9.17376e-20
1.79538e-19
3.60584e-19
1.22951e-18
1.24176e-16
4.02041e-17
1.83273e-17
9.58478e-18
5.88606e-18
6.29195e-18
1.01201e-17
1.45698e-17
1.55339e-17
1.29012e-17
8.93135e-18
4.92153e-18
1.92327e-18
4.63753e-19
5.4042e-20
2.22615e-21
4.79106e-22
1.54758e-21
4.71924e-21
1.23543e-20
2.46922e-20
4.60528e-20
1.26602e-19
9.96427e-18
2.64238e-18
1.19191e-18
6.21855e-19
3.82691e-19
4.27416e-19
7.09044e-19
1.02264e-18
1.07732e-18
8.69786e-19
5.86811e-19
3.18204e-19
1.23036e-19
2.92571e-20
3.3347e-21
1.38173e-22
5.62899e-23
1.90593e-22
5.9107e-22
1.57837e-21
3.29619e-21
6.27452e-21
1.53483e-20
6.88352e-19
1.48777e-19
6.64473e-20
3.45654e-20
2.13742e-20
2.48953e-20
4.23363e-20
6.10273e-20
6.35032e-20
4.99574e-20
3.28439e-20
1.75349e-20
6.70932e-21
1.57463e-21
1.76714e-22
7.87781e-24
6.11493e-24
2.16627e-23
6.87245e-23
1.88147e-22
4.18315e-22
8.47792e-22
1.98476e-21
4.14373e-20
7.2761e-21
3.2214e-21
1.67106e-21
1.04028e-21
1.26044e-21
2.18638e-21
3.14682e-21
3.23691e-21
2.48256e-21
1.58657e-21
8.33037e-22
3.1528e-22
7.31418e-23
8.09014e-24
4.28349e-25
6.10348e-25
2.24734e-24
7.31289e-24
2.07636e-23
4.96961e-23
1.07858e-22
2.50142e-22
2.20265e-21
3.13493e-22
1.37507e-22
7.11449e-23
4.46582e-23
5.61577e-23
9.89715e-23
1.42093e-22
1.4447e-22
1.0818e-22
6.72724e-23
3.46793e-23
1.29298e-23
2.96592e-24
3.24947e-25
2.38406e-26
5.52084e-26
2.11058e-25
7.14086e-25
2.12643e-24
5.46937e-24
1.27017e-23
3.04593e-23
1.04336e-22
1.20197e-23
5.222e-24
2.69437e-24
1.70698e-24
2.22287e-24
3.96857e-24
5.67855e-24
5.70413e-24
4.17492e-24
2.52978e-24
1.27946e-24
4.69217e-25
1.05951e-25
1.15153e-26
1.39178e-27
4.55784e-27
1.8218e-26
6.43704e-26
2.00997e-25
5.53632e-25
1.40045e-24
3.81318e-24
4.44179e-24
4.13911e-25
1.78023e-25
9.16345e-26
5.8638e-26
7.88669e-26
1.42306e-25
2.02867e-25
2.01371e-25
1.44023e-25
8.48377e-26
4.20401e-26
1.51692e-26
3.37279e-27
3.68367e-28
8.49919e-29
3.43988e-28
1.43688e-27
5.32698e-27
1.76316e-26
5.25485e-26
1.52424e-25
5.78352e-25
1.71121e-25
1.28889e-26
5.48419e-27
2.81663e-27
1.82187e-27
2.52566e-27
4.59707e-27
6.52638e-27
6.40499e-27
4.4845e-27
2.5706e-27
1.24618e-27
4.40999e-28
9.62906e-29
1.08112e-29
5.18021e-30
2.38851e-29
1.04866e-28
4.10509e-28
1.44638e-27
4.82373e-27
1.90058e-26
1.27848e-25
6.00543e-27
3.65693e-28
1.53731e-28
7.87909e-29
5.15459e-29
7.35157e-29
1.34768e-28
1.90472e-28
1.84825e-28
1.26673e-28
7.05743e-29
3.3433e-29
1.1595e-29
2.48521e-30
3.03138e-31
3.06291e-31
1.53606e-30
7.09275e-30
2.94111e-29
1.13776e-28
4.85593e-28
3.38557e-27
3.92643e-26
1.92872e-28
9.49217e-30
3.93859e-30
2.0154e-30
1.33447e-30
1.95553e-30
3.60739e-30
5.07632e-30
4.87272e-30
3.27225e-30
1.7733e-30
8.20227e-31
2.78258e-31
5.85516e-32
8.61322e-33
1.7124e-32
9.16435e-32
4.47735e-31
2.007e-30
9.3748e-30
6.68466e-29
8.71045e-28
1.39008e-26
5.69699e-30
2.26815e-31
9.27104e-32
4.73859e-32
3.17731e-32
4.77732e-32
8.86116e-32
1.24171e-31
1.17965e-31
7.76759e-32
4.09544e-32
1.84816e-32
6.12687e-33
1.27064e-33
2.65702e-34
9.01955e-34
5.11542e-33
2.6686e-32
1.37376e-31
9.77773e-31
1.36111e-29
2.62019e-28
5.00451e-27
1.55244e-31
5.00596e-33
2.01246e-33
1.02803e-33
6.98491e-34
1.07646e-33
2.00693e-33
2.80202e-33
2.63698e-33
1.70424e-33
8.75106e-34
3.85286e-34
1.24726e-34
2.57484e-35
9.18921e-36
4.4657e-35
2.68829e-34
1.5485e-33
1.0819e-32
1.4817e-31
3.3296e-30
7.88718e-29
1.7217e-27
3.91629e-33
1.0257e-34
4.04531e-35
2.0664e-35
1.42335e-35
2.24559e-35
4.20507e-35
5.85055e-35
5.46051e-35
3.46973e-35
1.73796e-35
7.47185e-36
2.36371e-36
4.97836e-37
3.46339e-37
2.0871e-36
1.35101e-35
9.43675e-35
1.15035e-33
2.80499e-32
8.12205e-31
2.21519e-29
5.45101e-28
9.16792e-35
1.95977e-36
7.56638e-37
3.86534e-37
2.69953e-37
4.35429e-37
8.18196e-37
1.13452e-36
1.05064e-36
6.57285e-37
3.21556e-37
1.3515e-37
4.18706e-38
9.49421e-39
1.34823e-38
9.28609e-38
6.71367e-37
6.82901e-36
1.5737e-34
5.37711e-33
1.81782e-31
5.5922e-30
1.54126e-28
1.99771e-36
3.50592e-38
1.32505e-38
6.7663e-39
4.79077e-39
7.88995e-39
1.48598e-38
2.0523e-38
1.88468e-38
1.16096e-38
5.55096e-39
2.28324e-39
6.95178e-40
1.87621e-40
5.19059e-40
3.96834e-39
3.49818e-38
6.18685e-37
2.26437e-35
9.37969e-34
3.6066e-32
1.24611e-30
3.83777e-29
4.07139e-38
5.90075e-40
2.19309e-40
1.11764e-40
8.02128e-41
1.34594e-40
2.53585e-40
3.4816e-40
3.16523e-40
1.91749e-40
8.95445e-41
3.60485e-41
1.08442e-41
4.05806e-42
1.93025e-41
1.66082e-40
2.07586e-39
6.44463e-38
3.06834e-36
1.44609e-34
6.23411e-33
2.42019e-31
8.36539e-30
7.81729e-40
9.45111e-42
3.47246e-42
1.76241e-42
1.2801e-42
2.18244e-42
4.10142e-42
5.58115e-42
5.00882e-42
2.97529e-42
1.35311e-42
5.3194e-43
1.6016e-43
1.00364e-43
7.17075e-43
7.9819e-42
1.75808e-40
7.83892e-39
4.1132e-37
2.07377e-35
9.73394e-34
4.18791e-32
1.62772e-30
1.42763e-41
1.46557e-43
5.32021e-44
2.6847e-44
1.96936e-44
3.39853e-44
6.35017e-44
8.5397e-44
7.53981e-44
4.37784e-44
1.93292e-44
7.39117e-45
2.29466e-45
3.11402e-45
4.15984e-44
1.07784e-42
4.19477e-41
1.83969e-39
8.2337e-38
3.68676e-36
1.63964e-34
7.2151e-33
3.00979e-31
2.49985e-43
2.21811e-45
7.94907e-46
3.98232e-46
2.94399e-46
5.12293e-46
9.48322e-46
1.2558e-45
1.08733e-45
6.15385e-46
2.62958e-46
9.77033e-47
3.6863e-47
2.59255e-46
8.98203e-45
3.68279e-43
1.53607e-41
6.31121e-40
2.54629e-38
1.01708e-36
4.0629e-35
1.64116e-33
6.68647e-32
4.21959e-45
3.28206e-47
1.16021e-47
5.76625e-48
4.29133e-48
7.51078e-48
1.37412e-47
1.78777e-47
1.51472e-47
8.33259e-48
3.43593e-48
1.26315e-48
1.75875e-48
6.17492e-47
2.72715e-45
1.17981e-43
4.95791e-42
2.02569e-40
8.11616e-39
3.21258e-37
1.26604e-35
5.02264e-34
2.03125e-32
0.473935
0.480064
0.502817
0.5302
0.945209
0.931865
0.908373
0.872974
0.751588
0.712004
0.655262
0.58744
0.333383
0.311296
0.242615
0.131423
0.0240387
0.0793964
0.079944
0.0412552
0.000212287
0.00190985
0.00405914
0.00262714
6.03952e-07
5.5899e-06
1.28282e-05
9.90199e-06
9.89889e-09
2.28649e-09
3.2586e-09
2.47828e-09
5.08021e-09
6.62265e-10
6.53114e-10
6.4142e-10
2.41561e-09
8.96941e-10
7.27078e-10
7.4766e-10
1.17498e-09
8.28737e-10
7.12707e-10
7.33505e-10
4.34773e-10
4.57961e-10
4.80323e-10
5.09092e-10
4.95036e-11
1.54283e-10
1.95838e-10
2.25749e-10
1.41175e-11
3.06535e-11
4.23017e-11
6.83395e-11
4.3866e-12
1.03634e-11
1.82746e-11
2.45284e-11
1.17366e-12
2.84409e-12
5.80057e-12
9.59516e-12
2.54086e-13
6.28482e-13
1.38211e-12
2.5659e-12
4.36863e-14
1.10039e-13
2.54162e-13
5.11111e-13
5.97356e-15
1.53538e-14
3.71356e-14
8.03051e-14
6.63662e-16
1.75714e-15
4.53453e-15
1.08909e-14
6.3269e-17
1.78812e-16
5.2427e-16
1.53861e-15
5.67918e-18
1.85424e-17
6.87521e-17
2.68395e-16
5.61001e-19
2.26862e-18
1.08838e-17
5.37941e-17
6.42321e-20
3.09782e-19
1.76586e-18
1.01265e-17
7.74053e-21
4.07637e-20
2.57227e-19
1.63043e-18
9.04981e-22
4.79946e-21
3.20394e-20
2.18406e-19
1.06774e-22
5.35187e-22
3.54427e-21
2.49226e-20
1.55048e-23
7.42308e-23
4.40716e-22
2.86726e-21
3.52962e-24
1.82665e-23
9.90416e-23
5.45645e-22
1.1876e-24
7.06239e-24
4.03133e-23
2.19719e-22
4.75139e-25
3.19352e-24
2.01532e-23
1.19903e-22
1.99207e-25
1.49699e-24
1.05286e-23
6.97751e-23
8.23046e-26
6.89721e-25
5.42134e-24
4.02801e-23
3.21649e-26
3.00348e-25
2.64081e-24
2.20531e-23
1.15104e-26
1.19694e-25
1.17752e-24
1.10642e-23
3.6626e-27
4.23021e-26
4.63422e-25
4.85771e-24
1.02303e-27
1.3096e-26
1.58978e-25
1.84017e-24
2.50048e-28
3.54489e-27
4.75135e-26
6.03224e-25
5.47896e-29
8.66106e-28
1.28906e-26
1.80092e-25
1.13403e-29
2.00774e-28
3.36652e-27
5.30724e-26
2.7052e-30
5.1701e-29
9.49081e-28
1.66137e-26
8.38675e-31
1.62286e-29
3.00167e-28
5.22899e-27
0.659206
0.641871
0.524421
0.483104
0.475034
0.517339
0.599317
0.708791
0.736419
0.720632
0.653312
0.494263
0.291014
0.115961
0.0328323
0.0108705
0.00648782
0.015121
0.0259205
0.739135
0.400301
0.0562652
0.0271713
0.0572598
0.153962
0.268474
0.360546
0.507472
0.647007
0.649853
0.551556
0.401046
0.19661
0.0475939
0.0267391
0.0127685
0.0164953
0.0306923
0.425052
0.0605622
0.000551021
1.54733e-05
7.61981e-05
0.000242643
0.00357287
0.0580767
0.153539
0.385398
0.581181
0.581699
0.52902
0.298719
0.0619658
0.0695251
0.0480623
0.0458192
0.0685739
0.0307064
0.00147658
1.35455e-05
2.98413e-06
1.11196e-05
3.07324e-05
6.08851e-05
0.000454113
0.00950262
0.0572033
0.305254
0.513014
0.529029
0.314116
0.0675828
0.116066
0.170807
0.160796
0.161168
0.00388694
4.65571e-05
2.93941e-06
2.99771e-06
1.95466e-05
9.14039e-05
0.0001811
0.000185516
0.000300757
0.000792109
0.0656734
0.346276
0.494168
0.324493
0.193847
0.217166
0.332844
0.354513
0.280469
0.000230709
6.3141e-07
3.17779e-08
1.44538e-07
6.45599e-06
0.000116305
0.000459248
0.000696459
0.000666539
0.000373966
0.0145762
0.116673
0.375687
0.407286
0.367701
0.411599
0.48811
0.495037
0.359336
1.36386e-06
9.71876e-09
1.19797e-09
2.57387e-09
7.83494e-07
6.14442e-05
0.000676842
0.00131121
0.00100558
0.000583442
0.000209468
0.00979129
0.205661
0.383606
0.464545
0.518777
0.518878
0.510327
0.36387
1.05506e-09
1.35607e-09
1.19253e-09
3.1836e-08
6.42983e-06
0.000230789
0.00159265
0.00229648
0.00178028
0.00068167
0.00019001
0.000287769
0.0590982
0.264568
0.407683
0.45746
0.504643
0.491531
0.340979
6.41245e-10
6.46405e-10
2.78628e-09
2.36138e-06
0.000154838
0.00147421
0.00333784
0.00357352
0.00219362
0.000554378
4.26809e-05
4.28837e-05
0.00344271
0.125638
0.31928
0.38379
0.405181
0.41501
0.293199
6.77159e-10
6.78598e-10
2.19086e-08
1.84828e-05
0.000703589
0.00343738
0.00491567
0.00477022
0.00215226
0.000226569
4.26871e-05
4.26828e-05
0.000574724
0.0335284
0.212633
0.284012
0.0958431
0.237267
0.272671
6.50127e-10
7.89768e-10
5.34525e-08
3.34639e-05
0.00113478
0.00491578
0.00695781
0.00640742
0.00200274
0.000111582
4.2658e-05
4.27023e-05
0.000162592
0.00797029
0.0614377
0.108967
0.0593316
0.0624114
0.251844
5.6686e-10
8.21121e-10
4.37419e-08
3.0593e-05
0.00111708
0.00556621
0.00904511
0.00935013
0.00352093
0.000127243
4.26763e-05
4.26282e-05
4.26816e-05
0.000342165
0.0061261
0.0316198
0.0658694
0.118953
0.318039
4.05751e-10
7.33289e-10
5.64557e-09
3.82741e-06
0.000320683
0.00386161
0.0111208
0.01354
0.0109835
0.00110881
4.26496e-05
4.29802e-05
4.35126e-05
5.67595e-05
0.00204367
0.0495995
0.208315
0.318582
0.343357
1.77691e-10
3.93638e-10
6.1608e-10
1.62469e-07
1.61794e-05
0.00076441
0.00722109
0.0162887
0.0193012
0.00932823
0.00106517
0.000515354
0.000740731
0.00108191
0.00294657
0.0477154
0.19383
0.327499
0.337904
5.95605e-11
1.73829e-10
2.38484e-10
3.1969e-09
9.54303e-08
3.99112e-05
0.00192556
0.0140306
0.0230165
0.0268021
0.0190814
0.0153885
0.0202736
0.0317378
0.0390854
0.0726118
0.15812
0.247037
0.307396
2.12488e-11
5.98286e-11
7.79044e-11
3.70006e-10
3.67267e-09
1.17214e-07
0.000162749
0.00495386
0.023816
0.0361899
0.0433496
0.0513623
0.0623241
0.0826536
0.0978546
0.117
0.162508
0.229498
0.250678
5.86131e-12
1.56639e-11
2.14019e-11
4.17552e-11
4.17695e-10
1.78839e-09
1.96431e-06
0.00053989
0.00887969
0.0303663
0.0455614
0.0540011
0.0701433
0.0827307
0.0954629
0.112323
0.127442
0.130162
0.122957
1.2266e-12
3.25974e-12
5.18073e-12
1.12574e-11
5.72367e-11
3.0783e-10
3.62675e-09
6.6641e-06
0.00056817
0.00560234
0.0143683
0.019978
0.0220895
0.0228138
0.0221849
0.0221766
0.0244192
0.0245717
0.0199528
2.0474e-13
5.91138e-13
1.32783e-12
4.10807e-12
1.60519e-11
5.93095e-11
3.13603e-10
1.45499e-08
4.72082e-06
0.000121322
0.0007106
0.00140588
0.00153216
0.00105896
0.000419647
0.000207574
0.000169243
0.000205009
0.000183972
3.12736e-14
1.15416e-13
4.18535e-13
1.74057e-12
6.6049e-12
1.99261e-11
5.36469e-11
8.03629e-10
5.39184e-09
4.05091e-07
3.89718e-06
6.2843e-06
4.40619e-06
1.30919e-06
2.35032e-07
8.80918e-08
7.12635e-08
9.97143e-08
3.7192e-08
5.5854e-15
2.9534e-14
1.5338e-13
7.54992e-13
3.11018e-12
1.03774e-11
2.89111e-11
9.8277e-11
2.53115e-10
1.95534e-09
1.13771e-08
9.65868e-09
1.09011e-08
6.77945e-09
2.80035e-09
1.59407e-09
9.16883e-10
3.26304e-10
3.63403e-11
1.27334e-15
8.77451e-15
5.59122e-14
3.13261e-13
1.4489e-12
5.6027e-12
1.91561e-11
5.53931e-11
1.48523e-10
3.70849e-10
7.57686e-10
2.53624e-09
4.82823e-09
3.59941e-09
1.7965e-09
1.47962e-09
1.36424e-09
5.0981e-10
3.63904e-11
3.06907e-16
2.46737e-15
1.80899e-14
1.14367e-13
6.00949e-13
2.71947e-12
1.09721e-11
3.92592e-11
1.34126e-10
4.07992e-10
9.66995e-10
1.52598e-09
2.69026e-09
2.4097e-09
1.58886e-09
2.54555e-09
2.41722e-09
9.61758e-10
3.59283e-11
6.51959e-17
5.86053e-16
4.84253e-15
3.44481e-14
2.0921e-13
1.15908e-12
6.02193e-12
2.94109e-11
1.28091e-10
4.66094e-10
1.26621e-09
1.72301e-09
2.09861e-09
1.89808e-09
1.29882e-09
2.37373e-09
2.04943e-09
7.42157e-10
1.4229e-11
1.14474e-17
1.1276e-16
1.03138e-15
8.22339e-15
5.86612e-14
4.16396e-13
3.01122e-12
1.9918e-11
1.15702e-10
5.27215e-10
1.61844e-09
2.48419e-09
2.29532e-09
1.46974e-09
1.26176e-09
2.40351e-09
1.3783e-09
1.91129e-10
8.10803e-12
1.63213e-18
1.73402e-17
1.72039e-16
1.52911e-15
1.28541e-14
1.1915e-13
1.22205e-12
1.15661e-11
1.01987e-10
6.0944e-10
2.00868e-09
3.71952e-09
2.55423e-09
1.45006e-09
1.95154e-09
2.15835e-09
2.95155e-10
2.36901e-11
5.96085e-12
1.92734e-19
2.15644e-18
2.2648e-17
2.1955e-16
2.11881e-15
2.50383e-14
3.77077e-13
6.01613e-12
9.50851e-11
7.6032e-10
2.36907e-09
3.72204e-09
2.9444e-09
1.9424e-09
2.27116e-09
6.25398e-10
2.21459e-11
4.1051e-12
5.34018e-12
2.11062e-20
2.34609e-19
2.50039e-18
2.56267e-17
2.82018e-16
4.33122e-15
1.0315e-13
2.86122e-12
7.19295e-11
6.06285e-10
2.06464e-09
3.41549e-09
3.40453e-09
2.79118e-09
1.61953e-09
3.92706e-11
2.67396e-12
3.09711e-12
5.16783e-12
3.34561e-21
3.31166e-20
3.17768e-19
3.0847e-18
3.52905e-17
6.33592e-16
1.94955e-14
7.30624e-13
1.86084e-11
1.98745e-10
1.02408e-09
2.52455e-09
3.19237e-09
2.04045e-09
4.56099e-10
5.2698e-12
2.35221e-12
2.36919e-12
4.91532e-12
1.25645e-21
1.18885e-20
1.03116e-19
8.38819e-19
7.18557e-18
8.99495e-17
2.11479e-15
7.1737e-14
2.18644e-12
3.48217e-11
2.8073e-10
1.21449e-09
1.89714e-09
1.01842e-09
5.10751e-11
1.95401e-12
1.70652e-12
1.7657e-12
4.44985e-12
7.34364e-22
7.65887e-21
7.16463e-20
5.98235e-19
4.50776e-18
3.27711e-17
3.12756e-16
6.60138e-15
2.14457e-13
4.96037e-12
6.20684e-11
3.35373e-10
8.83109e-10
3.35592e-10
4.04621e-12
2.65509e-12
1.38979e-12
1.34481e-12
3.80788e-12
4.72464e-22
5.60539e-21
5.94301e-20
5.57234e-19
4.59631e-18
3.30493e-17
2.09079e-16
1.4247e-15
2.11475e-14
5.25383e-13
9.16585e-12
8.82636e-11
2.22221e-10
5.91087e-11
4.13418e-12
2.26298e-12
1.30961e-12
1.07717e-12
3.09757e-12
3.04313e-22
4.13703e-21
5.02558e-20
5.40159e-19
5.08096e-18
4.1039e-17
2.77871e-16
1.55513e-15
7.76331e-15
6.40679e-14
1.10566e-12
9.78611e-12
3.5613e-11
8.95775e-12
3.94433e-12
2.23338e-12
1.35393e-12
9.29348e-13
2.40678e-12
1.86704e-22
2.91899e-21
4.08825e-20
5.07345e-19
5.49678e-18
5.06885e-17
3.84906e-16
2.3295e-15
1.09856e-14
4.17089e-14
1.86639e-13
1.47943e-12
5.50008e-12
4.11781e-12
2.87588e-12
1.93782e-12
1.32713e-12
8.7263e-13
1.75251e-12
1.05144e-22
1.88782e-21
3.05437e-20
4.42257e-19
5.66248e-18
6.25888e-17
5.77506e-16
4.28155e-15
2.44731e-14
1.03253e-13
3.01391e-13
6.23319e-13
1.69475e-12
2.04472e-12
1.98943e-12
1.6224e-12
1.22366e-12
8.00655e-13
1.23037e-12
5.09624e-23
1.02042e-21
1.826e-20
2.90454e-19
4.06562e-18
4.91029e-17
4.98591e-16
4.12242e-15
2.66199e-14
1.25671e-13
3.92844e-13
7.5069e-13
1.07572e-12
1.36174e-12
1.54643e-12
1.39425e-12
1.05744e-12
6.96466e-13
8.92048e-13
2.09552e-23
4.54134e-22
8.62158e-21
1.4278e-19
2.04944e-18
2.51969e-17
2.61032e-16
2.22829e-15
1.51982e-14
7.89893e-14
2.86792e-13
6.85168e-13
1.0327e-12
1.21334e-12
1.38053e-12
1.16604e-12
8.25099e-13
5.31361e-13
6.70211e-13
7.38279e-24
1.70331e-22
3.3599e-21
5.64149e-20
8.04172e-19
9.67423e-18
9.73844e-17
8.09677e-16
5.46578e-15
2.92861e-14
1.18078e-13
3.61946e-13
8.32974e-13
1.09248e-12
1.14235e-12
8.03686e-13
5.21781e-13
3.37549e-13
5.05419e-13
2.38118e-24
5.87064e-23
1.20738e-21
2.06323e-20
2.91853e-19
3.40541e-18
3.26352e-17
2.5544e-16
1.63011e-15
8.44154e-15
3.48245e-14
1.23708e-13
3.72853e-13
5.70392e-13
4.72797e-13
3.05996e-13
2.17223e-13
1.70467e-13
3.76206e-13
7.89736e-25
2.1356e-23
4.65408e-22
8.18566e-21
1.1621e-19
1.32951e-18
1.22199e-17
8.97369e-17
5.27714e-16
2.46761e-15
9.38133e-15
2.99844e-14
8.52937e-14
1.22528e-13
1.08375e-13
7.06086e-14
7.60145e-14
8.12598e-14
2.55836e-13
2.76612e-25
8.70731e-24
2.21094e-22
4.44169e-21
6.99308e-20
8.60132e-19
8.23491e-18
6.12037e-17
3.53263e-16
1.58823e-15
5.49401e-15
1.42561e-14
3.20205e-14
3.85933e-14
4.15468e-14
2.09223e-14
3.04933e-14
3.41715e-14
1.35847e-13
8.37323e-26
2.63362e-24
6.89294e-23
1.46573e-21
2.50175e-20
3.41273e-19
3.69759e-18
3.14341e-17
2.05188e-16
9.94559e-16
3.47249e-15
8.0501e-15
1.52215e-14
9.96237e-15
1.05263e-14
3.75212e-15
7.22965e-15
8.21967e-15
4.26123e-14
)
;

boundaryField
{
    leftWall
    {
        type            zeroGradient;
    }
    rightWall
    {
        type            zeroGradient;
    }
    lowerWall
    {
        type            zeroGradient;
    }
    atmosphere
    {
        type            inletOutlet;
        inletValue      uniform 0;
        value           nonuniform List<scalar> 
46
(
4.21959e-45
3.28206e-47
1.16021e-47
5.76625e-48
4.29133e-48
7.51078e-48
1.37412e-47
1.78777e-47
1.51472e-47
8.33259e-48
3.43593e-48
1.26315e-48
1.75875e-48
6.17492e-47
2.72715e-45
1.17981e-43
4.95791e-42
2.02569e-40
8.11616e-39
3.21258e-37
1.26604e-35
5.02264e-34
2.03125e-32
8.38675e-31
1.62286e-29
3.00167e-28
5.22899e-27
8.37323e-26
2.63362e-24
6.89294e-23
1.46573e-21
2.50175e-20
3.41273e-19
3.69759e-18
3.14341e-17
0
0
0
0
0
0
0
0
0
0
0
)
;
    }
    defaultFaces
    {
        type            empty;
    }
}


// ************************************************************************* //
