/*--------------------------------*- C++ -*----------------------------------*\
| =========                 |                                                 |
| \\      /  F ield         | OpenFOAM: The Open Source CFD Toolbox           |
|  \\    /   O peration     | Version:  2.4.0                                 |
|   \\  /    A nd           | Web:      www.OpenFOAM.org                      |
|    \\/     M anipulation  |                                                 |
\*---------------------------------------------------------------------------*/
FoamFile
{
    version     2.0;
    format      ascii;
    class       volScalarField;
    location    "0.7";
    object      p;
}
// * * * * * * * * * * * * * * * * * * * * * * * * * * * * * * * * * * * * * //

dimensions      [1 -1 -2 0 0 0 0];

internalField   nonuniform List<scalar> 
2268
(
3209.41
3213.01
3204.86
3218.57
3229.19
3248.49
3304.65
3402
3584.02
3889.11
4324.02
4903.48
5556.66
6115.44
6525.82
6822.9
7029.24
7161.19
7234.11
7280.7
7307.24
7319.39
7327.07
2423.04
2423.87
2424.7
2431.23
2439.56
2463.24
2510.55
2590.93
2748.13
3022.72
3473
4095.82
4795.55
5344.63
5745.51
6029.83
6245.71
6374.92
6443.75
6485.11
6509.71
6518.54
6526.73
1555.37
1553.7
1555.5
1556.81
1562.86
1585.25
1640.92
1742.38
1924.98
2271.28
2662.53
3240.48
3940.42
4569.48
4997.95
5302.32
5488.5
5604.88
5660.59
5690.22
5709.67
5717.89
5726.08
877.479
874.726
875.567
870.209
867.408
874.596
889.941
913.87
948.211
1090.57
1577.99
2388.53
3168.06
3829.19
4261.23
4539.24
4736.79
4840.95
4881.12
4892.27
4903.96
4915.97
4927.7
858.769
857.501
855.136
853.755
855.741
859.925
865.195
874.256
886.942
874.387
974.198
1255.61
2372
3116.68
3561.07
3840.87
4010.69
4091.04
4100.58
4093.91
4094.86
4105.57
4130.1
801.681
799.814
798.39
796.018
797.931
804.491
812.751
824.995
842.73
870.654
897.273
895.681
1533.29
2420.51
2851.33
3129.68
3297.17
3356.33
3324.43
3293.96
3288.55
3292.76
3335.87
723.588
720.789
717.491
712.213
709.497
711.794
719.059
730.373
742.349
762.684
810.276
842.402
963.655
1762.31
2171.65
2423.7
2588.96
2642.85
2563.51
2488.61
2469.02
2464.67
2542.29
693.925
691.617
688.618
687.05
689.535
694.187
699.619
703.218
718.674
729.702
743.689
766.842
716.054
1045.74
1438.48
1697.94
1813.97
1825.99
1718.59
1666.14
1619.71
1616.39
1744.95
3206.68
2860.22
3474.51
3556.04
3093.78
2744.13
2567.39
2478.63
2391.8
2324.71
2308.29
2373.26
2504.77
2769.52
3304.91
4068.61
5065.06
5432.69
5392.13
1644.83
1848.06
2375.38
2431.5
2060.6
1762.89
1618.36
1547.68
1466.93
1378.22
1311.01
1330.26
1365.22
1515.77
1862.83
2608.36
3786.01
4226.36
4379.64
1419.07
1514.58
1704.37
1521.99
1195.64
1068.88
996.384
952.76
925.42
915.591
923.821
949.095
991.488
1076.85
1312.63
1978.8
3274.94
3890.21
3941.65
1293.07
1274.73
1275.29
1040.1
869.075
831.829
838.373
849.418
867.322
896.241
920.603
936.236
951.789
974.094
1029.37
1226.26
2329.88
3012.47
3232.47
1173.51
1136.06
992.376
875.401
867.694
873.652
859.61
850.888
853.922
862.419
880.682
902.4
928.418
961.714
1053.14
993.516
1622.95
2125.85
2481.54
882.61
918.735
799.783
756.188
759.688
751.482
749.052
755.792
770.409
791.101
821.419
849.557
880.081
899.834
972.451
944.361
1268.35
1458.4
1749.67
589.337
711.641
666.795
664.545
693.693
706.95
715.499
722.548
737.056
747.086
773.604
802.985
836.066
859.116
902.798
877.747
995.129
1013.14
1314.68
398.207
572.331
551.983
586.521
626.363
636.874
641.426
652.856
668.458
683.382
712.351
748.173
785.126
808.456
835.882
812.907
809.861
769.257
1075.16
553.94
548.366
542.1
526.985
515.02
516.053
525.797
542.006
557.203
575.106
594.299
603.612
518.728
409.582
402.016
461.355
473.51
481.3
529.442
574.962
568.469
574.318
641.299
501.013
496.075
489.107
478.621
479.063
475.059
473.152
482.593
485.944
480.287
466.235
442.88
371.581
266.411
202.464
197.437
219.146
233.751
260.349
296.903
327.251
333.775
322.88
329.368
319.61
301.412
262.925
239.33
236.912
255.524
275.576
292.557
305.572
311.21
307.002
288.051
261.641
245.901
224.695
212.937
202.689
196.857
202.802
208.686
213.939
258.604
257.867
246.645
222.345
164.359
152.224
155.261
160.056
167.4
172.886
176.217
178.958
176.658
167.352
146.979
123.532
108.994
101.23
82.4524
65.2095
54.6336
37.1384
29.1974
26.198
147.876
149.807
123.177
56.1479
29.9179
26.7542
49.1557
73.243
84.6536
87.4484
83.0326
72.0485
63.1855
54.8858
44.351
33.5615
26.5976
18.4301
12.0307
8.06459
5.41727
5.18885
4.39877
18.6128
20.9301
15.4165
9.25014
6.66414
7.13094
8.44046
9.6905
8.56623
8.55931
8.17735
6.94236
7.77214
7.18544
4.28108
4.7363
5.49471
5.04286
4.89336
5.09732
5.463
5.55373
5.58821
4.64632
4.4609
4.37237
4.28248
4.32586
4.45559
4.5612
4.53332
4.55412
4.66031
4.70605
4.75041
4.78677
4.91669
5.11168
5.14092
5.23026
5.54545
5.84141
5.76977
5.4461
5.23888
5.38355
5.29319
5.21603
5.18621
5.01876
5.02243
5.14419
5.29208
5.35019
5.38307
5.42243
5.42628
5.42889
5.49587
5.3761
5.082
4.9603
5.02489
5.1232
5.24319
5.36624
5.40265
5.31223
5.26871
4.73689
4.7886
4.78566
4.6824
4.59192
4.68149
4.67599
4.64387
4.73501
4.69178
4.56252
4.62337
4.68618
4.7561
4.82101
4.88905
4.97517
5.10666
5.26263
5.3835
5.46175
5.47616
5.31069
4.74913
4.70981
4.71609
4.70676
4.72785
4.73023
4.73097
4.79613
4.78642
4.80827
4.87272
4.94618
4.96619
4.97415
4.94857
4.89779
4.91526
4.97282
5.05947
5.15148
5.23825
5.30789
5.21725
4.59263
4.56123
4.57499
4.5502
4.52475
4.5505
4.537
4.55886
4.57941
4.54959
4.48955
4.44975
4.51677
4.5451
4.57651
4.62523
4.68703
4.75997
4.83876
4.91629
4.97791
5.00577
4.96266
4.43779
4.42401
4.43145
4.42817
4.43201
4.43433
4.43039
4.44044
4.44803
4.46625
4.50802
4.56945
4.60065
4.61963
4.631
4.62591
4.63831
4.6614
4.694
4.72122
4.73825
4.73196
4.68648
4.29935
4.29321
4.29246
4.29024
4.28904
4.29339
4.29483
4.30311
4.3101
4.31275
4.31331
4.29988
4.3077
4.32008
4.33412
4.36263
4.39244
4.42731
4.46459
4.49527
4.50741
4.49054
4.44122
4.15629
4.15415
4.15119
4.14966
4.14928
4.15171
4.15397
4.15855
4.16301
4.1685
4.1776
4.19778
4.22344
4.24453
4.25991
4.27065
4.27818
4.28526
4.29071
4.29299
4.28798
4.26455
4.21457
4.00954
4.009
4.00649
4.0054
4.00532
4.00665
4.00833
4.01186
4.01566
4.02082
4.02825
4.03778
4.04664
4.05445
4.06343
4.07434
4.08587
4.09532
4.10034
4.09681
4.08188
4.0514
4.00108
3.86153
3.8613
3.85974
3.85913
3.85911
3.86
3.86135
3.86397
3.86712
3.87115
3.87601
3.8818
3.88789
3.89443
3.90127
3.90768
3.91266
3.91527
3.91366
3.90433
3.88462
3.85132
3.80214
3.7131
3.71295
3.71205
3.7117
3.71169
3.71228
3.7132
3.71515
3.71732
3.72014
3.72342
3.72706
3.73082
3.73466
3.73809
3.74053
3.74108
3.73852
3.73142
3.71753
3.695
3.66155
3.61571
3.56464
3.56453
3.56398
3.56372
3.56366
3.56396
3.56448
3.56563
3.56689
3.56851
3.5703
3.57218
3.57377
3.57505
3.57546
3.57451
3.57139
3.56498
3.55429
3.53764
3.51352
3.48089
3.43792
3.41622
3.4161
3.41572
3.41546
3.41527
3.41527
3.41538
3.41575
3.41615
3.41667
3.41708
3.41737
3.41719
3.41634
3.41419
3.41053
3.40459
3.39539
3.38226
3.3642
3.33954
3.30763
3.26776
3.26787
3.26773
3.26739
3.26705
3.2667
3.26637
3.26606
3.26579
3.26543
3.26494
3.26415
3.26301
3.2612
3.25849
3.25446
3.24866
3.24043
3.22935
3.21429
3.19627
3.17119
3.14046
3.10355
3.11963
3.11947
3.11911
3.11865
3.1181
3.11746
3.11672
3.11588
3.11481
3.11346
3.1117
3.10934
3.10617
3.10192
3.09633
3.089
3.07933
3.06696
3.05122
3.03182
3.00756
2.97836
2.94415
2.97152
2.97133
2.97092
2.97035
2.9696
2.96867
2.96753
2.96617
2.96449
2.9624
2.95977
2.95642
2.95218
2.94681
2.94005
2.93151
2.92083
2.90762
2.89139
2.87177
2.84822
2.82058
2.78882
2.82361
2.82338
2.8229
2.82219
2.82125
2.82007
2.8186
2.81679
2.81457
2.81185
2.80852
2.80441
2.79934
2.79309
2.78545
2.77609
2.76474
2.75102
2.73462
2.71525
2.69253
2.6664
2.63685
2.67593
2.67566
2.67512
2.67429
2.67318
2.67176
2.67
2.66783
2.66519
2.66198
2.65809
2.65339
2.64769
2.64081
2.63256
2.62267
2.61092
2.59702
2.58074
2.5618
2.54003
2.51533
2.48774
2.52852
2.52821
2.5276
2.52668
2.52542
2.52382
2.52182
2.51936
2.51639
2.5128
2.50849
2.50332
2.49718
2.48988
2.48125
2.47109
2.45918
2.44533
2.42932
2.41096
2.39016
2.36683
2.34102
2.3814
2.38108
2.38042
2.37941
2.37805
2.37629
2.3741
2.37142
2.36819
2.36432
2.35971
2.35425
2.34783
2.34029
2.33148
2.32123
2.30936
2.29571
2.28011
2.26248
2.24267
2.22064
2.19642
2.23462
2.23427
2.23358
2.23252
2.23107
2.22919
2.22687
2.22403
2.22063
2.21659
2.21181
2.2062
2.19963
2.19199
2.18314
2.17294
2.16128
2.14798
2.13296
2.11607
2.09725
2.07647
2.05371
2.08818
2.08782
2.0871
2.08599
2.08449
2.08255
2.08015
2.07723
2.07373
2.06959
2.06473
2.05906
2.05248
2.04487
2.03613
2.02616
2.01481
2.00197
1.98756
1.97147
1.95367
1.93409
1.91274
1.94211
1.94174
1.941
1.93988
1.93835
1.93638
1.93394
1.93099
1.92747
1.92332
1.91847
1.91284
1.90634
1.89889
1.89037
1.8807
1.86977
1.85749
1.84378
1.82856
1.81178
1.79338
1.77336
1.7964
1.79604
1.7953
1.79417
1.79265
1.79069
1.78826
1.78533
1.78185
1.77776
1.773
1.76749
1.76117
1.75396
1.74576
1.73649
1.72608
1.71443
1.70148
1.68715
1.6714
1.65419
1.63548
1.65107
1.6507
1.64998
1.64888
1.64738
1.64546
1.64309
1.64023
1.63684
1.63288
1.62827
1.62297
1.61691
1.61002
1.60222
1.59344
1.58361
1.57265
1.56051
1.54713
1.53245
1.51642
1.49901
1.50609
1.50575
1.50505
1.50398
1.50253
1.50068
1.4984
1.49566
1.49241
1.48862
1.48424
1.47921
1.47347
1.46697
1.45963
1.45141
1.44223
1.43204
1.42077
1.40836
1.39478
1.37996
1.36387
1.36147
1.36114
1.36048
1.35946
1.35809
1.35634
1.35418
1.3516
1.34854
1.34498
1.34086
1.33616
1.33081
1.32476
1.31796
1.31035
1.30188
1.29249
1.28213
1.27075
1.25829
1.24472
1.22997
1.21718
1.21687
1.21625
1.21531
1.21403
1.2124
1.2104
1.20799
1.20516
1.20187
1.19808
1.19376
1.18885
1.1833
1.17708
1.17014
1.16243
1.1539
1.1445
1.13418
1.1229
1.1106
1.09724
1.07321
1.07292
1.07236
1.07149
1.07032
1.06884
1.06701
1.06482
1.06225
1.05927
1.05584
1.05193
1.04749
1.0425
1.03693
1.03071
1.0238
1.01616
1.00776
0.998547
0.988476
0.977502
0.965574
0.929511
0.929253
0.928746
0.927973
0.926933
0.925608
0.923987
0.922048
0.91977
0.917127
0.914088
0.910628
0.906722
0.902334
0.897419
0.891943
0.885877
0.879186
0.871822
0.863748
0.854929
0.845318
0.834869
0.786074
0.785849
0.785406
0.784737
0.783837
0.782693
0.781292
0.779618
0.777654
0.775378
0.772769
0.769803
0.766456
0.76269
0.758474
0.753787
0.748598
0.74287
0.736572
0.729676
0.722143
0.713935
0.70501
0.642851
0.642678
0.642318
0.641749
0.641
0.640042
0.638873
0.637479
0.635846
0.633959
0.631798
0.629343
0.626581
0.623471
0.619993
0.616126
0.611839
0.607107
0.601909
0.596218
0.590004
0.583234
0.57587
0.499834
0.499681
0.4994
0.49895
0.498356
0.497599
0.496675
0.495575
0.494288
0.492802
0.491104
0.489179
0.48701
0.484575
0.481855
0.478829
0.475481
0.471789
0.467719
0.463257
0.458389
0.453088
0.447325
0.356933
0.356827
0.356624
0.356296
0.355864
0.355314
0.354644
0.353848
0.352919
0.351848
0.350627
0.349244
0.347685
0.34594
0.34399
0.341824
0.339426
0.336777
0.333856
0.330653
0.327174
0.323362
0.319219
0.214075
0.213996
0.213875
0.213678
0.21342
0.21309
0.212687
0.212208
0.21165
0.211006
0.210274
0.209447
0.208519
0.207482
0.206322
0.205029
0.203592
0.202002
0.200251
0.19833
0.196231
0.193936
0.191447
0.0713487
0.0713076
0.0712603
0.0711907
0.071107
0.070998
0.0708644
0.0707037
0.0705175
0.0703035
0.0700592
0.0697834
0.0694739
0.0691284
0.0687458
0.0683196
0.0678439
0.0673166
0.0667346
0.0660936
0.0653916
0.0646253
0.0637975
762.118
755.347
701.474
594.746
307.017
311.21
321.638
331.767
349.707
359.141
332.123
317.494
109.815
340.098
348.212
279.511
8.61896
30.4188
89.4838
84.6579
5.64162
5.91792
7.75466
10.3099
5.5652
5.49328
5.56831
5.77493
5.37938
5.36094
5.31714
5.29282
5.06943
4.90526
4.76119
4.68676
4.88476
4.67197
4.5419
4.51644
4.78687
4.66288
4.56949
4.51818
4.60028
4.53716
4.47443
4.41901
4.37393
4.32373
4.26882
4.21498
4.15354
4.1083
4.05796
4.00345
3.94581
3.90538
3.86019
3.81044
3.7526
3.71672
3.67715
3.63393
3.57112
3.53956
3.50517
3.46798
3.39822
3.37047
3.34056
3.30861
3.23226
3.20774
3.18159
3.15394
3.07158
3.04972
3.02663
3.00238
2.9152
2.89559
2.875
2.85348
2.76248
2.74472
2.72613
2.70679
2.61266
2.59641
2.57948
2.56193
2.46538
2.45042
2.43487
2.41877
2.32023
2.30637
2.29199
2.27713
2.17701
2.1641
2.15074
2.13694
2.03556
2.02349
2.01102
1.99814
1.89572
1.88442
1.87275
1.8607
1.75743
1.74684
1.7359
1.72462
1.62059
1.61069
1.60046
1.58989
1.48515
1.47593
1.4664
1.45654
1.35105
1.34252
1.33368
1.32454
1.21822
1.21039
1.20227
1.19386
1.08658
1.07948
1.07211
1.06446
0.956048
0.949698
0.943105
0.936262
0.826519
0.820951
0.815167
0.809161
0.697875
0.693117
0.688172
0.683036
0.569985
0.566061
0.561982
0.557744
0.442717
0.439644
0.43645
0.433133
0.315911
0.313708
0.311418
0.309038
0.189454
0.188124
0.186742
0.185307
0.063132
0.0626873
0.062226
0.0617466
337.34
412.211
405.556
424.516
517.188
546.228
553.767
564.563
585.006
610.014
632.335
664.589
701.388
723.111
737.793
715.252
683.213
629.699
810.058
342.582
340.679
346.285
357.25
384.31
425.366
452.364
464.871
470.821
497.377
524.498
555.976
589.907
614.162
626.455
611.968
610.214
561.612
654.361
339.781
324.811
325.703
332.486
342.871
370.056
383.561
392.535
397.651
396.994
418.041
455.07
489.48
514.69
533.789
526.882
538.639
523.906
566.733
185.032
209.674
260.023
280.642
273.008
293.375
322.599
339.532
331.933
311.687
307.711
351.482
393.255
418.11
439.626
437.884
476.762
490.208
521.334
45.6098
28.4591
40.5214
68.1687
83.4558
129.168
210.082
247.457
250.275
231.928
218.129
254.686
312.69
354.519
381.58
388.898
411.866
445.203
498.358
7.21638
6.1067
5.9728
6.62161
10.1712
30.884
82.7028
142.469
156.134
143.107
144.976
153.753
220.823
288.886
326.985
342.85
360.745
392.618
466.668
6.08763
7.01982
7.68311
7.70693
7.60767
7.63591
14.2375
51.4695
69.5323
50.9343
41.2636
43.5457
100.948
202.413
259.56
284.394
302.616
332.769
415.264
5.34764
5.68615
6.21212
7.06755
8.20663
7.50799
1.52421
7.71344
7.74561
2.3528
5.37096
6.4469
19.0326
112.474
184.31
211.744
228.709
260.95
346.943
4.74345
5.21865
5.57812
6.19416
5.33739
-3.05322
-10.31
-4.06625
-1.64075
2.52808
4.11727
4.4011
7.28625
58.1521
135.621
141.067
91.1235
167.88
277.925
4.5883
4.90848
5.19632
5.66717
2.13912
-6.19732
0.768715
-1.64896
2.33904
4.01454
4.86518
5.38554
7.74177
31.2005
85.0824
57.0804
61.6411
83.8459
236.474
4.49543
4.60732
4.72394
4.7434
3.33272
3.45456
-2.41575
-3.10286
3.76454
4.92941
5.49078
6.36361
7.98798
12.6267
31.3256
40.651
54.9125
66.8041
125.524
4.35596
4.32609
4.22746
3.79898
3.66572
1.8414
-9.3447
-2.52019
4.34311
5.39895
6.12318
7.24125
8.58526
10.1335
14.8607
31.6175
49.5461
58.1456
84.9535
4.12748
3.99522
3.78012
3.14487
3.05431
2.45759
-4.38075
-2.18458
3.98556
5.86881
6.82508
7.89818
9.32004
11.1284
13.0735
19.9051
44.8806
53.8997
77.1392
3.90583
3.74601
3.49415
3.0762
2.81059
2.86753
1.04429
-3.12449
3.27051
7.24237
7.51008
8.31594
9.43055
10.8364
13.0283
22.496
56.1995
65.6998
90.2496
3.71942
3.56783
3.35837
3.0841
2.87698
2.9586
2.86886
0.287223
0.0997257
8.36068
8.61896
8.65731
9.91785
10.8302
12.1731
26.2473
58.6447
87.3833
107.612
3.55554
3.42532
3.27025
3.10503
3.00937
3.00635
3.19187
2.69133
0.620895
4.7284
11.2878
10.2563
11.9383
12.8144
14.7708
24.6619
53.1173
93.6646
121.956
3.40133
3.29481
3.18045
3.07437
2.99899
2.99965
3.00774
2.88096
2.51262
2.2583
6.93602
5.17197
5.90325
8.34644
10.1461
18.7038
40.1223
85.0584
114.092
3.25197
3.16446
3.07404
2.98869
2.91253
2.85333
2.80818
2.70293
2.52185
2.64776
3.14679
3.40947
3.4761
4.41559
5.31712
7.04453
13.2009
38.8786
61.1372
3.10531
3.03134
2.95503
2.88003
2.80665
2.73626
2.65879
2.54228
2.3602
2.35151
2.14274
2.06647
2.15564
2.15982
1.99555
1.74438
1.31872
0.859587
0.813246
2.96
2.896
2.82945
2.7623
2.69445
2.62613
2.55208
2.46509
2.36882
2.29408
2.20414
2.25113
2.3284
2.42868
2.55295
2.75418
3.04628
3.32032
3.6299
2.81601
2.75961
2.70061
2.64034
2.57873
2.51622
2.45154
2.38286
2.31021
2.25115
2.20886
2.23664
2.31376
2.38274
2.43311
2.49499
2.66913
2.86894
3.14191
2.67321
2.62282
2.56997
2.51574
2.46017
2.40383
2.34603
2.28575
2.22853
2.17757
2.14098
2.14882
2.19289
2.27793
2.35882
2.4542
2.58736
2.68659
2.85722
2.53154
2.48599
2.43825
2.38919
2.33892
2.28816
2.23605
2.18389
2.13332
2.08533
2.05214
2.04193
2.10256
2.24827
2.35333
2.46259
2.56762
2.66055
2.76192
2.39096
2.34943
2.30592
2.26118
2.2153
2.16903
2.12134
2.07469
2.02504
1.97142
1.92749
1.88808
1.95813
2.14717
2.31954
2.45027
2.56112
2.64985
2.69041
2.2515
2.21328
2.17325
2.13201
2.08968
2.04683
2.00262
1.9589
1.90938
1.84776
1.78056
1.69673
1.79575
2.0025
2.22405
2.40407
2.55632
2.69145
2.81046
2.11315
2.0777
2.04053
2.00208
1.96254
1.92223
1.88071
1.83842
1.78953
1.72603
1.63744
1.51698
1.62665
1.79962
2.00939
2.19166
2.51919
2.66398
2.57614
1.97593
1.94284
1.90802
1.87182
1.83441
1.79597
1.75637
1.71545
1.6689
1.61292
1.51758
1.41657
1.4634
1.54523
1.64841
1.74617
1.86586
1.10016
0.0937064
1.83991
1.80885
1.77602
1.74166
1.70588
1.66877
1.63025
1.58985
1.54473
1.49633
1.41802
1.33516
1.29478
1.2627
1.20417
1.26573
1.01973
-0.0182705
0.739535
1.70512
1.67588
1.64483
1.61206
1.5776
1.54145
1.50352
1.46348
1.41982
1.37122
1.30545
1.22648
1.12467
0.992832
0.73929
0.665613
0.590832
-0.790002
2.62734
1.57162
1.54411
1.51471
1.48342
1.45016
1.41477
1.37699
1.33622
1.29183
1.24224
1.18097
1.09052
0.954741
0.775389
0.443494
0.10882
0.523778
0.512149
3.01382
1.43946
1.41365
1.3859
1.35611
1.32414
1.28969
1.25238
1.21157
1.16602
1.11269
1.05024
0.956711
0.809723
0.591303
0.282826
-0.326803
0.097468
-0.3122
0.190563
1.30868
1.2846
1.25858
1.23044
1.19995
1.16678
1.13044
1.09013
1.0446
0.991225
0.926285
0.834149
0.690289
0.471767
0.195996
-0.439158
0.08614
-0.500305
-0.178296
1.17926
1.15701
1.13284
1.10656
1.07788
1.04641
1.01169
0.972907
0.928815
0.876949
0.813848
0.727676
0.599616
0.412432
0.219306
-0.302421
0.149596
-0.405543
2.65869
1.05118
1.03087
1.00873
0.98454
0.958006
0.928735
0.896211
0.859713
0.818148
0.769545
0.709937
0.629928
0.522025
0.377082
0.262607
-0.0790133
0.0545078
-0.176965
0.790146
0.924357
0.90612
0.886187
0.864341
0.840309
0.813722
0.784103
0.750721
0.712503
0.667141
0.610569
0.536372
0.447585
0.352204
0.297024
0.100868
0.0850777
0.0989115
0.293248
0.798705
0.782662
0.7651
0.745824
0.724598
0.701113
0.67493
0.645464
0.612531
0.573164
0.526054
0.467289
0.398097
0.351457
0.333607
0.244499
0.208467
0.293494
0.529283
0.674091
0.660355
0.64531
0.628793
0.610625
0.590589
0.568437
0.543889
0.516179
0.484691
0.449944
0.411798
0.378107
0.364148
0.360174
0.33661
0.305139
0.361568
0.446638
0.550362
0.539025
0.526607
0.512985
0.498027
0.481589
0.463513
0.443691
0.421989
0.398101
0.374707
0.352811
0.342857
0.353728
0.369418
0.370359
0.339321
0.362068
0.405509
0.427356
0.418488
0.408783
0.398149
0.386507
0.373773
0.359905
0.344885
0.328813
0.311291
0.296524
0.283892
0.284212
0.300095
0.326775
0.329348
0.298733
0.29775
0.319006
0.304888
0.298531
0.291586
0.283976
0.275669
0.266616
0.256809
0.24623
0.235707
0.222566
0.213809
0.204439
0.206401
0.214314
0.226848
0.223536
0.205233
0.199426
0.211647
0.182809
0.178985
0.174808
0.170239
0.165251
0.159813
0.153894
0.147595
0.140894
0.132347
0.127387
0.117418
0.115052
0.108121
0.103916
0.10391
0.0991105
0.0971579
0.112053
0.060912
0.0596338
0.0582433
0.0567375
0.0551224
0.0534039
0.051573
0.0493372
0.0461103
0.0415326
0.0378226
0.0250294
0.0153925
-0.00539631
-0.0171456
-0.0211775
-0.0199242
-0.0136014
0.010406
)
;

boundaryField
{
    leftWall
    {
        type            fixedFluxPressure;
        gradient        uniform 0;
        value           nonuniform List<scalar> 
50
(
3209.41
2423.04
1555.37
877.479
858.769
801.681
723.588
693.925
553.94
501.013
329.368
257.867
147.876
18.6128
4.64632
5.29319
4.73689
4.74913
4.59263
4.43779
4.29935
4.15629
4.00954
3.86153
3.7131
3.56464
3.41622
3.26787
3.11963
2.97152
2.82361
2.67593
2.52852
2.3814
2.23462
2.08818
1.94211
1.7964
1.65107
1.50609
1.36147
1.21718
1.07321
0.929511
0.786074
0.642851
0.499834
0.356933
0.214075
0.0713487
)
;
    }
    rightWall
    {
        type            fixedFluxPressure;
        gradient        uniform 0;
        value           nonuniform List<scalar> 
50
(
5392.13
4379.64
3941.65
3232.47
2481.54
1749.67
1314.68
1075.16
810.058
654.361
566.733
521.334
498.358
466.668
415.264
346.943
277.925
236.474
125.524
84.9535
77.1392
90.2496
107.612
121.956
114.092
61.1372
0.813246
3.6299
3.14191
2.85722
2.76192
2.69041
2.81046
2.57614
0.0937064
0.739535
2.62734
3.01382
0.190563
-0.178296
2.65869
0.790146
0.293248
0.529283
0.446638
0.405509
0.319006
0.211647
0.112053
0.010406
)
;
    }
    lowerWall
    {
        type            fixedFluxPressure;
        gradient        nonuniform List<scalar> 
62
(
132719
132719
132719
132719
132719
132719
132719
132719
132719
132719
132719
132719
132719
132719
132719
132719
132719
132719
132719
132719
132719
132719
132718
0
0
0
0
0
0
0
0
20226.1
19825.4
18616.1
17087
0
0
0
0
0
0
0
0
32465
31300.1
31225.2
30807.9
30576
30372.3
30225.5
30311.9
30422.7
30478.1
31150.6
31315.2
31403.5
31992.4
32863.8
33175.7
32470.9
32284.8
31324.7
)
;
        value           nonuniform List<scalar> 
62
(
3607.56
3611.16
3603.01
3616.72
3627.34
3646.64
3702.79
3800.15
3982.17
4287.25
4722.17
5301.63
5954.81
6513.59
6923.97
7221.05
7427.39
7559.34
7632.26
7678.85
7705.39
7717.54
7725.22
7327.07
6526.73
5726.08
4927.7
4130.1
3335.87
2542.29
1744.95
891.181
881.852
820.263
703.778
3206.68
1644.83
1419.07
1293.07
1173.51
882.61
589.337
398.207
3304.07
2954.12
3568.18
3648.47
3185.51
2835.25
2658.06
2569.57
2483.07
2416.14
2401.74
2467.2
2598.98
2865.5
3403.49
4168.14
5162.47
5529.54
5486.1
)
;
    }
    atmosphere
    {
        type            totalPressure;
        U               U.air;
        phi             phi.air;
        rho             rho;
        psi             none;
        gamma           1;
        p0              uniform 0;
        value           nonuniform List<scalar> 
46
(
0
0
0
0
0
0
0
0
0
0
0
0
0
0
0
0
0
0
0
0
0
0
0
0
0
0
0
0
0
0
0
0
0
0
-0.000365675
-0.000647149
-0.00159941
-0.00315941
-0.0106532
-0.0182766
-0.0478154
-0.069676
-0.0911604
-0.103828
-0.103983
-0.0761911
)
;
    }
    defaultFaces
    {
        type            empty;
    }
}


// ************************************************************************* //
