/*--------------------------------*- C++ -*----------------------------------*\
| =========                 |                                                 |
| \\      /  F ield         | OpenFOAM: The Open Source CFD Toolbox           |
|  \\    /   O peration     | Version:  2.4.0                                 |
|   \\  /    A nd           | Web:      www.OpenFOAM.org                      |
|    \\/     M anipulation  |                                                 |
\*---------------------------------------------------------------------------*/
FoamFile
{
    version     2.0;
    format      ascii;
    class       surfaceScalarField;
    location    "0.7";
    object      phi;
}
// * * * * * * * * * * * * * * * * * * * * * * * * * * * * * * * * * * * * * //

dimensions      [0 3 -1 0 0 0 0];

internalField   nonuniform List<scalar> 
4432
(
1.93851e-06
-1.93851e-06
4.18506e-06
-2.24655e-06
5.53303e-06
-1.34797e-06
7.37668e-06
-1.84365e-06
9.55286e-06
-2.17618e-06
1.08059e-05
-1.25305e-06
1.15983e-05
-7.92385e-07
1.1356e-05
2.42286e-07
1.06446e-05
7.11395e-07
9.4414e-06
1.20321e-06
6.15773e-06
3.28367e-06
1.2069e-06
4.95083e-06
-4.66611e-06
5.87301e-06
-8.95387e-06
4.28776e-06
-1.09076e-05
1.95373e-06
-1.12978e-05
3.90244e-07
-1.11361e-05
-1.61735e-07
-1.04359e-05
-7.00183e-07
-9.40583e-06
-1.0301e-06
-6.97871e-06
-2.42712e-06
-4.45819e-06
-2.52052e-06
-3.42753e-06
-1.03066e-06
-3.42753e-06
1.95395e-06
-3.89246e-06
4.01687e-06
-4.30947e-06
5.716e-06
-3.0471e-06
7.57498e-06
-3.70263e-06
9.45816e-06
-4.05936e-06
1.08611e-05
-2.65599e-06
1.18971e-05
-1.82835e-06
1.24087e-05
-2.69338e-07
1.21063e-05
1.01374e-06
1.01429e-05
3.16666e-06
5.5796e-06
7.84697e-06
1.12092e-07
1.04183e-05
-5.67923e-06
1.16643e-05
-9.59549e-06
8.20403e-06
-1.11189e-05
3.47716e-06
-1.12543e-05
5.25641e-07
-1.09795e-05
-4.36569e-07
-1.02716e-05
-1.40807e-06
-8.86714e-06
-2.43454e-06
-6.61709e-06
-4.67717e-06
-4.10449e-06
-5.03312e-06
-2.30075e-06
-2.83441e-06
-5.72828e-06
1.95837e-06
-5.85083e-06
3.73975e-06
-6.09085e-06
5.95712e-06
-5.26447e-06
7.77239e-06
-5.51791e-06
9.11065e-06
-5.39761e-06
1.04947e-05
-4.04006e-06
1.14655e-05
-2.79917e-06
1.17953e-05
-5.99138e-07
1.0738e-05
2.07105e-06
9.51432e-06
4.39036e-06
6.36962e-06
1.09917e-05
1.57768e-06
1.52103e-05
-4.03505e-06
1.72771e-05
-8.4573e-06
1.26263e-05
-1.12358e-05
6.25565e-06
-1.21394e-05
1.42926e-06
-1.17705e-05
-8.05526e-07
-1.07159e-05
-2.46259e-06
-8.70262e-06
-4.44787e-06
-5.92493e-06
-7.45485e-06
-2.98286e-06
-7.9752e-06
-5.37016e-07
-5.28025e-06
-6.26529e-06
1.91317e-06
-7.764e-06
3.13026e-06
-7.30795e-06
5.89694e-06
-8.03114e-06
7.50623e-06
-7.1272e-06
7.99853e-06
-5.88991e-06
9.58521e-06
-5.62674e-06
1.13407e-05
-4.55463e-06
1.34575e-05
-2.71596e-06
1.40129e-05
1.51566e-06
1.01981e-05
8.20513e-06
4.09085e-06
1.70989e-05
-1.12796e-06
2.04291e-05
-6.07283e-06
2.22219e-05
-9.76697e-06
1.63204e-05
-1.16756e-05
8.16425e-06
-1.23832e-05
2.1369e-06
-1.18263e-05
-1.36241e-06
-1.05057e-05
-3.78317e-06
-8.33716e-06
-6.61645e-06
-6.45033e-06
-9.34169e-06
-3.75452e-06
-1.0671e-05
-7.36934e-07
-8.29784e-06
-7.00222e-06
9.35604e-07
-8.6996e-06
1.89794e-06
-8.27028e-06
2.83901e-06
-8.97221e-06
3.4497e-06
-7.73788e-06
3.41376e-06
-5.85398e-06
3.79858e-06
-6.01156e-06
4.1985e-06
-4.95455e-06
4.21523e-06
-2.73269e-06
3.01115e-06
2.71974e-06
7.54416e-07
1.04619e-05
-7.67718e-07
1.86211e-05
-7.05223e-06
2.67136e-05
-1.07706e-05
2.59403e-05
-1.29831e-05
1.85329e-05
-1.36465e-05
8.82765e-06
-1.31707e-05
1.66117e-06
-1.17439e-05
-2.7892e-06
-9.77043e-06
-5.75669e-06
-7.72502e-06
-8.66186e-06
-6.87872e-06
-1.0188e-05
-5.00822e-06
-1.25415e-05
-1.44018e-06
-1.18659e-05
-8.44241e-06
-5.19371e-08
-8.64767e-06
2.10518e-09
-8.32432e-06
-4.91615e-07
-8.47849e-06
-1.40133e-06
-6.82817e-06
-2.4224e-06
-4.83292e-06
-3.81975e-06
-4.6142e-06
-5.80242e-06
-2.97188e-06
-7.1381e-06
-1.39701e-06
-5.4637e-06
1.04534e-06
-2.37175e-06
7.36992e-06
-4.31598e-06
2.05653e-05
-1.17879e-05
3.41855e-05
-1.74726e-05
3.1625e-05
-1.82683e-05
1.93287e-05
-1.81548e-05
8.71407e-06
-1.63117e-05
-1.8189e-07
-1.2986e-05
-6.11491e-06
-9.47872e-06
-9.26397e-06
-7.16222e-06
-1.09784e-05
-6.89222e-06
-1.0458e-05
-5.80017e-06
-1.36336e-05
-2.67365e-06
-1.49924e-05
-1.11161e-05
-2.45148e-07
-8.40252e-06
-2.61288e-07
-8.30818e-06
9.91164e-08
-8.83889e-06
6.51582e-08
-6.79421e-06
-4.44986e-07
-4.32277e-06
-1.01386e-06
-4.04533e-06
-3.04772e-06
-9.38018e-07
-6.45259e-06
2.00786e-06
-1.1718e-05
6.31073e-06
-1.64735e-05
1.21254e-05
-1.79665e-05
2.20583e-05
-2.26081e-05
3.88271e-05
-2.60129e-05
3.50297e-05
-2.48009e-05
1.81167e-05
-2.33549e-05
7.26808e-06
-2.07784e-05
-2.75846e-06
-1.64193e-05
-1.0474e-05
-1.12895e-05
-1.43938e-05
-8.02167e-06
-1.42462e-05
-7.16298e-06
-1.13167e-05
-5.40915e-06
-1.53874e-05
-2.61693e-06
-1.77846e-05
-1.3733e-05
-1.12584e-07
-8.28993e-06
-1.76866e-07
-8.2439e-06
-6.71894e-07
-8.34387e-06
-1.25302e-06
-6.21309e-06
-2.14532e-06
-3.43046e-06
-4.0931e-06
-2.09755e-06
-5.37181e-06
3.40685e-07
-5.90873e-06
2.54478e-06
-5.91676e-06
6.31876e-06
-7.73864e-06
1.39473e-05
-1.3714e-05
2.80337e-05
-2.39677e-05
4.90808e-05
-3.42618e-05
4.53238e-05
-3.49525e-05
1.88074e-05
-3.35765e-05
5.89208e-06
-2.82712e-05
-8.06376e-06
-2.18272e-05
-1.69179e-05
-1.64927e-05
-1.97283e-05
-1.17483e-05
-1.89907e-05
-6.93796e-06
-1.6127e-05
-3.82867e-06
-1.84967e-05
-1.55896e-06
-2.00543e-05
-1.5292e-05
-1.92616e-05
1.92616e-05
-1.19628e-05
-7.29879e-06
1.09782e-05
-2.29411e-05
3.01828e-05
-1.92045e-05
4.1008e-05
-1.08253e-05
4.72604e-05
-6.25233e-06
5.30585e-05
-5.79816e-06
5.88248e-05
-5.76633e-06
6.3746e-05
-4.92112e-06
6.69496e-05
-3.20365e-06
6.80792e-05
-1.12955e-06
6.79291e-05
1.50062e-07
6.58552e-05
2.07391e-06
5.88368e-05
7.01836e-06
4.65688e-05
1.2268e-05
2.69458e-05
1.96231e-05
5.58505e-06
2.13607e-05
-5.11171e-06
1.06968e-05
-5.1117e-06
-7.95493e-06
2.72165e-05
1.31663e-05
-2.842e-05
3.04431e-05
-4.02178e-05
4.12541e-05
-3.00155e-05
4.79109e-05
-1.74821e-05
5.19721e-05
-1.03135e-05
5.53393e-05
-9.16542e-06
5.86357e-05
-9.06264e-06
6.26523e-05
-8.93779e-06
6.48049e-05
-5.35618e-06
6.53578e-05
-1.68244e-06
6.62918e-05
-7.83973e-07
6.77075e-05
6.58244e-07
6.76124e-05
7.1134e-06
5.96386e-05
2.02418e-05
4.08045e-05
3.84572e-05
1.91957e-05
4.29696e-05
-9.18165e-07
3.08106e-05
-6.02987e-06
-1.72952e-06
2.8946e-05
2.67258e-05
-5.68753e-05
4.57498e-05
-5.92419e-05
5.94405e-05
-4.37062e-05
6.01092e-05
-1.81508e-05
6.07807e-05
-1.0985e-05
6.07719e-05
-9.15665e-06
5.85607e-05
-6.85141e-06
5.56367e-05
-6.01383e-06
5.27207e-05
-2.44017e-06
4.8688e-05
2.35024e-06
4.49383e-05
2.96575e-06
4.31501e-05
2.44648e-06
4.51519e-05
5.11158e-06
4.45738e-05
2.08199e-05
3.59582e-05
4.70728e-05
1.71087e-05
6.1819e-05
-1.8767e-06
4.9796e-05
-7.90656e-06
1.80467e-05
1.08993e-05
3.75586e-05
-7.63872e-05
5.28745e-05
-7.45578e-05
6.15803e-05
-5.24119e-05
6.25071e-05
-1.90776e-05
6.23491e-05
-1.0827e-05
6.02787e-05
-7.08627e-06
5.84348e-05
-5.00756e-06
5.53709e-05
-2.94993e-06
5.21756e-05
7.55171e-07
4.76666e-05
6.85924e-06
4.17239e-05
8.90845e-06
3.61529e-05
8.01744e-06
2.69622e-05
1.43023e-05
2.12851e-05
2.6497e-05
1.51716e-05
5.31863e-05
1.26308e-05
6.43598e-05
-1.07193e-06
6.34988e-05
-8.9785e-06
3.78794e-05
-2.69801e-05
4.19639e-05
-8.04716e-05
4.6085e-05
-7.86789e-05
4.52361e-05
-5.1563e-05
4.81561e-05
-2.19977e-05
5.25453e-05
-1.52161e-05
5.60942e-05
-1.06352e-05
5.81973e-05
-7.11064e-06
5.91616e-05
-3.91419e-06
5.82048e-05
1.71198e-06
5.40859e-05
1.09781e-05
4.44482e-05
1.85462e-05
3.04573e-05
2.20083e-05
1.98787e-05
2.48808e-05
5.09266e-06
4.12831e-05
-5.63486e-06
6.39138e-05
3.32393e-06
5.5401e-05
4.22428e-07
6.64003e-05
-8.55607e-06
3.33489e-05
-6.0329e-05
3.9124e-05
-8.62468e-05
3.95412e-05
-7.90961e-05
3.80188e-05
-5.00406e-05
4.09856e-05
-2.49645e-05
4.23694e-05
-1.65999e-05
4.47343e-05
-1.30001e-05
4.85978e-05
-1.09741e-05
5.16414e-05
-6.95782e-06
5.31237e-05
2.29744e-07
5.19655e-05
1.21363e-05
4.51332e-05
2.53785e-05
3.18742e-05
3.52673e-05
1.82632e-05
3.84918e-05
2.54472e-07
5.92918e-05
-1.43844e-05
7.85527e-05
-1.18028e-05
5.28195e-05
-8.13013e-07
5.54105e-05
-9.36908e-06
2.80356e-05
-8.83646e-05
3.56864e-05
-9.38976e-05
3.4742e-05
-7.81518e-05
3.27543e-05
-4.80529e-05
3.52866e-05
-2.74969e-05
3.71874e-05
-1.85007e-05
3.93864e-05
-1.51992e-05
4.09656e-05
-1.25533e-05
4.338e-05
-9.37223e-06
4.63564e-05
-2.74663e-06
4.75214e-05
1.09713e-05
4.33504e-05
2.95494e-05
3.3034e-05
4.55837e-05
1.77876e-05
5.37383e-05
4.94422e-07
7.6585e-05
-1.16044e-05
9.06515e-05
-1.79597e-05
5.91748e-05
-6.41389e-06
4.38647e-05
-1.5783e-05
2.96002e-05
-0.000117965
3.46354e-05
-9.89328e-05
3.16173e-05
-7.51336e-05
3.0074e-05
-4.65096e-05
3.32371e-05
-3.06599e-05
3.55961e-05
-2.08597e-05
3.70939e-05
-1.6697e-05
3.75515e-05
-1.30109e-05
3.73195e-05
-9.14016e-06
3.77909e-05
-3.21808e-06
3.96073e-05
9.15498e-06
3.87531e-05
3.04036e-05
3.55394e-05
4.87974e-05
2.3701e-05
6.55767e-05
1.3297e-05
8.6989e-05
-1.20279e-06
0.000105151
-1.6546e-05
7.4518e-05
-1.09809e-05
3.82995e-05
-2.67639e-05
-9.81449e-07
-7.30848e-06
-2.90887e-07
-8.93446e-06
4.11588e-06
-1.27506e-05
7.89275e-06
-9.98996e-06
7.12054e-06
-2.65826e-06
4.38813e-06
6.34861e-07
-2.36555e-06
7.09437e-06
-1.33075e-05
1.34867e-05
-2.60834e-05
1.90947e-05
-3.46152e-05
2.24791e-05
-3.33433e-05
2.67618e-05
-2.41078e-05
3.98453e-05
-3.22809e-05
5.34969e-05
-5.01097e-05
3.66362e-05
-5.32793e-05
9.06166e-06
-4.8924e-05
-1.2419e-05
-4.66541e-05
-1.91878e-05
-4.13909e-05
-2.49915e-05
-3.01183e-05
-3.02632e-05
-1.03312e-05
-3.59141e-05
2.01319e-06
-3.0841e-05
5.99357e-06
-2.40347e-05
-1.88311e-05
9.53274e-06
1.18342e-06
-8.49191e-06
2.2882e-06
-1.00392e-05
3.57146e-06
-1.40339e-05
3.64963e-06
-1.00681e-05
4.06153e-06
-3.07015e-06
3.8413e-06
8.55085e-07
1.44074e-06
9.49493e-06
-4.57444e-07
1.53849e-05
-1.40758e-06
2.00448e-05
-3.36021e-06
2.44317e-05
-4.20504e-06
2.76066e-05
5.42609e-06
3.02142e-05
2.4157e-05
3.47659e-05
3.41001e-05
2.66931e-05
3.4618e-05
8.54376e-06
2.79923e-05
-5.79328e-06
2.41262e-05
-1.53217e-05
2.54412e-05
-2.63064e-05
3.30833e-05
-3.79053e-05
4.08006e-05
-4.36315e-05
4.99042e-05
-3.99446e-05
5.91012e-05
-3.32316e-05
-2.66502e-05
6.69203e-05
-3.97783e-06
-4.51408e-06
-4.184e-06
-9.83307e-06
5.47609e-06
-2.3694e-05
1.32113e-05
-1.78033e-05
1.18806e-05
-1.73947e-06
2.64001e-06
1.00957e-05
-6.63016e-06
1.87651e-05
-1.25416e-05
2.12964e-05
-1.45399e-05
2.20431e-05
-1.36903e-05
2.35821e-05
-9.74092e-06
2.36573e-05
-1.52152e-06
2.19948e-05
1.22874e-05
2.0957e-05
2.41843e-05
1.47962e-05
3.36326e-05
-9.04549e-07
4.31758e-05
-1.53365e-05
5.22838e-05
-2.44297e-05
5.93889e-05
-3.34115e-05
6.20292e-05
-4.05456e-05
6.38399e-05
-4.54422e-05
6.86552e-05
-4.476e-05
7.15096e-05
-3.6086e-05
-1.88296e-05
6.3689e-05
-9.31715e-06
4.80307e-06
-8.84225e-06
-1.0308e-05
-3.84819e-06
-2.8688e-05
-1.02938e-05
-1.13578e-05
-1.83415e-05
6.30823e-06
-2.27837e-05
1.45379e-05
-2.25379e-05
1.85193e-05
-2.33202e-05
2.20787e-05
-2.17727e-05
2.04956e-05
-2.11512e-05
2.29606e-05
-1.77073e-05
2.02134e-05
-1.10732e-05
1.53606e-05
6.83315e-07
9.20054e-06
1.37623e-05
1.71721e-06
2.20684e-05
-9.21063e-06
2.93694e-05
-2.26375e-05
3.65341e-05
-3.15945e-05
4.53664e-05
-4.22438e-05
5.15983e-05
-4.67775e-05
5.71861e-05
-5.103e-05
6.33357e-05
-5.09096e-05
6.91093e-05
-4.18596e-05
6.01997e-06
4.42597e-05
-1.5772e-05
2.05751e-05
-3.51669e-05
9.08691e-06
-7.0032e-05
6.17705e-06
-0.000104289
2.28994e-05
-0.000116857
1.88765e-05
-0.000112736
1.04162e-05
-9.54491e-05
1.23264e-06
-7.58335e-05
2.46305e-06
-6.01305e-05
4.79266e-06
-4.82032e-05
1.10332e-05
-3.99457e-05
1.19559e-05
-3.11535e-05
6.5685e-06
-1.82536e-05
-3.69944e-06
-5.58662e-06
-1.09497e-05
5.47835e-06
-2.02756e-05
1.29464e-05
-3.01055e-05
1.78324e-05
-3.64805e-05
2.32073e-05
-4.76186e-05
2.83889e-05
-5.19591e-05
3.8156e-05
-6.0797e-05
3.3018e-05
-4.57715e-05
1.87946e-05
-2.76362e-05
8.66868e-05
-6.18718e-05
-1.92205e-05
3.97956e-05
-5.31283e-05
4.29947e-05
-9.03933e-05
4.34421e-05
-0.000117286
4.97916e-05
-0.000134995
3.65858e-05
-0.000141917
1.73381e-05
-0.000121238
-1.94463e-05
-0.000103
-1.57747e-05
-9.41873e-05
-4.02017e-06
-8.65904e-05
3.43637e-06
-7.80944e-05
3.4599e-06
-7.03367e-05
-1.18923e-06
-5.61848e-05
-1.78513e-05
-4.10158e-05
-2.61188e-05
-4.0712e-05
-2.05793e-05
-4.25009e-05
-2.83166e-05
-4.4007e-05
-3.49745e-05
-4.48425e-05
-4.67831e-05
-6.02784e-05
-3.65231e-05
-8.78761e-05
-3.31991e-05
-6.71465e-05
-6.65011e-05
-7.01194e-05
-2.46633e-05
0.000134178
-0.000117611
-3.40625e-06
4.32019e-05
-4.85142e-05
8.81027e-05
-8.72762e-05
8.2204e-05
-0.000111003
7.35189e-05
-7.74899e-05
3.07223e-06
-3.64421e-06
-5.65075e-05
3.96401e-05
-6.27306e-05
5.17467e-05
-2.78813e-05
1.60218e-05
3.17047e-05
-2.37959e-05
4.3254e-05
-3.60616e-05
1.57257e-05
-5.36095e-05
1.63587e-05
-8.3206e-05
1.17452e-05
-0.000128053
1.87281e-05
-0.000162823
1.41909e-05
-0.000177379
-1.3761e-05
-0.000178447
-3.39065e-05
-0.000160628
-6.46017e-05
-0.000126123
-7.10276e-05
-8.9865e-05
-6.94575e-05
-0.000101096
-5.52698e-05
-0.000147541
2.17817e-05
0.000190632
-0.000203996
2.50544e-07
4.29513e-05
3.15588e-06
8.51974e-05
-2.21212e-06
8.7572e-05
7.28443e-06
6.40224e-05
2.26831e-05
-1.23264e-05
1.24809e-05
-4.63054e-05
-1.29281e-05
-3.73215e-05
-3.34958e-05
-7.31361e-06
-4.58693e-05
4.40782e-05
-6.26317e-05
6.00164e-05
-6.90196e-05
2.21136e-05
-5.26717e-05
1.07665e-08
-1.77844e-05
-2.31421e-05
1.7066e-05
-1.61223e-05
3.37895e-05
-2.53253e-06
3.24227e-05
-1.23943e-05
2.20928e-05
-2.35766e-05
-5.4173e-06
-3.70916e-05
-4.485e-05
-3.15948e-05
-9.54272e-05
-1.88802e-05
-0.00015679
6.09333e-06
-0.000203158
6.81499e-05
0.000205995
-0.000218521
-2.80603e-05
7.10117e-05
-2.938e-06
6.0075e-05
2.52416e-05
5.93924e-05
5.24756e-05
3.67885e-05
4.52499e-05
-5.10074e-06
4.2691e-05
-4.37465e-05
3.95912e-05
-3.42218e-05
3.02043e-06
2.92572e-05
-7.12131e-06
5.422e-05
4.64445e-07
5.24306e-05
-1.6119e-05
3.8697e-05
-2.56567e-05
9.54846e-06
-2.54853e-05
-2.33136e-05
-2.1519e-05
-2.00886e-05
-2.24315e-05
-1.62002e-06
-2.67754e-05
-8.05037e-06
-3.43914e-05
-1.59607e-05
-4.91722e-05
-2.23108e-05
-6.94626e-05
-1.13044e-05
-9.61833e-05
7.84055e-06
-0.000136019
4.59295e-05
-0.000173901
0.000106032
0.000208258
-0.000176164
-1.3078e-05
8.40897e-05
-4.67914e-06
5.16761e-05
1.14195e-05
4.32938e-05
2.62197e-05
2.19883e-05
3.13275e-05
-1.02086e-05
1.27951e-05
-2.5214e-05
2.66721e-06
-2.40939e-05
-7.24285e-07
3.26487e-05
-9.13113e-06
6.26268e-05
-1.60001e-05
5.92996e-05
-1.32883e-05
3.59853e-05
3.41469e-06
-7.15457e-06
-5.67399e-06
-1.42249e-05
-8.31192e-06
-1.74506e-05
3.92404e-06
-1.3856e-05
8.53686e-06
-1.26632e-05
3.36749e-06
-1.07913e-05
-1.27006e-05
-6.24268e-06
-3.30578e-05
9.0529e-06
-6.01827e-05
3.49655e-05
-8.56858e-05
7.14326e-05
-9.7148e-05
0.000117494
0.000182295
-7.11849e-05
2.67511e-06
8.14146e-05
9.55603e-06
4.47952e-05
2.25323e-05
3.03175e-05
3.22997e-05
1.22209e-05
2.13151e-05
7.76064e-07
5.18977e-06
-9.08874e-06
-6.2964e-06
-1.26077e-05
2.10227e-06
2.425e-05
1.72553e-05
4.74738e-05
3.70081e-05
3.95467e-05
5.04222e-05
2.25712e-05
3.10542e-05
1.22134e-05
1.15813e-05
5.24801e-06
-2.22241e-06
-3.64694e-06
-1.25187e-05
-3.5597e-06
-2.23271e-05
-2.85474e-06
-3.32018e-05
8.337e-08
-4.46536e-05
5.2092e-06
-5.53011e-05
1.97004e-05
-6.09991e-05
4.06635e-05
-6.08754e-05
7.13089e-05
-4.98908e-05
0.000106509
0.000144605
-1.22011e-05
1.42958e-05
6.71188e-05
1.68593e-05
4.22317e-05
2.01525e-05
2.70243e-05
1.6779e-05
1.55944e-05
1.06689e-05
6.8862e-06
4.28822e-07
1.15129e-06
-1.03113e-05
-1.8676e-06
-7.04649e-07
1.46433e-05
1.70724e-05
2.96968e-05
2.14778e-05
3.51413e-05
1.36171e-05
3.04319e-05
8.16376e-06
1.76668e-05
2.91985e-06
1.04919e-05
-4.87787e-06
4.15081e-06
-9.84707e-06
1.4095e-06
-1.54412e-05
2.73939e-06
-2.20047e-05
6.64691e-06
-3.11245e-05
1.4329e-05
-3.97048e-05
2.82807e-05
-4.60863e-05
4.7045e-05
-4.52642e-05
7.04869e-05
-3.28032e-05
9.40481e-05
0.000117482
-5.68012e-06
1.46568e-05
5.2462e-05
1.78844e-05
3.9004e-05
1.89822e-05
2.59265e-05
1.6967e-05
1.76096e-05
1.11246e-05
1.27286e-05
1.84376e-06
1.04321e-05
-8.80359e-06
8.77975e-06
-9.49652e-06
1.53362e-05
-2.73825e-07
2.04741e-05
7.1517e-06
2.77157e-05
9.21624e-06
2.83673e-05
4.01391e-06
2.28692e-05
-2.83786e-06
1.73437e-05
-1.11151e-05
1.24281e-05
-2.00503e-05
1.03447e-05
-2.85188e-05
1.12079e-05
-3.64292e-05
1.45573e-05
-4.26848e-05
2.05846e-05
-4.53401e-05
3.0936e-05
-4.40235e-05
4.57284e-05
-3.84832e-05
6.49466e-05
-2.79863e-05
8.35513e-05
9.91411e-05
-9.6452e-06
9.9174e-06
4.25446e-05
1.4598e-05
3.43235e-05
1.50015e-05
2.5523e-05
1.21055e-05
2.05055e-05
7.34709e-06
1.74871e-05
1.97159e-06
1.58076e-05
-4.37415e-06
1.51255e-05
-7.14482e-06
1.81069e-05
-6.62091e-06
1.99502e-05
-3.746e-06
2.48408e-05
-2.71908e-06
2.73404e-05
-5.44701e-06
2.55971e-05
-9.49305e-06
2.13897e-05
-1.42104e-05
1.71455e-05
-1.87232e-05
1.48575e-05
-2.2864e-05
1.53487e-05
-2.74953e-05
1.91886e-05
-3.27273e-05
2.58166e-05
-3.70062e-05
3.5215e-05
-3.73596e-05
4.60818e-05
-3.22241e-05
5.98111e-05
-2.25237e-05
7.3851e-05
8.5345e-05
-8.72768e-06
5.80495e-06
3.67396e-05
9.4877e-06
3.06407e-05
9.51302e-06
2.54977e-05
7.55236e-06
2.24661e-05
4.77512e-06
2.02643e-05
1.47963e-06
1.91031e-05
-2.06293e-06
1.8668e-05
-4.00962e-06
2.00536e-05
-5.12265e-06
2.10632e-05
-4.55673e-06
2.42749e-05
-3.37151e-06
2.61552e-05
-3.69457e-06
2.59202e-05
-5.89051e-06
2.35857e-05
-1.00829e-05
2.13379e-05
-1.51928e-05
1.99675e-05
-1.98543e-05
2.00101e-05
-2.34068e-05
2.2741e-05
-2.59206e-05
2.83304e-05
-2.72019e-05
3.64964e-05
-2.67215e-05
4.56014e-05
-2.26664e-05
5.57559e-05
-1.51306e-05
6.63153e-05
7.51566e-05
-4.94221e-06
3.49684e-06
3.32428e-05
5.65703e-06
2.84805e-05
5.64815e-06
2.55066e-05
4.67957e-06
2.34347e-05
3.14461e-06
2.17993e-05
1.33319e-06
2.09145e-05
-5.23467e-07
2.05247e-05
-1.80068e-06
2.13308e-05
-2.80238e-06
2.20649e-05
-2.68431e-06
2.41568e-05
-2.06395e-06
2.55348e-05
-1.75806e-06
2.56143e-05
-2.62153e-06
2.44492e-05
-4.81819e-06
2.35345e-05
-7.87413e-06
2.30234e-05
-1.14721e-05
2.36081e-05
-1.47499e-05
2.60188e-05
-1.70557e-05
3.06362e-05
-1.80251e-05
3.74658e-05
-1.73578e-05
4.49342e-05
-1.37705e-05
5.21686e-05
-7.32515e-06
5.987e-05
6.69412e-05
8.90235e-07
2.08186e-06
3.11609e-05
3.45047e-06
2.71119e-05
3.66788e-06
2.52892e-05
3.21681e-06
2.38858e-05
2.32723e-06
2.26889e-05
1.26504e-06
2.19767e-05
1.25531e-07
2.16642e-05
-6.70842e-07
2.21272e-05
-1.27203e-06
2.26661e-05
-1.14462e-06
2.40294e-05
-6.29263e-07
2.50195e-05
-2.29781e-07
2.52148e-05
-5.31726e-07
2.47511e-05
-1.71237e-06
2.47152e-05
-3.5788e-06
2.48899e-05
-6.09716e-06
2.61265e-05
-8.73474e-06
2.86564e-05
-1.06168e-05
3.25183e-05
-1.10224e-05
3.78714e-05
-1.02188e-05
4.41306e-05
-7.37785e-06
4.93276e-05
-1.79463e-06
5.42868e-05
5.95899e-05
5.55663e-06
1.30789e-06
2.9853e-05
2.29233e-06
2.61274e-05
2.62946e-06
2.4952e-05
2.48889e-06
2.40263e-05
1.92495e-06
2.32528e-05
1.14527e-06
2.27563e-05
2.42778e-07
2.25667e-05
-4.52642e-07
2.28226e-05
-1.0015e-06
2.3215e-05
-9.19811e-07
2.39477e-05
-4.55484e-07
2.45552e-05
-1.68137e-07
2.49275e-05
-5.27847e-07
2.51108e-05
-1.45659e-06
2.56439e-05
-2.98691e-06
2.64202e-05
-4.97827e-06
2.81179e-05
-6.52803e-06
3.02062e-05
-7.10819e-06
3.30984e-05
-6.64101e-06
3.74042e-05
-4.99486e-06
4.24844e-05
-2.00457e-06
4.63374e-05
3.01709e-06
4.92651e-05
5.28973e-05
9.70972e-06
9.1704e-07
2.8936e-05
1.66317e-06
2.53813e-05
1.9247e-06
2.46905e-05
1.81336e-06
2.41377e-05
1.36833e-06
2.36978e-05
7.11437e-07
2.34132e-05
-8.90487e-09
2.3287e-05
-6.32173e-07
2.34459e-05
-1.12772e-06
2.37105e-05
-1.29097e-06
2.4111e-05
-1.27633e-06
2.45405e-05
-1.34847e-06
2.49996e-05
-1.74796e-06
2.55104e-05
-2.31709e-06
2.62131e-05
-3.20633e-06
2.73095e-05
-4.10609e-06
2.90176e-05
-4.58253e-06
3.06826e-05
-4.40754e-06
3.29235e-05
-3.41862e-06
3.64153e-05
-1.15995e-06
4.02258e-05
2.36552e-06
4.28119e-05
7.01925e-06
4.46114e-05
4.71739e-05
1.27426e-05
6.9721e-07
2.82388e-05
1.119e-06
2.49595e-05
1.25085e-06
2.45586e-05
1.19723e-06
2.41913e-05
9.62878e-07
2.39322e-05
6.03334e-07
2.37728e-05
1.69253e-07
2.37211e-05
-2.64701e-07
2.38798e-05
-6.58138e-07
2.4104e-05
-9.31211e-07
2.43841e-05
-1.06998e-06
2.46793e-05
-1.2548e-06
2.51845e-05
-1.59317e-06
2.58487e-05
-1.91038e-06
2.65303e-05
-2.13936e-06
2.75384e-05
-1.93753e-06
2.88158e-05
-1.64462e-06
3.03897e-05
-1.1659e-06
3.24447e-05
2.42118e-07
3.50073e-05
2.79109e-06
3.76768e-05
6.13095e-06
3.94721e-05
1.02743e-05
4.04681e-05
4.21656e-05
1.52826e-05
4.71042e-07
2.77677e-05
7.65269e-07
2.46653e-05
9.3621e-07
2.43877e-05
9.87215e-07
2.41403e-05
9.37081e-07
2.39823e-05
8.14237e-07
2.38956e-05
6.20762e-07
2.39146e-05
4.21882e-07
2.40787e-05
2.02411e-07
2.43234e-05
-5.82719e-08
2.46448e-05
-2.96508e-07
2.49175e-05
-4.61941e-07
2.53499e-05
-6.26785e-07
2.60136e-05
-7.1805e-07
2.66216e-05
-5.90481e-07
2.74109e-05
-2.04887e-07
2.84302e-05
2.64641e-07
2.99202e-05
1.0396e-06
3.16698e-05
2.59071e-06
3.34562e-05
4.92192e-06
3.53456e-05
7.88733e-06
3.65067e-05
1.13626e-05
3.69929e-05
3.80177e-05
1.55105e-05
3.52509e-07
2.74152e-05
6.39526e-07
2.43783e-05
8.41641e-07
2.41855e-05
9.0673e-07
2.40752e-05
9.15342e-07
2.39737e-05
8.72685e-07
2.39383e-05
8.11163e-07
2.39761e-05
7.88695e-07
2.41012e-05
8.02694e-07
2.43094e-05
7.87547e-07
2.46599e-05
7.07646e-07
2.49975e-05
7.18807e-07
2.53387e-05
8.61133e-07
2.58713e-05
9.98779e-07
2.64839e-05
1.17821e-06
2.72315e-05
1.46964e-06
2.81388e-05
2.1899e-06
2.91999e-05
3.44644e-06
3.04133e-05
5.14221e-06
3.17604e-05
7.41414e-06
3.30737e-05
1.01709e-05
3.375e-05
1.31095e-05
3.40542e-05
3.47689e-05
1.63584e-05
3.11259e-07
2.71039e-05
4.98768e-07
2.41907e-05
6.17193e-07
2.40671e-05
6.88087e-07
2.40043e-05
7.20382e-07
2.39414e-05
7.23864e-07
2.39348e-05
7.22834e-07
2.39771e-05
7.44123e-07
2.40799e-05
7.94329e-07
2.42592e-05
8.8641e-07
2.45678e-05
9.5025e-07
2.49336e-05
1.03985e-06
2.52492e-05
1.27632e-06
2.56348e-05
1.61938e-06
2.61409e-05
2.05157e-06
2.67993e-05
2.52616e-06
2.76642e-05
3.24165e-06
2.84844e-05
4.37235e-06
2.92825e-05
5.93969e-06
3.01931e-05
8.00432e-06
3.10091e-05
1.04396e-05
3.13147e-05
1.30341e-05
3.14597e-05
3.18009e-05
1.60021e-05
2.51185e-07
2.68527e-05
4.20453e-07
2.40215e-05
5.55571e-07
2.3932e-05
6.68024e-07
2.38918e-05
7.34943e-07
2.38745e-05
7.74637e-07
2.38951e-05
8.02823e-07
2.3949e-05
8.45079e-07
2.40377e-05
9.11667e-07
2.41927e-05
1.02565e-06
2.44539e-05
1.19014e-06
2.47691e-05
1.3646e-06
2.50747e-05
1.57856e-06
2.54209e-05
1.92081e-06
2.57986e-05
2.42792e-06
2.62922e-05
3.2617e-06
2.68304e-05
4.34635e-06
2.73998e-05
5.5316e-06
2.80973e-05
7.04444e-06
2.86802e-05
8.97243e-06
2.90811e-05
1.10157e-05
2.92714e-05
1.32166e-05
2.92589e-05
2.90397e-05
1.59777e-05
2.74047e-07
2.65787e-05
4.56521e-07
2.3839e-05
6.05333e-07
2.37832e-05
7.30129e-07
2.3767e-05
8.33927e-07
2.37707e-05
9.32066e-07
2.3797e-05
1.03147e-06
2.38496e-05
1.12833e-06
2.39408e-05
1.22824e-06
2.40927e-05
1.3967e-06
2.42854e-05
1.67101e-06
2.44948e-05
1.98813e-06
2.47576e-05
2.33467e-06
2.50743e-05
2.71181e-06
2.54215e-05
3.24268e-06
2.57613e-05
3.93305e-06
2.61401e-05
4.7248e-06
2.6608e-05
5.83324e-06
2.69889e-05
7.31223e-06
2.72012e-05
9.00725e-06
2.73861e-05
1.08145e-05
2.74642e-05
1.28727e-05
2.72006e-05
2.66326e-05
1.52798e-05
2.17989e-07
2.63607e-05
3.81522e-07
2.36755e-05
5.45726e-07
2.3619e-05
6.92002e-07
2.36208e-05
8.2188e-07
2.36408e-05
9.42722e-07
2.36761e-05
1.06597e-06
2.37263e-05
1.19804e-06
2.38088e-05
1.35842e-06
2.39324e-05
1.5541e-06
2.40897e-05
1.7727e-06
2.42762e-05
2.05472e-06
2.44756e-05
2.46658e-06
2.46625e-05
2.93034e-06
2.49577e-05
3.46775e-06
2.52239e-05
4.1833e-06
2.54245e-05
5.16155e-06
2.56298e-05
6.3792e-06
2.57712e-05
7.65789e-06
2.59225e-05
9.0812e-06
2.59628e-05
1.07412e-05
2.58042e-05
1.25773e-05
2.53646e-05
2.47113e-05
1.44986e-05
2.30982e-07
2.61297e-05
4.04642e-07
2.35018e-05
5.74078e-07
2.34495e-05
7.41021e-07
2.34538e-05
9.04693e-07
2.34771e-05
1.06347e-06
2.35173e-05
1.22356e-06
2.35662e-05
1.39701e-06
2.36353e-05
1.60573e-06
2.37237e-05
1.8447e-06
2.38508e-05
2.09174e-06
2.40292e-05
2.37956e-06
2.41878e-05
2.73201e-06
2.431e-05
3.25255e-06
2.44372e-05
3.9427e-06
2.45338e-05
4.68622e-06
2.4681e-05
5.50555e-06
2.48105e-05
6.3667e-06
2.49101e-05
7.43237e-06
2.48569e-05
8.79528e-06
2.45999e-05
1.03562e-05
2.42433e-05
1.19313e-05
2.37895e-05
2.30239e-05
1.36187e-05
2.24152e-07
2.59056e-05
3.97892e-07
2.3328e-05
5.70099e-07
2.32773e-05
7.31666e-07
2.32922e-05
8.92145e-07
2.33167e-05
1.06012e-06
2.33494e-05
1.22945e-06
2.33969e-05
1.40606e-06
2.34587e-05
1.60334e-06
2.35264e-05
1.85937e-06
2.35948e-05
2.21166e-06
2.36769e-05
2.61377e-06
2.37857e-05
3.02003e-06
2.39038e-05
3.44583e-06
2.40114e-05
3.89209e-06
2.40875e-05
4.5115e-06
2.40616e-05
5.30973e-06
2.40123e-05
6.32311e-06
2.38967e-05
7.48231e-06
2.36976e-05
8.62195e-06
2.34602e-05
9.77993e-06
2.30853e-05
1.11451e-05
2.24244e-05
2.15713e-05
1.25976e-05
2.30473e-07
2.56751e-05
4.2046e-07
2.31381e-05
6.15474e-07
2.30823e-05
8.07055e-07
2.31007e-05
9.96751e-07
2.3127e-05
1.18821e-06
2.31579e-05
1.38497e-06
2.32001e-05
1.59292e-06
2.32507e-05
1.81082e-06
2.33085e-05
2.02994e-06
2.33756e-05
2.26143e-06
2.34454e-05
2.55097e-06
2.34962e-05
2.93889e-06
2.35159e-05
3.43487e-06
2.35154e-05
4.0599e-06
2.34625e-05
4.75408e-06
2.33674e-05
5.47998e-06
2.32863e-05
6.24385e-06
2.31328e-05
7.04594e-06
2.28955e-05
8.02946e-06
2.24767e-05
9.20399e-06
2.19108e-05
1.03773e-05
2.12511e-05
2.03999e-05
1.15487e-05
2.18995e-07
2.54561e-05
4.00891e-07
2.29562e-05
5.90041e-07
2.28932e-05
7.77763e-07
2.29129e-05
9.63996e-07
2.29407e-05
1.14972e-06
2.29722e-05
1.34033e-06
2.30095e-05
1.54339e-06
2.30477e-05
1.76796e-06
2.30839e-05
2.035e-06
2.31086e-05
2.36353e-06
2.31169e-05
2.73414e-06
2.31256e-05
3.13041e-06
2.31196e-05
3.56434e-06
2.30815e-05
4.01297e-06
2.30139e-05
4.49416e-06
2.28862e-05
5.09906e-06
2.26814e-05
5.83038e-06
2.24015e-05
6.70526e-06
2.20207e-05
7.60884e-06
2.15731e-05
8.50961e-06
2.101e-05
9.48218e-06
2.02786e-05
1.93881e-05
1.0494e-05
2.38705e-07
2.52174e-05
4.4891e-07
2.27459e-05
6.63389e-07
2.26787e-05
8.70251e-07
2.27061e-05
1.0733e-06
2.27377e-05
1.26992e-06
2.27756e-05
1.46349e-06
2.2816e-05
1.65925e-06
2.28519e-05
1.86437e-06
2.28788e-05
2.08258e-06
2.28904e-05
2.31468e-06
2.28848e-05
2.58388e-06
2.28564e-05
2.91208e-06
2.27914e-05
3.30625e-06
2.26874e-05
3.78221e-06
2.25379e-05
4.34239e-06
2.2326e-05
4.95073e-06
2.20731e-05
5.58218e-06
2.177e-05
6.23304e-06
2.13698e-05
6.95767e-06
2.08485e-05
7.77e-06
2.01977e-05
8.60422e-06
1.94443e-05
1.85585e-05
9.4338e-06
2.30475e-07
2.49869e-05
4.33031e-07
2.25434e-05
6.41408e-07
2.24703e-05
8.43678e-07
2.25038e-05
1.04349e-06
2.25379e-05
1.24131e-06
2.25777e-05
1.43947e-06
2.26178e-05
1.64141e-06
2.265e-05
1.85208e-06
2.26681e-05
2.07963e-06
2.26629e-05
2.33131e-06
2.26332e-05
2.61631e-06
2.25714e-05
2.93531e-06
2.24724e-05
3.285e-06
2.23377e-05
3.66703e-06
2.21559e-05
4.08105e-06
2.1912e-05
4.54575e-06
2.16084e-05
5.09114e-06
2.12246e-05
5.70541e-06
2.07555e-05
6.35258e-06
2.02013e-05
7.00861e-06
1.95416e-05
7.6936e-06
1.87594e-05
1.78658e-05
8.38635e-06
2.5483e-07
2.47321e-05
4.73288e-07
2.23249e-05
6.92625e-07
2.2251e-05
9.03447e-07
2.2293e-05
1.10923e-06
2.23321e-05
1.31066e-06
2.23763e-05
1.5067e-06
2.24218e-05
1.69822e-06
2.24585e-05
1.88788e-06
2.24785e-05
2.08558e-06
2.24652e-05
2.28939e-06
2.24294e-05
2.51027e-06
2.23505e-05
2.76377e-06
2.22189e-05
3.05764e-06
2.20438e-05
3.39565e-06
2.18179e-05
3.77923e-06
2.15284e-05
4.20323e-06
2.11844e-05
4.6621e-06
2.07657e-05
5.14826e-06
2.02693e-05
5.67097e-06
1.96786e-05
6.22322e-06
1.89894e-05
6.79104e-06
1.81915e-05
1.73006e-05
7.35621e-06
2.57524e-07
2.44745e-05
4.65401e-07
2.21171e-05
6.74831e-07
2.20415e-05
8.77411e-07
2.20904e-05
1.07852e-06
2.2131e-05
1.28243e-06
2.21724e-05
1.49325e-06
2.2211e-05
1.70782e-06
2.22439e-05
1.91446e-06
2.22719e-05
2.10961e-06
2.227e-05
2.29631e-06
2.22427e-05
2.48071e-06
2.21661e-05
2.67288e-06
2.20268e-05
2.88894e-06
2.18277e-05
3.14298e-06
2.15638e-05
3.43513e-06
2.12363e-05
3.77032e-06
2.08492e-05
4.14356e-06
2.03925e-05
4.55054e-06
1.98623e-05
4.98431e-06
1.92448e-05
5.43138e-06
1.85423e-05
5.88341e-06
1.77395e-05
1.68447e-05
6.33936e-06
2.74823e-07
2.41997e-05
4.47517e-07
2.19444e-05
6.23742e-07
2.18653e-05
8.02053e-07
2.19121e-05
9.85252e-07
2.19478e-05
1.17777e-06
2.19799e-05
1.384e-06
2.20047e-05
1.59485e-06
2.20331e-05
1.80992e-06
2.20568e-05
2.01684e-06
2.20631e-05
2.22008e-06
2.20394e-05
2.41425e-06
2.19719e-05
2.59696e-06
2.18441e-05
2.76866e-06
2.1656e-05
2.93779e-06
2.13947e-05
3.12052e-06
2.10535e-05
3.34453e-06
2.06252e-05
3.62186e-06
2.01151e-05
3.93788e-06
1.95463e-05
4.27563e-06
1.89071e-05
4.62765e-06
1.81903e-05
4.98142e-06
1.73857e-05
1.64901e-05
5.33604e-06
2.67888e-07
2.39318e-05
3.7319e-07
2.18391e-05
4.7866e-07
2.17598e-05
5.99389e-07
2.17914e-05
7.30979e-07
2.18162e-05
8.76371e-07
2.18345e-05
1.04151e-06
2.18396e-05
1.22518e-06
2.18494e-05
1.43212e-06
2.18499e-05
1.65294e-06
2.18423e-05
1.87764e-06
2.18147e-05
2.09419e-06
2.17554e-05
2.29568e-06
2.16426e-05
2.48546e-06
2.14663e-05
2.6656e-06
2.12145e-05
2.8392e-06
2.08799e-05
2.99731e-06
2.04671e-05
3.14324e-06
1.99692e-05
3.32164e-06
1.93679e-05
3.55692e-06
1.86718e-05
3.81922e-06
1.7928e-05
4.08197e-06
1.7123e-05
1.62309e-05
4.34113e-06
2.13976e-07
2.37179e-05
1.84818e-07
2.18682e-05
1.49469e-07
2.17952e-05
1.5483e-07
2.1786e-05
1.80327e-07
2.17907e-05
2.35994e-07
2.17788e-05
3.21029e-07
2.17546e-05
4.47417e-07
2.1723e-05
6.17737e-07
2.16795e-05
8.30494e-07
2.16296e-05
1.07409e-06
2.15711e-05
1.32805e-06
2.15015e-05
1.58585e-06
2.13848e-05
1.85008e-06
2.1202e-05
2.09393e-06
2.09707e-05
2.31118e-06
2.06627e-05
2.50008e-06
2.02781e-05
2.66594e-06
1.98033e-05
2.8031e-06
1.92307e-05
2.90492e-06
1.857e-05
3.02275e-06
1.78102e-05
3.18694e-06
1.69588e-05
1.60644e-05
3.35345e-06
9.83042e-08
2.36195e-05
-1.29672e-07
2.20962e-05
-3.65091e-07
2.20306e-05
-5.5104e-07
2.19719e-05
-6.8535e-07
2.1925e-05
-7.76812e-07
2.18703e-05
-8.19819e-07
2.17976e-05
-8.02907e-07
2.17061e-05
-7.20366e-07
2.1597e-05
-5.60384e-07
2.14696e-05
-3.20966e-07
2.13317e-05
-1.57014e-08
2.11962e-05
3.2338e-07
2.10457e-05
6.75176e-07
2.08502e-05
1.00712e-06