/*--------------------------------*- C++ -*----------------------------------*\
| =========                 |                                                 |
| \\      /  F ield         | OpenFOAM: The Open Source CFD Toolbox           |
|  \\    /   O peration     | Version:  2.4.0                                 |
|   \\  /    A nd           | Web:      www.OpenFOAM.org                      |
|    \\/     M anipulation  |                                                 |
\*---------------------------------------------------------------------------*/
FoamFile
{
    version     2.0;
    format      ascii;
    class       surfaceScalarField;
    location    "0.7";
    object      phi.air;
}
// * * * * * * * * * * * * * * * * * * * * * * * * * * * * * * * * * * * * * //

dimensions      [0 3 -1 0 0 0 0];

internalField   nonuniform List<scalar> 
4432
(
1.93851e-06
-1.93847e-06
4.18506e-06
-2.24649e-06
5.53302e-06
-1.34796e-06
7.37665e-06
-1.84361e-06
9.55282e-06
-2.17611e-06
1.08059e-05
-1.25301e-06
1.15982e-05
-7.92342e-07
1.13559e-05
2.42338e-07
1.06445e-05
7.11475e-07
9.44135e-06
1.2033e-06
6.15773e-06
3.28371e-06
1.20689e-06
4.95079e-06
-4.66615e-06
5.87296e-06
-8.95391e-06
4.28774e-06
-1.09076e-05
1.95372e-06
-1.12978e-05
3.90234e-07
-1.11361e-05
-1.61737e-07
-1.04359e-05
-7.00183e-07
-9.40582e-06
-1.03009e-06
-6.9787e-06
-2.42711e-06
-4.45818e-06
-2.52052e-06
-3.42753e-06
-1.03066e-06
-3.42754e-06
1.95395e-06
-3.60024e-06
4.01687e-06
-4.0069e-06
5.71599e-06
-2.77541e-06
7.57496e-06
-3.41436e-06
9.45812e-06
-3.76972e-06
1.08611e-05
-2.40799e-06
1.1897e-05
-1.6302e-06
1.24086e-05
-1.58862e-07
1.21063e-05
1.04392e-06
1.01428e-05
3.1677e-06
5.57957e-06
7.84711e-06
1.1208e-07
1.04184e-05
-5.67926e-06
1.16644e-05
-9.59553e-06
8.20406e-06
-1.11189e-05
3.47721e-06
-1.12543e-05
5.25712e-07
-1.09795e-05
-4.36487e-07
-1.02716e-05
-1.40799e-06
-8.86713e-06
-2.43446e-06
-6.61708e-06
-4.6771e-06
-4.10448e-06
-5.03306e-06
-2.30075e-06
-2.83436e-06
-5.72825e-06
1.95846e-06
-1.03324e-05
3.73953e-06
-1.06807e-05
5.95694e-06
-9.51279e-06
7.77196e-06
-9.974e-06
9.10869e-06
-9.85682e-06
1.04904e-05
-8.06478e-06
1.14589e-05
-6.25788e-06
1.1788e-05
-3.10654e-06
1.07338e-05
7.97547e-07
9.51414e-06
4.26998e-06
6.36958e-06
1.1269e-05
1.57767e-06
1.52338e-05
-4.03507e-06
1.72771e-05
-8.45733e-06
1.26263e-05
-1.12358e-05
6.2557e-06
-1.21394e-05
1.42934e-06
-1.17705e-05
-8.05428e-07
-1.07159e-05
-2.46249e-06
-8.70261e-06
-4.44777e-06
-5.92492e-06
-7.45476e-06
-2.98285e-06
-7.97512e-06
-5.37016e-07
-5.28017e-06
-6.26524e-06
1.904e-06
-3.07493e-05
3.1591e-06
-3.00457e-05
5.89283e-06
-3.06835e-05
7.54455e-06
-2.94434e-05
8.12731e-06
-2.76052e-05
9.75379e-06
-2.67055e-05
1.15473e-05
-2.5175e-05
1.36427e-05
-2.39661e-05
1.43116e-05
-1.81531e-05
1.04039e-05
-5.51035e-06
4.01171e-06
8.53556e-06
-1.1331e-06
2.01847e-05
-6.07285e-06
2.23149e-05
-9.76699e-06
1.63218e-05
-1.16756e-05
8.16436e-06
-1.23832e-05
2.13702e-06
-1.18263e-05
-1.3623e-06
-1.05057e-05
-3.78308e-06
-8.33715e-06
-6.61636e-06
-6.45032e-06
-9.34162e-06
-3.75452e-06
-1.06709e-05
-7.36937e-07
-8.2978e-06
-7.00221e-06
9.41509e-07
-8.86246e-06
1.9042e-06
-8.41895e-06
2.85241e-06
-9.12929e-06
3.46665e-06
-7.87591e-06
3.43161e-06
-5.97539e-06
3.81884e-06
-6.12363e-06
4.22979e-06
-5.07341e-06
4.47103e-06
-2.92469e-06
5.60561e-06
1.28043e-06
4.6627e-06
-3.3751e-06
8.68284e-07
-1.51251e-06
-6.85014e-06
1.62525e-05
-1.07972e-05
2.55503e-05
-1.29831e-05
1.86316e-05
-1.36465e-05
8.82912e-06
-1.31707e-05
1.6613e-06
-1.17439e-05
-2.78908e-06
-9.77043e-06
-5.75659e-06
-7.72502e-06
-8.66176e-06
-6.87872e-06
-1.01879e-05
-5.00822e-06
-1.25414e-05
-1.44018e-06
-1.18658e-05
-8.44237e-06
-5.19299e-08
-8.64943e-06
2.08173e-09
-8.32604e-06
-4.91724e-07
-8.48026e-06
-1.40158e-06
-6.82994e-06
-2.42276e-06
-4.8346e-06
-3.82018e-06
-4.61548e-06
-5.80286e-06
-2.97308e-06
-7.13849e-06
-1.39796e-06
-5.45601e-06
1.04479e-06
-1.45378e-06
7.33731e-06
-1.00554e-06
1.63018e-05
-9.88607e-06
1.7913e-05
-1.74385e-05
2.47162e-05
-1.82712e-05
1.96081e-05
-1.81547e-05
8.7591e-06
-1.63117e-05
-1.80763e-07
-1.2986e-05
-6.11463e-06
-9.47871e-06
-9.26387e-06
-7.16222e-06
-1.09777e-05
-6.89223e-06
-1.04527e-05
-5.80017e-06
-1.35803e-05
-2.67366e-06
-1.49167e-05
-1.11125e-05
-2.45135e-07
-8.40472e-06
-2.61327e-07
-8.31047e-06
9.90013e-08
-8.84117e-06
6.49243e-08
-6.79655e-06
-4.45313e-07
-4.32496e-06
-1.01424e-06
-4.04707e-06
-3.04812e-06
-9.39777e-07
-6.45295e-06
2.00638e-06
-1.17182e-05
6.30953e-06
-1.64647e-05
1.21243e-05
-1.8315e-05
2.19511e-05
-2.28016e-05
2.72803e-05
-2.52462e-05
1.97759e-05
-2.48521e-05
1.69026e-05
-2.33517e-05
7.50959e-06
-2.07784e-05
-2.70763e-06
-1.64193e-05
-1.04268e-05
-1.12894e-05
-1.42467e-05
-8.02144e-06
-1.39288e-05
-7.16156e-06
-1.09052e-05
-5.40883e-06
-1.49005e-05
-2.61855e-06
-1.73736e-05
-1.33794e-05
-1.12601e-07
-8.27706e-06
-1.76921e-07
-8.22966e-06
-6.72017e-07
-8.32931e-06
-1.25323e-06
-6.20997e-06
-2.14563e-06
-3.42936e-06
-4.09346e-06
-2.09525e-06
-5.37215e-06
3.40082e-07
-5.90904e-06
2.54367e-06
-5.91694e-06
6.31813e-06
-7.74539e-06
1.39472e-05
-1.54449e-05
2.80004e-05
-2.8359e-05
3.78223e-05
-3.4282e-05
2.23476e-05
-3.49239e-05
1.17824e-05
-3.35898e-05
5.34904e-06
-2.82728e-05
-7.23627e-06
-2.18317e-05
-1.61129e-05
-1.64872e-05
-1.94294e-05
-1.17459e-05
-2.00649e-05
-6.93978e-06
-1.83836e-05
-3.82965e-06
-2.24293e-05
-1.55426e-06
-2.4258e-05
-1.70248e-05
-1.94669e-05
6.26861e-06
-1.12799e-05
-1.48358e-05
1.10929e-05
-2.88794e-05
2.95333e-05
-2.50358e-05
4.0518e-05
-1.79074e-05
4.70225e-05
-1.4075e-05
5.29417e-05
-1.35368e-05
5.87104e-05
-1.44082e-05
6.36443e-05
-1.50017e-05
6.69142e-05
-1.35157e-05
6.81714e-05
-1.16371e-05
6.7813e-05
-5.16227e-06
6.48982e-05
6.90198e-06
5.6849e-05
2.59762e-05
4.50677e-05
3.5322e-05
2.67917e-05
2.72352e-05
5.69057e-06
2.09653e-05
-5.07601e-06
1.08792e-05
-3.29702e-07
-7.82865e-06
3.04281e-05
1.53022e-05
-3.11483e-05
3.09856e-05
-1.12348e-05
4.08819e-05
3.00533e-05
4.74899e-05
1.69281e-05
5.17183e-05
1.00395e-05
5.51886e-05
-3.0126e-06
5.84489e-05
8.64608e-06
6.24666e-05
8.20446e-05
6.4667e-05
4.85383e-05
6.5365e-05
2.49107e-05
6.63017e-05
8.96012e-07
6.77155e-05
-1.61071e-05
6.70131e-05
-7.90657e-06
5.81296e-05
2.0047e-05
4.00393e-05
4.13058e-05
1.93862e-05
4.4727e-05
-1.01293e-06
2.95159e-05
-3.8859e-06
-6.73955e-07
3.01917e-05
2.59205e-05
-6.21806e-06
4.92601e-05
4.17688e-05
6.34547e-05
9.3772e-05
6.04863e-05
8.52155e-05
6.04823e-05
2.16223e-05
6.04182e-05
4.83713e-05
5.9179e-05
0.000132486
5.59129e-05
9.16675e-05
5.16924e-05
3.48567e-05
4.65951e-05
-4.82259e-05
4.43169e-05
-7.50993e-05
4.51215e-05
-5.9046e-05
4.80968e-05
-4.59012e-05
4.67978e-05
-2.5294e-05
3.44177e-05
7.25076e-05
1.6571e-05
7.19647e-05
-1.80719e-06
4.84062e-05
-4.52115e-06
2.60274e-05
3.50566e-06
3.7702e-05
-5.25579e-05
7.00955e-05
-1.47831e-05
8.18923e-05
-4.34587e-06
6.84985e-05
-6.37988e-05
5.86877e-05
-0.000108145
5.75083e-05
-5.84365e-05
5.22784e-05
-7.40906e-06
4.28469e-05
2.44342e-05
3.99426e-05
8.26638e-05
4.02454e-05
9.30711e-05
4.30373e-05
5.72056e-06
3.77149e-05
-3.37052e-05
3.07674e-05
-4.05471e-05
2.41176e-05
-3.66207e-05
5.29528e-06
4.77744e-05
1.16802e-05
7.02714e-05
-1.0739e-06
6.70065e-05
-5.48322e-06
3.83842e-05
-4.61752e-05
3.88455e-05
-0.000101739
4.48406e-05
-0.0001232
4.29038e-05
-8.01218e-05
4.64335e-05
-1.00024e-05
5.87764e-05
0.000111703
5.89042e-05
0.000111343
5.70552e-05
0.000110295
5.63253e-05
0.000103186
5.26322e-05
0.000100806
4.97916e-05
7.46161e-05
4.52498e-05
1.59782e-05
3.6079e-05
1.72993e-05
2.59702e-05
-2.22676e-05
1.69025e-05
-2.2277e-05
-7.36e-06
2.59714e-05
2.58473e-06
6.91206e-05
-1.97369e-08
7.43336e-05
-1.01667e-05
3.37295e-05
-6.37113e-05
3.80206e-05
-0.000105019
3.99212e-05
-0.000115023
3.93086e-05
-9.13741e-05
4.18785e-05
-2.20983e-05
4.28671e-05
2.93822e-05
4.34133e-05
2.25229e-05
4.55559e-05
2.61068e-05
4.69535e-05
3.31288e-05
4.57228e-05
5.64539e-05
4.8474e-05
4.67187e-05
4.60464e-05
2.26797e-05
3.33627e-05
3.15515e-05
2.34935e-05
8.41899e-06
9.30716e-06
-4.6898e-06
-1.33123e-05
3.83251e-05
-1.38616e-05
8.7039e-05
-1.956e-06
5.87685e-05
-2.9689e-05
2.69399e-05
-1.74645e-05
3.69631e-05
-0.000123067
3.71393e-05
-0.000124804
3.31463e-05
-7.40765e-05
3.19573e-05
-2.18814e-05
3.51034e-05
4.50704e-05
3.77453e-05
6.74213e-05
3.75383e-05
7.41351e-05
4.09294e-05
7.52668e-05
3.9949e-05
8.15739e-05
4.45662e-05
9.03835e-05
4.37755e-05
2.9421e-05
3.38548e-05
4.09187e-05
2.174e-05
4.54846e-05
7.07808e-06
1.76656e-05
-9.9606e-06
3.27902e-05
-1.86049e-05
9.44048e-05
-7.5338e-06
4.31442e-05
-4.74491e-05
1.46182e-05
-9.91355e-05
3.75217e-05
-1.63976e-05
3.45303e-05
4.58388e-05
3.02098e-05
7.47173e-05
3.31585e-05
5.91502e-05
3.55531e-05
3.80369e-05
3.60908e-05
-2.95314e-06
3.41286e-05
2.9942e-05
3.37504e-05
5.5651e-05
3.05689e-05
5.95502e-05
3.01495e-05
8.57136e-05
3.85108e-05
8.48877e-05
3.61498e-05
4.50883e-05
2.39601e-05
6.08639e-05
1.59529e-05
3.40578e-05
2.13182e-06
3.98565e-05
-1.34271e-05
6.95974e-05
-1.00281e-05
5.60606e-05
-7.77229e-06
-9.80061e-07
-7.24884e-06
-2.89368e-07
-8.88126e-06
4.1182e-06
-1.27189e-05
7.89307e-06
-9.97857e-06
7.11999e-06
-2.65599e-06
4.38737e-06
6.47037e-07
-2.36622e-06
7.0971e-06
-1.3308e-05
1.34847e-05
-2.60838e-05
1.909e-05
-3.46155e-05
2.24764e-05
-3.34777e-05
2.67605e-05
-3.40649e-05
3.7782e-05
-4.24696e-05
3.36668e-05
-5.19289e-05
1.35257e-05
-5.31994e-05
-4.67223e-06
-4.92859e-05
-2.55877e-05
-4.70519e-05
-3.26311e-05
-4.16599e-05
-3.83177e-05
-3.03437e-05
-4.61089e-05
-1.11189e-05
-5.69469e-05
1.85623e-06
-5.75627e-05
6.68438e-06
-5.51659e-05
-4.53325e-05
1.00212e-05
1.19287e-06
-7.98632e-06
2.29797e-06
-9.61557e-06
3.57905e-06
-1.36416e-05
3.64917e-06
-9.60338e-06
4.06096e-06
-2.49906e-06
3.84199e-06
1.9165e-06
1.43884e-06
1.03727e-05
-4.57084e-07
1.596e-05
-1.40628e-06
2.0362e-05
-3.35959e-06
2.45619e-05
-4.24377e-06
2.76286e-05
3.91729e-06
3.01307e-05
1.5886e-05
3.27751e-05
2.08996e-05
1.77879e-05
2.49118e-05
-2.9481e-06
2.57831e-05
-1.41557e-05
2.53374e-05
-2.32547e-05
2.85144e-05
-3.37121e-05
3.60711e-05
-4.39527e-05
4.10906e-05
-4.35673e-05
4.72208e-05
-2.24178e-05
5.53362e-05
-5.62504e-07
-1.21325e-05
6.4875e-05
-3.94487e-06
-4.33808e-06
-4.12875e-06
-9.05422e-06
5.57787e-06
-2.27884e-05
1.32764e-05
-1.75496e-05
1.18905e-05
-1.67202e-06
2.59013e-06
9.84518e-06
-6.69098e-06
1.76308e-05
-1.25994e-05
2.04651e-05
-1.45831e-05
2.2297e-05
-1.37129e-05
2.40666e-05
-9.74501e-06
2.41675e-05
-1.52887e-06
2.19286e-05
1.21787e-05
2.08806e-05
2.39534e-05
1.47689e-05
3.35312e-05
5.75265e-07
4.31558e-05
-6.16546e-06
5.23001e-05
-4.25425e-06
5.95225e-05
1.92194e-05
6.1606e-05
2.70695e-05
6.26102e-05
3.54209e-05
6.69472e-05
6.1786e-05
5.59612e-05
9.80838e-05
0.000151912
1.2854e-05
-9.23314e-06
9.82303e-06
-8.3043e-06
-6.04913e-06
-2.59267e-06
-1.66383e-05
-9.89671e-06
5.43949e-05
-1.82018e-05
8.88237e-05
-2.2461e-05
9.80681e-05
-2.22185e-05
8.06422e-05
-2.32326e-05
3.02555e-05
-2.17567e-05
2.09186e-05
-2.11498e-05
2.29098e-05
-1.77145e-05
2.04625e-05
-1.11193e-05
2.53121e-05
6.37905e-07
7.81807e-05
1.39155e-05
7.307e-05
2.3022e-05
5.6393e-05
3.09861e-05
4.54721e-05
4.56071e-05
3.83653e-05
5.50055e-05
3.83438e-05
5.76995e-05
3.94975e-05
6.7749e-05
3.54204e-05
6.90321e-05
1.86695e-05
7.13992e-05
1.69245e-05
8.38978e-05
-9.97847e-06
-1.5598e-05
0.00012735
-3.15351e-05
0.000141173
-3.39982e-05
0.000153424
-8.78751e-05
0.000127174
-0.000115584
9.0158e-05
-0.000128303
8.59134e-05
-0.000107976
0.000100006
-7.55796e-05
9.58535e-05
-5.91381e-05
0.00010018
-4.74271e-05
0.000105705
-3.86717e-05
0.000106578
-2.42469e-05
0.000100855
-1.11677e-05
8.89889e-05
3.38599e-06
7.44469e-05
1.50813e-05
6.42189e-05
1.96392e-05
4.31448e-05
2.67876e-05
2.96257e-05
3.16586e-05
6.60027e-06
3.45982e-05
-3.51221e-06
4.43929e-05
-2.48573e-05
3.3668e-05
-4.06817e-05
1.80213e-05
-2.57803e-05
8.83361e-05
-7.14774e-05
-1.79298e-05
7.26144e-05
-4.61881e-05
8.99964e-05
-8.41578e-05
8.67125e-05
-0.00011517
7.41259e-05
-0.000135993
4.71832e-05
-0.000146367
2.60164e-05
-0.000123389
-7.65718e-06
-0.000101638
7.22717e-06
-9.43686e-05
2.93295e-05
-8.6603e-05
4.03835e-05
-7.69754e-05
3.93109e-05
-7.14066e-05
3.82463e-05
-5.54306e-05
2.2499e-05
-3.68255e-05
1.21732e-05
-4.19603e-05
-6.63344e-07
-4.49908e-05
-2.00731e-05
-4.39211e-05
-3.08002e-05
-4.46317e-05
-4.6172e-05
-6.02901e-05
-3.6381e-05
-8.78782e-05
-3.31963e-05
-6.71468e-05
-6.65013e-05
-7.01201e-05
-2.46633e-05
0.000134191
-0.000117543
-2.52667e-06
4.42871e-05
-4.78095e-05
9.05597e-05
-8.71428e-05
8.42675e-05
-0.000110985
7.41302e-05
-7.74571e-05
3.10637e-06
-3.62439e-06
-5.65068e-05
3.96442e-05
-6.27306e-05
5.18489e-05
-2.78809e-05
1.64256e-05
3.17576e-05
-2.34308e-05
4.35526e-05
-3.59662e-05
1.59447e-05
-5.3608e-05
1.63608e-05
-8.32065e-05
1.17524e-05
-0.000128056
1.87338e-05
-0.000162824
1.41915e-05
-0.000177379
-1.3761e-05
-0.000178447
-3.39066e-05
-0.000160629
-6.46018e-05
-0.000126124
-7.10277e-05
-8.98653e-05
-6.94577e-05
-0.000101096
-5.527e-05
-0.000147541
2.17818e-05
0.000190632
-0.000203996
2.56804e-07
4.29546e-05
3.16609e-06
8.52074e-05
-2.20813e-06
8.75789e-05
7.28474e-06
6.40232e-05
2.26831e-05
-1.23264e-05
1.24809e-05
-4.63054e-05
-1.29281e-05
-3.73216e-05
-3.34958e-05
-7.31361e-06
-4.58694e-05
4.40783e-05
-6.26317e-05
6.00165e-05
-6.90197e-05
2.21136e-05
-5.26717e-05
1.07668e-08
-1.77844e-05
-2.31421e-05
1.7066e-05
-1.61224e-05
3.37895e-05
-2.53253e-06
3.24227e-05
-1.23943e-05
2.20928e-05
-2.35766e-05
-5.41731e-06
-3.70917e-05
-4.485e-05
-3.15948e-05
-9.54274e-05
-1.88802e-05
-0.000156791
6.09334e-06
-0.000203159
6.815e-05
0.000205995
-0.000218521
-2.80604e-05
7.10118e-05
-2.938e-06
6.00751e-05
2.52416e-05
5.93925e-05
5.24756e-05
3.67885e-05
4.52499e-05
-5.10075e-06
4.26911e-05
-4.37465e-05
3.95913e-05
-3.42218e-05
3.02043e-06
2.92572e-05
-7.12131e-06
5.422e-05
4.64445e-07
5.24306e-05
-1.6119e-05
3.8697e-05
-2.56567e-05
9.54846e-06
-2.54853e-05
-2.33136e-05
-2.1519e-05
-2.00886e-05
-2.24315e-05
-1.62002e-06
-2.67755e-05
-8.05038e-06
-3.43914e-05
-1.59607e-05
-4.91722e-05
-2.23108e-05
-6.94626e-05
-1.13044e-05
-9.61834e-05
7.84056e-06
-0.00013602
4.59296e-05
-0.000173901
0.000106032
0.000208258
-0.000176164
-1.30781e-05
8.40898e-05
-4.67915e-06
5.16762e-05
1.14195e-05
4.32938e-05
2.62197e-05
2.19883e-05
3.13276e-05
-1.02086e-05
1.27951e-05
-2.5214e-05
2.66721e-06
-2.40939e-05
-7.24285e-07
3.26487e-05
-9.13113e-06
6.26268e-05
-1.60001e-05
5.92996e-05
-1.32883e-05
3.59853e-05
3.41469e-06
-7.15457e-06
-5.67399e-06
-1.42249e-05
-8.31193e-06
-1.74506e-05
3.92404e-06
-1.3856e-05
8.53687e-06
-1.26632e-05
3.36749e-06
-1.07913e-05
-1.27006e-05
-6.24269e-06
-3.30578e-05
9.05291e-06
-6.01828e-05
3.49655e-05
-8.56859e-05
7.14326e-05
-9.71481e-05
0.000117494
0.000182295
-7.1185e-05
2.67511e-06
8.14147e-05
9.55604e-06
4.47952e-05
2.25324e-05
3.03175e-05
3.22998e-05
1.22209e-05
2.13151e-05
7.76064e-07
5.18978e-06
-9.08875e-06
-6.29641e-06
-1.26078e-05
2.10227e-06
2.425e-05
1.72553e-05
4.74738e-05
3.70081e-05
3.95467e-05
5.04222e-05
2.25712e-05
3.10542e-05
1.22134e-05
1.15813e-05
5.24801e-06
-2.22241e-06
-3.64694e-06
-1.25187e-05
-3.5597e-06
-2.23271e-05
-2.85474e-06
-3.32018e-05
8.33697e-08
-4.46537e-05
5.20921e-06
-5.53011e-05
1.97004e-05
-6.09991e-05
4.06635e-05
-6.08755e-05
7.1309e-05
-4.98908e-05
0.000106509
0.000144606
-1.22011e-05
1.42959e-05
6.71189e-05
1.68593e-05
4.22318e-05
2.01525e-05
2.70244e-05
1.6779e-05
1.55944e-05
1.06689e-05
6.88621e-06
4.28823e-07
1.15129e-06
-1.03113e-05
-1.8676e-06
-7.04649e-07
1.46433e-05
1.70724e-05
2.96968e-05
2.14778e-05
3.51413e-05
1.36171e-05
3.04319e-05
8.16376e-06
1.76668e-05
2.91985e-06
1.04919e-05
-4.87788e-06
4.15081e-06
-9.84707e-06
1.4095e-06
-1.54412e-05
2.73939e-06
-2.20047e-05
6.64692e-06
-3.11245e-05
1.4329e-05
-3.97049e-05
2.82807e-05
-4.60863e-05
4.7045e-05
-4.52642e-05
7.04869e-05
-3.28032e-05
9.40482e-05
0.000117482
-5.68013e-06
1.46568e-05
5.24621e-05
1.78845e-05
3.90041e-05
1.89822e-05
2.59266e-05
1.6967e-05
1.76096e-05
1.11246e-05
1.27287e-05
1.84376e-06
1.04321e-05
-8.8036e-06
8.77975e-06
-9.49653e-06
1.53363e-05
-2.73825e-07
2.04741e-05
7.15171e-06
2.77157e-05
9.21625e-06
2.83673e-05
4.01391e-06
2.28692e-05
-2.83786e-06
1.73437e-05
-1.11151e-05
1.24281e-05
-2.00503e-05
1.03447e-05
-2.85188e-05
1.12079e-05
-3.64292e-05
1.45573e-05
-4.26848e-05
2.05846e-05
-4.53401e-05
3.0936e-05
-4.40235e-05
4.57284e-05
-3.84832e-05
6.49466e-05
-2.79864e-05
8.35514e-05
9.91412e-05
-9.64522e-06
9.91742e-06
4.25447e-05
1.4598e-05
3.43235e-05
1.50015e-05
2.55231e-05
1.21056e-05
2.05055e-05
7.34709e-06
1.74871e-05
1.97159e-06
1.58076e-05
-4.37415e-06
1.51255e-05
-7.14482e-06
1.81069e-05
-6.62091e-06
1.99502e-05
-3.746e-06
2.48408e-05
-2.71908e-06
2.73404e-05
-5.44702e-06
2.55971e-05
-9.49305e-06
2.13898e-05
-1.42104e-05
1.71455e-05
-1.87232e-05
1.48575e-05
-2.2864e-05
1.53487e-05
-2.74953e-05
1.91886e-05
-3.27273e-05
2.58166e-05
-3.70062e-05
3.5215e-05
-3.73596e-05
4.60818e-05
-3.22241e-05
5.98111e-05
-2.25238e-05
7.38511e-05
8.53451e-05
-8.72769e-06
5.80496e-06
3.67397e-05
9.48771e-06
3.06407e-05
9.51303e-06
2.54977e-05
7.55237e-06
2.24662e-05
4.77513e-06
2.02643e-05
1.47963e-06
1.91031e-05
-2.06293e-06
1.8668e-05
-4.00962e-06
2.00536e-05
-5.12265e-06
2.10632e-05
-4.55673e-06
2.42749e-05
-3.37151e-06
2.61552e-05
-3.69458e-06
2.59202e-05
-5.89051e-06
2.35857e-05
-1.00829e-05
2.13379e-05
-1.51928e-05
1.99675e-05
-1.98543e-05
2.00101e-05
-2.34068e-05
2.2741e-05
-2.59206e-05
2.83304e-05
-2.72019e-05
3.64964e-05
-2.67215e-05
4.56014e-05
-2.26664e-05
5.5756e-05
-1.51307e-05
6.63154e-05
7.51567e-05
-4.94221e-06
3.49684e-06
3.32428e-05
5.65703e-06
2.84805e-05
5.64816e-06
2.55066e-05
4.67957e-06
2.34347e-05
3.14461e-06
2.17993e-05
1.33319e-06
2.09145e-05
-5.23467e-07
2.05247e-05
-1.80068e-06
2.13308e-05
-2.80238e-06
2.20649e-05
-2.68431e-06
2.41568e-05
-2.06395e-06
2.55348e-05
-1.75806e-06
2.56143e-05
-2.62153e-06
2.44492e-05
-4.81819e-06
2.35345e-05
-7.87413e-06
2.30234e-05
-1.14721e-05
2.36081e-05
-1.47499e-05
2.60188e-05
-1.70557e-05
3.06362e-05
-1.80251e-05
3.74658e-05
-1.73578e-05
4.49342e-05
-1.37705e-05
5.21687e-05
-7.32515e-06
5.987e-05
6.69413e-05
8.90236e-07
2.08186e-06
3.11609e-05
3.45048e-06
2.71119e-05
3.66788e-06
2.52892e-05
3.21681e-06
2.38858e-05
2.32723e-06
2.26889e-05
1.26504e-06
2.19767e-05
1.25531e-07
2.16642e-05
-6.70842e-07
2.21272e-05
-1.27203e-06
2.26661e-05
-1.14462e-06
2.40294e-05
-6.29263e-07
2.50195e-05
-2.29781e-07
2.52148e-05
-5.31726e-07
2.47511e-05
-1.71237e-06
2.47152e-05
-3.5788e-06
2.48899e-05
-6.09717e-06
2.61265e-05
-8.73474e-06
2.86564e-05
-1.06168e-05
3.25183e-05
-1.10224e-05
3.78714e-05
-1.02188e-05
4.41306e-05
-7.37785e-06
4.93277e-05
-1.79463e-06
5.42868e-05
5.959e-05
5.55664e-06
1.30789e-06
2.98531e-05
2.29233e-06
2.61275e-05
2.62946e-06
2.4952e-05
2.48889e-06
2.40264e-05
1.92495e-06
2.32528e-05
1.14527e-06
2.27563e-05
2.42778e-07
2.25667e-05
-4.52642e-07
2.28226e-05
-1.0015e-06
2.3215e-05
-9.19811e-07
2.39477e-05
-4.55484e-07
2.45552e-05
-1.68137e-07
2.49275e-05
-5.27847e-07
2.51109e-05
-1.45659e-06
2.56439e-05
-2.98691e-06
2.64202e-05
-4.97826e-06
2.81179e-05
-6.52803e-06
3.02062e-05
-7.10819e-06
3.30984e-05
-6.64101e-06
3.74042e-05
-4.99486e-06
4.24845e-05
-2.00457e-06
4.63374e-05
3.01709e-06
4.92652e-05
5.28974e-05
9.70974e-06
9.17041e-07
2.8936e-05
1.66317e-06
2.53813e-05
1.9247e-06
2.46905e-05
1.81337e-06
2.41377e-05
1.36833e-06
2.36978e-05
7.11437e-07
2.34132e-05
-8.90487e-09
2.3287e-05
-6.32173e-07
2.34459e-05
-1.12772e-06
2.37105e-05
-1.29097e-06
2.4111e-05
-1.27633e-06
2.45405e-05
-1.34847e-06
2.49996e-05
-1.74797e-06
2.55104e-05
-2.31709e-06
2.62131e-05
-3.20633e-06
2.73095e-05
-4.10609e-06
2.90176e-05
-4.58253e-06
3.06826e-05
-4.40754e-06
3.29235e-05
-3.41862e-06
3.64153e-05
-1.15995e-06
4.02258e-05
2.36552e-06
4.28119e-05
7.01926e-06
4.46115e-05
4.7174e-05
1.27426e-05
6.97211e-07
2.82388e-05
1.119e-06
2.49595e-05
1.25085e-06
2.45586e-05
1.19723e-06
2.41913e-05
9.62878e-07
2.39322e-05
6.03334e-07
2.37728e-05
1.69253e-07
2.37211e-05
-2.64701e-07
2.38798e-05
-6.58138e-07
2.4104e-05
-9.31211e-07
2.43841e-05
-1.06998e-06
2.46793e-05
-1.2548e-06
2.51845e-05
-1.59317e-06
2.58487e-05
-1.91038e-06
2.65303e-05
-2.13936e-06
2.75385e-05
-1.93753e-06
2.88158e-05
-1.64462e-06
3.03897e-05
-1.1659e-06
3.24447e-05
2.42118e-07
3.50073e-05
2.79109e-06
3.76768e-05
6.13095e-06
3.94721e-05
1.02743e-05
4.04682e-05
4.21656e-05
1.52826e-05
4.71042e-07
2.77677e-05
7.65269e-07
2.46653e-05
9.36211e-07
2.43877e-05
9.87215e-07
2.41403e-05
9.37081e-07
2.39823e-05
8.14237e-07
2.38956e-05
6.20762e-07
2.39146e-05
4.21882e-07
2.40787e-05
2.02411e-07
2.43234e-05
-5.82719e-08
2.46448e-05
-2.96508e-07
2.49175e-05
-4.61941e-07
2.53499e-05
-6.26786e-07
2.60136e-05
-7.1805e-07
2.66216e-05
-5.90481e-07
2.74109e-05
-2.04887e-07
2.84302e-05
2.64641e-07
2.99202e-05
1.0396e-06
3.16698e-05
2.59071e-06
3.34562e-05
4.92192e-06
3.53456e-05
7.88734e-06
3.65067e-05
1.13626e-05
3.69929e-05
3.80177e-05
1.55105e-05
3.5251e-07
2.74152e-05
6.39526e-07
2.43783e-05
8.41641e-07
2.41856e-05
9.0673e-07
2.40752e-05
9.15342e-07
2.39737e-05
8.72685e-07
2.39383e-05
8.11163e-07
2.39761e-05
7.88695e-07
2.41012e-05
8.02694e-07
2.43094e-05
7.87547e-07
2.46599e-05
7.07646e-07
2.49975e-05
7.18808e-07
2.53387e-05
8.61133e-07
2.58713e-05
9.9878e-07
2.64839e-05
1.17821e-06
2.72315e-05
1.46964e-06
2.81388e-05
2.18991e-06
2.91999e-05
3.44644e-06
3.04133e-05
5.14221e-06
3.17604e-05
7.41415e-06
3.30737e-05
1.01709e-05
3.375e-05
1.31096e-05
3.40542e-05
3.47689e-05
1.63584e-05
3.11259e-07
2.7104e-05
4.98768e-07
2.41908e-05
6.17194e-07
2.40671e-05
6.88087e-07
2.40043e-05
7.20382e-07
2.39414e-05
7.23864e-07
2.39348e-05
7.22834e-07
2.39771e-05
7.44123e-07
2.40799e-05
7.94329e-07
2.42592e-05
8.8641e-07
2.45678e-05
9.5025e-07
2.49336e-05
1.03985e-06
2.52492e-05
1.27632e-06
2.56348e-05
1.61938e-06
2.61409e-05
2.05157e-06
2.67993e-05
2.52616e-06
2.76642e-05
3.24165e-06
2.84845e-05
4.37236e-06
2.92826e-05
5.9397e-06
3.01931e-05
8.00433e-06
3.10091e-05
1.04396e-05
3.13147e-05
1.30341e-05
3.14598e-05
3.18009e-05
1.60022e-05
2.51186e-07
2.68528e-05
4.20453e-07
2.40215e-05
5.55571e-07
2.3932e-05
6.68024e-07
2.38918e-05
7.34943e-07
2.38745e-05
7.74637e-07
2.38951e-05
8.02823e-07
2.3949e-05
8.45079e-07
2.40377e-05
9.11667e-07
2.41927e-05
1.02565e-06
2.44539e-05
1.19014e-06
2.47691e-05
1.3646e-06
2.50747e-05
1.57856e-06
2.54209e-05
1.92081e-06
2.57986e-05
2.42792e-06
2.62922e-05
3.2617e-06
2.68304e-05
4.34635e-06
2.73998e-05
5.53161e-06
2.80973e-05
7.04445e-06
2.86803e-05
8.97245e-06
2.90812e-05
1.10157e-05
2.92715e-05
1.32166e-05
2.92589e-05
2.90398e-05
1.59778e-05
2.74047e-07
2.65787e-05
4.56521e-07
2.3839e-05
6.05333e-07
2.37832e-05
7.3013e-07
2.3767e-05
8.33927e-07
2.37707e-05
9.32066e-07
2.3797e-05
1.03147e-06
2.38496e-05
1.12833e-06
2.39408e-05
1.22824e-06
2.40927e-05
1.3967e-06
2.42854e-05
1.67101e-06
2.44948e-05
1.98813e-06
2.47576e-05
2.33467e-06
2.50743e-05
2.71181e-06
2.54215e-05
3.24268e-06
2.57613e-05
3.93305e-06
2.61401e-05
4.72481e-06
2.66081e-05
5.83324e-06
2.69889e-05
7.31224e-06
2.72013e-05
9.00726e-06
2.73861e-05
1.08145e-05
2.74643e-05
1.28728e-05
2.72007e-05
2.66327e-05
1.52799e-05
2.1799e-07
2.63607e-05
3.81523e-07
2.36755e-05
5.45726e-07
2.3619e-05
6.92002e-07
2.36208e-05
8.2188e-07
2.36408e-05
9.42722e-07
2.36761e-05
1.06597e-06
2.37263e-05
1.19804e-06
2.38088e-05
1.35842e-06
2.39324e-05
1.5541e-06
2.40897e-05
1.7727e-06
2.42762e-05
2.05472e-06
2.44756e-05
2.46658e-06
2.46625e-05
2.93034e-06
2.49577e-05
3.46775e-06
2.52239e-05
4.18331e-06
2.54245e-05
5.16155e-06
2.56298e-05
6.3792e-06
2.57712e-05
7.6579e-06
2.59226e-05
9.08121e-06
2.59628e-05
1.07413e-05
2.58042e-05
1.25773e-05
2.53647e-05
2.47114e-05
1.44986e-05
2.30982e-07
2.61297e-05
4.04642e-07
2.35018e-05
5.74078e-07
2.34495e-05
7.41021e-07
2.34538e-05
9.04693e-07
2.34771e-05
1.06347e-06
2.35173e-05
1.22356e-06
2.35662e-05
1.39701e-06
2.36353e-05
1.60573e-06
2.37236e-05
1.8447e-06
2.38508e-05
2.09174e-06
2.40292e-05
2.37956e-06
2.41878e-05
2.73201e-06
2.431e-05
3.25255e-06
2.44372e-05
3.9427e-06
2.45338e-05
4.68622e-06
2.4681e-05
5.50555e-06
2.48105e-05
6.3667e-06
2.49101e-05
7.43238e-06
2.48569e-05
8.79529e-06
2.45999e-05
1.03562e-05
2.42433e-05
1.19314e-05
2.37895e-05
2.3024e-05
1.36188e-05
2.24152e-07
2.59056e-05
3.97892e-07
2.33281e-05
5.70099e-07
2.32773e-05
7.31666e-07
2.32922e-05
8.92145e-07
2.33167e-05
1.06012e-06
2.33494e-05
1.22945e-06
2.33969e-05
1.40606e-06
2.34587e-05
1.60334e-06
2.35264e-05
1.85937e-06
2.35948e-05
2.21166e-06
2.36769e-05
2.61377e-06
2.37857e-05
3.02003e-06
2.39038e-05
3.44583e-06
2.40114e-05
3.89209e-06
2.40875e-05
4.5115e-06
2.40616e-05
5.30973e-06
2.40123e-05
6.32312e-06
2.38967e-05
7.48232e-06
2.36977e-05
8.62196e-06
2.34603e-05
9.77995e-06
2.30853e-05
1.11451e-05
2.24244e-05
2.15714e-05
1.25977e-05
2.30473e-07
2.56751e-05
4.2046e-07
2.31381e-05
6.15475e-07
2.30823e-05
8.07055e-07
2.31007e-05
9.96751e-07
2.3127e-05
1.18821e-06
2.31579e-05
1.38497e-06
2.32001e-05
1.59292e-06
2.32507e-05
1.81082e-06
2.33085e-05
2.02994e-06
2.33756e-05
2.26143e-06
2.34454e-05
2.55097e-06
2.34962e-05
2.93889e-06
2.35159e-05
3.43487e-06
2.35154e-05
4.0599e-06
2.34625e-05
4.75408e-06
2.33674e-05
5.47998e-06
2.32863e-05
6.24385e-06
2.31328e-05
7.04595e-06
2.28956e-05
8.02947e-06
2.24767e-05
9.20401e-06
2.19108e-05
1.03773e-05
2.12511e-05
2.04e-05
1.15487e-05
2.18995e-07
2.54561e-05
4.00892e-07
2.29562e-05
5.90041e-07
2.28932e-05
7.77763e-07
2.29129e-05
9.63997e-07
2.29407e-05
1.14972e-06
2.29722e-05
1.34033e-06
2.30095e-05
1.54339e-06
2.30477e-05
1.76796e-06
2.30839e-05
2.035e-06
2.31086e-05
2.36353e-06
2.31169e-05
2.73414e-06
2.31256e-05
3.13041e-06
2.31196e-05
3.56434e-06
2.30815e-05
4.01297e-06
2.30139e-05
4.49416e-06
2.28862e-05
5.09906e-06
2.26814e-05
5.83038e-06
2.24015e-05
6.70527e-06
2.20207e-05
7.60884e-06
2.15732e-05
8.50963e-06
2.101e-05
9.4822e-06
2.02786e-05
1.93881e-05
1.04941e-05
2.38705e-07
2.52174e-05
4.48911e-07
2.2746e-05
6.6339e-07
2.26787e-05
8.70251e-07
2.27061e-05
1.0733e-06
2.27377e-05
1.26992e-06
2.27756e-05
1.46349e-06
2.2816e-05
1.65925e-06
2.28519e-05
1.86437e-06
2.28788e-05
2.08258e-06
2.28904e-05
2.31468e-06
2.28848e-05
2.58388e-06
2.28564e-05
2.91208e-06
2.27914e-05
3.30625e-06
2.26873e-05
3.78221e-06
2.25379e-05
4.34239e-06
2.2326e-05
4.95073e-06
2.20731e-05
5.58218e-06
2.177e-05
6.23304e-06
2.13698e-05
6.95768e-06
2.08485e-05
7.77001e-06
2.01977e-05
8.60424e-06
1.94444e-05
1.85586e-05
9.43383e-06
2.30475e-07
2.49869e-05
4.33031e-07
2.25434e-05
6.41408e-07
2.24703e-05
8.43679e-07
2.25038e-05
1.04349e-06
2.25379e-05
1.24131e-06
2.25777e-05
1.43947e-06
2.26178e-05
1.64141e-06
2.265e-05
1.85208e-06
2.26681e-05
2.07963e-06
2.26629e-05
2.33131e-06
2.26332e-05
2.6163e-06
2.25714e-05
2.93531e-06
2.24724e-05
3.285e-06
2.23377e-05
3.66703e-06
2.21559e-05
4.08105e-06
2.1912e-05
4.54575e-06
2.16084e-05
5.09114e-06
2.12246e-05
5.70541e-06
2.07555e-05
6.35258e-06
2.02013e-05
7.00862e-06
1.95417e-05
7.69361e-06
1.87594e-05
1.78658e-05
8.38638e-06
2.5483e-07
2.47321e-05
4.73288e-07
2.23249e-05
6.92625e-07
2.2251e-05
9.03447e-07
2.2293e-05
1.10923e-06
2.23321e-05
1.31066e-06
2.23763e-05
1.5067e-06
2.24218e-05
1.69822e-06
2.24585e-05
1.88788e-06
2.24785e-05
2.08558e-06
2.24652e-05
2.28939e-06
2.24294e-05
2.51026e-06
2.23505e-05
2.76377e-06
2.22189e-05
3.05764e-06
2.20438e-05
3.39564e-06
2.18178e-05
3.77923e-06
2.15284e-05
4.20323e-06
2.11844e-05
4.6621e-06
2.07657e-05
5.14826e-06
2.02693e-05
5.67097e-06
1.96786e-05
6.22322e-06
1.89894e-05
6.79105e-06
1.81916e-05
1.73006e-05
7.35623e-06
2.57524e-07
2.44745e-05
4.65401e-07
2.21171e-05
6.74831e-07
2.20415e-05
8.77411e-07
2.20904e-05
1.07852e-06
2.2131e-05
1.28243e-06
2.21724e-05
1.49325e-06
2.2211e-05
1.70782e-06
2.22439e-05
1.91446e-06
2.22719e-05
2.10961e-06
2.227e-05
2.29631e-06
2.22427e-05
2.48071e-06
2.21661e-05
2.67288e-06
2.20267e-05
2.88894e-06
2.18277e-05
3.14297e-06
2.15638e-05
3.43513e-06
2.12363e-05
3.77032e-06
2.08492e-05
4.14356e-06
2.03925e-05
4.55054e-06
1.98623e-05
4.98431e-06
1.92448e-05
5.43138e-06
1.85423e-05
5.88342e-06
1.77395e-05
1.68447e-05
6.33937e-06
2.74823e-07
2.41997e-05
4.47517e-07
2.19444e-05
6.23742e-07
2.18653e-05
8.02053e-07
2.19121e-05
9.85252e-07
2.19478e-05
1.17777e-06
2.19799e-05
1.384e-06
2.20047e-05
1.59485e-06
2.20331e-05
1.80992e-06
2.20568e-05
2.01684e-06
2.20631e-05
2.22008e-06
2.20394e-05
2.41425e-06
2.19719e-05
2.59696e-06
2.1844e-05
2.76866e-06
2.1656e-05
2.93779e-06
2.13947e-05
3.12052e-06
2.10535e-05
3.34453e-06
2.06252e-05
3.62186e-06
2.01152e-05
3.93788e-06
1.95463e-05
4.27563e-06
1.89071e-05
4.62765e-06
1.81903e-05
4.98143e-06
1.73857e-05
1.64901e-05
5.33605e-06
2.67888e-07
2.39318e-05
3.7319e-07
2.18391e-05
4.78661e-07
2.17598e-05
5.99389e-07
2.17914e-05
7.30979e-07
2.18162e-05
8.76371e-07
2.18345e-05
1.04151e-06
2.18396e-05
1.22518e-06
2.18494e-05
1.43212e-06
2.18499e-05
1.65294e-06
2.18423e-05
1.87764e-06
2.18147e-05
2.09418e-06
2.17554e-05
2.29568e-06
2.16426e-05
2.48546e-06
2.14663e-05
2.6656e-06
2.12145e-05
2.8392e-06
2.08799e-05
2.99731e-06
2.04671e-05
3.14324e-06
1.99692e-05
3.32164e-06
1.93679e-05
3.55692e-06
1.86718e-05
3.81922e-06
1.7928e-05
4.08197e-06
1.7123e-05
1.62309e-05
4.34114e-06
2.13976e-07
2.37179e-05
1.84818e-07
2.18682e-05
1.49469e-07
2.17952e-05
1.5483e-07
2.1786e-05
1.80327e-07
2.17907e-05
2.35994e-07
2.17788e-05
3.21029e-07
2.17546e-05
4.47417e-07
2.1723e-05
6.17737e-07
2.16795e-05
8.30494e-07
2.16296e-05
1.07409e-06
2.15711e-05
1.32805e-06
2.15015e-05
1.58585e-06
2.13848e-05
1.85008e-06
2.1202e-05
2.09393e-06
2.09707e-05
2.31118e-06
2.06627e-05
2.50008e-06
2.02782e-05
2.66594e-06
1.98033e-05
2.8031e-06
1.92307e-05
2.90492e-06
1.857e-05
3.02275e-06
1.78102e-05
3.18695e-06
1.69588e-05
1.60644e-05
3.35346e-06
9.83042e-08
2.36196e-05
-1.29672e-07
2.20962e-05
-3.65091e-07
2.20306e-05
-5.5104e-07
2.19719e-05
-6.8535e-07
2.1925e-05
-7.76812e-07
2.18703e-05
-8.19819e-07
2.17976e-05
-8.02907e-07
2.17061e-05
-7.20366e-07
2.1597e-05
-5.60384e-07
2.14696e-05
-3.20966e-07
2.13317e-05
-1.57014e-08
2.11962e-05
3.2338e-07
2.10457e-05
6.75176e-07
2.08502e-05
1.00712e-06
2.06387e-05
1.31618e-06