/*--------------------------------*- C++ -*----------------------------------*\
| =========                 |                                                 |
| \\      /  F ield         | OpenFOAM: The Open Source CFD Toolbox           |
|  \\    /   O peration     | Version:  2.4.0                                 |
|   \\  /    A nd           | Web:      www.OpenFOAM.org                      |
|    \\/     M anipulation  |                                                 |
\*---------------------------------------------------------------------------*/
FoamFile
{
    version     2.0;
    format      ascii;
    class       surfaceScalarField;
    location    "0.7";
    object      phi.water;
}
// * * * * * * * * * * * * * * * * * * * * * * * * * * * * * * * * * * * * * //

dimensions      [0 3 -1 0 0 0 0];

internalField   nonuniform List<scalar> 
4432
(
1.93849e-06
7.89475e-07
4.18499e-06
9.80146e-07
5.53301e-06
5.03565e-07
7.37666e-06
7.51396e-07
9.55281e-06
7.18765e-07
1.08058e-05
3.49225e-07
1.15981e-05
-1.08468e-08
1.13555e-05
4.48267e-07
1.06437e-05
7.85486e-07
9.44025e-06
1.2574e-06
6.15653e-06
3.31801e-06
1.20597e-06
4.96774e-06
-4.66682e-06
5.88432e-06
-8.95438e-06
4.2985e-06
-1.09079e-05
1.96397e-06
-1.1298e-05
3.99247e-07
-1.11362e-05
-1.55152e-07
-1.0436e-05
-6.95645e-07
-9.40584e-06
-1.02665e-06
-6.97873e-06
-2.42365e-06
-4.4582e-06
-2.51786e-06
-3.42753e-06
-1.03004e-06
-3.42734e-06
1.96621e-06
2.24068e-05
3.95946e-06
2.21817e-05
5.72034e-06
2.30363e-05
7.57551e-06
2.26541e-05
9.38145e-06
2.24202e-05
1.08173e-05
2.33948e-05
1.18702e-05
2.38835e-05
1.23992e-05
2.44094e-05
1.20997e-05
2.39925e-05
1.01339e-05
1.10915e-05
5.5717e-06
9.73347e-06
1.07983e-07
1.07053e-05
-5.68194e-06
1.17965e-05
-9.59734e-06
8.33679e-06
-1.11201e-05
3.54866e-06
-1.12551e-05
5.53803e-07
-1.09798e-05
-4.20645e-07
-1.02717e-05
-1.39663e-06
-8.8672e-06
-2.42402e-06
-6.61715e-06
-4.66457e-06
-4.1046e-06
-5.02228e-06
-2.30076e-06
-2.83163e-06
-5.72736e-06
1.96778e-06
2.56708e-05
3.71374e-06
2.54567e-05
5.93797e-06
2.62744e-05
7.7257e-06
2.62417e-05
8.90222e-06
2.66231e-05
1.00419e-05
2.84502e-05
1.06938e-05
3.06696e-05
1.04547e-05
3.4699e-05
7.80329e-06
4.05732e-05
8.55138e-06
3.79523e-05
6.21652e-06
3.00685e-05
1.53544e-06
2.83483e-05
-4.07427e-06
1.8715e-05
-8.47442e-06
1.28531e-05
-1.12417e-05
6.37912e-06
-1.21413e-05
1.49768e-06
-1.17712e-05
-7.57487e-07
-1.07162e-05
-2.42113e-06
-8.70256e-06
-4.39961e-06
-5.92513e-06
-7.38842e-06
-2.98345e-06
-7.93228e-06
-5.37085e-07
-5.2665e-06
-6.26217e-06
1.92467e-06
2.04864e-06
3.09357e-06
2.29412e-06
5.90226e-06
1.85238e-06
7.45708e-06
2.41469e-06
7.8255e-06
3.44582e-06
9.33284e-06
3.88373e-06
1.09688e-05
5.55862e-06
1.29999e-05
9.30552e-06
1.26943e-05
1.68485e-05
5.98717e-06
3.0352e-05
-1.23873e-06
5.26984e-05
-3.97224e-06
5.98655e-05
-6.17071e-06
3.46026e-05
-9.77913e-06
2.32559e-05
-1.16809e-05
1.03781e-05
-1.23873e-05
3.1361e-06
-1.18285e-05
-1.0246e-06
-1.05063e-05
-3.62861e-06
-8.33629e-06
-6.41543e-06
-6.45124e-06
-9.06361e-06
-3.75738e-06
-1.05249e-05
-7.37376e-07
-8.25678e-06
-6.99426e-06
9.3555e-07
-8.69832e-06
1.89788e-06
-8.26909e-06
2.83888e-06
-8.97096e-06
3.44954e-06
-7.73676e-06
3.41359e-06
-5.85295e-06
3.79838e-06
-6.0106e-06
4.19821e-06
-4.95354e-06
4.21222e-06
-2.7312e-06
2.86275e-06
2.73451e-06
-5.69757e-07
1.11582e-05
-3.96742e-06
2.40831e-05
-1.52235e-05
4.39435e-05
-1.42768e-05
5.66628e-05
-1.30066e-05
3.90439e-05
-1.36818e-05
1.80194e-05
-1.31597e-05
4.94713e-06
-1.17521e-05
-1.06086e-06
-9.77016e-06
-4.45254e-06
-7.72275e-06
-7.65602e-06
-6.87562e-06
-9.62502e-06
-5.01668e-06
-1.21066e-05
-1.44218e-06
-1.11124e-05
-8.38963e-06
-5.19369e-08
-8.64765e-06
2.10545e-09
-8.3243e-06
-4.91615e-07
-8.47847e-06
-1.40133e-06
-6.82815e-06
-2.4224e-06
-4.8329e-06
-3.81975e-06
-4.61418e-06
-5.80243e-06
-2.97186e-06
-7.1381e-06
-1.39699e-06
-5.46385e-06
1.04536e-06
-2.39599e-06
7.37055e-06
-4.93034e-06
2.06777e-05
-1.55127e-05
3.77204e-05
-2.43079e-05
5.49551e-05
-1.88477e-05
4.55705e-05
-1.76578e-05
3.03138e-05
-1.63919e-05
8.74519e-06
-1.30289e-05
-7.31508e-07
-9.50342e-06
-5.53208e-06
-7.17959e-06
-2.71867e-06
-6.89279e-06
5.79533e-06
-5.79148e-06
1.27715e-05
-2.70623e-06
1.17383e-05
3.15976e-06
-2.45148e-07
-8.40249e-06
-2.61287e-07
-8.30816e-06
9.91169e-08
-8.83888e-06
6.51585e-08
-6.79419e-06
-4.44986e-07
-4.32276e-06
-1.01386e-06
-4.04532e-06
-3.04772e-06
-9.38003e-07
-6.45259e-06
2.00787e-06
-1.1718e-05
6.31074e-06
-1.64736e-05
1.21255e-05
-1.79482e-05
2.20597e-05
-2.24963e-05
3.96814e-05
-3.07684e-05
4.84969e-05
-2.85061e-05
4.64444e-05
-2.1793e-05
3.59797e-05
-2.09618e-05
1.97609e-05
-1.6576e-05
1.2627e-05
-1.08596e-05
1.14979e-05
-7.42936e-06
1.30201e-05
-6.55025e-06
1.76257e-05
-5.33779e-06
1.68164e-05
-3.14705e-06
1.45072e-05
1.46662e-05
-1.12584e-07
-8.28991e-06
-1.76866e-07
-8.24388e-06
-6.71894e-07
-8.34385e-06
-1.25302e-06
-6.21307e-06
-2.14533e-06
-3.43045e-06
-4.0931e-06
-2.09755e-06
-5.37181e-06
3.40677e-07
-5.90873e-06
2.54476e-06
-5.91676e-06
6.31877e-06
-7.73854e-06
1.39474e-05
-1.36707e-05
2.80341e-05
-2.28242e-05
4.94817e-05
-3.42204e-05
5.36456e-05
-3.64686e-05
4.16896e-05
-3.51376e-05
3.92989e-05
-2.86667e-05
2.566e-05
-2.24541e-05
1.48431e-05
-1.59718e-05
1.42426e-05
-1.13781e-05
1.46509e-05
-6.5743e-06
1.65287e-05
-3.78175e-06
1.40521e-05
-2.43192e-06
1.19337e-05
1.82643e-05
-1.71988e-05
3.07968e-05
-1.48798e-05
2.58857e-05
1.04464e-05
1.42194e-05
3.10873e-05
1.7204e-05
3.88273e-05
2.19975e-05
4.49827e-05
2.58876e-05
5.2244e-05
2.77546e-05
5.8545e-05
2.89133e-05
6.35956e-05
2.28321e-05
6.69086e-05
1.92235e-06
6.81746e-05
-5.53864e-06
6.80977e-05
-6.82737e-06
6.61739e-05
-6.10086e-06
5.93585e-05
-9.9195e-07
4.59365e-05
4.80974e-06
2.42206e-05
1.51507e-05
3.84584e-06
2.8046e-05
-4.87506e-06
2.92856e-05
1.12498e-05
-6.24208e-06
2.06728e-05
1.08232e-05
-4.50953e-06
3.03965e-05
-2.96709e-06
4.37938e-05
1.06882e-05
5.03843e-05
2.46353e-05
5.35777e-05
2.79879e-05
5.64178e-05
2.71497e-05
5.79424e-05
2.75946e-05
5.21477e-05
2.63647e-05
6.18239e-05
1.95417e-05
6.51384e-05
1.20205e-05
6.62391e-05
6.49287e-07
6.79091e-05
-1.47667e-05
6.7908e-05
-9.97412e-06
5.94839e-05
7.96899e-06
3.7234e-05
3.49185e-05
1.51656e-05
4.65493e-05
-1.71733e-06
3.93759e-05
8.32499e-06
3.07501e-06
9.86554e-06
2.82091e-05
-4.59187e-05
4.74959e-05
-3.46152e-05
6.08976e-05
-1.72943e-05
6.11504e-05
3.09352e-06
6.16432e-05
1.01383e-05
6.19904e-05
1.15261e-05
6.18804e-05
1.03089e-05
6.10077e-05
6.52433e-06
5.57302e-05
3.72618e-06
4.7728e-05
1.77432e-06
3.95804e-05
-8.59811e-06
3.49198e-05
-1.31751e-05
4.67007e-05
-1.33756e-05
4.65191e-05
-8.5821e-06
3.43659e-05
4.81028e-05
1.36364e-05
7.30144e-05
-2.51741e-06
6.61357e-05
9.49127e-06
2.32224e-05
3.44903e-06
3.96611e-05
-7.24406e-05
5.32692e-05
-6.06211e-05
6.16347e-05
-4.65921e-05
6.19946e-05
-2.09927e-05
6.20575e-05
-1.38465e-05
6.04531e-05
-1.0209e-05
5.92205e-05
-1.00134e-05
5.69725e-05
-1.18e-05
5.48489e-05
-1.26944e-05
5.21874e-05
-1.04534e-05
4.61561e-05
-1.13455e-05
3.65757e-05
-1.41361e-05
2.99231e-05
-2.00045e-05
2.34354e-05
-2.46835e-05
1.16714e-05
3.59903e-05
1.03745e-05
7.76329e-05
-2.08487e-06
8.15817e-05
1.69581e-05
3.88751e-05
-1.66991e-05
4.28657e-05
-7.09631e-05
4.63105e-05
-6.90505e-05
4.50907e-05
-5.17483e-05
4.79346e-05
-2.46782e-05
5.21102e-05
-1.84481e-05
5.56388e-05
-1.83759e-05
5.80563e-05
-1.83668e-05
5.91666e-05
-1.35488e-05
5.87735e-05
-6.26693e-06
5.60335e-05
-5.6815e-07
4.87554e-05
1.93465e-06
3.69299e-05
1.86611e-06
2.58748e-05
1.01692e-07
1.1423e-05
-4.21359e-06
-4.60329e-06
3.39571e-05
1.63493e-06
6.69424e-05
-9.54256e-07
8.49544e-05
2.81317e-05
3.23398e-05
-4.51217e-05
3.90829e-05
-7.42568e-05
3.9179e-05
-7.52089e-05
3.787e-05
-5.34007e-05
4.08462e-05
-2.88475e-05
4.22037e-05
-2.04097e-05
4.48191e-05
-1.75345e-05
4.88278e-05
-1.54647e-05
5.18135e-05
-1.16632e-05
5.33969e-05
-3.89302e-06
5.28709e-05
5.81851e-06
4.86677e-05
1.32346e-05
3.94784e-05
1.77337e-05
2.47253e-05
1.96291e-05
7.07576e-06
2.71461e-05
-1.30608e-05
4.65958e-05
-1.26457e-05
6.72408e-05
-1.50982e-06
7.16365e-05
1.73901e-05
2.75017e-05
-7.98904e-05
3.54193e-05
-8.88469e-05
3.45778e-05
-7.97075e-05
3.29603e-05
-5.45868e-05
3.53585e-05
-3.30047e-05
3.72225e-05
-2.24275e-05
3.94253e-05
-1.82174e-05
4.10727e-05
-1.56362e-05
4.33401e-05
-1.33924e-05
4.6299e-05
-8.57831e-06
4.77289e-05
3.96722e-06
4.5235e-05
1.7152e-05
3.87054e-05
2.50369e-05
2.33595e-05
2.98934e-05
7.57079e-06
4.71323e-05
-9.46121e-06
5.87865e-05
-1.72072e-05
7.10689e-05
-6.79548e-06
5.57812e-05
-3.00186e-07
2.9543e-05
-0.000114233
3.4645e-05
-9.93095e-05
3.20899e-05
-8.67725e-05
3.0715e-05
-5.94637e-05
3.34513e-05
-3.97826e-05
3.5691e-05
-2.74954e-05
3.71709e-05
-2.15289e-05
3.76235e-05
-1.64725e-05
3.7471e-05
-1.37562e-05
3.80446e-05
-9.92305e-06
3.98113e-05
2.08239e-06
3.96764e-05
1.89624e-05
3.86249e-05
2.97048e-05
2.88513e-05
4.06816e-05
1.87018e-05
5.81821e-05
7.62159e-07
7.36038e-05
-1.5876e-05
7.47218e-05
-1.05001e-05
4.30484e-05
-1.97291e-05
-9.81449e-07
-7.30849e-06
-2.90886e-07
-8.93447e-06
4.11588e-06
-1.27506e-05
7.89275e-06
-9.99016e-06
7.12055e-06
-2.65873e-06
4.38814e-06
6.27689e-07
-2.36555e-06
7.09244e-06
-1.33075e-05
1.34873e-05
-2.60834e-05
1.90972e-05
-3.46152e-05
2.24809e-05
-3.33419e-05
2.67627e-05
-2.35455e-05
3.98683e-05
-2.93985e-05
5.46243e-05
-4.81624e-05
4.2569e-05
-5.35339e-05
2.0131e-05
-4.68911e-05
5.50132e-06
-4.46634e-05
5.2449e-08
-4.05903e-05
-8.86001e-06
-2.97407e-05
-1.70459e-05
-9.45361e-06
-2.32263e-05
2.14494e-06
-1.91178e-05
5.11217e-06
-1.16874e-05
-1.97943e-06
8.40229e-06
1.18342e-06
-8.49191e-06
2.2882e-06
-1.00393e-05
3.5715e-06
-1.40691e-05
3.64955e-06
-1.02353e-05
4.06202e-06
-3.43492e-06
3.84074e-06
-3.42801e-07
1.44156e-06
8.48223e-06
-4.57834e-07
1.48588e-05
-1.40857e-06
1.98138e-05
-3.36091e-06
2.43501e-05
-4.2049e-06
2.75942e-05
5.44217e-06
3.02156e-05
2.44058e-05
3.47902e-05
3.49097e-05
2.69185e-05
3.52954e-05
9.01235e-06
2.8145e-05
-5.44685e-06
2.40198e-05
-1.48961e-05
2.51151e-05
-2.56391e-05
3.27665e-05
-3.73383e-05
4.07561e-05
-4.36494e-05
5.0004e-05
-4.08494e-05
5.91778e-05
-3.4868e-05
-2.87231e-05
6.69375e-05
-3.97782e-06
-4.5141e-06
-4.19233e-06
-9.8673e-06
5.44969e-06
-2.47973e-05
1.31601e-05
-2.1176e-05
1.18617e-05
-6.44344e-06
2.74189e-06
3.71514e-06
-6.50765e-06
1.29389e-05
-1.24671e-05
1.74398e-05
-1.45022e-05
1.93969e-05
-1.36755e-05
2.17615e-05
-9.73862e-06
2.24826e-05
-1.52216e-06
2.12058e-05
1.22893e-05
2.07448e-05
2.41874e-05
1.47744e-05
3.36375e-05
-1.00652e-06
4.31892e-05
-1.57333e-05
5.23416e-05
-2.52288e-05
5.95195e-05
-3.47511e-05
6.22351e-05
-4.32364e-05
6.4176e-05
-5.06912e-05
6.89489e-05
-5.45643e-05
7.23176e-05
-5.44046e-05
-4.80864e-05
6.61885e-05
-9.33569e-06
4.80471e-06
-8.81097e-06
-1.07033e-05
-3.46114e-06
-3.49631e-05
-9.76331e-06
-2.52022e-05
-1.79155e-05
-1.25259e-05
-2.1909e-05
-3.88239e-06
-2.17531e-05
4.22895e-06
-2.30428e-05
1.07511e-05
-2.16463e-05
1.12035e-05
-2.10818e-05
1.46769e-05
-1.77419e-05
1.29019e-05
-1.11482e-05
9.05241e-06
6.10748e-07
4.27163e-06
1.3742e-05
-2.60087e-06
2.21987e-05
-1.31744e-05
2.9686e-05
-2.73168e-05
3.70126e-05
-3.70029e-05
4.55666e-05
-5.56284e-05
5.18279e-05
-7.39242e-05
5.67607e-05
-9.93618e-05
6.39942e-05
-0.000116269
7.03529e-05
-0.000125008
-0.000128229
6.29125e-05
-1.52887e-05
-1.73762e-05
-3.25741e-05
-3.31402e-05
-6.84512e-05
-6.02209e-05
-0.000100794
-8.18207e-05
-0.000102239
-6.44892e-05
-9.53645e-05
-5.29171e-05
-8.41517e-05
-5.64743e-05
-6.86093e-05
-3.38716e-05
-5.50131e-05
-2.64841e-05
-4.48632e-05
-1.19606e-05
-3.82758e-05
-1.12714e-05
-2.99963e-05
-2.28354e-05
-1.78865e-05
-5.0182e-05
-5.51016e-06
-5.35393e-05
6.21745e-06
-6.70732e-05
1.53683e-05
-8.41565e-05
2.01026e-05
-0.000101083
2.29978e-05
-0.000131973
2.25931e-05
-0.000158084
2.10743e-05
-0.000158591
2.71964e-05
-9.48195e-05
3.48344e-05
-7.60992e-05
-9.73273e-05
4.99934e-05
-1.27956e-05
-5.96456e-05
-4.34737e-05
-7.97794e-05
-8.66054e-05
-0.000104114
-9.90712e-05
-0.00013178
-0.000116272
-4.77661e-05
-0.000117718
-4.96455e-05
-0.000108412
-6.58457e-05
-7.87786e-05
-3.59147e-05
-7.20159e-05
-1.30966e-05
-6.36089e-05
-2.52569e-05
-5.86912e-05
-2.47567e-05
-5.93385e-05
1.75526e-06
-5.63396e-05
-1.54824e-05
-4.34837e-05
-1.21372e-05
-3.4526e-05
-1.78177e-05
-2.60877e-05
-6.46405e-05
-2.08799e-05
-7.3872e-05
-8.53502e-06
-7.35008e-05
-6.96245e-06
-9.72118e-05
-2.92717e-05
-7.56459e-05
-4.49592e-05
-3.771e-05
-2.09955e-05
-2.84752e-05
2.3573e-05
1.25884e-05
-6.35258e-06
-7.84855e-05
-3.01579e-05
-9.72339e-05
-5.07586e-05
-8.10137e-05
-5.42148e-05
-6.49525e-05
-7.80201e-05
-2.09607e-06
-1.25681e-05
-5.74121e-05
3.68929e-05
-6.27536e-05
9.72653e-06
-2.82661e-05
-3.64929e-05
2.52464e-05
-5.58739e-05
-6.94386e-07
-3.26744e-05
-3.77672e-06
-5.35325e-05
3.87704e-05
-8.04782e-05
3.71411e-05
-0.000118653
4.59482e-05
-0.000139164
4.57797e-05
-0.000157794
-3.19726e-06
-0.000173498
-3.35391e-05
-0.000159922
-6.52147e-05
-0.000126106
-7.13858e-05
-8.98845e-05
-6.96031e-05
-0.000101549
-5.54629e-05
-0.00014961
2.15993e-05
0.000188635
-0.000181361
-4.29288e-06
-3.90286e-05
-7.42719e-06
-3.1458e-05
-4.03852e-06
3.32356e-06
6.26283e-06
4.51288e-05
2.24267e-05
-2.01196e-05
1.29114e-05
-4.77939e-05
-1.31041e-05
-3.73618e-05
-3.34894e-05
-7.55634e-06
-4.58493e-05
4.41079e-05
-6.26322e-05
5.98448e-05
-6.90195e-05
2.19512e-05
-5.26531e-05
-1.26161e-07
-1.7853e-05
-2.31803e-05
1.7056e-05
-1.60195e-05
3.38112e-05
-2.55278e-06
3.24117e-05
-1.25817e-05
2.2184e-05
-2.41099e-05
-5.42814e-06
-3.71978e-05
-4.47736e-05
-3.16698e-05
-9.54094e-05
-1.8905e-05
-0.000157104
6.08345e-06
-0.000203291
6.82096e-05
0.000205956
-0.000218387
-2.80341e-05
7.10284e-05
-2.75557e-06
5.98729e-05
2.52781e-05
5.9519e-05
5.20306e-05
3.73565e-05
4.55862e-05
-4.15202e-06
4.26879e-05
-4.35281e-05
3.95404e-05
-3.42099e-05
3.05515e-06
2.92636e-05
-7.19419e-06
5.42058e-05
4.53773e-07
5.24039e-05
-1.61065e-05
3.87201e-05
-2.56469e-05
9.36713e-06
-2.54742e-05
-2.35829e-05
-2.15105e-05
-2.0248e-05
-2.24213e-05
-1.65495e-06
-2.67697e-05
-8.06635e-06
-3.43864e-05
-1.5973e-05
-4.91661e-05
-2.23249e-05
-6.94533e-05
-1.13201e-05
-9.61862e-05
7.82236e-06
-0.00013608
4.58891e-05
-0.000174004
0.000105992
0.000208304
-0.00017624
-1.31262e-05
8.39696e-05
-4.67343e-06
5.13303e-05
1.13505e-05
4.30363e-05
2.60788e-05
2.19361e-05
3.13487e-05
-1.02767e-05
1.27818e-05
-2.52233e-05
2.76903e-06
-2.4099e-05
-7.4325e-07
3.25529e-05
-9.15971e-06
6.25484e-05
-1.59659e-05
5.92492e-05
-1.32344e-05
3.59387e-05
3.4213e-06
-7.19439e-06
-5.63463e-06
-1.43599e-05
-8.33347e-06
-1.76574e-05
3.92095e-06
-1.39202e-05
8.53999e-06
-1.26855e-05
3.37065e-06
-1.08068e-05
-1.26962e-05
-6.2592e-06
-3.30493e-05
9.03476e-06
-6.01695e-05
3.49454e-05
-8.56836e-05
7.14089e-05
-9.71648e-05
0.00011746
0.000182299
-7.125e-05
2.55612e-06
8.09267e-05
9.58365e-06
4.45388e-05
2.2274e-05
3.01593e-05
3.22958e-05
1.21297e-05
2.13371e-05
7.65491e-07
5.16804e-06
-9.09424e-06
-6.25231e-06
-1.26176e-05
2.11759e-06
2.42985e-05
1.72047e-05
4.74917e-05
3.69826e-05
3.95361e-05
5.04297e-05
2.25158e-05
3.10346e-05
1.2125e-05
1.16559e-05
5.29986e-06
-2.20027e-06
-3.60094e-06
-1.2514e-05
-3.56388e-06
-2.23253e-05
-2.86687e-06
-3.32001e-05
6.86757e-08
-4.46507e-05
5.19236e-06
-5.52945e-05
1.96817e-05
-6.09867e-05
4.06427e-05
-6.08595e-05
7.12858e-05
-4.98646e-05
0.000106483
0.00014459
-1.22007e-05
1.41496e-05
6.68074e-05
1.68257e-05
4.20459e-05
2.0119e-05
2.69561e-05
1.68055e-05
1.55769e-05
1.06716e-05
6.88163e-06
4.24209e-07
1.14609e-06
-1.03118e-05
-1.88041e-06
-6.79661e-07
1.46317e-05
1.7082e-05
2.97107e-05
2.14848e-05
3.51088e-05
1.3624e-05
3.03626e-05
8.18222e-06
1.74513e-05
2.95474e-06
1.02571e-05
-4.87002e-06
4.10302e-06
-9.84652e-06
1.39713e-06
-1.54416e-05
2.72557e-06
-2.20051e-05
6.63152e-06
-3.11231e-05
1.43122e-05
-3.97002e-05
2.82623e-05
-4.60767e-05
4.70247e-05
-4.52512e-05
7.04648e-05
-3.27872e-05
9.40229e-05
0.000117457
-5.66751e-06
1.44837e-05
5.23336e-05
1.78412e-05
3.8907e-05
1.89802e-05
2.58803e-05
1.69703e-05
1.76032e-05
1.11266e-05
1.27249e-05
1.84549e-06
1.04279e-05
-8.80427e-06
8.77474e-06
-9.48943e-06
1.53283e-05
-2.43884e-07
2.04635e-05
7.15574e-06
2.77025e-05
9.21682e-06
2.83545e-05
4.03252e-06
2.28704e-05
-2.83225e-06
1.73386e-05
-1.11147e-05
1.24179e-05
-2.00513e-05
1.03329e-05
-2.85207e-05
1.11946e-05
-3.64307e-05
1.45427e-05
-4.26846e-05
2.05688e-05
-4.5337e-05
3.09191e-05
-4.40163e-05
4.57094e-05
-3.84732e-05
6.49261e-05
-2.79746e-05
8.35282e-05
9.91153e-05
-9.63825e-06
9.84629e-06
4.25079e-05
1.45573e-05
3.43124e-05
1.50043e-05
2.55172e-05
1.21069e-05
2.0502e-05
7.34862e-06
1.74833e-05
1.97315e-06
1.58034e-05
-4.37286e-06
1.51207e-05
-7.14366e-06
1.81013e-05
-6.61647e-06
1.99428e-05
-3.74476e-06
2.48292e-05
-2.71621e-06
2.73301e-05
-5.44427e-06
2.55863e-05
-9.49285e-06
2.13806e-05
-1.42116e-05
1.71354e-05
-1.87257e-05
1.48463e-05
-2.28673e-05
1.53364e-05
-2.7498e-05
1.91753e-05
-3.2728e-05
2.58029e-05
-3.70046e-05
3.51996e-05
-3.73543e-05
4.60656e-05
-3.22164e-05
5.97924e-05
-2.25146e-05
7.38305e-05
8.5322e-05
-8.72214e-06
5.78217e-06
3.67334e-05
9.48625e-06
3.06365e-05
9.5138e-06
2.54944e-05
7.55331e-06
2.24626e-05
4.77618e-06
2.02605e-05
1.4807e-06
1.90988e-05
-2.06193e-06
1.86633e-05
-4.0088e-06
2.00483e-05
-5.1221e-06
2.10573e-05
-4.55645e-06
2.42682e-05
-3.37142e-06
2.6148e-05
-3.69492e-06
2.59122e-05
-5.89168e-06
2.35771e-05
-1.00852e-05
2.13284e-05
-1.51963e-05
1.99573e-05
-1.98585e-05
1.99993e-05
-2.34098e-05
2.27302e-05
-2.59227e-05
2.83182e-05
-2.72007e-05
3.64845e-05
-2.67187e-05
4.55867e-05
-2.26603e-05
5.57408e-05
-1.51237e-05
6.62972e-05
7.51366e-05
-4.93842e-06
3.49657e-06
3.32395e-05
5.65736e-06
2.84773e-05
5.64864e-06
2.55032e-05
4.68015e-06
2.34311e-05
3.14524e-06
2.17954e-05
1.33379e-06
2.09102e-05
-5.22977e-07
2.052e-05
-1.80039e-06
2.13256e-05
-2.80237e-06
2.20592e-05
-2.68459e-06
2.41505e-05
-2.06463e-06
2.5528e-05
-1.75929e-06
2.56068e-05
-2.62362e-06
2.4441e-05
-4.8213e-06
2.35258e-05
-7.87825e-06
2.30144e-05
-1.14763e-05
2.35989e-05
-1.47542e-05
2.6009e-05
-1.70575e-05
3.06269e-05
-1.80265e-05
3.74543e-05
-1.73555e-05
4.49231e-05
-1.37673e-05
5.21544e-05
-7.31993e-06
5.98548e-05
6.69228e-05
8.91862e-07
2.08197e-06
3.11578e-05
3.45066e-06
2.71087e-05
3.66812e-06
2.52858e-05
3.21707e-06
2.38822e-05
2.32747e-06
2.26849e-05
1.26519e-06
2.19724e-05
1.25535e-07
2.16595e-05
-6.71066e-07
2.21221e-05
-1.27255e-06
2.26606e-05
-1.14551e-06
2.40234e-05
-6.30604e-07
2.5013e-05
-2.31733e-07
2.52078e-05
-5.3443e-07
2.47436e-05
-1.71581e-06
2.47072e-05
-3.58316e-06
2.48814e-05
-6.10188e-06
2.61181e-05
-8.73858e-06
2.86479e-05
-1.06207e-05
3.25084e-05
-1.10235e-05
3.78624e-05
-1.02195e-05
4.4119e-05
-7.37562e-06
4.93163e-05
-1.79257e-06
5.42728e-05
5.95747e-05
5.55698e-06
1.30786e-06
2.98497e-05
2.29233e-06
2.61241e-05
2.62947e-06
2.49485e-05
2.48886e-06
2.40227e-05
1.92484e-06
2.32489e-05
1.14503e-06
2.27522e-05
2.4235e-07
2.25622e-05
-4.53324e-07
2.28177e-05
-1.00251e-06
2.32097e-05
-9.2121e-07
2.39421e-05
-4.57376e-07
2.45491e-05
-1.70615e-07
2.4921e-05
-5.30964e-07
2.51039e-05
-1.4606e-06
2.56365e-05
-2.99115e-06
2.64129e-05
-4.98313e-06
2.81099e-05
-6.53325e-06
3.01983e-05
-7.11121e-06
3.3091e-05
-6.64462e-06
3.73962e-05
-4.99536e-06
4.24768e-05
-2.00497e-06
4.63284e-05
3.01794e-06
4.92554e-05
5.28854e-05
9.70725e-06
9.17014e-07
2.89327e-05
1.66307e-06
2.53779e-05
1.92452e-06
2.4687e-05
1.81309e-06
2.4134e-05
1.36792e-06
2.3694e-05
7.10862e-07
2.34091e-05
-9.69725e-09
2.32827e-05
-6.33243e-07
2.34412e-05
-1.12913e-06
2.37055e-05
-1.2928e-06
2.41056e-05
-1.27865e-06
2.45348e-05
-1.3514e-06
2.49936e-05
-1.75158e-06
2.5504e-05
-2.32101e-06
2.62065e-05
-3.21125e-06
2.73024e-05
-4.11083e-06
2.90108e-05
-4.58723e-06
3.06757e-05
-4.41118e-06
3.29168e-05
-3.42184e-06
3.64085e-05
-1.16176e-06
4.0219e-05
2.36437e-06
4.28046e-05
7.01787e-06
4.4603e-05
4.71646e-05
1.2739e-05
6.9709e-07
2.82354e-05
1.11877e-06
2.49562e-05
1.2505e-06
2.45552e-05
1.19675e-06
2.41877e-05
9.62226e-07
2.39285e-05
6.02479e-07
2.37688e-05
1.68157e-07
2.3717e-05
-2.66091e-07
2.38754e-05
-6.5988e-07
2.40993e-05
-9.33375e-07
2.43791e-05
-1.07265e-06
2.46741e-05
-1.25804e-06
2.5179e-05
-1.59703e-06
2.5843e-05
-1.9148e-06
2.65244e-05
-2.14407e-06
2.75325e-05
-1.94229e-06
2.88098e-05
-1.64907e-06
3.03838e-05
-1.1696e-06
3.24391e-05
2.38872e-07
3.50016e-05
2.78876e-06
3.76711e-05
6.1287e-06
3.94659e-05
1.0272e-05
4.04616e-05
4.2158e-05
1.52776e-05
4.70899e-07
2.77645e-05
7.64966e-07
2.4662e-05
9.35741e-07
2.43843e-05
9.86566e-07
2.41369e-05
9.3623e-07
2.39788e-05
8.13158e-07
2.38919e-05
6.19419e-07
2.39107e-05
4.20233e-07
2.40747e-05
2.00405e-07
2.43192e-05
-6.07063e-08
2.46403e-05
-2.99435e-07
2.49129e-05
-4.65438e-07
2.5345e-05
-6.30867e-07
2.60086e-05
-7.22489e-07
2.66165e-05
-5.95296e-07
2.74057e-05
-2.09485e-07
2.84252e-05
2.60414e-07
2.99153e-05
1.03592e-06
3.16651e-05
2.58746e-06
3.34516e-05
4.91913e-06
3.5341e-05
7.88467e-06
3.65018e-05
1.13593e-05
3.69874e-05
3.8012e-05
1.55054e-05
3.52314e-07
2.74121e-05
6.39149e-07
2.43751e-05
8.41071e-07
2.41824e-05
9.05951e-07
2.40719e-05
9.14337e-07
2.39704e-05
8.71433e-07
2.39348e-05
8.09633e-07
2.39725e-05
7.8685e-07
2.40975e-05
8.00489e-07
2.43056e-05
7.84924e-07
2.46559e-05
7.04533e-07
2.49933e-05
7.15163e-07
2.53345e-05
8.56985e-07
2.5867e-05
9.94201e-07
2.64796e-05
1.1736e-06
2.72273e-05
1.46515e-06
2.81347e-05
2.18587e-06
2.9196e-05
3.44285e-06
3.04095e-05
5.13893e-06
3.17568e-05
7.41115e-06
3.307e-05
1.01676e-05
3.37461e-05
1.3106e-05
3.40503e-05
3.47644e-05
1.63524e-05
3.1106e-07
2.71011e-05
4.9835e-07
2.41878e-05
6.16554e-07
2.40642e-05
6.87215e-07
2.40013e-05
7.19268e-07
2.39383e-05
7.22488e-07
2.39316e-05
7.21171e-07
2.39739e-05
7.42141e-07
2.40766e-05
7.91988e-07
2.42558e-05
8.83659e-07
2.45643e-05
9.47033e-07
2.49301e-05
1.03612e-06
2.52456e-05
1.27213e-06
2.56312e-05
1.61494e-06
2.61373e-05
2.04699e-06
2.67958e-05
2.52189e-06
2.7661e-05
3.23778e-06
2.84814e-05
4.36887e-06
2.92797e-05
5.93641e-06
3.01903e-05
8.00115e-06
3.10063e-05
1.04363e-05
3.13119e-05
1.30301e-05
3.14566e-05
3.17978e-05
1.59966e-05
2.50952e-07
2.685e-05
4.19997e-07
2.40187e-05
5.54883e-07
2.39292e-05
6.67092e-07
2.3889e-05
7.33758e-07
2.38716e-05
7.7318e-07
2.38922e-05
8.01074e-07
2.3946e-05
8.43011e-07
2.40347e-05
9.09245e-07
2.41897e-05
1.02283e-06
2.44508e-05
1.18687e-06
2.47661e-05
1.36088e-06
2.50717e-05
1.57445e-06
2.54179e-05
1.91642e-06
2.57958e-05
2.42357e-06
2.62895e-05
3.2576e-06
2.68279e-05
4.34264e-06
2.73975e-05
5.52824e-06
2.80952e-05
7.04119e-06
2.86782e-05
8.96923e-06
2.90792e-05
1.1012e-05
2.92694e-05
1.32127e-05
2.9257e-05
2.90376e-05
1.59718e-05
2.7382e-07
2.65762e-05
4.56052e-07
2.38365e-05
6.04618e-07
2.37807e-05
7.29166e-07
2.37645e-05
8.32703e-07
2.37681e-05
9.30565e-07
2.37944e-05
1.02968e-06
2.3847e-05
1.12622e-06
2.39382e-05
1.22579e-06
2.40901e-05
1.39386e-06
2.42828e-05
1.66776e-06
2.44923e-05
1.98446e-06
2.47551e-05
2.33065e-06
2.5072e-05
2.70761e-06
2.54193e-05
3.23849e-06
2.57593e-05
3.92915e-06
2.61383e-05
4.72129e-06
2.66065e-05
5.82999e-06
2.69875e-05
7.30903e-06
2.72e-05
9.00397e-06
2.73849e-05
1.08109e-05
2.74631e-05
1.28686e-05
2.71994e-05
2.66317e-05
1.52744e-05
2.17742e-07
2.63584e-05
3.81037e-07
2.36732e-05
5.44996e-07
2.36167e-05
6.91022e-07
2.36185e-05
8.20639e-07
2.36385e-05
9.41208e-07
2.36738e-05
1.06417e-06
2.3724e-05
1.19594e-06
2.38065e-05
1.35599e-06
2.39302e-05
1.55131e-06
2.40876e-05
1.76952e-06
2.42742e-05
2.05117e-06
2.44736e-05
2.46272e-06
2.46607e-05
2.92632e-06
2.49561e-05
3.46381e-06
2.52225e-05
4.1796e-06
2.54233e-05
5.15822e-06
2.56289e-05
6.37606e-06
2.57704e-05
7.65478e-06
2.59219e-05
9.07798e-06
2.59623e-05
1.07376e-05
2.58038e-05
1.25733e-05
2.53645e-05
2.47111e-05
1.44929e-05
2.30748e-07
2.61277e-05
4.04163e-07
2.34997e-05
5.73352e-07
2.34475e-05
7.40044e-07
2.34518e-05
9.03458e-07
2.34751e-05
1.06197e-06
2.35153e-05
1.22179e-06
2.35643e-05
1.39495e-06
2.36334e-05
1.60336e-06
2.37218e-05
1.84199e-06
2.3849e-05
2.08867e-06
2.40276e-05
2.37614e-06
2.41863e-05
2.72834e-06
2.43087e-05
3.24877e-06
2.44361e-05
3.93896e-06
2.45329e-05
4.68277e-06
2.46804e-05
5.50239e-06
2.48101e-05
6.36371e-06
2.49099e-05
7.42935e-06
2.48568e-05
8.79213e-06
2.46e-05
1.03528e-05
2.42435e-05
1.19274e-05
2.37897e-05
2.30245e-05
1.36138e-05
2.23909e-07
2.59037e-05
3.97415e-07
2.33262e-05
5.69385e-07
2.32755e-05
7.30709e-07
2.32904e-05
8.9094e-07
2.33149e-05
1.05866e-06
2.33477e-05
1.22773e-06
2.33952e-05
1.40407e-06
2.34571e-05
1.60105e-06
2.35249e-05
1.85677e-06
2.35934e-05
2.20874e-06
2.36757e-05
2.61053e-06
2.37846e-05
3.01657e-06
2.39029e-05
3.44228e-06
2.40108e-05
3.88861e-06
2.40871e-05
4.50827e-06
2.40614e-05
5.30674e-06
2.40123e-05
6.32029e-06
2.3897e-05
7.47942e-06
2.36981e-05
8.61895e-06
2.34609e-05
9.77651e-06
2.30861e-05
1.11415e-05
2.24255e-05
2.15725e-05
1.25927e-05
2.3025e-07
2.56735e-05
4.20003e-07
2.31365e-05
6.14785e-07
2.30807e-05
8.06132e-07
2.30991e-05
9.95593e-07
2.31254e-05
1.18681e-06
2.31565e-05
1.38333e-06
2.31988e-05
1.59102e-06
2.32495e-05
1.80865e-06
2.33073e-05
2.02748e-06
2.33746e-05
2.25866e-06
2.34445e-05
2.54793e-06
2.34954e-05
2.93566e-06
2.35154e-05
3.43156e-06
2.35152e-05
4.0567e-06
2.34625e-05
4.75107e-06
2.33677e-05
5.47722e-06
2.32869e-05
6.24119e-06
2.31335e-05
7.04321e-06
2.28965e-05
8.02657e-06
2.24778e-05
9.20088e-06
2.19121e-05
1.03738e-05
2.12526e-05
2.04018e-05
1.15444e-05
2.18771e-07
2.54547e-05
4.00452e-07
2.29548e-05
5.89384e-07
2.28918e-05
7.76887e-07
2.29116e-05
9.62898e-07
2.29395e-05
1.1484e-06
2.2971e-05
1.33878e-06
2.30084e-05
1.5416e-06
2.30467e-05
1.76592e-06
2.3083e-05
2.0327e-06
2.31079e-05
2.36096e-06
2.31163e-05
2.73132e-06
2.31252e-05
3.12742e-06
2.31195e-05
3.56131e-06
2.30816e-05
4.01002e-06
2.30142e-05
4.4914e-06
2.28869e-05
5.09652e-06
2.26823e-05
5.82789e-06
2.24026e-05
6.70271e-06
2.2022e-05
7.60615e-06
2.15746e-05
8.50662e-06
2.10117e-05
9.47912e-06
2.02807e-05
1.93904e-05
1.04898e-05
2.38505e-07
2.52162e-05
4.48502e-07
2.27448e-05
6.62774e-07
2.26775e-05
8.69429e-07
2.2705e-05
1.07228e-06
2.27366e-05
1.26869e-06
2.27746e-05
1.46204e-06
2.28151e-05
1.65758e-06
2.28512e-05
1.86248e-06
2.28782e-05
2.08044e-06
2.28899e-05
2.3123e-06
2.28845e-05
2.58129e-06
2.28563e-05
2.90935e-06
2.27916e-05
3.30348e-06
2.26878e-05
3.77953e-06
2.25386e-05
4.33989e-06
2.2327e-05
4.9484e-06
2.20743e-05
5.5799e-06
2.17714e-05
6.23067e-06
2.13714e-05
6.95519e-06
2.08504e-05
7.76737e-06
2.01998e-05
8.60132e-06
1.94466e-05
1.85613e-05
9.43038e-06
2.3028e-07
2.49859e-05
4.32648e-07
2.25424e-05
6.40837e-07
2.24694e-05
8.42918e-07
2.25029e-05
1.04254e-06
2.2537e-05
1.24017e-06
2.2577e-05
1.43814e-06
2.26172e-05
1.63987e-06
2.26495e-05
1.85035e-06
2.26678e-05
2.07768e-06
2.26626e-05
2.32914e-06
2.26331e-05
2.61395e-06
2.25715e-05
2.93283e-06
2.24728e-05
3.28252e-06
2.23383e-05
3.66461e-06
2.21568e-05
4.07882e-06
2.19133e-05
4.54364e-06
2.16099e-05
5.08908e-06
2.12263e-05
5.70325e-06
2.07574e-05
6.35035e-06
2.02035e-05
7.00612e-06
1.9544e-05
7.69115e-06
1.87621e-05
1.78687e-05
8.38305e-06
2.5466e-07
2.47313e-05
4.72942e-07
2.23241e-05
6.92105e-07
2.22502e-05
9.02754e-07
2.22923e-05
1.10836e-06
2.23314e-05
1.30962e-06
2.23758e-05
1.50549e-06
2.24213e-05
1.69683e-06
2.24582e-05
1.88631e-06
2.24783e-05
2.08382e-06
2.24652e-05
2.28744e-06
2.24295e-05
2.50815e-06
2.23509e-05
2.76157e-06
2.22196e-05
3.05541e-06
2.20447e-05
3.39354e-06
2.1819e-05
3.77723e-06
2.15299e-05
4.20137e-06
2.11861e-05
4.66026e-06
2.07677e-05
5.14633e-06
2.02715e-05
5.66895e-06
1.9681e-05
6.2211e-06
1.89921e-05
6.78876e-06
1.81944e-05
1.73039e-05
7.3536e-06
2.57363e-07
2.44739e-05
4.65086e-07
2.21164e-05
6.74362e-07
2.20409e-05
8.76788e-07
2.20899e-05
1.07774e-06
2.21305e-05
1.2815e-06
2.2172e-05
1.49216e-06
2.22107e-05
1.70658e-06
2.22438e-05
1.91305e-06
2.22719e-05
2.10804e-06
2.22702e-05
2.29458e-06
2.2243e-05
2.47885e-06
2.21667e-05
2.67094e-06
2.20276e-05
2.88702e-06
2.18288e-05
3.14111e-06
2.15652e-05
3.4334e-06
2.12379e-05
3.76871e-06
2.08511e-05
4.14194e-06
2.03946e-05
4.54885e-06
1.98647e-05
4.98255e-06
1.92474e-05
5.42946e-06
1.85452e-05
5.88158e-06
1.77427e-05
1.68481e-05
6.33686e-06
2.74688e-07
2.41992e-05
4.47241e-07
2.19439e-05
6.23327e-07
2.18649e-05
8.01502e-07
2.19117e-05
9.84566e-07
2.19475e-05
1.17695e-06
2.19797e-05
1.38305e-06
2.20046e-05
1.59375e-06
2.20331e-05
1.80869e-06
2.20569e-05
2.01547e-06
2.20635e-05
2.21857e-06
2.20399e-05
2.41264e-06
2.19727e-05
2.59529e-06
2.1845e-05
2.767e-06
2.16573e-05
2.93622e-06
2.13962e-05
3.11905e-06
2.10553e-05
3.34315e-06
2.06272e-05
3.62048e-06
2.01174e-05
3.93642e-06
1.95488e-05
4.27412e-06
1.89098e-05
4.62611e-06
1.81933e-05
4.97979e-06
1.73889e-05
1.64936e-05
5.33425e-06
2.67764e-07
2.39314e-05
3.72948e-07
2.18387e-05
4.783e-07
2.17595e-05
5.98912e-07
2.17911e-05
7.30385e-07
2.1816e-05
8.75661e-07
2.18344e-05
1.04069e-06
2.18396e-05
1.22424e-06
2.18496e-05
1.43106e-06
2.18501e-05
1.65176e-06
2.18428e-05
1.87635e-06
2.18154e-05
2.09281e-06
2.17563e-05
2.29426e-06
2.16437e-05
2.48409e-06
2.14676e-05
2.66427e-06
2.12161e-05
2.838e-06
2.08818e-05
2.99616e-06
2.04692e-05
3.14209e-06
1.99716e-05
3.32041e-06
1.93705e-05
3.55566e-06
1.86746e-05
3.81783e-06
1.7931e-05
4.08076e-06
1.71263e-05
1.62344e-05
4.33946e-06
2.13876e-07
2.37176e-05
1.84616e-07
2.1868e-05
1.49165e-07
2.1795e-05
1.54426e-07
2.17858e-05
1.79824e-07
2.17906e-05
2.35394e-07
2.17788e-05
3.20333e-07
2.17547e-05
4.46624e-07
2.17233e-05
6.16847e-07
2.16799e-05
8.29507e-07
2.16301e-05
1.07301e-06
2.15719e-05
1.32691e-06
2.15024e-05
1.5847e-06
2.13859e-05
1.84893e-06
2.12034e-05
2.0929e-06
2.09724e-05
2.3102e-06
2.06646e-05
2.49917e-06
2.02803e-05
2.66501e-06
1.98057e-05
2.8021e-06
1.92333e-05
2.90386e-06
1.85728e-05
3.02171e-06
1.78132e-05
3.18587e-06
1.69619e-05
1.6068e-05
3.35242e-06
9.82177e-08
2.36194e-05
-1.2984e-07
2.2096e-05
-3.65341e-07
2.20305e-05
-5.51371e-07
2.19719e-05
-6.85761e-07
2.1925e-05
-7.77301e-07
2.18704e-05
-8.20387e-07
2.17978e-05
-8.03553e-07
2.17065e-05
-7.2109e-07
2.15975e-05
-5.61183e-07
2.14702e-05
-3.21834e-07
2.13325e-05
-1.66123e-08
2.11972e-05
3.22458e-07
2.10469e-05
6.74314e-07
2.08517e-05