/*--------------------------------*- C++ -*----------------------------------*\
| =========                 |                                                 |
| \\      /  F ield         | OpenFOAM: The Open Source CFD Toolbox           |
|  \\    /   O peration     | Version:  2.4.0                                 |
|   \\  /    A nd           | Web:      www.OpenFOAM.org                      |
|    \\/     M anipulation  |                                                 |
\*---------------------------------------------------------------------------*/
FoamFile
{
    version     2.0;
    format      ascii;
    class       surfaceScalarField;
    location    "0.7";
    object      phi.oil;
}
// * * * * * * * * * * * * * * * * * * * * * * * * * * * * * * * * * * * * * //

dimensions      [0 3 -1 0 0 0 0];

internalField   nonuniform List<scalar> 
4432
(
1.93851e-06
-1.93854e-06
4.18506e-06
-2.24657e-06
5.53302e-06
-1.34801e-06
7.37665e-06
-1.84368e-06
9.55282e-06
-2.17619e-06
1.08059e-05
-1.25306e-06
1.15982e-05
-7.92384e-07
1.13559e-05
2.42305e-07
1.06445e-05
7.11444e-07
9.44135e-06
1.20328e-06
6.15773e-06
3.28369e-06
1.20689e-06
4.95078e-06
-4.66615e-06
5.87295e-06
-8.95391e-06
4.28775e-06
-1.09076e-05
1.95375e-06
-1.12979e-05
3.90309e-07
-1.11361e-05
-1.61398e-07
-1.04359e-05
-6.98655e-07
-9.40585e-06
-1.02643e-06
-6.97695e-06
-2.41816e-06
-4.44046e-06
-2.42809e-06
-3.42002e-06
-6.76727e-08
-1.36247e-06
1.95395e-06
-3.67631e-06
4.01687e-06
-4.0854e-06
5.71599e-06
-2.84666e-06
7.57496e-06
-3.48933e-06
9.45812e-06
-3.84486e-06
1.08611e-05
-2.47332e-06
1.1897e-05
-1.68384e-06
1.24086e-05
-1.91238e-07
1.21063e-05
1.03299e-06
1.01428e-05
3.16728e-06
5.57958e-06
7.84705e-06
1.12081e-07
1.04184e-05
-5.67926e-06
1.16643e-05
-9.59553e-06
8.20406e-06
-1.11189e-05
3.47723e-06
-1.12543e-05
5.25776e-07
-1.09795e-05
-4.35976e-07
-1.02716e-05
-1.40562e-06
-8.86714e-06
-2.42807e-06
-6.61635e-06
-4.66377e-06
-4.08006e-06
-4.97747e-06
-2.2863e-06
-2.12093e-06
-3.48412e-06
1.95844e-06
-9.81092e-06
3.73957e-06
-1.01479e-05
5.95698e-06
-9.01793e-06
7.77205e-06
-9.4543e-06
9.10909e-06
-9.34507e-06
1.04913e-05
-7.60235e-06
1.14603e-05
-5.87536e-06
1.17901e-05
-2.86953e-06
1.07353e-05
6.77265e-07
9.51419e-06
4.07862e-06
6.36959e-06
1.11988e-05
1.57767e-06
1.52254e-05
-4.03506e-06
1.7277e-05
-8.45733e-06
1.26263e-05
-1.12358e-05
6.25571e-06
-1.21394e-05
1.42943e-06
-1.17705e-05
-8.04539e-07
-1.0716e-05
-2.45903e-06
-8.70257e-06
-4.43513e-06
-5.92483e-06
-7.42999e-06
-2.97507e-06
-7.91581e-06
-5.20449e-07
-4.91352e-06
-4.11636e-06
1.90483e-06
-2.84707e-05
3.15653e-06
-2.77598e-05
5.89319e-06
-2.84815e-05
7.54113e-06
-2.72199e-05
8.11621e-06
-2.54428e-05
9.74029e-06
-2.469e-05
1.15328e-05
-2.335e-05
1.3633e-05
-2.23823e-05
1.4303e-05
-1.75164e-05
1.04058e-05
-5.16034e-06
4.0312e-06
9.7914e-06
-1.13128e-06
1.99855e-05
-6.07285e-06
2.229e-05
-9.76699e-06
1.63212e-05
-1.16756e-05
8.16435e-06
-1.23832e-05
2.13712e-06
-1.18264e-05
-1.36071e-06
-1.05058e-05
-3.77696e-06
-8.33693e-06
-6.58847e-06
-6.45017e-06
-9.26544e-06
-3.74489e-06
-1.04462e-05
-7.203e-07
-7.65507e-06
-4.81186e-06
9.38569e-07
-8.77285e-06
1.90106e-06
-8.33664e-06
2.8456e-06
-9.04276e-06
3.4578e-06
-7.79913e-06
3.42209e-06
-5.9072e-06
3.80802e-06
-6.06039e-06
4.21385e-06
-5.00664e-06
4.37205e-06
-2.82025e-06
5.12121e-06
1.89563e-06
4.15225e-06
-4.61938e-07
7.34992e-07
1.06414e-06
-6.83503e-06
1.69328e-05
-1.07901e-05
2.54874e-05
-1.29831e-05
1.86018e-05
-1.36465e-05
8.82875e-06
-1.31708e-05
1.66201e-06
-1.1744e-05
-2.78427e-06
-9.77011e-06
-5.73266e-06
-7.72379e-06
-8.56406e-06
-6.87715e-06
-9.85658e-06
-4.99344e-06
-1.19851e-05
-1.41836e-06
-1.08434e-05
-6.11503e-06
-5.19291e-08
-8.64937e-06
2.08299e-09
-8.32599e-06
-4.91722e-07
-8.48021e-06
-1.40158e-06
-6.8299e-06
-2.42276e-06
-4.83452e-06
-3.82018e-06
-4.61047e-06
-5.80286e-06
-2.97123e-06
-7.13849e-06
-1.39591e-06
-5.46084e-06
1.0542e-06
-1.82169e-06
7.36037e-06
-1.49693e-06
1.80109e-05
-1.00171e-05
2.03134e-05
-1.74183e-05
2.51658e-05
-1.82704e-05
1.95474e-05
-1.81548e-05
8.75905e-06
-1.63118e-05
-1.24691e-07
-1.29853e-05
-5.67894e-06
-9.47557e-06
-8.44743e-06
-7.15513e-06
-1.01146e-05
-6.89097e-06
-9.65853e-06
-5.79167e-06
-1.27388e-05
-2.65711e-06
-1.37705e-05
-8.78524e-06
-2.45134e-07
-8.40459e-06
-2.61326e-07
-8.31036e-06
9.9003e-08
-8.84111e-06
6.49242e-08
-6.79648e-06
-4.45393e-07
-4.3252e-06
-1.01419e-06
-4.11527e-06
-3.04811e-06
-9.42951e-07
-6.45341e-06
2.00634e-06
-1.17176e-05
6.28973e-06
-1.647e-05
1.20913e-05
-1.8213e-05
2.20153e-05
-2.27839e-05
2.98147e-05
-2.53242e-05
2.13883e-05
-2.48356e-05
1.69165e-05
-2.33569e-05
7.76834e-06
-2.07606e-05
-9.08285e-07
-1.64108e-05
-6.32064e-06
-1.12645e-05
-8.85563e-06
-7.99581e-06
-1.08168e-05
-7.15751e-06
-1.12438e-05
-5.40471e-06
-1.57698e-05
-2.62622e-06
-1.83427e-05
-1.34239e-05
-1.126e-07
-8.29229e-06
-1.7692e-07
-8.24627e-06
-6.72016e-07
-8.32398e-06
-1.25325e-06
-6.15511e-06
-2.15258e-06
-3.26134e-06
-4.08507e-06
-1.96175e-07
-5.37198e-06
3.9208e-06
-5.90924e-06
7.21713e-06
-5.91717e-06
9.15388e-06
-7.73774e-06
1.48151e-05
-1.49128e-05
2.81162e-05
-2.77271e-05
4.05672e-05
-3.4287e-05
2.55238e-05
-3.50268e-05
1.21928e-05
-3.34514e-05
5.44748e-06
-2.80717e-05
-5.68131e-06
-2.17644e-05
-1.0802e-05
-1.63656e-05
-1.02965e-05
-1.18218e-05
-7.33304e-06
-6.95283e-06
-1.15839e-06
-3.83179e-06
3.83061e-06
-1.52211e-06
8.74464e-06
1.00527e-05
-1.7326e-05
7.61685e-05
-1.63606e-05
3.70623e-05
1.03047e-05
1.80651e-05
3.41637e-05
2.25296e-05
4.42763e-05
2.93522e-05
4.89437e-05
3.35135e-05
5.39041e-05
3.33611e-05
5.96648e-05
3.28349e-05
6.44805e-05
3.36247e-05
6.71901e-05
3.62459e-05
6.74698e-05
3.98098e-05
6.68176e-05
4.22849e-05
6.37221e-05
4.66983e-05
5.47186e-05
5.4222e-05
4.08699e-05
6.33286e-05
1.94672e-05
7.03417e-05
2.308e-06
6.90271e-05
-4.98856e-06
5.87816e-05
3.63533e-05
-8.91508e-06
4.39594e-05
9.05543e-06
-6.18819e-06
2.91084e-05
-9.82916e-06
4.34699e-05
5.97451e-06
4.99164e-05
1.60453e-05
5.30778e-05
1.84193e-05
5.59498e-05
1.82191e-05
5.93291e-05
1.84762e-05
6.33105e-05
1.82681e-05
6.5273e-05
2.23131e-05
6.53121e-05
2.66352e-05
6.61089e-05
2.83037e-05
6.66318e-05
2.78989e-05
6.53628e-05
3.1209e-05
5.48575e-05
4.34613e-05
3.30462e-05
6.42293e-05
1.54916e-05
6.6623e-05
-2.24893e-06
5.13832e-05
1.88048e-05
-3.54541e-06
4.07589e-05
2.42581e-05
-3.94886e-05
4.62989e-05
-3.75445e-05
6.24583e-05
-2.20737e-05
6.13056e-05
7.30086e-06
6.14193e-05
1.25238e-05
6.09656e-05
1.26053e-05
5.8328e-05
1.02979e-05
5.5478e-05
7.26341e-06
5.26782e-05
7.17209e-06
4.86826e-05
1.0409e-05
4.48258e-05
1.13759e-05
4.23427e-05
1.15474e-05
4.26944e-05
1.85576e-05
3.77298e-05
4.48122e-05
2.69382e-05
8.36022e-05
1.17131e-05
9.9197e-05
-2.80789e-06
8.75395e-05
2.51434e-05
1.5476e-05
2.41555e-05
3.65797e-05
-5.92469e-05
5.69138e-05
-5.37729e-05
6.64253e-05
-2.69011e-05
6.56683e-05
4.11573e-06
6.36586e-05
6.16819e-06
6.0106e-05
7.15304e-06
5.8051e-05
8.51012e-06
5.51423e-05
7.53852e-06
5.16033e-05
8.32315e-06
4.71553e-05
1.27791e-05
4.1539e-05
1.1492e-05
3.60725e-05
9.58102e-06
2.6662e-05
1.73864e-05
1.93432e-05
3.1369e-05
6.96177e-06
6.9907e-05
7.81415e-06
9.52884e-05
-2.90277e-06
9.98507e-05
2.37144e-05
3.76542e-05
-5.55676e-06
4.42109e-05
-5.70871e-05
4.96488e-05
-5.82714e-05
4.66911e-05
-2.60321e-05
4.93036e-05
-6.05857e-06
5.44758e-05
-2.8269e-06
5.74327e-05
-3.20858e-06
5.87094e-05
-2.77386e-06
5.92811e-05
1.54033e-06
5.77782e-05
1.26802e-05
5.33693e-05
2.08954e-05
4.3919e-05
2.38612e-05
3.01171e-05
2.35242e-05
1.9519e-05
2.68971e-05
4.14604e-06
4.49721e-05
-1.45905e-05
7.0761e-05
-8.12468e-07
7.57976e-05
-2.27713e-06
9.73081e-05
2.70522e-05
3.40477e-05
-3.89718e-05
4.24885e-05
-6.64766e-05
4.10771e-05
-5.48901e-05
3.844e-05
-2.83179e-05
4.16666e-05
-7.46026e-06
4.31473e-05
8.96316e-07
4.50595e-05
2.7327e-06
4.91319e-05
2.67703e-06
5.21364e-05
4.73033e-06
5.27908e-05
1.10822e-05
5.12645e-05
2.21645e-05
4.42351e-05
3.23022e-05
3.13875e-05
3.77213e-05
1.79779e-05
3.94927e-05
-3.9915e-07
6.28783e-05
-1.99229e-05
8.36284e-05
-1.32669e-05
7.18964e-05
-2.01936e-06
7.93605e-05
1.47149e-05
2.564e-05
-6.79298e-05
3.60438e-05
-7.04789e-05
3.43468e-05
-5.37607e-05
3.1931e-05
-2.96602e-05
3.50049e-05
-1.20722e-05
3.70547e-05
-4.86504e-06
3.9314e-05
-2.43316e-06
4.08923e-05
-9.66672e-07
4.38061e-05
1.70143e-06
4.66217e-05
8.89022e-06
4.72786e-05
2.3673e-05
4.26055e-05
3.8836e-05
3.24454e-05
4.99868e-05
1.75322e-05
5.49499e-05
5.81227e-08
7.9339e-05
-1.40146e-05
9.47972e-05
-1.78931e-05
7.48536e-05
-7.67239e-06
6.03363e-05
1.09711e-06
2.59044e-05
-0.000112054
3.35453e-05
-7.6457e-05
3.0216e-05
-6.16207e-05
2.87666e-05
-3.3319e-05
3.27252e-05
-1.75315e-05
3.52856e-05
-7.99601e-06
3.67358e-05
-3.20716e-06
3.73295e-05
9.49601e-07
3.71859e-05
3.46255e-06
3.77109e-05
6.78994e-06
3.94113e-05
1.97485e-05
3.83155e-05
4.0039e-05
3.50815e-05
5.44965e-05
2.34908e-05
6.7642e-05
1.31198e-05
8.88099e-05
-1.7011e-06
0.000108783
-1.6635e-05
8.44543e-05
-1.36998e-05
4.80707e-05
-1.41621e-05
-9.81522e-07
-7.31062e-06
-2.84444e-07
-8.93787e-06
4.12987e-06
-1.27358e-05
7.90425e-06
-7.88946e-06
6.679e-06
-5.87815e-07
4.18408e-06
4.59388e-06
-2.53994e-06
8.28281e-06
-1.23364e-05
1.2915e-05
-2.53837e-05
1.42675e-05
-3.45595e-05
1.51309e-05
-3.35288e-05
1.91679e-05
-3.22467e-05
2.97714e-05
-4.10745e-05
4.08914e-05
-5.18439e-05
1.68888e-05
-5.29656e-05
-3.71248e-06
-4.88243e-05
-2.63521e-05
-4.6066e-05
-3.34109e-05
-4.03183e-05
-3.04741e-05
-2.89122e-05
-1.46441e-05
-8.21117e-06
-9.77558e-06
4.62494e-06
-3.54573e-06
7.65833e-06
5.92811e-06
1.62823e-05
9.31491e-06
1.18366e-06
-8.49435e-06
2.28615e-06
-8.70515e-06
3.16423e-06
-3.00185e-06
3.90948e-06
4.01636e-07
3.82022e-06
1.22604e-05
4.00403e-06
1.99364e-05
1.13394e-06
2.70834e-05
-2.08939e-07
3.23564e-05
-8.57948e-08
3.66087e-05
-1.39378e-06
3.68348e-05
-2.70876e-06
3.18175e-05
4.05086e-06
2.9797e-05
1.80869e-05
2.56456e-05
2.35847e-05
1.79486e-05
2.68957e-05
1.17633e-06
2.60049e-05
-1.30872e-05
1.9831e-05
-1.73816e-05
2.97585e-05
-2.6676e-05
3.67625e-05
-3.48875e-05
4.07951e-05
-3.35737e-05
4.96711e-05
-2.66524e-05
6.00321e-05
-1.91122e-05
-1.19911e-05
6.84952e-05
-4.12175e-06
-2.00098e-06
-1.58418e-06
-2.36458e-06
6.85383e-06
-1.29821e-05
1.44861e-05
-4.98998e-06
1.20972e-05
9.68348e-06
1.8166e-06
1.95528e-05
-8.00463e-06
2.87509e-05
-1.4231e-05
3.19915e-05
-1.64285e-05
3.31039e-05
-1.53032e-05
3.4999e-05
-1.03076e-05
3.47795e-05
-1.01993e-06
3.43292e-05
1.10313e-05
2.95317e-05
2.22969e-05
1.72438e-05
2.68449e-05
6.17458e-06
3.56036e-05
-7.30918e-06
4.41631e-05
-1.38449e-05
5.3654e-05
-2.3588e-05
5.86075e-05
-3.0498e-05
6.10794e-05
-3.63402e-05
6.7136e-05
-4.0072e-05
6.84467e-05
-3.81018e-05
-2.84993e-05
5.59855e-05
-5.26453e-06
3.21198e-06
-9.14109e-06
-4.99003e-06
-4.82912e-06
-1.90762e-05
-1.0913e-05
-4.5412e-06
-1.8609e-05
9.08881e-06
-2.32318e-05
1.6603e-05
-2.31757e-05
2.26136e-05
-2.371e-05
2.74097e-05
-2.20529e-05
2.64834e-05
-2.13917e-05
3.00565e-05
-1.75139e-05
2.80514e-05
-1.02428e-05
2.39212e-05
2.80157e-06
1.80818e-05
1.46e-05
1.00093e-05
2.00679e-05
-3.45563e-06
2.69362e-05
-1.94851e-05
3.41796e-05
-3.0734e-05
4.435e-05
-4.88882e-05
5.0448e-05
-6.44021e-05
5.56608e-05
-8.29183e-05
6.07392e-05
-0.000100029
6.6996e-05
-0.000104392
-0.00010091
4.96817e-05
-2.26284e-05
-2.41643e-05
-3.9599e-05
-2.20584e-05
-7.09274e-05
-2.49245e-05
-0.000105298
-2.7083e-05
-0.000117771
-4.04706e-05
-0.000113872
-5.22243e-05
-9.67353e-05
-5.03002e-05
-7.68915e-05
-2.51515e-05
-6.11366e-05
-1.44922e-05
-4.90523e-05
-5.23173e-06
-4.04871e-05
-5.76426e-06
-3.17078e-05
-1.54541e-05
-1.85939e-05
-2.40866e-05
-5.97123e-06
-3.14244e-05
4.29795e-06
-4.89242e-05
1.0487e-05
-6.64848e-05
1.36039e-05
-8.63256e-05
1.74245e-05
-0.000126503
2.22545e-05
-0.000166798
2.49262e-05
-0.000210229
2.92239e-05
-9.07646e-05
3.46955e-05
-7.66824e-05
-7.5442e-05
3.72288e-05
-5.2093e-05
-9.36853e-05
-7.09857e-05
-7.22127e-05
-0.000100367
-5.18337e-05
-0.000124442
-6.67494e-05
-0.000129036
-9.27377e-05
-0.000126717
-0.00010181
-0.000118359
-8.19947e-05
-0.000104109
-7.87308e-05
-9.44948e-05
-7.40153e-05
-8.72127e-05
-6.60201e-05
-7.91991e-05
-6.75939e-05
-6.96868e-05
-9.39005e-05
-5.68015e-05
-0.000121826
-4.52219e-05
-0.00013031
-3.8873e-05
-8.84566e-05
-3.54369e-05
-6.9736e-05
-4.52488e-05
-7.75602e-05
-5.65722e-05
-8.19638e-05
-5.59759e-05
-0.000107975
-3.87944e-05
-0.000133115
-4.37614e-05
-5.79196e-05
-6.48812e-05
-2.77537e-05
2.7372e-06
-0.000142277
-8.78302e-05
-8.93561e-05
-8.83367e-05
-8.54752e-05
-9.8867e-05
-6.62697e-05
-0.000115618
-6.51352e-05
-0.000120178
-5.65765e-05
-0.000104501
-6.05473e-05
-6.831e-05
-5.14023e-05
-7.87392e-05
-3.93969e-05
-8.6006e-05
-3.92376e-05
-8.34598e-05
-4.97997e-05
-6.87576e-05
-6.00493e-05
-6.83631e-05
-5.15086e-05
-7.99078e-05
-8.74531e-05
-7.79432e-05
-7.96517e-05
-8.59125e-05
-3.47506e-05
-0.00010594
-2.18125e-05
-0.000126735
-4.02961e-05
-0.000145386
-6.96604e-05
-0.000124931
-7.32305e-05
-8.69302e-05
-7.01315e-05
-0.000106444
-5.68786e-05
-0.000174601
2.70261e-05
0.000104943
-0.000197904
-6.0479e-05
-3.27161e-05
-7.13435e-05
-3.09036e-05
-5.57345e-05
-1.56944e-05
-1.85431e-05
2.20023e-07
2.24356e-05
-2.03372e-05
1.30692e-05
-4.85357e-05
-1.39854e-05
-3.75341e-05
-3.13095e-05
-1.09268e-05
-4.07983e-05
2.26842e-05
-6.46492e-05
-6.52527e-07
-5.06362e-05
-2.43989e-05
-5.3001e-05
-6.28349e-06
-1.78782e-05
-2.33575e-05
1.68469e-05
-1.30396e-05
3.39229e-05
4.33693e-06
3.16581e-05
-8.09464e-06
2.28537e-05
-2.47397e-05
-4.29916e-06
-3.71879e-05
-4.36224e-05
-3.17758e-05
-9.85341e-05
-1.8846e-05
-0.000156361
7.0054e-06
-0.000198244
7.154e-05
0.000186627
-0.000220043
-2.8446e-05
7.05389e-05
-2.95257e-06
5.89745e-05
2.47324e-05
5.86346e-05
4.90304e-05
3.80603e-05
4.59999e-05
-1.99311e-06
4.26836e-05
-4.3154e-05
3.95331e-05
-3.42207e-05
2.69081e-06
2.87416e-05
-7.32386e-06
5.43134e-05
4.01012e-07
5.24726e-05
-1.60813e-05
3.88274e-05
-2.56307e-05
9.71813e-06
-2.50698e-05
-2.45016e-05
-2.11144e-05
-2.42853e-05
-2.20962e-05
-5.09104e-06
-2.63268e-05
-1.27326e-05
-3.36084e-05
-1.94504e-05
-4.79597e-05
-2.48199e-05
-6.86836e-05
-1.21504e-05
-9.68227e-05
7.51522e-06
-0.000135926
4.50648e-05
-0.000171744
0.000102878
0.00019955
-0.000176141
-1.31741e-05
8.38582e-05
-4.60599e-06
5.16771e-05
1.17178e-05
4.36257e-05
2.57543e-05
2.2266e-05
3.13792e-05
-1.05268e-05
1.26118e-05
-2.524e-05
2.96698e-06
-2.41735e-05
-6.27718e-07
3.24291e-05
-9.17483e-06
6.23865e-05
-1.59547e-05
5.91314e-05
-1.32408e-05
3.57992e-05
3.4073e-06
-6.89698e-06
-6.45446e-06
-1.44982e-05
-8.26766e-06
-1.94212e-05
3.72828e-06
-1.53183e-05
8.65232e-06
-1.51424e-05
3.86032e-06
-1.38885e-05
-1.09047e-05
-9.94102e-06
-3.1097e-05
7.18152e-06
-6.0022e-05
3.4662e-05
-8.60724e-05
7.10225e-05
-9.78051e-05
0.000116468
0.000181125
-7.88342e-05
2.55708e-06
8.13705e-05
9.55021e-06
4.47645e-05
2.24964e-05
3.02847e-05
3.22998e-05
1.21635e-05
2.13226e-05
7.69911e-07
5.02625e-06
-9.09646e-06
-6.084e-06
-1.26439e-05
2.14094e-06
2.43936e-05
1.70512e-05
4.74958e-05
3.69205e-05
3.92217e-05
5.04171e-05
2.21109e-05
3.07094e-05
1.15217e-05
1.04316e-05
5.59529e-06
-2.30095e-06
-1.82556e-06
-1.20802e-05
-2.09377e-06
-2.15309e-05
2.28053e-07
-3.24864e-05
2.26739e-06
-4.37709e-05
6.17268e-06
-5.46477e-05
1.96674e-05
-6.08836e-05
4.02311e-05
-6.07866e-05
7.08229e-05
-4.91351e-05
0.000106035
0.000143795
-1.30802e-05
1.42531e-05
6.71531e-05
1.68586e-05
4.22252e-05
2.01527e-05
2.70205e-05
1.67852e-05
1.55895e-05
1.06708e-05
6.88281e-06
3.81961e-07
1.14529e-06
-1.03278e-05
-1.92171e-06
-6.66056e-07
1.45831e-05
1.72628e-05
2.97592e-05
2.15272e-05
3.49054e-05
1.37357e-05
3.00053e-05
8.2559e-06
1.65392e-05
2.86118e-06
9.93079e-06
-5.11596e-06
2.80402e-06
-9.50134e-06
-1.79933e-06
-1.53504e-05
2.03476e-06
-2.20029e-05
6.46132e-06
-3.11538e-05
1.39483e-05
-3.9721e-05
2.7779e-05
-4.6018e-05
4.64985e-05
-4.52658e-05
7.0081e-05
-3.30013e-05
9.37493e-05
0.000117449
-5.56877e-06
1.46426e-05
5.2473e-05
1.78842e-05
3.90011e-05
1.89837e-05
2.59227e-05
1.69688e-05
1.76064e-05
1.11266e-05
1.27251e-05
1.84268e-06
1.04281e-05
-8.81987e-06
8.77285e-06
-9.46616e-06
1.53126e-05
-2.10521e-08
2.04362e-05
7.16149e-06
2.76249e-05
9.20228e-06
2.8243e-05
3.99875e-06
2.28783e-05
-2.79853e-06
1.73818e-05
-1.11275e-05
1.23906e-05
-2.00183e-05
1.01995e-05
-2.84793e-05
1.06918e-05
-3.63642e-05
1.42685e-05
-4.26734e-05
2.04806e-05
-4.52942e-05
3.08124e-05
-4.39887e-05
4.54749e-05
-3.85288e-05
6.46673e-05
-2.81356e-05
8.34068e-05
9.90677e-05
-9.70293e-06
9.91499e-06
4.25438e-05
1.4598e-05
3.43209e-05
1.50025e-05
2.552e-05
1.21069e-05
2.05022e-05
7.34859e-06
1.74834e-05
1.97307e-06
1.58034e-05
-4.37452e-06
1.51207e-05
-7.14474e-06
1.80992e-05
-6.5914e-06
1.99346e-05
-3.74632e-06
2.47843e-05
-2.70661e-06
2.73035e-05
-5.45884e-06
2.55559e-05
-9.49789e-06
2.12767e-05
-1.42337e-05
1.70329e-05
-1.87556e-05
1.47933e-05
-2.27854e-05
1.49815e-05
-2.73762e-05
1.88848e-05
-3.27063e-05
2.56862e-05
-3.70099e-05
3.51164e-05
-3.73545e-05
4.59805e-05
-3.2256e-05
5.97095e-05
-2.25634e-05
7.3785e-05
8.5298e-05
-8.74609e-06
5.80479e-06
3.67369e-05
9.48823e-06
3.06377e-05
9.51378e-06
2.54945e-05
7.55329e-06
2.24627e-05
4.77617e-06
2.02605e-05
1.48068e-06
1.90988e-05
-2.06198e-06
1.86633e-05
-4.00892e-06
2.00482e-05
-5.12225e-06
2.10567e-05
-4.55642e-06
2.42659e-05
-3.36843e-06
2.61456e-05
-3.69743e-06
2.58929e-05
-5.9248e-06
2.35264e-05
-1.0173e-05
2.11562e-05
-1.52002e-05
1.94989e-05
-1.96659e-05
1.94716e-05
-2.33514e-05
2.23843e-05
-2.58705e-05
2.81342e-05
-2.72024e-05
3.64104e-05
-2.67251e-05
4.55462e-05
-2.26783e-05
5.57159e-05
-1.51421e-05
6.62827e-05
7.51282e-05
-4.94609e-06
3.49701e-06
3.32397e-05
5.65737e-06
2.84774e-05
5.64864e-06
2.55033e-05
4.68015e-06
2.34312e-05
3.14523e-06
2.17954e-05
1.33378e-06
2.09102e-05
-5.22998e-07
2.05199e-05
-1.80043e-06
2.13255e-05
-2.80238e-06
2.20588e-05
-2.68443e-06
2.41498e-05
-2.06381e-06
2.55265e-05
-1.75816e-06
2.55994e-05
-2.6462e-06
2.44067e-05
-4.87379e-06
2.33397e-05
-7.85617e-06
2.25116e-05
-1.14075e-05
2.30764e-05
-1.46268e-05
2.55885e-05
-1.70408e-05
3.04501e-05
-1.80236e-05
3.73642e-05
-1.7361e-05
4.48882e-05
-1.37741e-05
5.21376e-05
-7.3279e-06
5.98473e-05
6.6918e-05
8.89537e-07
2.08197e-06
3.11579e-05
3.45066e-06
2.71087e-05
3.66812e-06
2.52858e-05
3.21707e-06
2.38822e-05
2.32747e-06
2.2685e-05
1.26519e-06
2.19724e-05
1.25527e-07
2.16595e-05
-6.71084e-07
2.2122e-05
-1.27256e-06
2.26603e-05
-1.14546e-06
2.40228e-05
-6.30366e-07
2.50121e-05
-2.30661e-07
2.52049e-05
-5.44045e-07
2.4713e-05
-1.74696e-06
2.45473e-05
-3.58201e-06
2.44639e-05
-6.04286e-06
2.5666e-05
-8.715e-06
2.83632e-05
-1.06027e-05
3.23175e-05
-1.10287e-05
3.77794e-05
-1.02253e-05
4.40817e-05
-7.38083e-06
4.93024e-05
-1.79569e-06
5.42676e-05
5.95725e-05
5.55509e-06
1.30786e-06
2.98497e-05
2.29233e-06
2.61241e-05
2.62947e-06
2.49485e-05
2.48886e-06
2.40227e-05
1.92484e-06
2.32489e-05
1.14503e-06
2.27521e-05
2.42345e-07
2.25622e-05
-4.53334e-07
2.28177e-05
-1.00252e-06
2.32095e-05
-9.21191e-07
2.39417e-05
-4.57266e-07
2.45485e-05
-1.70487e-07
2.49194e-05
-5.37579e-07
2.50776e-05
-1.46954e-06
2.55299e-05
-3.00391e-06
2.62354e-05
-4.9822e-06
2.78587e-05
-6.52537e-06
2.99737e-05
-7.11626e-06
3.29616e-05
-6.65351e-06
3.73292e-05
-5.00449e-06
4.24441e-05
-2.00995e-06
4.63167e-05
3.01551e-06
4.9252e-05
5.28845e-05
9.70648e-06
9.17014e-07
2.89327e-05
1.66307e-06
2.53779e-05
1.92452e-06
2.4687e-05
1.81309e-06
2.4134e-05
1.36792e-06
2.3694e-05
7.10861e-07
2.34091e-05
-9.69959e-09
2.32826e-05
-6.33249e-07
2.34412e-05
-1.12914e-06
2.37054e-05
-1.2928e-06
2.41054e-05
-1.27863e-06
2.45345e-05
-1.35225e-06
2.49929e-05
-1.7536e-06
2.54894e-05
-2.32599e-06
2.61541e-05
-3.21558e-06
2.72116e-05
-4.12007e-06
2.89008e-05
-4.59346e-06
3.05332e-05
-4.4206e-06
3.28251e-05
-3.4309e-06
3.63615e-05
-1.17138e-06
4.01958e-05
2.35956e-06
4.27961e-05
7.01593e-06
4.46006e-05
4.7164e-05
1.27385e-05
6.9709e-07
2.82354e-05
1.11877e-06
2.49562e-05
1.2505e-06
2.45552e-05
1.19675e-06
2.41877e-05
9.62226e-07
2.39285e-05
6.02479e-07
2.37688e-05
1.68156e-07
2.3717e-05
-2.66093e-07
2.38754e-05
-6.59883e-07
2.40993e-05
-9.33378e-07
2.43791e-05
-1.07265e-06
2.4674e-05
-1.2583e-06
2.51788e-05
-1.59818e-06
2.58398e-05
-1.91671e-06
2.65052e-05
-2.14699e-06
2.74949e-05
-1.94646e-06
2.87498e-05
-1.65576e-06
3.03046e-05
-1.17588e-06
3.23928e-05
2.31552e-07
3.49757e-05
2.78212e-06
3.76588e-05
6.12531e-06
3.94612e-05
1.02707e-05
4.04602e-05
4.21576e-05
1.52774e-05
4.70899e-07
2.77645e-05
7.64966e-07
2.4662e-05
9.35741e-07
2.43843e-05
9.86566e-07
2.41369e-05
9.3623e-07
2.39788e-05
8.13157e-07
2.38919e-05
6.19419e-07
2.39107e-05
4.20233e-07
2.40747e-05
2.00404e-07
2.43192e-05
-6.07078e-08
2.46403e-05
-2.99438e-07
2.49128e-05
-4.65457e-07
2.5345e-05
-6.31202e-07
2.60082e-05
-7.2308e-07
2.66114e-05
-5.96408e-07
2.73917e-05
-2.11286e-07
2.84024e-05
2.56172e-07
2.98821e-05
1.03135e-06
3.16437e-05
2.58333e-06
3.34401e-05
4.91624e-06
3.53356e-05
7.88303e-06
3.64997e-05
1.13588e-05
3.69868e-05
3.80118e-05
1.55053e-05
3.52314e-07
2.74121e-05
6.39149e-07
2.43751e-05
8.41071e-07
2.41824e-05
9.05951e-07
2.40719e-05
9.14337e-07
2.39704e-05
8.71433e-07
2.39348e-05
8.09633e-07
2.39725e-05
7.8685e-07
2.40975e-05
8.00489e-07
2.43056e-05
7.84924e-07
2.46559e-05
7.04532e-07
2.49933e-05
7.15162e-07
2.53345e-05
8.56965e-07
2.58669e-05
9.94056e-07
2.64785e-05
1.17316e-06
2.72238e-05
1.46429e-06
2.81271e-05
2.18374e-06
2.91844e-05
3.44052e-06
3.04013e-05
5.13718e-06
3.17524e-05
7.40994e-06
3.3068e-05
1.0167e-05
3.37454e-05
1.31058e-05
3.405e-05
3.47643e-05
1.63524e-05
3.1106e-07
2.71011e-05
4.9835e-07
2.41878e-05
6.16554e-07
2.40642e-05
6.87215e-07
2.40013e-05
7.19268e-07
2.39383e-05
7.22488e-07
2.39316e-05
7.21171e-07
2.39739e-05
7.42141e-07
2.40766e-05
7.91988e-07
2.42558e-05
8.83659e-07
2.45643e-05
9.47033e-07
2.49301e-05
1.03612e-06
2.52456e-05
1.27214e-06
2.56312e-05
1.61494e-06
2.61371e-05
2.04694e-06
2.67952e-05
2.5217e-06
2.76595e-05
3.23726e-06
2.84789e-05
4.36817e-06
2.92775e-05
5.93588e-06
3.01891e-05
8.0008e-06
3.10058e-05
1.04361e-05
3.13117e-05
1.303e-05
3.14565e-05
3.17978e-05
1.59966e-05
2.50952e-07
2.685e-05
4.19997e-07
2.40187e-05
5.54883e-07
2.39292e-05
6.67092e-07
2.3889e-05
7.33758e-07
2.38716e-05
7.7318e-07
2.38922e-05
8.01074e-07
2.3946e-05
8.43011e-07
2.40347e-05
9.09245e-07
2.41897e-05
1.02283e-06
2.44508e-05
1.18687e-06
2.47661e-05
1.36088e-06
2.50717e-05
1.57445e-06
2.54179e-05
1.91642e-06
2.57957e-05
2.42357e-06
2.62894e-05
3.25759e-06
2.68277e-05
4.34255e-06
2.7397e-05
5.52808e-06
2.80947e-05
7.04105e-06
2.8678e-05
8.96914e-06
2.9079e-05
1.1012e-05
2.92694e-05
1.32126e-05
2.9257e-05
2.90376e-05
1.59718e-05
2.7382e-07
2.65762e-05
4.56052e-07
2.38365e-05
6.04618e-07
2.37807e-05
7.29166e-07
2.37645e-05
8.32703e-07
2.37681e-05
9.30565e-07
2.37944e-05
1.02968e-06
2.3847e-05
1.12622e-06
2.39382e-05
1.22579e-06
2.40901e-05
1.39386e-06
2.42828e-05
1.66776e-06
2.44923e-05
1.98446e-06
2.47551e-05
2.33065e-06
2.5072e-05
2.70761e-06
2.54193e-05
3.23849e-06
2.57593e-05
3.92914e-06
2.61382e-05
4.72128e-06
2.66064e-05
5.82996e-06
2.69874e-05
7.30901e-06
2.71999e-05
9.00395e-06
2.73849e-05
1.08109e-05
2.74631e-05
1.28686e-05
2.71994e-05
2.66317e-05
1.52744e-05
2.17742e-07
2.63584e-05
3.81037e-07
2.36732e-05
5.44996e-07
2.36167e-05
6.91022e-07
2.36185e-05
8.20639e-07
2.36385e-05
9.41208e-07
2.36738e-05
1.06417e-06
2.3724e-05
1.19594e-06
2.38065e-05
1.35599e-06
2.39302e-05
1.55131e-06
2.40876e-05
1.76952e-06
2.42742e-05
2.05117e-06
2.44736e-05
2.46272e-06
2.46607e-05
2.92632e-06
2.49561e-05
3.46381e-06
2.52225e-05
4.1796e-06
2.54233e-05
5.15822e-06
2.56288e-05
6.37606e-06
2.57704e-05
7.65477e-06
2.59219e-05
9.07797e-06
2.59623e-05
1.07376e-05
2.58037e-05
1.25733e-05
2.53645e-05
2.47111e-05
1.44929e-05
2.30748e-07
2.61277e-05
4.04163e-07
2.34997e-05
5.73352e-07
2.34475e-05
7.40044e-07
2.34518e-05
9.03458e-07
2.34751e-05
1.06197e-06
2.35153e-05
1.22179e-06
2.35643e-05
1.39495e-06
2.36334e-05
1.60336e-06
2.37218e-05
1.84199e-06
2.3849e-05
2.08867e-06
2.40276e-05
2.37614e-06
2.41863e-05
2.72834e-06
2.43087e-05
3.24877e-06
2.44361e-05
3.93896e-06
2.45329e-05
4.68277e-06
2.46804e-05
5.50239e-06
2.48101e-05
6.36371e-06
2.49099e-05
7.42935e-06
2.48568e-05
8.79213e-06
2.46e-05
1.03528e-05
2.42435e-05
1.19274e-05
2.37897e-05
2.30245e-05
1.36138e-05
2.23909e-07
2.59037e-05
3.97415e-07
2.33262e-05
5.69385e-07
2.32755e-05
7.30709e-07
2.32904e-05
8.9094e-07
2.33149e-05
1.05866e-06
2.33477e-05
1.22773e-06
2.33952e-05
1.40407e-06
2.34571e-05
1.60105e-06
2.35249e-05
1.85677e-06
2.35934e-05
2.20874e-06
2.36757e-05
2.61053e-06
2.37846e-05
3.01657e-06
2.39029e-05
3.44228e-06
2.40108e-05
3.88861e-06
2.40871e-05
4.50827e-06
2.40614e-05
5.30674e-06
2.40123e-05
6.32029e-06
2.3897e-05
7.47942e-06
2.36981e-05
8.61895e-06
2.34609e-05
9.77651e-06
2.30861e-05
1.11415e-05
2.24255e-05
2.15725e-05
1.25927e-05
2.3025e-07
2.56735e-05
4.20003e-07
2.31365e-05
6.14785e-07
2.30807e-05
8.06132e-07
2.30991e-05
9.95593e-07
2.31254e-05
1.18681e-06
2.31565e-05
1.38333e-06
2.31988e-05
1.59102e-06
2.32495e-05
1.80865e-06
2.33073e-05
2.02748e-06
2.33746e-05
2.25866e-06
2.34445e-05
2.54793e-06
2.34954e-05
2.93566e-06
2.35154e-05
3.43156e-06
2.35152e-05
4.0567e-06
2.34625e-05
4.75107e-06
2.33677e-05
5.47722e-06
2.32869e-05
6.24119e-06
2.31335e-05
7.04321e-06
2.28965e-05
8.02657e-06
2.24778e-05
9.20088e-06
2.19121e-05
1.03738e-05
2.12526e-05
2.04018e-05
1.15444e-05
2.18771e-07
2.54547e-05
4.00452e-07
2.29548e-05
5.89384e-07
2.28918e-05
7.76887e-07
2.29116e-05
9.62898e-07
2.29395e-05
1.1484e-06
2.2971e-05
1.33878e-06
2.30084e-05
1.5416e-06
2.30467e-05
1.76592e-06
2.3083e-05
2.0327e-06
2.31079e-05
2.36096e-06
2.31163e-05
2.73132e-06
2.31252e-05
3.12742e-06
2.31195e-05
3.56131e-06
2.30816e-05
4.01002e-06
2.30142e-05
4.4914e-06
2.28869e-05
5.09652e-06
2.26823e-05
5.82789e-06
2.24026e-05
6.70271e-06
2.2022e-05
7.60615e-06
2.15746e-05
8.50662e-06
2.10117e-05
9.47912e-06
2.02807e-05
1.93904e-05
1.04898e-05
2.38505e-07
2.52162e-05
4.48502e-07
2.27448e-05
6.62774e-07
2.26775e-05
8.69429e-07
2.2705e-05
1.07228e-06
2.27366e-05
1.26869e-06
2.27746e-05
1.46204e-06
2.28151e-05
1.65758e-06
2.28512e-05
1.86248e-06
2.28782e-05
2.08044e-06
2.28899e-05
2.3123e-06
2.28845e-05
2.58129e-06
2.28563e-05
2.90935e-06
2.27916e-05
3.30348e-06
2.26878e-05
3.77953e-06
2.25386e-05
4.33989e-06
2.2327e-05
4.9484e-06
2.20743e-05
5.5799e-06
2.17714e-05
6.23067e-06
2.13714e-05
6.95519e-06
2.08504e-05
7.76737e-06
2.01998e-05
8.60132e-06
1.94466e-05
1.85613e-05
9.43038e-06
2.3028e-07
2.49859e-05
4.32648e-07
2.25424e-05
6.40837e-07
2.24694e-05
8.42918e-07
2.25029e-05
1.04254e-06
2.2537e-05
1.24017e-06
2.2577e-05
1.43814e-06
2.26172e-05
1.63987e-06
2.26495e-05
1.85035e-06
2.26678e-05
2.07768e-06
2.26626e-05
2.32914e-06
2.26331e-05
2.61395e-06
2.25715e-05
2.93283e-06
2.24728e-05
3.28252e-06
2.23383e-05
3.66461e-06
2.21568e-05
4.07882e-06
2.19133e-05
4.54364e-06
2.16099e-05
5.08908e-06
2.12263e-05
5.70325e-06
2.07574e-05
6.35035e-06
2.02035e-05
7.00612e-06
1.9544e-05
7.69115e-06
1.87621e-05
1.78687e-05
8.38305e-06
2.5466e-07
2.47313e-05
4.72942e-07
2.23241e-05
6.92105e-07
2.22502e-05
9.02754e-07
2.22923e-05
1.10836e-06
2.23314e-05
1.30962e-06
2.23758e-05
1.50549e-06
2.24213e-05
1.69683e-06
2.24582e-05
1.88631e-06
2.24783e-05
2.08382e-06
2.24652e-05
2.28744e-06
2.24295e-05
2.50815e-06
2.23509e-05
2.76157e-06
2.22196e-05
3.05541e-06
2.20447e-05
3.39354e-06
2.1819e-05
3.77723e-06
2.15299e-05
4.20137e-06
2.11861e-05
4.66026e-06
2.07677e-05
5.14633e-06
2.02715e-05
5.66895e-06
1.9681e-05
6.2211e-06
1.89921e-05
6.78876e-06
1.81944e-05
1.73039e-05
7.3536e-06
2.57363e-07
2.44739e-05
4.65086e-07
2.21164e-05
6.74362e-07
2.20409e-05
8.76788e-07
2.20899e-05
1.07774e-06
2.21305e-05
1.2815e-06
2.2172e-05
1.49216e-06
2.22107e-05
1.70658e-06
2.22438e-05
1.91305e-06
2.22719e-05
2.10804e-06
2.22702e-05
2.29458e-06
2.2243e-05
2.47885e-06
2.21667e-05
2.67094e-06
2.20276e-05
2.88702e-06
2.18288e-05
3.14111e-06
2.15652e-05
3.4334e-06
2.12379e-05
3.76871e-06
2.08511e-05
4.14194e-06
2.03946e-05
4.54885e-06
1.98647e-05
4.98255e-06
1.92474e-05
5.42946e-06
1.85452e-05
5.88158e-06
1.77427e-05
1.68481e-05
6.33686e-06
2.74688e-07
2.41992e-05
4.47241e-07
2.19439e-05
6.23327e-07
2.18649e-05
8.01502e-07
2.19117e-05
9.84566e-07
2.19475e-05
1.17695e-06
2.19797e-05
1.38305e-06
2.20046e-05
1.59375e-06
2.20331e-05
1.80869e-06
2.20569e-05
2.01547e-06
2.20635e-05
2.21857e-06
2.20399e-05
2.41264e-06
2.19727e-05
2.59529e-06
2.1845e-05
2.767e-06
2.16573e-05
2.93622e-06
2.13962e-05
3.11905e-06
2.10553e-05
3.34315e-06
2.06272e-05
3.62048e-06
2.01174e-05
3.93642e-06
1.95488e-05
4.27412e-06
1.89098e-05
4.62611e-06
1.81933e-05
4.97979e-06
1.73889e-05
1.64936e-05
5.33425e-06
2.67764e-07
2.39314e-05
3.72948e-07
2.18387e-05
4.783e-07
2.17595e-05
5.98912e-07
2.17911e-05
7.30385e-07
2.1816e-05
8.75661e-07
2.18344e-05
1.04069e-06
2.18396e-05
1.22424e-06
2.18496e-05
1.43106e-06
2.18501e-05
1.65176e-06
2.18428e-05
1.87635e-06
2.18154e-05
2.09281e-06
2.17563e-05
2.29426e-06
2.16437e-05
2.48409e-06
2.14676e-05
2.66427e-06
2.12161e-05
2.838e-06
2.08818e-05
2.99616e-06
2.04692e-05
3.14209e-06
1.99716e-05
3.32041e-06
1.93705e-05
3.55566e-06
1.86746e-05
3.81783e-06
1.7931e-05
4.08076e-06
1.71263e-05
1.62344e-05
4.33946e-06
2.13876e-07
2.37176e-05
1.84616e-07
2.1868e-05
1.49165e-07
2.1795e-05
1.54426e-07
2.17858e-05
1.79824e-07
2.17906e-05
2.35394e-07
2.17788e-05
3.20333e-07
2.17547e-05
4.46624e-07
2.17233e-05
6.16847e-07
2.16799e-05
8.29507e-07
2.16301e-05
1.07301e-06
2.15719e-05
1.32691e-06
2.15024e-05
1.5847e-06
2.13859e-05
1.84893e-06
2.12034e-05
2.0929e-06
2.09724e-05
2.3102e-06
2.06646e-05
2.49917e-06
2.02803e-05
2.66501e-06
1.98057e-05
2.8021e-06
1.92333e-05
2.90386e-06
1.85728e-05
3.02171e-06
1.78132e-05
3.18587e-06
1.69619e-05
1.6068e-05
3.35242e-06
9.82177e-08
2.36194e-05
-1.2984e-07
2.2096e-05
-3.65341e-07
2.20305e-05
-5.51371e-07
2.19719e-05
-6.85761e-07
2.1925e-05
-7.77301e-07
2.18704e-05
-8.20387e-07
2.17978e-05
-8.03553e-07
2.17065e-05
-7.2109e-07
2.15975e-05
-5.61183e-07
2.14702e-05
-3.21834e-07
2.13325e-05
-1.66123e-08
2.11972e-05
3.22458e-07
2.10469e-05
6.74314e-07
2.08517e-05
1.0063e-06