/*--------------------------------*- C++ -*----------------------------------*\
| =========                 |                                                 |
| \\      /  F ield         | OpenFOAM: The Open Source CFD Toolbox           |
|  \\    /   O peration     | Version:  2.4.0                                 |
|   \\  /    A nd           | Web:      www.OpenFOAM.org                      |
|    \\/     M anipulation  |                                                 |
\*---------------------------------------------------------------------------*/
FoamFile
{
    version     2.0;
    format      ascii;
    class       volScalarField;
    location    "0.7";
    object      rho;
}
// * * * * * * * * * * * * * * * * * * * * * * * * * * * * * * * * * * * * * //

dimensions      [1 -3 0 0 0 0 0];

internalField   nonuniform List<scalar> 
2268
(
13529
13529
13529
13529
13529
13529
13529
13529
13529
13529
13529
13529
13529
13529
13529
13529
13529
13529
13529
13529
13529
13529
13528.9
13528.5
13528.4
13528.7
13528.5
13528.5
13528.7
13528.9
13529
13529
13529
13529
13529
13529
13529
13529
13529
13529
13529
13529
13529
13529
13529
13528.8
13226.6
13208.7
13264.5
13238
13239.3
13310
13379.8
13465.2
13515.5
13526.9
13528.7
13529
13529
13529
13529
13529
13529
13529
13529
13529
13529
13529
13528.8
6091.28
6055.2
6190.42
6120.39
6160.78
6391.68
6790.21
7453.81
8542.09
10324.1
12907.3
13511
13528.7
13529
13529
13529
13529
13529
13529
13529
13529
13529
13528.8
1001.65
1001.58
1001.63
1001.53
1001.44
1001.41
1001.47
1001.81
1014.6
1436.75
4160.86
10189.7
13381.4
13525.1
13528.5
13528.9
13529
13529
13529
13529
13529
13529
13528.8
1000.06
1000.06
1000.06
1000.06
1000.06
1000.06
1000.06
1000.06
1000.06
1000.85
1078.4
2983.16
10984
13451.6
13525.5
13528.4
13528.8
13528.9
13528.9
13528.9
13528.9
13528.8
13528.8
1000.09
1000.08
1000.08
1000.08
1000.07
1000.06
1000.06
1000.06
1000.06
1000.06
1001.27
1354.42
6589.7
12899.1
13504.9
13526.2
13527.7
13528.2
13526.9
13523.4
13505.6
13493.5
13524.1
1000.09
1000.09
1000.07
1000.07
1000.07
1000.05
1000.06
1000.07
1000.07
1000.08
1000.43
1117.46
3596.29
10662.5
13377.3
13503.3
13502.5
13435.3
13202.2
12935.7
12446.8
12290.9
13061.7
10673.3
10677.3
10685.8
10699.2
10708.6
10716
10721.9
10731.9
10742.3
10742.4
10746.3
10751.7
10756.8
10763.3
10769.1
10771.4
10775.2
10782
10785.2
8924.56
5753.52
7915.65
10115.7
10401.8
10530
10617.8
10629.5
10469.9
10390
10394.4
10346.1
10347.7
10470.9
10751.7
10775.6
10785.3
10786.3
10788.5
4121.1
4046.83
4850.06
5471.7
5041.79
4987.65
4891.96
4582.22
3768.8
2768.02
2072.93
1973.32
2218.95
3504.09
6092.59
9918.21
10795
10788.7
10794.3
2647.94
4067.59
4012.91
2610.36
1306.63
979.477
915.598
816.468
729.988
645.986
582.461
534.097
639.494
825.659
1145.16
4852.59
10374.9
10794.3
10796.9
3993.97
4234.5
3381.03
1595.65
984.15
922.488
910.215
838.811
818.683
768.033
683.271
587.355
525.194
716.924
826.882
1708.61
9200.1
10747.8
9967.2
4340.89
4330.25
2326.25
1184.86
937.415
914.361
861.55
859.675
851.145
858.817
781.614
656.507
547.55
570.053
808.854
1272.94
8165.01
10209.1
5815.66
3544.41
2980.36
1739.08
983.21
904.658
913.525
918.938
917.11
905.415
893.165
833.864
708.115
576.684
524.323
729.281
955.258
6190.79
8044.68
3423.73
3439.92
2377.04
1193.38
864.931
842.853
866.585
900.674
923.366
903.715
846.712
818.29
721.682
601.335
530.559
607.61
785.538
2981.33
3874.33
2730.49
1000.04
1000.03
1000.03
1000.03
1000.03
1000.01
1000.01
1000.01
1000.02
1000.05
1000.11
1012.61
1421.73
3560.26
7446.34
9793.78
10068.4
9279.92
7639.88
6312.39
5336.5
5272.89
6876.24
1000.01
1000
999.999
999.912
999.777
998.203
998.395
998.938
999.503
999.768
999.91
1000.92
1012.32
1123.83
1281.83
1208.52
1259.29
1418.58
1393.91
1286.21
1159.32
1075.9
1063.45
1000
999.981
996.822
984.376
976.985
942.728
947.164
971
986.748
993.71
997.17
998.813
1000.71
1001.67
1003.12
1001.51
1000.47
996.336
985.162
960.619
931.699
906.185
888.852
999.99
995.45
909.782
807.239
731.319
654.393
684.366
763.972
820.202
868.758
907.306
941.076
976.085
990.808
985.662
953.132
931.084
890.466
838.043
777.708
698.444
613.429
554.281
998.593
935.258
695.058
537.377
486.59
510.111
545.876
555.962
571.663
592.629
610.069
634.568
675.367
695.274
680.912
653.992
644.629
524.636
390.408
256.159
117.416
41.7881
11.907
469.272
443.486
337.158
171.52
76.1753
68.7727
159.386
268.788
327.762
355.967
346.507
307.158
282.891
274.018
233.026
169.993
92.2085
18.4371
3.04092
1.03766
1.00227
1.00214
1.10537
16.9002
19.6881
15.9789
5.43622
1.57155
1.19589
1.00026
1.03662
1.74555
4.20276
3.89259
1.03207
1.07351
1.0585
1.01194
1.00253
1.00067
1.00016
1.00006
1.00004
1.0002
1.0008
1.00388
1.05303
1.09891
1.07038
1.01216
1.00039
1.00006
1.00001
1.00004
1.00029
1.00233
1.00099
1.00004
1.00002
1.00001
1.00001
1.00004
1.00012
1.00008
1.00006
1.00003
1.00013
1.00042
1.00102
1.00009
1.0001
1.00017
1.00022
1.0001
1.00002
1.00001
1.00001
1.00002
1.00001
1.00001
1.00001
1.00002
1.00005
1.00009
1.00009
1.0001
1.00008
1.00005
1.00003
1.00006
1.00019
1.00044
1.00004
1.00004
1.00005
1.00006
1.00001
1
1.00001
1.00003
1.00002
1.00001
1.00001
1.00001
1.00003
1.00012
1.00015
1.0002
1.00019
1.00019
1.0001
1.00003
1.00003
1.00007
1.00016
1.00005
1.00004
1.00003
1.00002
1
1
1.00001
1.00003
1.00003
1.00002
1.00002
1.00002
1.00004
1.00012
1.00018
1.00018
1.00014
1.00011
1.00007
1.00003
1.00003
1.00003
1.00008
1.00006
1.00004
1.00002
1
0.999999
0.999999
1
1.00002
1.00002
1.00003
1.00004
1.00004
1.00003
1.00004
1.00009
1.00003
1.00002
1.00002
1.00003
1.00004
1.00004
1.00003
1.00002
1.00005
1.00002
1.00001
0.999999
0.999999
0.999999
1
1
1.00001
1.00003
1.00004
1.00002
1.00002
1.00002
1.00002
1.00002
1.00002
1.00001
1.00002
1.00002
1.00003
1.00002
1.00001
1.00002
1.00001
1
0.999999
0.999999
0.999999
1
1
1
1.00001
1.00001
1
1.00001
1.00001
1.00002
1.00004
1.00003
1.00001
1.00001
1.00001
1.00001
1.00001
1.00001
1.00001
1
0.999999
0.999999
0.999999
0.999999
1
1
1
1
1
1
1.00001
1.00002
1.00005
1.00006
1.00003
1.00002
1.00001
1
1.00001
1
1
0.999999
0.999999
0.999999
0.999999
0.999999
1
1
1
1
1
1
1
1
1.00002
1.00006
1.00006
1.00005
1.00002
1.00001
1
1
1
1
0.999999
0.999999
0.999999
0.999999
0.999999
1
1
1
1
1
1
1
1
1.00002
1.00005
1.00005
1.00003
1.00002
1.00001
1
1
1
0.999999
0.999999
0.999999
0.999999
0.999999
1
1
1
1
1
1
1
1
1
1.00001
1.00002
1.00003
1.00003
1.00002
1.00001
1
1
0.999999
0.999999
0.999999
0.999999
0.999999
0.999999
1
1
1
1
1
1
1
1
1
1.00001
1.00001
1.00001
1.00002
1.00001
1.00001
1
1
1
0.999999
0.999999
0.999999
0.999999
0.999999
1
1
1
1
1
1
1
1
1
1
1.00001
1.00001
1.00001
1.00001
1
1
1
1
1
0.999999
0.999999
0.999999
1
1
1
1
1
1
1
1
1
1
1
1
1
1.00001
1
1
1
1
1
1
0.999999
0.999999
0.999999
1
1
1
1
1
1
1
1
1
1
1
1
1
1
1
1
1
1
0.999999
1
0.999999
0.999999
0.999999
1
1
1
1
1
1
1
1
1
1
1
1
1
1
1
0.999999
0.999999
0.999999
0.999999
0.999999
0.999999
0.999999
0.999999
1
1
1
1
1
1
1
1
1
1
1
1
1
0.999999
0.999999
0.999999
0.999999
0.999998
0.999998
0.999999
0.999999
0.999999
1
1
1
1
1
1
1
1
1
1
1
1
1
1
0.999999
0.999999
0.999999
0.999998
0.999998
0.999998
0.999998
0.999999
0.999999
1
1
1
1
1
1
1
1
1
1
1
1
1
1
1
0.999999
0.999999
0.999998
0.999998
0.999998
0.999998
0.999999
0.999999
1
1
1
1
1
1
1
1
1
1
1
1
1
1
1
0.999999
0.999999
0.999999
0.999998
0.999998
0.999997
1
1
1
1
1
1
1
1
1
1
1
1
1
1
1
1
1
1
0.999999
0.999999
0.999998
0.999998
0.999997
0.999999
1
1
1
1
1
1
1
1
1
1
1
1
1
1
1
1
1
0.999999
0.999999
0.999999
0.999998
0.999997
1
1
1
1
1
1
1
1
1
1
1
1
1
1
1
1
1
1
1
0.999999
0.999999
0.999998
0.999997
1
1
1
1
1
1
1
1
1
1
1
1
1
1
1
1
1
1
1
1
0.999999
0.999998
0.999998
1
1
1
1
1
1
1
1
1
1
1
1
1
1
1
1
1
1
1
1
0.999999
0.999999
0.999998
1
1
1
1
1
1
1
1
1
1
1
1
1
1
1
1
1
1
1
1
1
0.999999
0.999998
1
1
1
1
1
1
1
1
1
1
1
1
1
1
1
1
1
1
1
1
1
0.999999
0.999998
1
1
1
1
1
1
1
1
1
1
1
1
1
1
1
1
1
0.999999
1
1
1
0.999999
0.999999
1
1
1
1
1
1
1
1
1
1
1
1
1
1
1
1
0.999999
0.999999
0.999999
1
1
1
0.999999
1
1
1
1
1
1
1
1
1
1
1
1
1
1
1
1
0.999999
0.999999
0.999999
0.999999
1
0.999999
0.999999
1
1
1
1
1
1
1
1
1
1
1
1
1
1
1
1
0.999999
0.999999
0.999999
0.999999
0.999999
1
0.999999
1
1
1
1
1
1
1
1
1
1
1
1
1
1
1
1
0.999999
0.999999
0.999999
0.999999
0.999999
1
0.999999
1
1
1
1
1
1
1
1
1
1
1
1
1
1
1
1
0.999999
0.999999
0.999999
0.999999
1
0.999999
1
1
1
1
1
1
1
1
1
1
1
1
1
1
1
1
1
0.999999
0.999999
0.999999
0.999999
0.999999
1
0.999999
1
1
1
1
1
1
1
1
1
1
1
1
1
1
1
1
1
1
1
1
1
1
0.999999
7520.26
7412.99
7053.56
6571.33
1073.7
1092.39
1084.37
1055.28
875.427
855.854
827.59
793.474
599.007
654.668
620.861
554.459
71.8539
348.504
501.409
463.598
3.7295
46.6893
158.02
181.359
1.09347
2.53725
6.2722
7.41052
1.00217
1.00782
1.01745
1.01857
1.001
1.00097
1.00104
1.00079
1.00031
1.00029
1.0003
1.00028
1.00012
1.00014
1.00017
1.00021
1.00004
1.00007
1.0001
1.00009
1.00001
1.00003
1.00004
1.00003
1.00001
1.00001
1.00001
1.00001
1
1.00001
1.00001
1.00001
1
1
1
1
0.999999
0.999999
0.999999
1
0.999999
0.999998
0.999999
0.999998
0.999999
0.999999
0.999998
0.999998
0.999999
0.999998
0.999998
0.999998
0.999999
0.999999
0.999998
0.999998
0.999999
0.999998
0.999998
0.999998
0.999999
0.999999
0.999998
0.999998
0.999998
0.999998
0.999997
0.999997
0.999998
0.999998
0.999997
0.999997
0.999997
0.999997
0.999996
0.999996
0.999997
0.999997
0.999996
0.999996
0.999997
0.999996
0.999996
0.999996
0.999997
0.999996
0.999995
0.999995
0.999996
0.999996
0.999995
0.999995
0.999996
0.999995
0.999995
0.999995
0.999997
0.999996
0.999995
0.999995
0.999997
0.999996
0.999995
0.999996
0.999997
0.999997
0.999995
0.999996
0.999997
0.999996
0.999996
0.999996
0.999998
0.999998
0.999996
0.999997
0.999997
0.999997
0.999997
0.999997
0.999998
0.999998
0.999997
0.999998
0.999998
0.999998
0.999998
0.999998
0.999998
0.999999
0.999998
0.999998
0.999998
0.999997
0.999998
0.999998
0.999998
0.999998
0.999998
0.999999
3600.68
1388.69
760.667
719.189
728.283
757.278
799.874
854.441
851.787
837.653
813.762
746.939
646.38
559.513
534.732
717.934
1023.19
1301.71
2137.04
906.207
577.564
159.953
148.943
381.299
523.424
611.458
653.194
729.978
806.522
816.231
775.385
701.344
599.545
526.248
558.051
733.842
676.343
1530.43
698.038
211.046
113.552
157.183
345.359
411.129
382.644
402.111
466.86
671.43
788.702
790.533
764.187
645.202
529.579
536.531
571.301
562.857
1030.33
454.398
426.001
478.464
482.919
482.953
483.112
482.772
425.547
390.646
409.123
619.252
756.02
759.929
535.207
380.559
411.393
584.506
583.398
825.714
362.923
262.984
357.025
392.152
425.968
475.043
495.571
495.705
472.945
333.882
366.123
649.383
741.911
499.669
376.983
388.787
583.776
671.79
772.147
63.6192
10.0904
10.5842
24.1534
72.9142
244.156
445.789
497.284
497.895
486.674
353.661
500.092
682.452
626.169
532.618
571.852
660.256
737.191
783.853
2.48536
1.05705
1.01235
1.01796
1.89303
32.5762
268.426
484.466
498.139
497.575
464.991
393.712
581.662
673.649
698.481
728.259
737.039
758.277
813.235
1.00423
1.00211
1.00364
1.16592
2.87115
38.3331
252.53
471.755
496.584
435.528
257.974
133.02
424.614
614.767
702.053
727.47
751.714
766.745
867.919
1.00053
1.00052
1.02391
3.88994
46.2904
248.468
452.275
475.794
432.966
180.471
27.6858
17.8822
201.254
475.743
656.596
690.086
666.408
741.608
910.183
1.00022
1.00029
1.06252
11.912
160.671
437.556
486.166
475.084
274.377
41.6068
14.0002
13.9749
85.2222
383.444
562.457
553.78
181.06
555.594
951.891
1.00015
1.00022
1.102
18.812
225.223
471.566
488.129
446.097
172.09
18.5911
13.9607
13.9758
24.1204
200.764
394.806
294.789
114.898
187.557
761.689
1.00008
1.00025
1.06488
14.4334
167.572
415.692
489.085
432.057
165.466
16.5301
13.9581
13.9205
13.9269
26.1271
112.343
168.266
108.125
194.441
795.053
1.00004
1.00021
1.00671
2.2241
28.4584
182.978
412.043
441.176
343.005
51.0517
13.9491
13.9503
13.8808
13.8949
22.069
185.349
417.259
477.475
849.339
1.00003
1.0001
1.00077
1.03849
1.76356
24.4939
203.427
439.755
458.374
243.858
29.9723
15.0976
17.9451
22.9903
59.3903
301.159
579.988
656.935
800.503
1.00001
1.00004
1.00028
1.00082
1.0089
1.96427
47.2601
309.26
461.727
463.443
294.131
196.396
214.665
275.363
356.806
500.606
582.415
637.288
766.766
1.00001
1.00002
1.00008
1.00031
1.00055
1.00802
5.86527
112.552
421.115
502.768
509.658
506.566
513.421
532.494
546.924
560.075
586.501
647.353
743.482
1
1
1.00002
1.0001
1.00019
1.00051
1.08491
15.6813
169.042
438.409
510.251
518.872
527.018
530.018
533.784
547.826
577.048
629.71
692.839
0.999999
0.999999
1
1.00004
1.00008
1.00023
1.00038
1.1864
16.7277
140.659
312.808
364.317
363.94
329.839
292.067
292.065
347.321
444.316
487.198
0.999998
0.999998
0.999999
1.00001
1.00003
1.00008
1.00019
1.0005
1.08567
4.45495
26.905
54.2065
58.6315
36.5541
16.0366
11.47
14.7234
31.7681
42.9425
0.999998
0.999997
0.999998
1
1.00001
1.00002
1.00008
1.00021
1.00106
1.01942
1.07548
1.12938
1.13491
1.04293
1.00864
1.00994
1.04592
1.06674
1.01433
0.999998
0.999997
0.999998
0.999998
1
1
1.00002
1.00006
1.00015
1.00046
1.00074
1.00097
1.0012
1.00126
1.00128
1.00377
1.02271
1.00806
1.00129
0.999998
0.999998
0.999998
0.999998
0.999999
1
1.00001
1.00002
1.00005
1.0001
1.00025
1.00067
1.00105
1.00127
1.00133
1.00333
1.007
1.00106
1.00125
0.999998
0.999998
0.999998
0.999998
0.999999
1
1
1.00001
1.00004
1.0001
1.00023
1.00048
1.00084
1.00113
1.00133
1.00121
1.00093
1.00089
1.00129
0.999998
0.999998
0.999998
0.999998
0.999999
1
1
1.00001
1.00003
1.00011
1.00029
1.00052
1.00083
1.00111
1.0013
1.00119
1.00092
1.001
1.00139
0.999998
0.999998
0.999998
0.999999
0.999999
1
1
1.00001
1.00003
1.00012
1.00038
1.00066
1.00093
1.00117
1.00132
1.00116
1.00103
1.01451
1.21998
0.999997
0.999997
0.999998
0.999999
0.999999
1
1
1
1.00003
1.00014
1.00049
1.00096
1.00112
1.00129
1.00184
1.01444
1.27354
4.32006
17.7677
0.999997
0.999997
0.999998
0.999999
0.999999
1
1
1
1.00002
1.00019
1.00061
1.00107
1.00126
1.00133
1.04416
2.46299
16.6618
76.2396
186.291
0.999997
0.999997
0.999998
0.999998
0.999999
1
1
1
1.00002
1.00015
1.00056
1.00103
1.00128
1.00167
1.23822
9.80223
90.5023
295.888
445.583
0.999996
0.999997
0.999997
0.999998
0.999999
1
1
1
1
1.00004
1.00024
1.00068
1.001
1.00238
1.43885
15.8015
135.736
397.548
492.928
0.999996
0.999997
0.999997
0.999998
0.999999
1
1
1
1
1.00001
1.00006
1.0003
1.00062
1.00311
1.49388
13.8367
86.6313
288.124
492.928
0.999996
0.999997
0.999997
0.999998
0.999999
1
1
1
1
1.00001
1.00002
1.00009
1.00033
1.00359
1.3724
3.56151
8.68888
54.6797
491.007
0.999996
0.999997
0.999997
0.999998
0.999999
1
1
1
1
1
1.00002
1.00006
1.0003
1.00394
1.15532
1.05151
1.01445
4.35476
461.259
0.999997
0.999997
0.999998
0.999998
0.999999
1
1
1
1
1.00001
1.00002
1.00005
1.00033
1.00605
1.02022
1.00283
1.00101
3.7339
291.864
0.999997
0.999997
0.999998
0.999999
0.999999
1
1
1
1
1.00001
1.00004
1.00007
1.00029
1.0044
1.00588
1.00158
1.00102
4.44668
47.5092
0.999997
0.999998
0.999998
0.999999
0.999999
0.999999
1
1
1.00001
1.00004
1.00012
1.00032
1.00046
1.00353
1.00347
1.00117
1.00105
1.25556
1.38096
0.999998
0.999998
0.999998
0.999999
0.999999
0.999999
1
1
1.00001
1.00005
1.00016
1.0005
1.00064
1.00306
1.00213
1.00099
1.00103
1.00089
1.00022
0.999998
0.999998
0.999999
0.999999
0.999999
0.999999
1
1
1.00001
1.00003
1.00011
1.00045
1.00074
1.00163
1.00129
1.00082
1.00048
1.00017
1.00004
0.999998
0.999999
0.999999
0.999999
0.999999
0.999999
0.999999
1
1
1.00001
1.00005
1.00016
1.0006
1.00091
1.00094
1.00051
1.00022
1.00006
1.00004
0.999999
0.999999
0.999999
0.999999
0.999999
0.999999
0.999999
0.999999
1
1
1.00001
1.00005
1.00017
1.00036
1.00038
1.00015
1.00004
1.00002
1.00004
0.999999
0.999999
0.999999
0.999999
0.999999
0.999999
0.999999
0.999999
1
1
1
1.00002
1.00005
1.0001
1.00011
1.00004
1.00002
1.00001
1.00002
0.999999
0.999999
0.999999
0.999999
0.999999
0.999999
0.999999
0.999999
1
1
1.00001
1.00002
1.00004
1.00006
1.00003
1.00001
1.00002
1.00001
1
0.999999
0.999999
0.999999
0.999999
0.999999
0.999999
0.999999
0.999999
0.999999
1
1
1.00001
1.00001
1
1.00001
1
1.00001
1.00001
1
)
;

boundaryField
{
    leftWall
    {
        type            calculated;
        value           nonuniform List<scalar> 
50
(
13529
13528.5
13226.6
6091.28
1001.65
1000.06
1000.09
1000.09
1000.04
1000.01
1000
999.99
998.593
469.272
16.9002
1.05303
1.00009
1.00004
1.00005
1.00006
1.00005
1.00002
1.00001
0.999999
0.999999
0.999999
0.999999
0.999999
0.999999
0.999999
0.999999
0.999999
0.999999
0.999999
0.999999
1
0.999999
1
1
1
1
1
1
1
1
1
1
1
1
1
)
;
    }
    rightWall
    {
        type            calculated;
        value           nonuniform List<scalar> 
50
(
10785.2
10788.5
10794.3
10796.9
9967.2
5815.66
3423.73
2730.49
2137.04
1530.43
1030.33
825.714
772.147
783.853
813.235
867.919
910.183
951.891
761.689
795.053
849.339
800.503
766.766
743.482
692.839
487.198
42.9425
1.01433
1.00129
1.00125
1.00129
1.00139
1.21998
17.7677
186.291
445.583
492.928
492.928
491.007
461.259
291.864
47.5092
1.38096
1.00022
1.00004
1.00004
1.00004
1.00002
1
1
)
;
    }
    lowerWall
    {
        type            calculated;
        value           nonuniform List<scalar> 
62
(
13529
13529
13529
13529
13529
13529
13529
13529
13529
13529
13529
13529
13529
13529
13529
13529
13529
13529
13529
13529
13529
13529
13528.9
13528.9
13528.8
13528.8
13528.8
13528.8
13528.8
13524.1
13061.7
7520.26
7412.99
7053.56
6571.33
10673.3
8924.56
4121.1
2647.94
3993.97
4340.89
3544.41
3439.92
10673.3
10677.3
10685.8
10699.2
10708.6
10716
10721.9
10731.9
10742.3
10742.4
10746.3
10751.7
10756.8
10763.3
10769.1
10771.4
10775.2
10782
10785.2
)
;
    }
    atmosphere
    {
        type            calculated;
        value           nonuniform List<scalar> 
46
(
1
1
1
1
1
1
1
1
1
1
1
1
1
1
1
1
1
1
1
1
1
1
0.999999
0.999998
0.999998
0.999998
0.999999
0.999999
0.999999
0.999999
0.999999
0.999999
0.999999
0.999999
0.999999
1
1
1
1
1
1
1
1
1
1
1
)
;
    }
    defaultFaces
    {
        type            empty;
    }
}


// ************************************************************************* //
