/*--------------------------------*- C++ -*----------------------------------*\
| =========                 |                                                 |
| \\      /  F ield         | OpenFOAM: The Open Source CFD Toolbox           |
|  \\    /   O peration     | Version:  2.4.0                                 |
|   \\  /    A nd           | Web:      www.OpenFOAM.org                      |
|    \\/     M anipulation  |                                                 |
\*---------------------------------------------------------------------------*/
FoamFile
{
    version     2.0;
    format      ascii;
    class       volVectorField;
    location    "0.7";
    object      U.air;
}
// * * * * * * * * * * * * * * * * * * * * * * * * * * * * * * * * * * * * * //

dimensions      [0 1 -1 0 0 0 0];

internalField   nonuniform List<vector> 
2268
(
(0.0120559 0.00183965 0)
(0.0333792 0.000385134 0)
(0.0594237 0.00494467 0)
(0.0698588 0.0020906 0)
(0.0957001 5.22145e-07 0)
(0.120157 0.00380777 0)
(0.127897 0.00695984 0)
(0.131796 0.0148017 0)
(0.12345 0.0222725 0)
(0.116758 0.0348526 0)
(0.0934206 0.052083 0)
(0.0482925 0.052483 0)
(-0.0178942 0.0382012 0)
(-0.0850136 0.0195069 0)
(-0.12079 0.0015267 0)
(-0.130688 -0.00746574 0)
(-0.129731 -0.00566563 0)
(-0.126765 -0.00683478 0)
(-0.115451 -0.0032153 0)
(-0.101163 -0.0105085 0)
(-0.0594897 -0.00518888 0)
(-0.0436683 -0.000771743 0)
(-0.035527 -0.00785363 0)
(0.0135108 -0.0200454 0)
(0.0314557 -0.0219361 0)
(0.0587643 -0.0168469 0)
(0.0736057 -0.0192671 0)
(0.0966497 -0.0207098 0)
(0.118047 -0.0147961 0)
(0.13024 -0.0137491 0)
(0.137545 -0.0118045 0)
(0.141022 -0.0159706 0)
(0.13007 -0.0252906 0)
(0.0958548 -0.0211066 0)
(0.0370252 0.00139886 0)
(-0.0319806 0.0310035 0)
(-0.0940592 0.0295619 0)
(-0.126099 0.0180836 0)
(-0.131502 0.0103719 0)
(-0.128189 0.0036271 0)
(-0.124265 -0.00125924 0)
(-0.11437 -0.0082266 0)
(-0.0903923 -0.0158256 0)
(-0.0614902 -0.0215544 0)
(-0.0340465 -0.0108894 0)
(-0.0188835 -0.0299312 0)
(0.0146921 -0.0269816 0)
(0.0295906 -0.0298832 0)
(0.0558906 -0.0204875 0)
(0.080733 -0.0255824 0)
(0.0942222 -0.0281231 0)
(0.113002 -0.0176733 0)
(0.124614 -0.0082662 0)
(0.131985 0.00941794 0)
(0.132016 0.0302717 0)
(0.117695 0.0690734 0)
(0.0938486 0.117688 0)
(0.0491439 0.112667 0)
(-0.0113235 0.084669 0)
(-0.0763074 0.0543481 0)
(-0.119666 0.0211645 0)
(-0.139951 -0.00272983 0)
(-0.140638 -0.0077055 0)
(-0.130677 -0.0130029 0)
(-0.118721 -0.0173712 0)
(-0.0815158 -0.0335723 0)
(-0.0548358 -0.0319827 0)
(-0.014651 -0.019519 0)
(0.00234007 -0.032146 0)
(0.0159291 -0.145957 0)
(0.0261623 -0.146856 0)
(0.0482399 -0.143715 0)
(0.0832703 -0.14432 0)
(0.0889761 -0.141235 0)
(0.0989868 -0.133454 0)
(0.121265 -0.125628 0)
(0.144905 -0.11319 0)
(0.163928 -0.0932124 0)
(0.148559 -0.0531497 0)
(0.0892666 -0.0158212 0)
(0.0150656 0.0612602 0)
(-0.0401251 0.114409 0)
(-0.0934081 0.0859267 0)
(-0.128767 0.0445273 0)
(-0.143494 0.0149335 0)
(-0.143025 -0.00183983 0)
(-0.129627 -0.0146949 0)
(-0.114281 -0.0301338 0)
(-0.0803358 -0.0476668 0)
(-0.0679656 -0.0542804 0)
(-0.0177521 -0.0359439 0)
(0.00082263 -0.034837 0)
(0.00494698 0.0362213 0)
(0.0168555 0.0391863 0)
(0.0252939 0.0332629 0)
(0.0383433 0.0388959 0)
(0.0412909 0.0478308 0)
(0.0384654 0.0472094 0)
(0.0463031 0.0658787 0)
(0.0502754 0.108072 0)
(0.0518888 0.168927 0)
(0.0506429 0.117265 0)
(0.0350618 0.0864801 0)
(-0.0315825 0.0981283 0)
(-0.0956282 0.117261 0)
(-0.143163 0.0916245 0)
(-0.160428 0.0482988 0)
(-0.158667 0.0115679 0)
(-0.147017 -0.0119884 0)
(-0.124929 -0.0265411 0)
(-0.102332 -0.0426677 0)
(-0.0778559 -0.0537085 0)
(-0.0800397 -0.0626753 0)
(-0.0347802 -0.0552215 0)
(0.00298583 -0.0409551 0)
(-0.00363463 -0.127315 0)
(0.00213255 -0.126192 0)
(-0.00199385 -0.12551 0)
(-0.0106469 -0.119002 0)
(-0.0207411 -0.108182 0)
(-0.0341416 -0.105581 0)
(-0.0531032 -0.111452 0)
(-0.0784722 -0.13231 0)
(-0.0791634 -0.155942 0)
(-0.0468841 -0.124752 0)
(0.0105329 0.011515 0)
(-0.0801239 0.120222 0)
(-0.169729 0.139139 0)
(-0.198371 0.101696 0)
(-0.218331 0.0418434 0)
(-0.205321 0.00479318 0)
(-0.171615 -0.017572 0)
(-0.129333 -0.0344666 0)
(-0.0932173 -0.0505675 0)
(-0.0747178 -0.0548672 0)
(-0.0807328 -0.0697948 0)
(-0.0540608 -0.0706514 0)
(-0.00408159 -0.0502084 0)
(-0.00268167 0.0116306 0)
(-0.00358883 0.0141662 0)
(-0.0016605 0.0109063 0)
(0.00348039 0.0235268 0)
(-0.00227776 0.0362925 0)
(-0.00756233 0.0352851 0)
(-0.0156536 0.062748 0)
(-0.0523097 0.10615 0)
(-0.0982208 0.157566 0)
(-0.175473 0.172977 0)
(-0.199225 0.157953 0)
(-0.223108 0.132648 0)
(-0.31569 0.142243 0)
(-0.288258 0.112843 0)
(-0.278425 0.0597326 0)
(-0.259011 -0.00637656 0)
(-0.219712 -0.0469954 0)
(-0.156597 -0.0593079 0)
(-0.107879 -0.0602502 0)
(-0.0821822 -0.055497 0)
(-0.0767843 -0.0726135 0)
(-0.050916 -0.0862786 0)
(-0.0042725 -0.0671454 0)
(-0.00236577 -0.075334 0)
(-0.000287767 -0.0765105 0)
(-0.00439624 -0.0775185 0)
(-0.0118238 -0.0696991 0)
(-0.0155085 -0.0594302 0)
(-0.0344494 -0.0553707 0)
(-0.055948 -0.0608096 0)
(-0.0670553 -0.069935 0)
(-0.0645112 -0.0622737 0)
(-0.0701727 -0.00658304 0)
(-0.115454 0.107721 0)
(-0.218578 0.175761 0)
(-0.410674 0.104396 0)
(-0.422092 0.0506951 0)
(-0.406385 0.0127716 0)
(-0.369749 -0.0204066 0)
(-0.280519 -0.0594955 0)
(-0.216595 -0.0894235 0)
(-0.171758 -0.0987905 0)
(-0.099718 -0.072486 0)
(-0.0572221 -0.107531 0)
(-0.0350677 -0.121249 0)
(0.00475286 -0.0833667 0)
(-0.257338 -0.159461 0)
(-0.234234 -0.21537 0)
(0.0163658 -0.204161 0)
(0.22941 -0.183338 0)
(0.406125 -0.172371 0)
(0.503042 -0.178897 0)
(0.573868 -0.188921 0)
(0.643356 -0.192455 0)
(0.70631 -0.193508 0)
(0.756198 -0.203795 0)
(0.77958 -0.219027 0)
(0.778327 -0.219083 0)
(0.758081 -0.197546 0)
(0.70591 -0.163262 0)
(0.591738 -0.153468 0)
(0.425422 -0.158301 0)
(0.227936 -0.117278 0)
(-0.10623 -0.155589 0)
(-0.0261443 -0.191772 0)
(-0.299945 0.206377 0)
(0.103355 0.010222 0)
(0.294109 -0.0307811 0)
(0.395515 0.0849319 0)
(0.49526 0.103622 0)
(0.571926 0.113102 0)
(0.610478 0.0914854 0)
(0.647876 0.120756 0)
(0.696701 0.303855 0)
(0.734905 0.249705 0)
(0.741951 0.223823 0)
(0.748055 0.190282 0)
(0.76329 0.180286 0)
(0.780389 0.262308 0)
(0.7278 0.348817 0)
(0.589116 0.327561 0)
(0.384637 0.256994 0)
(0.0402764 0.198493 0)
(-0.0646917 0.102504 0)
(-0.273989 0.127995 0)
(0.273748 -0.169317 0)
(0.428972 0.0237519 0)
(0.642285 0.221946 0)
(0.713217 0.151354 0)
(0.692763 0.0194115 0)
(0.691998 0.0309327 0)
(0.689605 0.0977519 0)
(0.660662 0.200079 0)
(0.616633 -0.0282651 0)
(0.567302 -0.173501 0)
(0.506967 -0.203409 0)
(0.495195 -0.225816 0)
(0.53127 -0.207728 0)
(0.531995 -0.0852097 0)
(0.515069 0.249949 0)
(0.347167 0.26812 0)
(0.0355815 0.165844 0)
(-0.0933194 -0.0895625 0)
(0.158255 0.132269 0)
(0.415778 -0.125287 0)
(0.624297 0.0874223 0)
(0.847955 0.273212 0)
(0.877657 0.229455 0)
(0.75165 0.104368 0)
(0.664096 0.305324 0)
(0.633693 0.52227 0)
(0.562795 0.470662 0)
(0.495081 0.399997 0)
(0.469114 0.29666 0)
(0.473297 0.0158035 0)
(0.457317 -0.156551 0)
(0.384566 -0.116028 0)
(0.277943 -0.0825885 0)
(0.135298 0.302703 0)
(0.179873 0.351796 0)
(0.0252153 0.274956 0)
(-0.0611896 0.0270129 0)
(0.428662 -0.0804446 0)
(0.438592 -0.362712 0)
(0.473199 -0.365822 0)
(0.487791 -0.268644 0)
(0.519557 -0.230456 0)
(0.576807 -0.107966 0)
(0.664926 -0.0118319 0)
(0.682412 0.10176 0)
(0.661613 0.188067 0)
(0.649654 0.367461 0)
(0.617484 0.347439 0)
(0.576151 0.00838955 0)
(0.438764 -0.0193971 0)
(0.325494 -0.228826 0)
(0.326985 -0.165174 0)
(-0.0904701 0.195077 0)
(0.0778631 0.35607 0)
(-0.0810888 0.348675 0)
(0.0862375 -0.070299 0)
(0.406205 -0.314935 0)
(0.386355 -0.524955 0)
(0.445539 -0.53566 0)
(0.460719 -0.377578 0)
(0.464391 -0.0422628 0)
(0.470548 0.407881 0)
(0.490645 0.39491 0)
(0.512827 0.39801 0)
(0.538876 0.39869 0)
(0.557723 0.436779 0)
(0.572457 0.340485 0)
(0.57878 0.135793 0)
(0.472894 0.15629 0)
(0.271955 0.00544264 0)
(0.287524 -0.10445 0)
(-0.145468 0.18548 0)
(-0.12527 0.389755 0)
(-0.241746 0.343848 0)
(0.205038 -0.074016 0)
(0.345884 -0.238241 0)
(0.342793 -0.533492 0)
(0.428913 -0.549377 0)
(0.405146 -0.374411 0)
(0.368702 -0.113463 0)
(0.376014 0.162706 0)
(0.414273 0.19467 0)
(0.432927 0.214596 0)
(0.452726 0.227668 0)
(0.47668 0.303081 0)
(0.521482 0.308125 0)
(0.546484 0.115417 0)
(0.471294 0.173182 0)
(0.273276 0.161726 0)
(0.225183 0.0546486 0)
(-0.091227 0.147797 0)
(-0.172521 0.439227 0)
(-0.31866 0.262138 0)
(0.181457 -0.180193 0)
(0.284788 -0.279938 0)
(0.29519 -0.426486 0)
(0.411389 -0.365757 0)
(0.376747 -0.0281285 0)
(0.350209 0.0983323 0)
(0.38657 0.198981 0)
(0.407107 0.158734 0)
(0.4079 0.258608 0)
(0.395335 0.327069 0)
(0.369941 0.350312 0)
(0.366669 0.442769 0)
(0.427838 0.28044 0)
(0.442366 0.217976 0)
(0.356117 0.272744 0)
(0.249064 0.120019 0)
(0.0991508 0.194189 0)
(-0.0847356 0.396076 0)
(-0.32419 0.23635 0)
(0.212503 -0.145564 0)
(-0.00382716 -0.0237838 0)
(-0.00779285 -0.0213127 0)
(0.00594234 -0.0219846 0)
(0.0346147 4.47764e-05 0)
(0.0449787 0.0332478 0)
(0.0321116 0.0543107 0)
(0.0147047 0.114596 0)
(-0.0393511 0.165623 0)
(-0.102864 0.197134 0)
(-0.175611 0.193352 0)
(-0.192086 0.187869 0)
(-0.151453 0.241777 0)
(-0.185083 0.205255 0)
(-0.270675 0.1247 0)
(-0.308392 0.0133128 0)
(-0.279237 -0.15339 0)
(-0.264479 -0.224807 0)
(-0.248664 -0.222824 0)
(-0.199807 -0.20328 0)
(-0.11789 -0.22214 0)
(-0.00822334 -0.20589 0)
(0.0258448 -0.20578 0)
(0.0457457 -0.175856 0)
(0.0031737 -0.0270864 0)
(0.00866353 -0.0438624 0)
(0.0156768 -0.0776744 0)
(0.0187694 -0.0712972 0)
(0.0245869 -0.0407571 0)
(0.0190964 -0.0323652 0)
(0.0181608 -0.00731822 0)
(0.000239037 0.019401 0)
(-0.00470197 0.0526526 0)
(-0.0113092 0.0891664 0)
(-0.0250173 0.132231 0)
(-0.0142837 0.187648 0)
(0.0592428 0.223653 0)
(0.103723 0.135198 0)
(0.108572 0.0346336 0)
(0.153294 -0.00384284 0)
(0.142158 -0.0239228 0)
(0.124218 -0.101707 0)
(0.179355 -0.187378 0)
(0.217363 -0.239255 0)
(0.23747 -0.193005 0)
(0.264767 -0.101452 0)
(0.319322 -0.0589306 0)
(-0.00947417 -0.0872947 0)
(-0.0350105 -0.0889803 0)
(-0.00375664 -0.103382 0)
(0.0560391 -0.063595 0)
(0.0814308 -0.00885927 0)
(0.0406239 0.0325947 0)
(-0.00775417 0.0836311 0)
(-0.0603671 0.113518 0)
(-0.07491 0.128567 0)
(-0.0791483 0.142822 0)
(-0.0664288 0.143341 0)
(-0.0344871 0.141749 0)
(0.0187998 0.162818 0)
(0.103234 0.121125 0)
(0.155777 0.00575656 0)
(0.202098 -0.103251 0)
(0.2619 -0.146073 0)
(0.289086 -0.0942475 0)
(0.336378 -0.0855663 0)
(0.337157 -0.0537177 0)
(0.349713 0.0775766 0)
(0.328585 0.20674 0)
(0.190004 0.291467 0)
(-0.0342786 0.0687685 0)
(-0.0680506 0.0203932 0)
(-0.0105017 -0.082773 0)
(-0.0329104 0.0468156 0)
(-0.0598764 0.209916 0)
(-0.126589 0.304401 0)
(-0.114944 0.293661 0)
(-0.121472 0.161481 0)
(-0.123226 0.134272 0)
(-0.118131 0.126847 0)
(-0.104495 0.106568 0)
(-0.0851129 0.105389 0)
(-0.0355985 0.215824 0)
(0.0421163 0.191418 0)
(0.100184 0.148679 0)
(0.141609 0.129615 0)
(0.222017 0.136888 0)
(0.2509 0.196239 0)
(0.323738 0.21629 0)
(0.328639 0.235672 0)
(0.369817 0.244885 0)
(0.382851 0.293033 0)
(0.187738 0.446726 0)
(-0.0408307 0.375085 0)
(-0.108865 0.325171 0)
(-0.166759 0.265448 0)
(-0.37937 0.509227 0)
(-0.564628 0.490259 0)
(-0.670852 0.482668 0)
(-0.637216 0.533811 0)
(-0.4642 0.407787 0)
(-0.363184 0.394718 0)
(-0.27392 0.42596 0)
(-0.228631 0.417542 0)
(-0.183297 0.415166 0)
(-0.0919121 0.540853 0)
(-0.0197606 0.46136 0)
(0.0520363 0.375533 0)
(0.0945355 0.24611 0)
(0.141924 0.156812 0)
(0.136962 0.0168301 0)
(0.199914 -0.0757444 0)
(0.186811 -0.125207 0)
(0.213346 -0.0884746 0)
(0.190117 0.239637 0)
(-0.208041 1.11217 0)
(-0.0296409 0.314123 0)
(-0.118146 0.39454 0)
(-0.360719 0.481655 0)
(-0.507461 0.334117 0)
(-0.650411 0.284523 0)
(-0.72607 0.252873 0)
(-0.678882 0.0373494 0)
(-0.584884 0.0277916 0)
(-0.52973 0.072648 0)
(-0.491708 0.120462 0)
(-0.439351 0.123478 0)
(-0.396788 0.055166 0)
(-0.338585 0.0476491 0)
(-0.243109 0.0163601 0)
(-0.21027 -0.085753 0)
(-0.215665 -0.101045 0)
(-0.203809 -0.034783 0)
(-0.252144 0.351487 0)
(-0.281949 0.686596 0)
(-0.385976 0.686773 0)
(-0.436893 -0.0444479 0)
(-0.366526 -0.266395 0)
(-0.381012 0.303823 0)
(0.0578596 0.96325 0)
(-0.101976 1.16022 0)
(-0.387755 1.02879 0)
(-0.554859 0.948885 0)
(-0.620643 0.514295 0)
(-0.152272 0.227944 0)
(0.123418 0.166304 0)
(0.252479 0.430855 0)
(0.283195 0.688861 0)
(-0.0749037 0.743665 0)
(-0.182065 0.747107 0)
(-0.230455 0.956201 0)
(-0.346693 0.9319 0)
(-0.551452 0.883685 0)
(-0.757573 0.581721 0)
(-0.966258 0.189399 0)
(-1.02107 -0.0467822 0)
(-0.884818 -0.551332 0)
(-0.747504 -0.81187 0)
(-0.562685 -0.853491 0)
(-0.487847 -0.655145 0)
(-0.674353 -0.101433 0)
(-0.972821 0.959482 0)
(-0.0314576 -0.211192 0)
(0.0299888 0.254829 0)
(0.0195852 0.27995 0)
(-0.0536485 0.173279 0)
(0.134558 -0.360505 0)
(0.124759 -0.55891 0)
(0.0341861 -0.545546 0)
(-0.185936 -0.523793 0)
(-0.188671 -0.141038 0)
(-0.288995 -0.037291 0)
(-0.412363 -0.43201 0)
(-0.314781 -0.64705 0)
(-0.192914 -0.689908 0)
(0.0181572 -0.556276 0)
(0.125543 -0.402822 0)
(0.205907 -0.380612 0)
(0.157862 -0.352311 0)
(0.0793571 -0.29875 0)
(-0.134406 -0.178687 0)
(-0.329063 -0.0863571 0)
(-0.669944 -0.0087673 0)
(-1.05411 0.360878 0)
(-1.13936 1.13935 0)
(-0.190791 0.511674 0)
(-0.083035 0.458703 0)
(0.0597762 0.455818 0)
(0.180105 0.34268 0)
(0.336918 0.140786 0)
(0.210339 -0.101936 0)
(0.224165 -0.0192416 0)
(0.16088 0.364193 0)
(-0.111002 0.4342 0)
(0.0286785 0.465642 0)
(-0.0330512 0.521483 0)
(-0.110143 0.558348 0)
(-0.155283 0.291054 0)
(-0.125335 0.275246 0)
(-0.110154 0.352897 0)
(-0.129461 0.237709 0)
(-0.16085 0.111504 0)
(-0.211867 -0.0321014 0)
(-0.301594 -0.0659126 0)
(-0.419822 -0.0476694 0)
(-0.59551 0.101541 0)
(-0.83004 0.465355 0)
(-0.978171 1.16865 0)
(-0.131239 0.38834 0)
(-0.0278706 0.282838 0)
(-0.0122 0.27379 0)
(0.12162 0.136593 0)
(0.178635 -0.154313 0)
(0.145622 -0.268827 0)
(-0.0249166 -0.247471 0)
(0.0656503 0.0649461 0)
(-0.0783439 0.281654 0)
(-0.0226985 0.246806 0)
(-0.144558 0.0563197 0)
(0.0183617 -0.373865 0)
(0.00996703 -0.417022 0)
(-0.0651516 -0.386205 0)
(-0.0163074 -0.340048 0)
(0.0475725 -0.293133 0)
(0.0449222 -0.251444 0)
(-0.0125726 -0.189328 0)
(-0.114693 -0.0791417 0)
(-0.236158 0.109489 0)
(-0.389963 0.33116 0)
(-0.490029 0.589631 0)
(-0.471576 1.03047 0)
(-0.0428617 0.461062 0)
(0.062093 0.243162 0)
(0.0575252 0.163958 0)
(0.167777 0.0607356 0)
(0.157498 0.00349811 0)
(0.0967941 -0.0523028 0)
(-0.0528682 -0.064482 0)
(-0.00578035 0.212435 0)
(0.0348471 0.315439 0)
(0.147593 0.291146 0)
(0.232134 0.214122 0)
(0.268884 0.234954 0)
(0.10295 0.182015 0)
(0.0110972 0.111484 0)
(-0.0375144 0.121316 0)
(-0.0926142 0.105028 0)
(-0.14563 0.0967682 0)
(-0.204791 0.0992522 0)
(-0.269187 0.161237 0)
(-0.316701 0.247874 0)
(-0.323911 0.409224 0)
(-0.311592 0.614628 0)
(-0.183159 0.853005 0)
(0.0469958 0.416002 0)
(0.0938478 0.239889 0)
(0.0994094 0.160721 0)
(0.107555 0.0835631 0)
(0.0725567 0.0114346 0)
(0.0467329 -0.0304175 0)
(-0.0439482 -0.0500912 0)
(-0.0586215 0.0798219 0)
(0.0494867 0.216027 0)
(0.123591 0.189555 0)
(0.110982 0.0992645 0)
(0.0514312 -0.0367809 0)
(0.0328401 -0.0843312 0)
(-0.00441074 -0.115413 0)
(-0.0444535 -0.127056 0)
(-0.0689337 -0.111634 0)
(-0.100998 -0.0830003 0)
(-0.14141 -0.0225163 0)
(-0.189035 0.0839326 0)
(-0.235163 0.223103 0)
(-0.253048 0.387423 0)
(-0.220746 0.555996 0)
(-0.114702 0.708636 0)
(0.0583067 0.311158 0)
(0.0924756 0.219808 0)
(0.101871 0.138083 0)
(0.100151 0.083376 0)
(0.0802189 0.0522325 0)
(0.0428732 0.0402905 0)
(-0.0256548 0.0271192 0)
(-0.0638879 0.0756914 0)
(-0.0391087 0.110707 0)
(0.03553 0.165468 0)
(0.0469192 0.176141 0)
(0.0421248 0.167897 0)
(0.00547195 0.150677 0)
(-0.0373697 0.131073 0)
(-0.0852986 0.122638 0)
(-0.13013 0.121734 0)
(-0.175211 0.127597 0)
(-0.215493 0.143811 0)
(-0.238419 0.18464 0)
(-0.240073 0.255069 0)
(-0.223813 0.357517 0)
(-0.186069 0.475689 0)
(-0.106768 0.581956 0)
(0.0392731 0.249356 0)
(0.0670582 0.196657 0)
(0.0859391 0.139728 0)
(0.0756981 0.104472 0)
(0.0526356 0.0844146 0)
(0.0277442 0.0714803 0)
(-0.00813418 0.0648524 0)
(-0.036657 0.0881318 0)
(-0.0420628 0.104499 0)
(-0.0293773 0.134207 0)
(-0.0119785 0.149693 0)
(-0.0169436 0.120402 0)
(-0.038109 0.0791496 0)
(-0.0628492 0.0414061 0)
(-0.0900241 0.0242577 0)
(-0.111763 0.0322407 0)
(-0.134592 0.0620539 0)
(-0.162436 0.109606 0)
(-0.190219 0.176415 0)
(-0.203479 0.253567 0)
(-0.188679 0.337445 0)
(-0.149987 0.418462 0)
(-0.085801 0.486092 0)
(0.0207684 0.209012 0)
(0.0431847 0.170195 0)
(0.0553344 0.135638 0)
(0.0467569 0.116927 0)
(0.0332176 0.104029 0)
(0.0181455 0.0969914 0)
(-0.00331809 0.0946581 0)
(-0.0177636 0.10414 0)
(-0.0262228 0.109936 0)
(-0.0291413 0.131471 0)
(-0.0194418 0.143024 0)
(-0.0157904 0.138853 0)
(-0.0229045 0.125475 0)
(-0.0408566 0.114847 0)
(-0.0681392 0.107933 0)
(-0.0948149 0.106892 0)
(-0.116605 0.120218 0)
(-0.132958 0.14769 0)
(-0.143023 0.19201 0)
(-0.146731 0.247529 0)
(-0.135592 0.314218 0)
(-0.103023 0.379769 0)
(-0.0545262 0.431186 0)
(0.0121259 0.185972 0)
(0.0263134 0.157864 0)
(0.0323657 0.137438 0)
(0.0282029 0.123876 0)
(0.0212131 0.113747 0)
(0.0122952 0.108612 0)
(0.00126779 0.106136 0)
(-0.00659042 0.112113 0)
(-0.0131737 0.116224 0)
(-0.016626 0.129627 0)
(-0.0120901 0.138442 0)
(-0.00959361 0.139468 0)
(-0.00933142 0.1315 0)
(-0.0185017 0.123129 0)
(-0.033371 0.117643 0)
(-0.0505669 0.118568 0)
(-0.0715449 0.130893 0)
(-0.0858184 0.157584 0)
(-0.0944428 0.196842 0)
(-0.0964944 0.23929 0)
(-0.0865813 0.286307 0)
(-0.0580019 0.338183 0)
(-0.0175076 0.382689 0)
(0.00715498 0.172664 0)
(0.0156519 0.149483 0)
(0.0201875 0.137085 0)
(0.0189406 0.128003 0)
(0.0149741 0.120336 0)
(0.00979748 0.115792 0)
(0.0031706 0.113844 0)
(-0.00157728 0.117045 0)
(-0.00586263 0.120614 0)
(-0.00756632 0.129693 0)
(-0.00473383 0.1365 0)
(-0.00178963 0.137558 0)
(-0.000728626 0.133082 0)
(-0.00478979 0.130518 0)
(-0.0135534 0.129652 0)
(-0.0244073 0.134856 0)
(-0.039995 0.14856 0)
(-0.0527551 0.171201 0)
(-0.0592064 0.204457 0)
(-0.0570542 0.241427 0)
(-0.0501501 0.272912 0)
(-0.0266893 0.305812 0)
(0.00943075 0.340205 0)
(0.00419476 0.163958 0)
(0.0100436 0.143238 0)
(0.0138302 0.135471 0)
(0.0141598 0.129336 0)
(0.0120892 0.124084 0)
(0.00839264 0.12055 0)
(0.0034814 0.119121 0)
(-0.000636628 0.120768 0)
(-0.00438243 0.123187 0)
(-0.00616378 0.128981 0)
(-0.00375366 0.133055 0)
(-0.00090872 0.134384 0)
(-0.000959347 0.13411 0)
(-0.00439871 0.136549 0)
(-0.0111878 0.138911 0)
(-0.0202975 0.147073 0)
(-0.0320902 0.160525 0)
(-0.037273 0.179454 0)
(-0.0373145 0.204528 0)
(-0.0322649 0.235515 0)
(-0.0199752 0.259651 0)
(-8.05286e-05 0.280237 0)
(0.033033 0.303603 0)
(0.00267357 0.158477 0)
(0.00718661 0.138798 0)
(0.0102119 0.133626 0)
(0.0102545 0.129609 0)
(0.00889337 0.126412 0)
(0.00565198 0.12428 0)
(0.00174845 0.123562 0)
(-0.00182615 0.124678 0)
(-0.00511861 0.126507 0)
(-0.00673716 0.129174 0)
(-0.00709289 0.131633 0)
(-0.00628902 0.133861 0)
(-0.00815473 0.136113 0)
(-0.0101036 0.139134 0)
(-0.0144826 0.145005 0)
(-0.0191988 0.155462 0)
(-0.0239342 0.16484 0)
(-0.0245778 0.177383 0)
(-0.0215262 0.198602 0)
(-0.0139596 0.222921 0)
(0.00236028 0.240491 0)
(0.0233732 0.252061 0)
(0.0526465 0.268402 0)
(0.00221335 0.153991 0)
(0.00523551 0.135499 0)
(0.00651261 0.132936 0)
(0.00674841 0.130692 0)
(0.00592145 0.12871 0)
(0.00427956 0.127536 0)
(0.00210324 0.126926 0)
(-0.000233977 0.127691 0)
(-0.00256872 0.128797 0)
(-0.00437283 0.130434 0)
(-0.00552837 0.132849 0)
(-0.00569978 0.135796 0)
(-0.00754119 0.138699 0)
(-0.00918968 0.142783 0)
(-0.0108609 0.149024 0)
(-0.0114683 0.156853 0)
(-0.00904864 0.164967 0)
(-0.00773629 0.176637 0)
(-0.00411562 0.193337 0)
(0.00685518 0.210392 0)
(0.023332 0.221726 0)
(0.0429146 0.229392 0)
(0.0684048 0.240636 0)
(0.00160136 0.150901 0)
(0.00343682 0.133993 0)
(0.00461345 0.132198 0)
(0.00531355 0.130485 0)
(0.00517895 0.129343 0)
(0.00476301 0.128828 0)
(0.00393232 0.128762 0)
(0.00283887 0.129613 0)
(0.00172963 0.131009 0)
(0.000523878 0.132507 0)
(-0.00107378 0.133569 0)
(-0.00197174 0.135726 0)
(-0.00277367 0.139757 0)
(-0.00375278 0.143382 0)
(-0.00359226 0.148173 0)
(-0.00234455 0.153936 0)
(0.000343286 0.163536 0)
(0.00264322 0.174137 0)
(0.00865124 0.18518 0)
(0.0195066 0.197053 0)
(0.0337874 0.204827 0)
(0.0513419 0.208555 0)
(0.0714555 0.215661 0)
(0.00114616 0.148898 0)
(0.00260429 0.132243 0)
(0.00416625 0.13093 0)
(0.004772 0.129828 0)
(0.00492085 0.129289 0)
(0.00485344 0.12902 0)
(0.00452163 0.129231 0)
(0.0042739 0.129996 0)
(0.00429038 0.131106 0)
(0.00447669 0.132986 0)
(0.00415111 0.134699 0)
(0.00355351 0.136931 0)
(0.00431587 0.140442 0)
(0.00503482 0.143415 0)
(0.00588591 0.1472 0)
(0.00687866 0.152194 0)
(0.00910837 0.158844 0)
(0.0147642 0.166957 0)
(0.02252 0.175378 0)
(0.033166 0.184252 0)
(0.0467408 0.189143 0)
(0.0629698 0.190853 0)
(0.0785224 0.195454 0)
(0.00102934 0.147025 0)
(0.00229765 0.13105 0)
(0.00300274 0.130226 0)
(0.00356327 0.129778 0)
(0.00381347 0.129312 0)
(0.00392379 0.12905 0)
(0.00389788 0.129239 0)
(0.00393094 0.129897 0)
(0.0041394 0.131174 0)
(0.00449589 0.133072 0)
(0.00514906 0.135139 0)
(0.00518529 0.136913 0)
(0.00610225 0.138937 0)
(0.00773425 0.142501 0)
(0.00986232 0.146426 0)
(0.0123567 0.151527 0)
(0.0150674 0.156528 0)
(0.0199192 0.161455 0)
(0.0273663 0.167908 0)
(0.0368953 0.173446 0)
(0.0493393 0.175999 0)
(0.0630585 0.17766 0)
(0.0774598 0.180751 0)
(0.000792765 0.145583 0)
(0.00188477 0.130088 0)
(0.00260349 0.129478 0)
(0.00336087 0.129076 0)
(0.00380084 0.128942 0)
(0.00411717 0.129066 0)
(0.00426628 0.129316 0)
(0.0044252 0.129748 0)
(0.00473687 0.130525 0)
(0.00515521 0.132259 0)
(0.0059744 0.13399 0)
(0.0069551 0.135243 0)
(0.00777159 0.137467 0)
(0.00934923 0.139775 0)
(0.011459 0.142872 0)
(0.0148031 0.146886 0)
(0.0204941 0.150358 0)
(0.0264549 0.154375 0)
(0.0333137 0.158285 0)
(0.0426067 0.161241 0)
(0.0541519 0.162488 0)
(0.0642157 0.162737 0)
(0.0781451 0.163622 0)
(0.000880688 0.14405 0)
(0.00205254 0.129105 0)
(0.00285115 0.128737 0)
(0.00363719 0.128725 0)
(0.0042341 0.128738 0)
(0.00476332 0.128767 0)
(0.00531081 0.129059 0)
(0.00584727 0.129617 0)
(0.0063839 0.130457 0)
(0.0069296 0.131327 0)
(0.00817517 0.132778 0)
(0.0098918 0.13474 0)
(0.0116577 0.136561 0)
(0.0135973 0.138349 0)
(0.0156749 0.1406 0)
(0.0194362 0.142845 0)
(0.0229392 0.145702 0)
(0.0281046 0.149187 0)
(0.0347733 0.151044 0)
(0.0440115 0.152884 0)
(0.0530097 0.153251 0)
(0.063228 0.153082 0)
(0.0752838 0.150167 0)
(0.000691942 0.142915 0)
(0.00164477 0.128259 0)
(0.00247378 0.127927 0)
(0.00337721 0.127884 0)
(0.00409766 0.12791 0)
(0.0047629 0.128052 0)
(0.00542298 0.128316 0)
(0.00609863 0.128756 0)
(0.00686719 0.12948 0)
(0.00780567 0.130625 0)
(0.00898231 0.131702 0)
(0.0101715 0.13285 0)
(0.0120738 0.134335 0)
(0.0145378 0.136317 0)
(0.0171204 0.137867 0)
(0.0203446 0.139097 0)
(0.0247883 0.141179 0)
(0.0307976 0.141809 0)
(0.037979 0.142937 0)
(0.0445283 0.143525 0)
(0.0532462 0.144246 0)
(0.0621468 0.141517 0)
(0.0728021 0.13807 0)
(0.000704409 0.141522 0)
(0.00176995 0.127191 0)
(0.0026049 0.126807 0)
(0.00357849 0.126816 0)
(0.00442719 0.127027 0)
(0.00532008 0.127379 0)
(0.00616925 0.127689 0)
(0.00704761 0.128119 0)
(0.00803629 0.128694 0)
(0.00931018 0.129423 0)
(0.0106338 0.130214 0)
(0.0119639 0.131178 0)
(0.0137181 0.131821 0)
(0.0157748 0.132989 0)
(0.0193007 0.133804 0)
(0.0232297 0.135324 0)
(0.0273562 0.135914 0)
(0.0318322 0.136858 0)
(0.036805 0.137556 0)
(0.0430981 0.136651 0)
(0.0514816 0.134147 0)
(0.0599268 0.132312 0)
(0.0681193 0.129134 0)
(0.000680012 0.140495 0)
(0.00172 0.12645 0)
(0.00258121 0.126167 0)
(0.00354628 0.1262 0)
(0.00435521 0.126266 0)
(0.0052704 0.126409 0)
(0.00617573 0.126631 0)
(0.0070966 0.126964 0)
(0.00806986 0.127354 0)
(0.00925596 0.127868 0)
(0.0108036 0.128816 0)
(0.0130699 0.129401 0)
(0.0151196 0.130134 0)
(0.0174911 0.130622 0)
(0.0196192 0.131505 0)
(0.0223749 0.131593 0)
(0.026216 0.131752 0)
(0.0309866 0.131846 0)
(0.0370101 0.130254 0)
(0.0435436 0.129148 0)
(0.0492675 0.128278 0)
(0.0557701 0.124868 0)
(0.0638842 0.119846 0)
(0.000678269 0.139063 0)
(0.00179178 0.125284 0)
(0.00275285 0.125038 0)
(0.00385831 0.125158 0)
(0.00485771 0.12534 0)
(0.00589141 0.125528 0)
(0.00692769 0.125786 0)
(0.00801692 0.126087 0)
(0.00916962 0.126424 0)
(0.0103623 0.126781 0)
(0.0115537 0.126994 0)
(0.0128127 0.127535 0)
(0.0146915 0.128017 0)
(0.0170284 0.128288 0)
(0.0199806 0.128016 0)
(0.0237137 0.127539 0)
(0.027504 0.127295 0)
(0.0315138 0.126429 0)
(0.0356511 0.126241 0)
(0.0401099 0.124363 0)
(0.046264 0.120846 0)
(0.0526545 0.117489 0)
(0.0586793 0.113361 0)
(0.000638507 0.138038 0)
(0.00170734 0.124438 0)
(0.00263099 0.124077 0)
(0.00370866 0.124149 0)
(0.00468915 0.124258 0)
(0.00569835 0.12439 0)
(0.00670129 0.124586 0)
(0.0077539 0.124855 0)
(0.00889572 0.125166 0)
(0.0101811 0.125505 0)
(0.0117501 0.125839 0)
(0.0137203 0.125981 0)
(0.015759 0.125833 0)
(0.0179873 0.125652 0)
(0.0204272 0.125445 0)
(0.0227778 0.125114 0)
(0.0256338 0.12436 0)
(0.0292209 0.123216 0)
(0.0335377 0.120727 0)
(0.0385887 0.11837 0)
(0.043267 0.115999 0)
(0.0481193 0.112059 0)
(0.0536173 0.107173 0)
(0.000658716 0.136649 0)
(0.00189657 0.123276 0)
(0.00296123 0.122939 0)
(0.00416 0.123078 0)
(0.00523484 0.123232 0)
(0.00632493 0.123412 0)
(0.00737136 0.123594 0)
(0.00841294 0.123735 0)
(0.00948389 0.123826 0)
(0.0106224 0.123863 0)
(0.0118247 0.123848 0)
(0.0131197 0.123839 0)
(0.0147305 0.123737 0)
(0.016656 0.123327 0)
(0.0189585 0.12268 0)
(0.0217661 0.121548 0)
(0.0249713 0.120253 0)
(0.0283118 0.118884 0)
(0.0317022 0.117234 0)
(0.0353426 0.114607 0)
(0.0395003 0.110964 0)
(0.0439615 0.107025 0)
(0.0483285 0.102345 0)
(0.000644844 0.135529 0)
(0.00182861 0.122245 0)
(0.00285564 0.121858 0)
(0.00402814 0.122021 0)
(0.0050759 0.122212 0)
(0.00616146 0.122444 0)
(0.00722315 0.122692 0)
(0.0082956 0.122909 0)
(0.00939465 0.123066 0)
(0.0105686 0.123107 0)
(0.0118476 0.123028 0)
(0.0132779 0.122697 0)
(0.0149101 0.122193 0)
(0.0167087 0.121579 0)
(0.0186809 0.120721 0)
(0.0208039 0.119587 0)
(0.0231212 0.118112 0)
(0.0258138 0.116085 0)
(0.0289492 0.113463 0)
(0.0324082 0.110535 0)
(0.0358851 0.107188 0)
(0.0394197 0.103012 0)
(0.043104 0.0982034 0)
(0.00071052 0.134101 0)
(0.00202044 0.120956 0)
(0.00309867 0.120568 0)
(0.00433722 0.12077 0)
(0.00541315 0.120955 0)
(0.006529 0.12117 0)
(0.00759799 0.121369 0)
(0.00864148 0.12152 0)
(0.00965247 0.121584 0)
(0.0106986 0.121521 0)
(0.0117736 0.121328 0)
(0.0128919 0.121017 0)
(0.0141477 0.12046 0)
(0.0156207 0.119615 0)
(0.017307 0.118508 0)
(0.0192428 0.117061 0)
(0.0214399 0.115248 0)
(0.0238081 0.113132 0)
(0.0263306 0.110656 0)
(0.0290386 0.10758 0)
(0.0319469 0.103877 0)
(0.0349327 0.099645 0)
(0.0379228 0.0948349 0)
(0.000738192 0.132787 0)
(0.00201542 0.119969 0)
(0.00301993 0.119559 0)
(0.00421971 0.119821 0)
(0.00525165 0.120054 0)
(0.00635235 0.120298 0)
(0.007464 0.120539 0)
(0.00862322 0.120742 0)
(0.00976871 0.120861 0)
(0.0108525 0.120879 0)
(0.0118893 0.120635 0)
(0.0128591 0.120074 0)
(0.0138504 0.119207 0)
(0.0149352 0.118174 0)
(0.0161891 0.116906 0)
(0.0176445 0.115341 0)
(0.0193433 0.113391 0)
(0.0212434 0.111036 0)
(0.023333 0.108207 0)
(0.02561 0.104957 0)
(0.0279881 0.101215 0)
(0.030373 0.0969178 0)
(0.0327664 0.0920878 0)
(0.000894234 0.131246 0)
(0.00204263 0.118697 0)
(0.00279932 0.118265 0)
(0.00387879 0.118526 0)
(0.00478603 0.118746 0)
(0.0058065 0.118977 0)
(0.00688298 0.119238 0)
(0.0080177 0.119476 0)
(0.00916916 0.119627 0)
(0.0103128 0.119697 0)
(0.0114166 0.119586 0)
(0.012482 0.119195 0)
(0.0135111 0.118536 0)
(0.0144535 0.117449 0)
(0.0153642 0.115857 0)
(0.0162563 0.113873 0)
(0.0173266 0.11164 0)
(0.0186774 0.109142 0)
(0.0202969 0.106292 0)
(0.0220583 0.102936 0)
(0.0239266 0.0990768 0)
(0.025811 0.0947353 0)
(0.0276653 0.0899165 0)
(0.000983135 0.129896 0)
(0.00186886 0.118146 0)
(0.00217571 0.117751 0)
(0.00294227 0.117986 0)
(0.00353505 0.11816 0)
(0.00431253 0.118306 0)
(0.00513415 0.118349 0)
(0.00607207 0.118412 0)
(0.00712707 0.118506 0)
(0.00828884 0.118542 0)
(0.00950117 0.11846 0)
(0.0107038 0.118161 0)
(0.0118411 0.117535 0)
(0.0128894 0.116542 0)
(0.0138577 0.115208 0)
(0.014816 0.113435 0)
(0.0157557 0.11106 0)
(0.0165106 0.10805 0)
(0.0172907 0.104738 0)
(0.0184514 0.101271 0)
(0.0198267 0.0974419 0)
(0.0212348 0.0931017 0)
(0.0225943 0.0882799 0)
(0.00100085 0.12845 0)
(0.00127451 0.117817 0)
(0.000731481 0.117345 0)
(0.000856345 0.117425 0)
(0.000822911 0.117516 0)
(0.00110688 0.117519 0)
(0.00144754 0.117478 0)
(0.00201399 0.1174 0)
(0.00280762 0.117328 0)
(0.00385023 0.117209 0)
(0.00510095 0.117038 0)
(0.00646222 0.11672 0)
(0.00782888 0.116132 0)
(0.00925077 0.115251 0)
(0.0106436 0.113979 0)
(0.0119089 0.11226 0)
(0.0129735 0.110135 0)
(0.0138908 0.107632 0)
(0.0147814 0.104405 0)
(0.0153857 0.100439 0)
(0.0158318 0.0962351 0)
(0.0166872 0.0918764 0)
(0.0175559 0.0871308 0)
(0.000823838 0.127576 0)
(0.00023835 0.118309 0)
(-0.00157705 0.117979 0)
(-0.00242523 0.117799 0)
(-0.00341303 0.117682 0)
(-0.00396067 0.117522 0)
(-0.00435029 0.117287 0)
(-0.00441827 0.116951 0)
(-0.0041718 0.116516 0)
(-0.00353927 0.116046 0)
(-0.00246562 0.115598 0)
(-0.000959104 0.115121 0)
(0.000825326 0.114502 0)
(0.00269392 0.113612 0)
(0.00456619 0.112427 0)
(0.00629631 0.110835 0)
(0.00786348 0.10881 0)
(0.00945355 0.106318 0)
(0.0107573 0.103425 0)
(0.0117226 0.10019 0)
(0.0124527 0.0961442 0)
(0.0125896 0.0913788 0)
(0.012623 0.0864868 0)
(0.000477631 0.127411 0)
(-0.00127497 0.119929 0)
(-0.00413289 0.119559 0)
(-0.00608975 0.119113 0)
(-0.00814774 0.118711 0)
(-0.00972803 0.118275 0)
(-0.011015 0.117764 0)
(-0.0119547 0.117175 0)
(-0.0125645 0.116515 0)
(-0.0127229 0.115652 0)
(-0.0124355 0.114658 0)
(-0.011641 0.113593 0)
(-0.0102362 0.112521 0)
(-0.00825533 0.111393 0)
(-0.00578736 0.110111 0)
(-0.00298959 0.108678 0)
(-0.00014634 0.106948 0)
(0.00230144 0.104766 0)
(0.00429412 0.102068 0)
(0.00602877 0.0989063 0)
(0.00738311 0.0954442 0)
(0.00820417 0.0916271 0)
(0.00807258 0.0868652 0)
(9.9124e-05 0.128095 0)
(-0.00238923 0.123014 0)
(-0.00592562 0.122578 0)