/*--------------------------------*- C++ -*----------------------------------*\
| =========                 |                                                 |
| \\      /  F ield         | OpenFOAM: The Open Source CFD Toolbox           |
|  \\    /   O peration     | Version:  2.4.0                                 |
|   \\  /    A nd           | Web:      www.OpenFOAM.org                      |
|    \\/     M anipulation  |                                                 |
\*---------------------------------------------------------------------------*/
FoamFile
{
    version     2.0;
    format      ascii;
    class       volVectorField;
    location    "0.7";
    object      U.mercury;
}
// * * * * * * * * * * * * * * * * * * * * * * * * * * * * * * * * * * * * * //

dimensions      [0 1 -1 0 0 0 0];

internalField   nonuniform List<vector> 
2268
(
(0.0120559 0.00183958 0)
(0.0333792 0.000385051 0)
(0.0594238 0.00494463 0)
(0.069859 0.00209051 0)
(0.0957005 3.84484e-07 0)
(0.120157 0.00380765 0)
(0.127897 0.00695971 0)
(0.131796 0.0148016 0)
(0.12345 0.0222723 0)
(0.116758 0.0348523 0)
(0.0934209 0.0520829 0)
(0.0482926 0.0524831 0)
(-0.0178939 0.0382013 0)
(-0.0850132 0.019507 0)
(-0.12079 0.00152672 0)
(-0.130688 -0.00746572 0)
(-0.129731 -0.00566562 0)
(-0.126765 -0.00683478 0)
(-0.115451 -0.00321531 0)
(-0.101163 -0.0105085 0)
(-0.0594899 -0.0051889 0)
(-0.0436683 -0.000771767 0)
(-0.0355271 -0.00785366 0)
(0.0135108 -0.0200483 0)
(0.0314557 -0.0219401 0)
(0.0587643 -0.0168485 0)
(0.0736059 -0.0192698 0)
(0.0966501 -0.0207131 0)
(0.118047 -0.0147975 0)
(0.13024 -0.0137498 0)
(0.137545 -0.011805 0)
(0.141022 -0.0159712 0)
(0.130071 -0.0252913 0)
(0.0958553 -0.021107 0)
(0.0370255 0.00139877 0)
(-0.0319804 0.0310036 0)
(-0.0940588 0.0295619 0)
(-0.126099 0.0180834 0)
(-0.131502 0.0103718 0)
(-0.128189 0.00362688 0)
(-0.124265 -0.00125946 0)
(-0.11437 -0.00822683 0)
(-0.0903925 -0.0158258 0)
(-0.0614903 -0.0215545 0)
(-0.0340466 -0.0108895 0)
(-0.0188835 -0.0299314 0)
(0.014688 -0.0328208 0)
(0.0295939 -0.0359596 0)
(0.0559012 -0.0258373 0)
(0.0807411 -0.0313152 0)
(0.0942687 -0.0338735 0)
(0.113104 -0.0224975 0)
(0.124758 -0.0120688 0)
(0.132128 0.00721639 0)
(0.132092 0.0295739 0)
(0.117701 0.0690343 0)
(0.0938494 0.117684 0)
(0.0491442 0.112667 0)
(-0.0113234 0.0846689 0)
(-0.0763071 0.054348 0)
(-0.119666 0.0211642 0)
(-0.139951 -0.00273023 0)
(-0.140638 -0.00770599 0)
(-0.130677 -0.0130034 0)
(-0.118722 -0.0173716 0)
(-0.0815159 -0.0335727 0)
(-0.0548359 -0.031983 0)
(-0.014651 -0.0195193 0)
(0.00234007 -0.0321464 0)
(0.0159559 -0.209246 0)
(0.0262018 -0.210649 0)
(0.0483433 -0.205544 0)
(0.0835071 -0.207278 0)
(0.0897565 -0.203615 0)
(0.100388 -0.193057 0)
(0.123046 -0.181261 0)
(0.146801 -0.163091 0)
(0.16676 -0.134772 0)
(0.154163 -0.0829058 0)
(0.0923356 -0.0253084 0)
(0.0153687 0.060337 0)
(-0.0401243 0.114407 0)
(-0.0934079 0.0859263 0)
(-0.128767 0.044527 0)
(-0.143494 0.014933 0)
(-0.143025 -0.0018404 0)
(-0.129627 -0.0146954 0)
(-0.114281 -0.0301343 0)
(-0.0803358 -0.0476672 0)
(-0.0679657 -0.0542808 0)
(-0.0177521 -0.0359442 0)
(0.000822646 -0.0348374 0)
(0.0114005 -0.236378 0)
(0.0196794 -0.224435 0)
(0.0334493 -0.236521 0)
(0.0534725 -0.21669 0)
(0.0564507 -0.193359 0)
(0.0568292 -0.18752 0)
(0.0676574 -0.173923 0)
(0.0793737 -0.177418 0)
(0.126847 -0.182055 0)
(0.124932 -0.161375 0)
(0.0632662 -0.0261507 0)
(-0.0183763 0.0669746 0)
(-0.09386 0.113955 0)
(-0.143139 0.0915672 0)
(-0.160428 0.048297 0)
(-0.158667 0.0115672 0)
(-0.147017 -0.0119891 0)
(-0.124929 -0.0265416 0)
(-0.102332 -0.0426682 0)
(-0.077856 -0.053709 0)
(-0.0800397 -0.0626756 0)
(-0.0347802 -0.0552217 0)
(0.00298584 -0.0409554 0)
(-0.00392862 -0.146023 0)
(0.0016446 -0.145168 0)
(-0.0027117 -0.14419 0)
(-0.0112074 -0.138768 0)
(-0.0207308 -0.128716 0)
(-0.0337023 -0.126931 0)
(-0.0521496 -0.132414 0)
(-0.0768374 -0.153113 0)
(-0.0767826 -0.179577 0)
(0.0264204 -0.195481 0)
(0.0732655 -0.13789 0)
(-0.027646 0.00485839 0)
(-0.158071 0.116074 0)
(-0.197459 0.0997971 0)
(-0.218319 0.0417982 0)
(-0.205321 0.00479091 0)
(-0.171615 -0.0175729 0)
(-0.129333 -0.0344671 0)
(-0.0932173 -0.050568 0)
(-0.0747178 -0.0548677 0)
(-0.0807328 -0.0697952 0)
(-0.0540608 -0.0706519 0)
(-0.00408158 -0.0502086 0)
(-0.00291327 -0.00898734 0)
(-0.00406303 -0.00569419 0)
(-0.00236431 -0.00787465 0)
(0.00274337 0.00528907 0)
(-0.00241341 0.0197482 0)
(-0.00702235 0.0193817 0)
(-0.0146546 0.0461485 0)
(-0.0507301 0.0888853 0)
(-0.0957181 0.140243 0)
(-0.173862 0.151471 0)
(-0.253353 0.0197799 0)
(-0.265453 -0.00167564 0)
(-0.285598 0.0873407 0)
(-0.284667 0.104857 0)
(-0.278237 0.0588562 0)
(-0.259007 -0.00641049 0)
(-0.219711 -0.0470052 0)
(-0.156597 -0.0593125 0)
(-0.107878 -0.0602728 0)
(-0.0821838 -0.055622 0)
(-0.0767944 -0.0736011 0)
(-0.0508919 -0.0876387 0)
(-0.00427038 -0.0672378 0)
(-0.00255183 -0.097522 0)
(-0.00071662 -0.0977087 0)
(-0.00479317 -0.0970398 0)
(-0.011743 -0.0890546 0)
(-0.0148145 -0.0777381 0)
(-0.033664 -0.0713965 0)
(-0.0547743 -0.0780943 0)
(-0.0657347 -0.0882808 0)
(-0.0627756 -0.0815945 0)
(-0.06896 -0.0283019 0)
(-0.23911 0.0128594 0)
(-0.386348 -0.0510121 0)
(-0.402902 0.00294432 0)
(-0.41414 0.0270541 0)
(-0.405602 0.00933194 0)
(-0.369663 -0.0214351 0)
(-0.280518 -0.0604211 0)
(-0.216592 -0.0920837 0)
(-0.171927 -0.104932 0)
(-0.0999211 -0.0814135 0)
(-0.0574316 -0.121305 0)
(-0.034616 -0.136555 0)
(0.00500267 -0.0914302 0)
(-0.259907 -0.18936 0)
(-0.233055 -0.269396 0)
(0.0204882 -0.243693 0)
(0.227459 -0.211587 0)
(0.40105 -0.194515 0)
(0.499297 -0.19848 0)
(0.571971 -0.206405 0)
(0.642056 -0.209086 0)
(0.705164 -0.209907 0)
(0.755309 -0.220503 0)
(0.779915 -0.236047 0)
(0.781295 -0.244876 0)
(0.769166 -0.25261 0)
(0.732276 -0.259381 0)
(0.626466 -0.256397 0)
(0.455063 -0.217 0)
(0.245404 -0.154163 0)
(-0.102382 -0.19386 0)
(-0.0266012 -0.236606 0)
(-0.295616 0.129865 0)
(0.123321 -0.152211 0)
(0.306317 -0.225106 0)
(0.393917 -0.146541 0)
(0.491843 -0.0602413 0)
(0.570247 -0.00524404 0)
(0.609766 0.0113874 0)
(0.647605 0.0168526 0)
(0.696565 0.0225574 0)
(0.734784 0.0448263 0)
(0.741944 0.0758216 0)
(0.748368 0.0925811 0)
(0.765543 0.111741 0)
(0.789443 0.169202 0)
(0.750652 0.226546 0)
(0.62117 0.248633 0)
(0.40581 0.207351 0)
(0.0475413 0.157242 0)
(-0.0622265 0.0433072 0)
(-0.253421 -0.028194 0)
(0.325444 -0.494537 0)
(0.43216 -0.511151 0)
(0.565696 -0.467201 0)
(0.65067 -0.437262 0)
(0.671135 -0.367132 0)
(0.681074 -0.353028 0)
(0.676344 -0.361667 0)
(0.644927 -0.382614 0)
(0.615168 -0.386264 0)
(0.584948 -0.410457 0)
(0.526431 -0.433037 0)
(0.514768 -0.402158 0)
(0.55614 -0.311583 0)
(0.562852 -0.160434 0)
(0.554156 0.0849151 0)
(0.383878 0.197425 0)
(0.0485634 0.133383 0)
(-0.092455 -0.140506 0)
(0.176772 -0.0811916 0)
(0.406974 -0.509089 0)
(0.487231 -0.582647 0)
(0.503347 -0.665748 0)
(0.508331 -0.737598 0)
(0.574897 -0.79669 0)
(0.633924 -0.781888 0)
(0.669642 -0.787053 0)
(0.667022 -0.722549 0)
(0.711244 -0.554322 0)
(0.695705 -0.604393 0)
(0.577914 -0.769788 0)
(0.493325 -0.679224 0)
(0.423062 -0.526158 0)
(0.354987 -0.397352 0)
(0.257439 0.0362386 0)
(0.287358 0.256722 0)
(0.0419911 0.221945 0)
(-0.0584338 -0.0359872 0)
(0.427507 -0.241252 0)
(0.425994 -0.546141 0)
(0.432404 -0.678138 0)
(0.433982 -0.775636 0)
(0.465728 -0.82301 0)
(0.507989 -0.806229 0)
(0.491862 -0.718839 0)
(0.54275 -0.624548 0)
(0.559242 -0.487455 0)
(0.631967 -0.277312 0)
(0.674902 -0.146869 0)
(0.641693 -0.157318 0)
(0.661984 -0.769764 0)
(0.461088 -0.620525 0)
(0.355922 -0.506432 0)
(0.0527065 -0.0967507 0)
(0.173212 0.248423 0)
(-0.0605593 0.274988 0)
(0.0939194 -0.161329 0)
(0.408434 -0.511368 0)
(0.380125 -0.646826 0)
(0.416435 -0.728262 0)
(0.469992 -0.854706 0)
(0.482219 -0.844975 0)
(0.457789 -0.649822 0)
(0.480613 -0.584736 0)
(0.498638 -0.624294 0)
(0.501963 -0.487279 0)
(0.582768 -0.216824 0)
(0.638968 -0.0629485 0)
(0.619342 -0.00696366 0)
(0.594208 -0.0581303 0)
(0.421561 -0.598417 0)
(0.320405 -0.50141 0)
(-0.00145884 -0.0539838 0)
(-0.0562322 0.201221 0)
(-0.214183 0.264548 0)
(0.219136 -0.211686 0)
(0.371377 -0.611438 0)
(0.372914 -0.689159 0)
(0.439983 -0.809985 0)
(0.460465 -0.915955 0)
(0.460483 -0.838158 0)
(0.428696 -0.34806 0)
(0.472934 -0.389961 0)
(0.470405 -0.529185 0)
(0.472649 -0.343091 0)
(0.51142 -0.18648 0)
(0.568955 -0.113399 0)
(0.571112 -0.0293569 0)
(0.503077 0.0205112 0)
(0.441862 -0.644115 0)
(0.283517 -0.489735 0)
(0.0506601 -0.167769 0)
(-0.138543 0.143938 0)
(-0.298437 0.171101 0)
(0.210458 -0.366181 0)
(0.380827 -0.645459 0)
(0.404321 -0.721285 0)
(0.429223 -0.856085 0)
(0.462605 -0.975314 0)
(0.437039 -0.718953 0)
(0.403015 -0.279414 0)
(0.419473 -0.16692 0)
(0.439101 -0.13954 0)
(0.438058 -0.143219 0)
(0.439144 -0.14134 0)
(0.454952 -0.0920761 0)
(0.492182 -0.00193958 0)
(0.470867 0.0640977 0)
(0.322151 -0.107048 0)
(0.293469 -0.540709 0)
(0.168014 -0.288374 0)
(-0.10231 0.100921 0)
(-0.292025 0.048656 0)
(0.271609 -0.429932 0)
(-0.00409808 -0.0355574 0)
(-0.00831353 -0.0320905 0)
(0.00509561 -0.0316331 0)
(0.0336527 -0.00953872 0)
(0.0446001 0.0240299 0)
(0.0323663 0.0469994 0)
(0.0154328 0.106054 0)
(-0.038325 0.156707 0)
(-0.101538 0.186671 0)
(-0.173774 0.177515 0)
(-0.206351 0.141567 0)
(-0.325848 -0.0525589 0)
(-0.303139 -0.0278959 0)
(-0.28928 0.00739698 0)
(-0.305239 -0.0334896 0)
(-0.280461 -0.182112 0)
(-0.267407 -0.252555 0)
(-0.25 -0.256949 0)
(-0.199767 -0.25149 0)
(-0.119457 -0.287639 0)
(-0.0101085 -0.289009 0)
(0.0275673 -0.290273 0)
(0.0502817 -0.235499 0)
(0.00310549 -0.0318182 0)
(0.00853224 -0.0481033 0)
(0.0155193 -0.081385 0)
(0.0186679 -0.074708 0)
(0.0245579 -0.0437767 0)
(0.0190737 -0.0352141 0)
(0.0181918 -0.00991171 0)
(0.00026069 0.0168917 0)
(-0.00497469 0.0498181 0)
(-0.01271 0.085069 0)
(-0.0304185 0.123238 0)
(-0.152107 0.0509089 0)
(-0.137721 -0.0787118 0)
(-0.103823 -0.136254 0)
(-0.0668919 -0.1695 0)
(0.0742266 -0.262943 0)
(0.146137 -0.266823 0)
(0.153108 -0.299584 0)
(0.218915 -0.397713 0)
(0.244543 -0.531038 0)
(0.222459 -0.579327 0)
(0.223586 -0.571147 0)
(0.243677 -0.530256 0)
(-0.00957929 -0.0899389 0)
(-0.0352631 -0.0929208 0)
(-0.00415212 -0.108661 0)
(0.0556793 -0.0680894 0)
(0.0812661 -0.0121652 0)
(0.0407172 0.0297357 0)
(-0.00755086 0.0814118 0)
(-0.0601661 0.11174 0)
(-0.0747554 0.126974 0)
(-0.0790016 0.141149 0)
(-0.0663223 0.140991 0)
(-0.0366315 0.132899 0)
(-0.0368161 0.0425007 0)
(0.0318751 -0.0234561 0)
(0.0807762 -0.153569 0)
(0.159673 -0.235321 0)
(0.229429 -0.358144 0)
(0.252617 -0.431954 0)
(0.310519 -0.472279 0)
(0.343219 -0.458439 0)
(0.367566 -0.394148 0)
(0.383562 -0.349688 0)
(0.39773 -0.315762 0)
(-0.0345367 0.0550784 0)
(-0.0696602 0.00702011 0)
(-0.0156747 -0.115226 0)
(-0.0377112 -0.10107 0)
(-0.0596781 0.00987952 0)
(-0.12669 0.0971529 0)
(-0.116165 0.15017 0)
(-0.121911 0.145385 0)
(-0.123212 0.132059 0)
(-0.118103 0.125508 0)
(-0.104476 0.104943 0)
(-0.0849121 0.0817974 0)
(-0.0355457 0.0400591 0)
(0.0412096 0.00484005 0)
(0.0935873 -0.0470303 0)
(0.133666 -0.089235 0)
(0.193195 -0.125833 0)
(0.198281 -0.19969 0)
(0.280114 -0.256359 0)
(0.283415 -0.307424 0)
(0.324312 -0.355109 0)
(0.358142 -0.354052 0)
(0.361312 -0.297688 0)
(-0.0408699 -0.0123913 0)
(-0.117543 -0.123004 0)
(-0.271046 -0.22674 0)
(-0.525824 -0.061199 0)
(-0.606718 -0.0152751 0)
(-0.615149 -0.026995 0)
(-0.542872 -0.0103724 0)
(-0.425582 0.0696301 0)
(-0.359722 0.0944698 0)
(-0.273677 0.138134 0)
(-0.230834 0.128502 0)
(-0.201412 0.0911988 0)
(-0.127222 0.0509303 0)
(-0.0632683 -0.00969235 0)
(0.00164797 -0.0975005 0)
(0.0510123 -0.219259 0)
(0.097488 -0.304034 0)
(0.0813165 -0.424661 0)
(0.140124 -0.518177 0)
(0.106041 -0.625727 0)
(0.142997 -0.655903 0)
(0.166687 -0.559517 0)
(0.0776262 -0.165649 0)
(-0.0325727 -0.194197 0)
(-0.165339 -0.236173 0)
(-0.405351 -0.223596 0)
(-0.583046 -0.272046 0)
(-0.690946 -0.320319 0)
(-0.672247 -0.403837 0)
(-0.649531 -0.479602 0)
(-0.582392 -0.385046 0)
(-0.52931 -0.30245 0)
(-0.479434 -0.239287 0)
(-0.432839 -0.234373 0)
(-0.390249 -0.303354 0)
(-0.33748 -0.319319 0)
(-0.267707 -0.332951 0)
(-0.226143 -0.419809 0)
(-0.18715 -0.459128 0)
(-0.183258 -0.518463 0)
(-0.277319 -0.530321 0)
(-0.287894 -0.0992668 0)
(-0.380258 0.58366 0)
(-0.43649 -0.0453787 0)
(-0.366232 -0.267199 0)
(-0.391085 0.279671 0)
(-0.0341945 -0.0974401 0)
(-0.209217 -0.124794 0)
(-0.411613 -0.0383427 0)
(-0.563144 0.162411 0)
(-0.62893 0.255454 0)
(-0.209075 0.132109 0)
(0.123386 0.166315 0)
(0.231978 0.404777 0)
(0.0836005 0.378381 0)
(-0.263542 0.167918 0)
(-0.314437 0.181347 0)
(-0.234491 0.897746 0)
(-0.35136 0.788743 0)
(-0.544759 0.759949 0)
(-0.753956 0.570346 0)
(-0.965639 0.188694 0)
(-1.02087 -0.0469271 0)
(-0.884748 -0.55139 0)
(-0.747442 -0.811934 0)
(-0.562594 -0.853541 0)
(-0.487701 -0.655199 0)
(-0.674243 -0.101458 0)
(-0.973414 0.956971 0)
(-0.0355562 -0.218041 0)
(0.00801966 0.209584 0)
(0.0012616 0.25134 0)
(-0.0550538 0.170753 0)
(0.13459 -0.360491 0)
(0.124801 -0.558909 0)
(0.0342163 -0.545573 0)
(-0.185917 -0.523799 0)
(-0.188647 -0.141048 0)
(-0.289007 -0.0374134 0)
(-0.412333 -0.43204 0)
(-0.314747 -0.647078 0)
(-0.192885 -0.689944 0)
(0.0182022 -0.556299 0)
(0.125592 -0.402833 0)
(0.205942 -0.38065 0)
(0.157886 -0.352352 0)
(0.0793928 -0.29881 0)
(-0.134358 -0.178748 0)
(-0.328981 -0.086429 0)
(-0.669822 -0.00887022 0)
(-1.05395 0.360779 0)
(-1.13925 1.13945 0)
(-0.190792 0.511659 0)
(-0.0830302 0.458695 0)
(0.059781 0.455815 0)
(0.180118 0.342681 0)
(0.336942 0.140781 0)
(0.210366 -0.101948 0)
(0.224189 -0.0192623 0)
(0.160901 0.364174 0)
(-0.110979 0.434179 0)
(0.0287032 0.465621 0)
(-0.0330246 0.521456 0)
(-0.110111 0.558314 0)
(-0.155248 0.291018 0)
(-0.125293 0.275211 0)
(-0.11011 0.352853 0)
(-0.129427 0.237656 0)
(-0.160824 0.111448 0)
(-0.211839 -0.0321676 0)
(-0.301551 -0.0659856 0)
(-0.419748 -0.0477513 0)
(-0.595409 0.101423 0)
(-0.829945 0.465182 0)
(-0.978077 1.16859 0)
(-0.131241 0.388327 0)
(-0.0278669 0.282824 0)
(-0.0121901 0.273782 0)
(0.121635 0.136587 0)
(0.178654 -0.154319 0)
(0.145642 -0.268839 0)
(-0.0248953 -0.247487 0)
(0.0656702 0.0649285 0)
(-0.0783247 0.281633 0)
(-0.0226776 0.246782 0)
(-0.144534 0.0562931 0)
(0.0183889 -0.373897 0)
(0.00999674 -0.417058 0)
(-0.0651214 -0.386247 0)
(-0.0162807 -0.340101 0)
(0.0475928 -0.293198 0)
(0.0449382 -0.251518 0)
(-0.0125535 -0.18941 0)
(-0.114659 -0.0792322 0)
(-0.236094 0.109388 0)
(-0.389873 0.331039 0)
(-0.48994 0.589464 0)
(-0.471533 1.03029 0)
(-0.0428599 0.461051 0)
(0.0620971 0.243152 0)
(0.0575329 0.163948 0)
(0.167788 0.0607238 0)
(0.157513 0.00348383 0)
(0.0968109 -0.0523202 0)
(-0.0528512 -0.0645028 0)
(-0.0057635 0.212411 0)
(0.0348652 0.315412 0)
(0.14761 0.291117 0)
(0.232154 0.21409 0)
(0.268906 0.234917 0)
(0.102974 0.181971 0)
(0.0111205 0.111434 0)
(-0.0374951 0.121257 0)
(-0.0926016 0.104958 0)
(-0.145621 0.0966891 0)
(-0.204779 0.0991634 0)
(-0.269162 0.161138 0)
(-0.31665 0.247765 0)
(-0.323835 0.409102 0)
(-0.311506 0.614483 0)
(-0.183096 0.852835 0)
(0.0469973 0.415989 0)
(0.0938525 0.239876 0)
(0.099417 0.160708 0)
(0.107565 0.0835495 0)
(0.0725693 0.0114194 0)
(0.0467467 -0.030436 0)
(-0.0439341 -0.0501125 0)
(-0.0586078 0.079797 0)
(0.0494999 0.215999 0)
(0.123605 0.189525 0)
(0.110997 0.0992321 0)
(0.0514476 -0.0368171 0)
(0.0328567 -0.0843742 0)
(-0.00439703 -0.115464 0)
(-0.0444465 -0.127117 0)
(-0.0689336 -0.111706 0)
(-0.101001 -0.0830821 0)
(-0.141407 -0.0226075 0)
(-0.189018 0.0838321 0)
(-0.235125 0.22299 0)
(-0.252987 0.3873 0)
(-0.220672 0.555856 0)
(-0.114641 0.708479 0)
(0.0583085 0.311144 0)
(0.0924796 0.219793 0)
(0.101877 0.138068 0)
(0.100159 0.0833601 0)
(0.0802289 0.0522145 0)
(0.0428842 0.04027 0)
(-0.0256435 0.0270958 0)
(-0.0638771 0.0756648 0)
(-0.0390991 0.110677 0)
(0.0355386 0.165435 0)
(0.0469275 0.176104 0)
(0.042134 0.167855 0)
(0.00548035 0.150629 0)
(-0.037365 0.131017 0)
(-0.0853001 0.122573 0)
(-0.130137 0.12166 0)
(-0.17522 0.127516 0)
(-0.215497 0.143723 0)
(-0.23841 0.184544 0)
(-0.240046 0.254963 0)
(-0.223767 0.357402 0)
(-0.18601 0.475557 0)
(-0.10672 0.581809 0)
(0.0392741 0.249341 0)
(0.0670611 0.196642 0)
(0.0859437 0.139712 0)
(0.0757043 0.104455 0)
(0.0526432 0.0843955 0)
(0.0277525 0.0714586 0)
(-0.00812572 0.064828 0)
(-0.036649 0.0881043 0)
(-0.042056 0.104468 0)
(-0.0293716 0.134173 0)
(-0.0119731 0.149656 0)
(-0.0169392 0.12036 0)
(-0.0381068 0.0791024 0)
(-0.0628522 0.0413521 0)
(-0.090034 0.0241963 0)
(-0.111779 0.0321723 0)
(-0.134609 0.0619789 0)
(-0.162445 0.109527 0)
(-0.190216 0.176328 0)
(-0.203461 0.253472 0)
(-0.188644 0.337339 0)
(-0.149941 0.418344 0)
(-0.0857619 0.485959 0)
(0.0207691 0.208997 0)
(0.0431869 0.170179 0)
(0.0553378 0.135621 0)
(0.0467614 0.116908 0)
(0.0332229 0.104009 0)
(0.0181512 0.096969 0)
(-0.00331248 0.094633 0)
(-0.0177587 0.104112 0)
(-0.026219 0.109905 0)
(-0.0291389 0.131436 0)
(-0.0194406 0.142987 0)
(-0.0157912 0.138811 0)
(-0.0229086 0.125428 0)
(-0.0408661 0.114793 0)
(-0.0681549 0.107874 0)
(-0.0948355 0.106829 0)
(-0.116624 0.120153 0)
(-0.132972 0.14762 0)
(-0.143025 0.191937 0)
(-0.14672 0.247447 0)
(-0.135569 0.314127 0)
(-0.102988 0.379665 0)
(-0.0544976 0.43107 0)
(0.0121263 0.185956 0)
(0.0263148 0.157848 0)
(0.0323678 0.137421 0)
(0.0282058 0.123857 0)
(0.0212163 0.113726 0)
(0.0122985 0.108589 0)
(0.00127072 0.106111 0)
(-0.00658832 0.112085 0)
(-0.0131729 0.116193 0)
(-0.0166267 0.129593 0)
(-0.0120927 0.138405 0)
(-0.00959874 0.139427 0)
(-0.00934036 0.131455 0)
(-0.0185156 0.12308 0)
(-0.0333904 0.117591 0)
(-0.0505892 0.118514 0)
(-0.0715678 0.130838 0)
(-0.0858348 0.157526 0)
(-0.0944514 0.196779 0)
(-0.096492 0.239221 0)
(-0.0865663 0.286227 0)
(-0.0579792 0.338093 0)
(-0.0174892 0.382585 0)
(0.00715527 0.172648 0)
(0.0156527 0.149466 0)
(0.0201886 0.137067 0)
(0.0189419 0.127983 0)
(0.0149755 0.120315 0)
(0.00979854 0.115769 0)
(0.00317104 0.113818 0)
(-0.00157786 0.117018 0)
(-0.00586463 0.120584 0)
(-0.00757009 0.12966 0)
(-0.0047398 0.136464 0)
(-0.00179846 0.137518 0)
(-0.000741158 0.13304 0)
(-0.00480626 0.130473 0)
(-0.0135743 0.129605 0)
(-0.0244316 0.134808 0)
(-0.040018 0.148511 0)
(-0.0527759 0.171149 0)
(-0.0592197 0.204402 0)
(-0.057059 0.241366 0)
(-0.050146 0.272843 0)
(-0.0266778 0.305733 0)
(0.0094372 0.340114 0)
(0.00419469 0.163941 0)
(0.0100435 0.14322 0)
(0.0138302 0.135453 0)
(0.0141598 0.129316 0)
(0.0120889 0.124062 0)
(0.0083917 0.120527 0)
(0.00347961 0.119096 0)
(-0.000639603 0.120741 0)
(-0.00438695 0.123158 0)
(-0.00617025 0.128949 0)
(-0.00376248 0.133021 0)
(-0.00092044 0.134347 0)
(-0.000974395 0.134071 0)
(-0.00441782 0.136508 0)
(-0.01121 0.138868 0)
(-0.020322 0.147029 0)
(-0.0321172 0.16048 0)
(-0.0372951 0.179407 0)
(-0.0373323 0.204482 0)
(-0.0322759 0.235463 0)
(-0.0199776 0.259596 0)
(-7.93625e-05 0.280172 0)
(0.0330286 0.303529 0)
(0.0026735 0.158459 0)
(0.00718627 0.13878 0)
(0.0102111 0.133607 0)
(0.0102532 0.129589 0)
(0.00889153 0.126391 0)
(0.00564934 0.124257 0)
(0.00174478 0.123538 0)
(-0.00183115 0.124652 0)
(-0.00512525 0.126479 0)
(-0.00674588 0.129144 0)
(-0.007104 0.131601 0)
(-0.00630312 0.133827 0)
(-0.00817231 0.136077 0)
(-0.0101238 0.139097 0)
(-0.0145063 0.144966 0)
(-0.0192248 0.155422 0)
(-0.0239594 0.1648 0)
(-0.0246002 0.177345 0)
(-0.0215446 0.198562 0)
(-0.013973 0.222882 0)
(0.00235234 0.240447 0)
(0.0233664 0.252012 0)
(0.052633 0.268345 0)
(0.00221303 0.153973 0)
(0.00523458 0.135481 0)
(0.00651108 0.132917 0)
(0.00674618 0.130672 0)
(0.0059184 0.12869 0)
(0.00427552 0.127514 0)
(0.002098 0.126903 0)
(-0.000240649 0.127667 0)
(-0.00257712 0.128771 0)
(-0.00438331 0.130406 0)
(-0.00554134 0.132819 0)
(-0.00571566 0.135765 0)
(-0.00756025 0.138666 0)
(-0.00921193 0.142749 0)
(-0.0108854 0.148989 0)
(-0.0114937 0.156818 0)
(-0.00907333 0.164933 0)
(-0.00775817 0.176604 0)
(-0.0041342 0.193303 0)
(0.0068403 0.210358 0)
(0.0233197 0.22169 0)
(0.0429025 0.229351 0)
(0.0683853 0.24059 0)
(0.00160098 0.150883 0)
(0.00343562 0.133975 0)
(0.00461137 0.13218 0)
(0.00531055 0.130466 0)
(0.00517493 0.129323 0)
(0.00475783 0.128807 0)
(0.00392582 0.12874 0)
(0.00283084 0.12959 0)
(0.00171983 0.130985 0)
(0.00051197 0.132482 0)
(-0.00108816 0.133542 0)
(-0.00198898 0.135698 0)
(-0.002794 0.139729 0)
(-0.00377566 0.143352 0)
(-0.00361708 0.148143 0)
(-0.0023698 0.153906 0)
(0.000319609 0.163507 0)
(0.00262201 0.174108 0)
(0.00863267 0.185152 0)
(0.0194904 0.197025 0)
(0.0337728 0.204797 0)
(0.051326 0.208523 0)
(0.0714329 0.215625 0)
(0.00114563 0.148881 0)
(0.00260275 0.132225 0)
(0.0041637 0.130912 0)
(0.00476838 0.12981 0)
(0.00491607 0.129271 0)
(0.00484738 0.129001 0)
(0.00451417 0.12921 0)
(0.00426484 0.129975 0)
(0.00427951 0.131085 0)
(0.00446372 0.132963 0)
(0.00413573 0.134675 0)
(0.00353538 0.136907 0)
(0.00429496 0.140417 0)
(0.0050114 0.143389 0)
(0.00586125 0.147175 0)
(0.00685422 0.152169 0)
(0.00908547 0.15882 0)
(0.0147437 0.166934 0)
(0.0225015 0.175356 0)
(0.0331492 0.18423 0)
(0.046724 0.189119 0)
(0.0629516 0.190827 0)
(0.0784971 0.195427 0)
(0.00102881 0.147009 0)
(0.00229599 0.131034 0)
(0.0029999 0.13021 0)
(0.00355922 0.129761 0)
(0.00380814 0.129294 0)
(0.00391711 0.129032 0)
(0.00388972 0.12922 0)
(0.00392116 0.129878 0)
(0.0041278 0.131155 0)
(0.00448222 0.133052 0)
(0.00513304 0.135119 0)
(0.00516668 0.136892 0)
(0.00608103 0.138916 0)
(0.00771109 0.142479 0)
(0.00983809 0.146405 0)
(0.0123329 0.151507 0)
(0.0150456 0.156509 0)
(0.0198995 0.161437 0)
(0.0273481 0.16789 0)
(0.0368779 0.173428 0)
(0.0493218 0.175981 0)
(0.0630387 0.177641 0)
(0.077434 0.180731 0)
(0.000792139 0.145568 0)
(0.00188293 0.130072 0)
(0.00260042 0.129462 0)
(0.00335652 0.12906 0)
(0.00379516 0.128925 0)
(0.00411008 0.12905 0)
(0.00425768 0.129299 0)
(0.00441496 0.129731 0)
(0.00472482 0.130508 0)
(0.00514114 0.132242 0)
(0.00595807 0.133972 0)
(0.00693637 0.135226 0)
(0.00775056 0.13745 0)
(0.00932642 0.139758 0)
(0.0114356 0.142856 0)
(0.0147804 0.146871 0)
(0.0204731 0.150344 0)
(0.026436 0.154362 0)
(0.0332959 0.158272 0)
(0.0425893 0.161228 0)
(0.0541333 0.162475 0)
(0.0641951 0.162723 0)
(0.0781184 0.163607 0)
(0.000880079 0.144036 0)
(0.00205067 0.129091 0)
(0.00284797 0.128723 0)
(0.00363269 0.12871 0)
(0.00422823 0.128724 0)
(0.00475601 0.128752 0)
(0.00530197 0.129044 0)
(0.0058368 0.129602 0)
(0.00637167 0.130442 0)
(0.00691542 0.131312 0)
(0.00815884 0.132763 0)
(0.00987323 0.134725 0)
(0.0116371 0.136547 0)
(0.0135753 0.138336 0)
(0.0156524 0.140588 0)
(0.0194145 0.142833 0)
(0.0229193 0.145691 0)
(0.0280864 0.149177 0)
(0.034756 0.151035 0)
(0.043994 0.152876 0)
(0.0529912 0.153243 0)
(0.0632071 0.153074 0)
(0.0752577 0.150158 0)
(0.000691278 0.142902 0)
(0.00164281 0.128245 0)
(0.00247052 0.127914 0)
(0.00337262 0.127871 0)
(0.00409171 0.127897 0)
(0.00475551 0.128039 0)
(0.00541409 0.128303 0)
(0.00608815 0.128743 0)
(0.00685502 0.129467 0)
(0.00779166 0.130613 0)
(0.00896628 0.131689 0)
(0.0101534 0.132838 0)
(0.0120539 0.134323 0)
(0.0145166 0.136307 0)
(0.017099 0.137857 0)
(0.0203241 0.139089 0)
(0.0247694 0.141172 0)
(0.0307802 0.141803 0)
(0.0379622 0.142932 0)
(0.0445113 0.14352 0)
(0.0532276 0.144242 0)
(0.0621263 0.141513 0)
(0.0727762 0.138067 0)
(0.000703782 0.14151 0)
(0.00176804 0.127179 0)
(0.00260166 0.126795 0)
(0.00357392 0.126805 0)
(0.00442125 0.127016 0)
(0.00531274 0.127367 0)
(0.00616047 0.127678 0)
(0.00703733 0.128108 0)
(0.00802439 0.128684 0)
(0.00929654 0.129412 0)
(0.0106183 0.130204 0)
(0.0119465 0.131169 0)
(0.0136991 0.131812 0)
(0.0157547 0.132982 0)
(0.0192806 0.133798 0)
(0.0232104 0.135319 0)
(0.0273384 0.13591 0)
(0.0318157 0.136855 0)
(0.0367889 0.137554 0)
(0.0430815 0.13665 0)
(0.0514639 0.134147 0)
(0.0599069 0.132312 0)
(0.0680953 0.129135 0)
(0.000679359 0.140485 0)
(0.00171807 0.126439 0)
(0.00257801 0.126156 0)
(0.00354179 0.126189 0)
(0.00434941 0.126256 0)
(0.00526325 0.126399 0)
(0.0061672 0.126621 0)
(0.00708665 0.126954 0)
(0.00805839 0.127345 0)
(0.00924286 0.12786 0)
(0.0107888 0.128808 0)
(0.0130534 0.129394 0)
(0.0151016 0.130128 0)
(0.0174722 0.130618 0)
(0.0196004 0.131501 0)
(0.0223569 0.131591 0)
(0.0261994 0.131751 0)
(0.0309711 0.131846 0)
(0.0369947 0.130256 0)
(0.0435277 0.12915 0)
(0.0492502 0.128281 0)
(0.0557512 0.124871 0)
(0.0638612 0.11985 0)
(0.000677669 0.139053 0)
(0.00178995 0.125275 0)
(0.00274978 0.125029 0)
(0.00385399 0.125149 0)
(0.00485212 0.125331 0)
(0.00588455 0.125519 0)
(0.00691953 0.125778 0)
(0.00800742 0.126079 0)
(0.00915869 0.126417 0)
(0.0103499 0.126774 0)
(0.0115397 0.126988 0)
(0.0127971 0.12753 0)
(0.0146747 0.128013 0)
(0.0170109 0.128286 0)
(0.0199632 0.128014 0)
(0.023697 0.127539 0)
(0.0274885 0.127296 0)
(0.0314992 0.126432 0)
(0.0356366 0.126245 0)
(0.0400948 0.124367 0)
(0.0462478 0.120851 0)
(0.0526367 0.117495 0)
(0.0586584 0.113368 0)
(0.000637905 0.13803 0)
(0.00170556 0.12443 0)
(0.00262805 0.124069 0)
(0.00370454 0.124141 0)
(0.00468385 0.124251 0)
(0.00569185 0.124383 0)
(0.00669358 0.12458 0)
(0.00774494 0.124849 0)
(0.00888544 0.125161 0)
(0.0101694 0.125501 0)
(0.011737 0.125835 0)
(0.0137058 0.125978 0)
(0.0157434 0.125831 0)
(0.0179711 0.125651 0)
(0.0204112 0.125446 0)
(0.0227625 0.125117 0)
(0.0256195 0.124363 0)
(0.0292074 0.123221 0)
(0.0335242 0.120733 0)
(0.0385746 0.118377 0)
(0.0432517 0.116007 0)
(0.0481029 0.112069 0)
(0.0535977 0.107184 0)
(0.000658178 0.136642 0)
(0.00189494 0.123269 0)
(0.00295848 0.122932 0)
(0.00415615 0.123071 0)
(0.00522988 0.123226 0)
(0.00631885 0.123406 0)
(0.00736416 0.123589 0)
(0.00840458 0.12373 0)
(0.00947434 0.123822 0)
(0.0106116 0.123859 0)
(0.0118126 0.123845 0)
(0.0131063 0.123838 0)
(0.0147162 0.123737 0)
(0.0166413 0.123329 0)
(0.0189438 0.122683 0)
(0.0217522 0.121553 0)
(0.0249584 0.120258 0)
(0.0282994 0.118891 0)
(0.0316897 0.117242 0)
(0.0353296 0.114616 0)
(0.0394866 0.110975 0)
(0.0439466 0.107036 0)
(0.0483114 0.102358 0)
(0.00064432 0.135523 0)
(0.00182705 0.122239 0)
(0.00285308 0.121852 0)
(0.00402456 0.122016 0)
(0.00507131 0.122207 0)
(0.00615586 0.12244 0)
(0.00721651 0.122688 0)
(0.00828791 0.122906 0)
(0.00938588 0.123063 0)
(0.0105587 0.123105 0)
(0.0118365 0.123027 0)
(0.0132658 0.122697 0)
(0.0148971 0.122195 0)
(0.0166954 0.121582 0)
(0.0186678 0.120726 0)
(0.0207914 0.119593 0)
(0.0231095 0.11812 0)
(0.0258026 0.116093 0)
(0.0289379 0.113473 0)
(0.0323965 0.110545 0)
(0.0358724 0.1072 0)
(0.0394064 0.103025 0)
(0.0430885 0.0982186 0)
(0.000710065 0.134096 0)
(0.00201905 0.120951 0)
(0.00309635 0.120563 0)
(0.00433397 0.120765 0)
(0.00540897 0.120951 0)
(0.00652389 0.121166 0)
(0.00759195 0.121366 0)
(0.00863451 0.121517 0)
(0.00964452 0.121582 0)
(0.0106896 0.12152 0)
(0.0117637 0.121328 0)
(0.012881 0.121019 0)
(0.0141361 0.120463 0)
(0.0156088 0.119619 0)
(0.0172953 0.118514 0)
(0.0192318 0.117069 0)
(0.0214296 0.115257 0)
(0.0237982 0.113142 0)
(0.0263205 0.110667 0)
(0.029028 0.107592 0)
(0.0319358 0.10389 0)
(0.0349209 0.0996601 0)
(0.0379096 0.0948517 0)
(0.00073776 0.132783 0)
(0.00201415 0.119965 0)
(0.00301782 0.119556 0)
(0.00421678 0.119817 0)
(0.00524789 0.120051 0)
(0.00634777 0.120296 0)
(0.0074586 0.120537 0)
(0.00861698 0.12074 0)
(0.00976161 0.120861 0)
(0.0108446 0.120879 0)
(0.0118805 0.120636 0)
(0.0128494 0.120077 0)
(0.0138401 0.119211 0)
(0.0149249 0.118179 0)
(0.016179 0.116913 0)
(0.0176349 0.11535 0)
(0.0193343 0.113401 0)
(0.0212347 0.111047 0)
(0.0233241 0.10822 0)
(0.0256008 0.104971 0)
(0.0279783 0.10123 0)
(0.0303629 0.0969341 0)
(0.0327547 0.0921059 0)
(0.000893873 0.131242 0)
(0.00204153 0.118694 0)
(0.00279747 0.118262 0)
(0.0038762 0.118524 0)
(0.00478271 0.118744 0)
(0.00580245 0.118975 0)
(0.00687821 0.119236 0)
(0.00801221 0.119476 0)
(0.00916292 0.119627 0)
(0.0103058 0.119698 0)
(0.0114088 0.119588 0)
(0.0124736 0.119199 0)
(0.0135023 0.118541 0)
(0.0144446 0.117456 0)
(0.0153555 0.115865 0)
(0.0162481 0.113882 0)
(0.0173189 0.111651 0)
(0.01867 0.109154 0)
(0.0202892 0.106305 0)
(0.0220503 0.102951 0)
(0.0239184 0.0990925 0)
(0.0258024 0.0947524 0)
(0.0276561 0.0899352 0)
(0.000982801 0.129894 0)
(0.00186788 0.118143 0)
(0.0021741 0.117749 0)
(0.00294003 0.117984 0)
(0.00353218 0.118159 0)
(0.00430903 0.118305 0)
(0.00513004 0.118348 0)
(0.00606733 0.118413 0)
(0.0071217 0.118508 0)
(0.00828283 0.118544 0)
(0.00949454 0.118463 0)
(0.0106967 0.118166 0)
(0.0118336 0.117541 0)
(0.012882 0.116549 0)
(0.0138505 0.115217 0)
(0.0148092 0.113445 0)
(0.0157494 0.111071 0)
(0.0165045 0.108063 0)
(0.0172843 0.104751 0)
(0.0184447 0.101286 0)
(0.0198196 0.0974579 0)
(0.0212279 0.0931191 0)
(0.0225866 0.0882989 0)
(0.00100058 0.128448 0)
(0.0012737 0.117815 0)
(0.000730122 0.117344 0)
(0.000854444 0.117424 0)
(0.000820478 0.117515 0)
(0.00110392 0.117519 0)
(0.00144406 0.117478 0)
(0.00201 0.117401 0)
(0.0028031 0.11733 0)
(0.00384519 0.117212 0)
(0.00509541 0.117042 0)
(0.00645627 0.116725 0)
(0.00782273 0.116139 0)
(0.0092446 0.115258 0)
(0.0106377 0.113988 0)
(0.0119035 0.112271 0)
(0.0129684 0.110146 0)
(0.0138858 0.107644 0)
(0.0147762 0.104418 0)
(0.0153801 0.100454 0)
(0.0158261 0.0962514 0)
(0.0166815 0.0918938 0)
(0.0175502 0.0871497 0)
(0.000823606 0.127575 0)
(0.000237668 0.118308 0)
(-0.00157817 0.117978 0)
(-0.00242678 0.117799 0)
(-0.00341502 0.117682 0)
(-0.00396309 0.117522 0)
(-0.00435313 0.117287 0)
(-0.00442153 0.116952 0)
(-0.00417548 0.116518 0)
(-0.00354336 0.116049 0)
(-0.0024701 0.115602 0)
(-0.000963877 0.115127 0)
(0.000820408 0.114509 0)
(0.00268913 0.11362 0)
(0.00456168 0.112436 0)
(0.00629215 0.110845 0)
(0.00785967 0.108822 0)
(0.00944975 0.106331 0)
(0.0107532 0.103439 0)
(0.0117183 0.100205 0)
(0.012448 0.0961602 0)
(0.0125854 0.091396 0)
(0.0126187 0.0865055 0)
(0.000477472 0.12741 0)
(-0.00127547 0.119929 0)
(-0.00413375 0.119558 0)
(-0.00609096 0.119112 0)
(-0.00814928 0.118711 0)
(-0.0097299 0.118276 0)
(-0.0110172 0.117765 0)
(-0.0119572 0.117177 0)
(-0.0125673 0.116518 0)
(-0.0127261 0.115656 0)
(-0.0124389 0.114663 0)
(-0.0116447 0.113598 0)
(-0.0102398 0.112527 0)
(-0.0082589 0.111401 0)
(-0.00579062 0.11012 0)
(-0.00299247 0.108689 0)
(-0.000149033 0.106959 0)
(0.00229871 0.104778 0)
(0.0042911 0.102082 0)