/*--------------------------------*- C++ -*----------------------------------*\
| =========                 |                                                 |
| \\      /  F ield         | OpenFOAM: The Open Source CFD Toolbox           |
|  \\    /   O peration     | Version:  2.4.0                                 |
|   \\  /    A nd           | Web:      www.OpenFOAM.org                      |
|    \\/     M anipulation  |                                                 |
\*---------------------------------------------------------------------------*/
FoamFile
{
    version     2.0;
    format      ascii;
    class       volVectorField;
    location    "0.7";
    object      U.water;
}
// * * * * * * * * * * * * * * * * * * * * * * * * * * * * * * * * * * * * * //

dimensions      [0 1 -1 0 0 0 0];

internalField   nonuniform List<vector> 
2268
(
(0.012056 0.0075523 0)
(0.0333793 0.00704848 0)
(0.0594237 0.00892248 0)
(0.0698587 0.00754427 0)
(0.0956999 0.0060243 0)
(0.120156 0.00730271 0)
(0.127895 0.00874714 0)
(0.131792 0.0153104 0)
(0.123443 0.0224832 0)
(0.116747 0.0350427 0)
(0.0934068 0.0522246 0)
(0.048279 0.0525558 0)
(-0.0179045 0.0382455 0)
(-0.0850204 0.0195464 0)
(-0.120794 0.001564 0)
(-0.130691 -0.00743261 0)
(-0.129733 -0.00564166 0)
(-0.126765 -0.00681829 0)
(-0.115451 -0.00320186 0)
(-0.101163 -0.0104945 0)
(-0.0594898 -0.00517816 0)
(-0.0436683 -0.000768806 0)
(-0.0355271 -0.00785268 0)
(0.0135945 0.0279475 0)
(0.0314371 0.0286572 0)
(0.0587195 0.0269061 0)
(0.07358 0.0282145 0)
(0.0964944 0.0281678 0)
(0.117834 0.0275916 0)
(0.130069 0.0241326 0)
(0.137436 0.0213861 0)
(0.140948 0.0125495 0)
(0.129988 -0.013041 0)
(0.0957566 -0.017514 0)
(0.0369456 0.00212609 0)
(-0.0320263 0.0313683 0)
(-0.0940861 0.0299123 0)
(-0.126116 0.0182986 0)
(-0.131513 0.0104735 0)
(-0.128195 0.00368793 0)
(-0.124267 -0.00121592 0)
(-0.114371 -0.00818844 0)
(-0.0903929 -0.0157806 0)
(-0.0614905 -0.0215169 0)
(-0.0340466 -0.0108801 0)
(-0.0188835 -0.0299282 0)
(0.0148137 0.145783 0)
(0.0294956 0.143263 0)
(0.0555481 0.152304 0)
(0.0804921 0.148418 0)
(0.0928157 0.146941 0)
(0.109297 0.158726 0)
(0.117875 0.170748 0)
(0.120071 0.192691 0)
(0.111698 0.218668 0)
(0.105908 0.166784 0)
(0.0897129 0.168067 0)
(0.0478882 0.143506 0)
(-0.0117935 0.0893429 0)
(-0.0766169 0.0552823 0)
(-0.119836 0.0216889 0)
(-0.140008 -0.00247076 0)
(-0.140653 -0.00753529 0)
(-0.130682 -0.0128599 0)
(-0.118724 -0.0172075 0)
(-0.0815173 -0.0333502 0)
(-0.0548366 -0.0318297 0)
(-0.0146512 -0.0194726 0)
(0.00234002 -0.0321353 0)
(0.0158566 0.0241656 0)
(0.0260557 0.0237324 0)
(0.0479562 0.0250045 0)
(0.0826307 0.0258 0)
(0.0868561 0.0284083 0)
(0.0950367 0.0347051 0)
(0.115907 0.0417527 0)
(0.138555 0.0538182 0)
(0.152588 0.0729754 0)
(0.115912 0.120058 0)
(0.0317881 0.161786 0)
(-0.0455685 0.24657 0)
(-0.0567019 0.152446 0)
(-0.0951489 0.104009 0)
(-0.128961 0.0507346 0)
(-0.14357 0.0177242 0)
(-0.143063 -0.000814666 0)
(-0.129644 -0.0141687 0)
(-0.114287 -0.0294637 0)
(-0.0803392 -0.0467495 0)
(-0.0679686 -0.0537626 0)
(-0.0177533 -0.0357922 0)
(0.000822351 -0.034807 0)
(0.00485181 0.0402414 0)
(0.0168158 0.0428913 0)
(0.0251761 0.0371863 0)
(0.0381417 0.042342 0)
(0.0411051 0.050853 0)
(0.0382481 0.0500569 0)
(0.0460385 0.0689169 0)
(0.049809 0.112702 0)
(0.0457741 0.197581 0)
(0.00335018 0.294655 0)
(-0.0225317 0.316417 0)
(-0.107257 0.276418 0)
(-0.181658 0.278215 0)
(-0.176856 0.174761 0)
(-0.168408 0.0761091 0)
(-0.160383 0.0226441 0)
(-0.147412 -0.0068399 0)
(-0.124985 -0.0229594 0)
(-0.102332 -0.0397207 0)
(-0.0778531 -0.0515597 0)
(-0.0800426 -0.0613027 0)
(-0.0347836 -0.0535757 0)
(0.00298436 -0.0408102 0)
(-0.00363467 -0.127307 0)
(0.00213264 -0.126184 0)
(-0.00199309 -0.125501 0)
(-0.0106448 -0.118993 0)
(-0.0207376 -0.108174 0)
(-0.0341371 -0.105574 0)
(-0.0530983 -0.111446 0)
(-0.0784675 -0.132305 0)
(-0.0791599 -0.155938 0)
(-0.0471572 -0.124488 0)
(-0.00100915 0.0389962 0)
(-0.157412 0.29004 0)
(-0.25306 0.303836 0)
(-0.267093 0.244913 0)
(-0.238588 0.119903 0)
(-0.210568 0.0341232 0)
(-0.17283 -0.00116947 0)
(-0.129462 -0.0226756 0)
(-0.0930939 -0.0333978 0)
(-0.0746708 -0.0296358 0)
(-0.0807263 -0.0358985 0)
(-0.0540988 -0.0345963 0)
(-0.00411305 -0.0285868 0)
(-0.00268174 0.0116418 0)
(-0.00358868 0.0141774 0)
(-0.00165961 0.0109176 0)
(0.00348239 0.0235381 0)
(-0.00227455 0.036303 0)
(-0.00755827 0.0352933 0)
(-0.0156491 0.0627559 0)
(-0.0523054 0.106157 0)
(-0.0982175 0.157571 0)
(-0.175472 0.172983 0)
(-0.198791 0.159068 0)
(-0.20278 0.197139 0)
(-0.40822 0.310972 0)
(-0.356061 0.263503 0)
(-0.310696 0.210521 0)
(-0.268777 0.0686134 0)
(-0.222467 0.00898788 0)
(-0.156476 -0.00921756 0)
(-0.108692 0.014004 0)
(-0.0806334 0.0597363 0)
(-0.0750499 0.0942088 0)
(-0.0538906 0.0819805 0)
(-0.00672884 0.0381349 0)
(-0.00236568 -0.075362 0)
(-0.00028736 -0.0765421 0)
(-0.00439522 -0.0775511 0)
(-0.0118219 -0.0697007 0)
(-0.0155055 -0.059427 0)
(-0.0344456 -0.0553721 0)
(-0.0559441 -0.0608032 0)
(-0.0670516 -0.069928 0)
(-0.0645084 -0.0622688 0)
(-0.0701712 -0.00658006 0)
(-0.115122 0.107978 0)
(-0.171158 0.239871 0)
(-0.424007 0.278196 0)
(-0.473686 0.203942 0)
(-0.443873 0.177374 0)
(-0.383331 0.141668 0)
(-0.280687 0.0923231 0)
(-0.216709 0.0787406 0)
(-0.167003 0.0721 0)
(-0.095832 0.0951426 0)
(-0.0545142 0.0645217 0)
(-0.0404057 0.0507475 0)
(-0.00100186 0.0845948 0)
(-0.249031 -0.0881022 0)
(-0.25005 -0.10556 0)
(-0.0210526 -0.0510537 0)
(0.253362 -0.0278024 0)
(0.432651 -0.0658694 0)
(0.512208 -0.113874 0)
(0.57559 -0.145743 0)
(0.64277 -0.157483 0)
(0.705764 -0.163691 0)
(0.755934 -0.191761 0)
(0.779652 -0.216105 0)
(0.780027 -0.226776 0)
(0.767012 -0.234849 0)
(0.727743 -0.241186 0)
(0.61763 -0.236083 0)
(0.436386 -0.186676 0)
(0.222325 -0.0935215 0)
(-0.109972 -0.104116 0)
(-0.0252511 -0.143561 0)
(-0.302476 0.244539 0)
(0.0420139 0.185976 0)
(0.254623 0.0842406 0)
(0.410067 0.117732 0)
(0.528789 0.186943 0)
(0.59481 0.222322 0)
(0.627488 0.226473 0)
(0.660958 0.227417 0)
(0.706391 0.199973 0)
(0.73768 0.122781 0)
(0.742771 0.121124 0)
(0.747684 0.130839 0)
(0.764474 0.145533 0)
(0.78698 0.196741 0)
(0.744843 0.258733 0)
(0.603654 0.291014 0)
(0.379351 0.277891 0)
(0.0275418 0.266377 0)
(-0.0674616 0.16677 0)
(-0.24731 0.0633366 0)
(0.263325 -0.193709 0)
(0.411841 -0.126698 0)
(0.612345 -0.0717047 0)
(0.707161 -0.0334938 0)
(0.70203 -0.00845786 0)
(0.701232 -0.0152421 0)
(0.69335 -0.0211068 0)
(0.674564 -0.00461003 0)
(0.655799 0.0510455 0)
(0.629637 0.0584001 0)
(0.561866 -0.0532101 0)
(0.508394 -0.161396 0)
(0.529305 -0.190261 0)
(0.523008 -0.084646 0)
(0.513821 0.162948 0)
(0.343066 0.271866 0)
(0.0254686 0.230723 0)
(-0.0951183 -0.0280231 0)
(0.162123 0.0564351 0)
(0.42042 -0.292117 0)
(0.524466 -0.237937 0)
(0.635141 -0.137974 0)
(0.735168 0.061316 0)
(0.723445 0.127279 0)
(0.704761 0.161357 0)
(0.693535 0.155043 0)
(0.681319 0.0955666 0)
(0.663044 0.00982032 0)
(0.628745 -0.0191747 0)
(0.577151 -0.0259459 0)
(0.511527 -0.0320909 0)
(0.423979 -0.0573858 0)
(0.286658 -0.0228098 0)
(0.147127 0.231833 0)
(0.225818 0.3707 0)
(0.0150518 0.349596 0)
(-0.0677798 0.101698 0)
(0.423794 0.00411273 0)
(0.449668 -0.330796 0)
(0.516137 -0.331988 0)
(0.528676 -0.2303 0)
(0.541766 -0.187306 0)
(0.555775 -0.196474 0)
(0.616943 -0.212857 0)
(0.671103 -0.21304 0)
(0.682694 -0.176466 0)
(0.698842 -0.114171 0)
(0.681869 -0.0753369 0)
(0.627612 -0.0714774 0)
(0.506836 -0.0814912 0)
(0.362546 -0.103638 0)
(0.321456 -0.135291 0)
(-0.145076 0.19309 0)
(0.111393 0.378065 0)
(-0.0930713 0.407784 0)
(0.0651842 0.0617721 0)
(0.401034 -0.189694 0)
(0.383567 -0.385925 0)
(0.463689 -0.342201 0)
(0.446456 -0.245639 0)
(0.452065 -0.100367 0)
(0.459063 -0.0367081 0)
(0.495788 -0.0182313 0)
(0.539647 -0.0126878 0)
(0.585355 0.00936337 0)
(0.627494 0.0347902 0)
(0.635306 0.0654735 0)
(0.610779 0.0837658 0)
(0.532926 0.0926316 0)
(0.347753 0.0967145 0)
(0.286067 0.0698023 0)
(-0.170406 0.199477 0)
(-0.101659 0.341847 0)
(-0.23391 0.426751 0)
(0.176503 0.125401 0)
(0.34607 -0.308963 0)
(0.341046 -0.381065 0)
(0.406912 -0.35167 0)
(0.393686 -0.254309 0)
(0.385774 -0.151825 0)
(0.40548 -0.124047 0)
(0.4362 -0.112997 0)
(0.462828 -0.103705 0)
(0.486916 -0.0952757 0)
(0.524307 -0.0610173 0)
(0.569878 0.00243897 0)
(0.565924 0.0587787 0)
(0.502437 0.095261 0)
(0.350939 0.117135 0)
(0.226427 0.177232 0)
(-0.0868469 0.231446 0)
(-0.153172 0.343357 0)
(-0.291018 0.338316 0)
(0.11336 0.0608125 0)
(0.400334 -0.495993 0)
(0.33956 -0.464965 0)
(0.384497 -0.393107 0)
(0.372058 -0.241301 0)
(0.357092 -0.157863 0)
(0.388928 -0.115554 0)
(0.413581 -0.0893811 0)
(0.432186 -0.0703255 0)
(0.434481 -0.0562303 0)
(0.43402 -0.0371427 0)
(0.46139 0.0272357 0)
(0.48108 0.0965086 0)
(0.460998 0.140982 0)
(0.402832 0.173383 0)
(0.287963 0.269152 0)
(0.131026 0.324498 0)
(-0.111241 0.366644 0)
(-0.308143 0.263518 0)
(0.127431 -0.0536797 0)
(-0.00383089 -0.0239797 0)
(-0.00780065 -0.0214952 0)
(0.00593198 -0.02211 0)
(0.0346076 5.39738e-06 0)
(0.0449793 0.0332396 0)
(0.0321151 0.0543019 0)
(0.0147085 0.114598 0)
(-0.0393479 0.165627 0)
(-0.102862 0.197137 0)
(-0.175609 0.193354 0)
(-0.19208 0.187878 0)
(-0.139209 0.262446 0)
(-0.11254 0.34853 0)
(-0.238344 0.328615 0)
(-0.318925 0.169607 0)
(-0.272993 -0.0074177 0)
(-0.248649 -0.074898 0)
(-0.242622 -0.0691464 0)
(-0.199905 -0.03966 0)
(-0.113344 -0.0423035 0)
(-0.00344109 -0.0119471 0)
(0.0217227 -0.0111445 0)
(0.0325584 -0.00336471 0)
(0.00314834 -0.0286125 0)
(0.00861187 -0.0451497 0)
(0.0156301 -0.0787293 0)
(0.0187492 -0.0721671 0)
(0.0245869 -0.0413998 0)
(0.0190848 -0.0338957 0)
(0.0181677 -0.00835757 0)
(0.000251812 0.0188784 0)
(-0.00471265 0.0524536 0)
(-0.0113191 0.0891137 0)
(-0.0250197 0.132218 0)
(-0.013203 0.188717 0)
(0.0729639 0.244716 0)
(0.165762 0.216337 0)
(0.190771 0.130261 0)
(0.183673 0.095716 0)
(0.140453 0.0801777 0)
(0.108265 0.00798466 0)
(0.158299 -0.0751374 0)
(0.205592 -0.117129 0)
(0.247341 -0.103161 0)
(0.28212 -0.0431877 0)
(0.340356 0.021121 0)
(-0.00956237 -0.0891371 0)
(-0.0352305 -0.0922393 0)
(-0.00417645 -0.108896 0)
(0.0554447 -0.0714742 0)
(0.0807995 -0.0174915 0)
(0.0410854 0.0181875 0)
(-0.00677306 0.0709281 0)
(-0.0594226 0.10536 0)
(-0.0743856 0.123946 0)
(-0.0788377 0.140292 0)
(-0.0663315 0.142122 0)
(-0.0344907 0.141283 0)
(0.0191168 0.163459 0)
(0.104052 0.12278 0)
(0.157475 0.00515939 0)
(0.202271 -0.127361 0)
(0.262024 -0.199147 0)
(0.289155 -0.232897 0)
(0.337831 -0.268237 0)
(0.342786 -0.295386 0)
(0.358983 -0.288143 0)
(0.377547 -0.286212 0)
(0.377556 -0.27026 0)
(-0.0345348 0.055214 0)
(-0.0697498 0.00705476 0)
(-0.0141286 -0.123969 0)
(-0.0340782 -0.126307 0)
(-0.0614159 -0.028601 0)
(-0.124894 0.0402266 0)
(-0.111217 0.100273 0)
(-0.120058 0.111789 0)
(-0.122284 0.1076 0)
(-0.117676 0.107395 0)
(-0.104262 0.0916585 0)
(-0.085345 0.0729915 0)
(-0.0357525 0.0401727 0)
(0.0415781 0.00964963 0)
(0.097516 -0.0231576 0)
(0.135937 -0.0736483 0)
(0.195312 -0.107508 0)
(0.20173 -0.182746 0)
(0.282487 -0.245465 0)
(0.282909 -0.306295 0)
(0.326454 -0.365054 0)
(0.367367 -0.37133 0)
(0.36919 -0.328735 0)
(-0.0407224 -0.0124429 0)
(-0.113551 -0.130419 0)
(-0.259217 -0.285032 0)
(-0.531207 -0.172571 0)
(-0.555811 -0.13246 0)
(-0.53001 -0.0997015 0)
(-0.483032 -0.0663084 0)
(-0.391023 -0.00105755 0)
(-0.332573 0.0279105 0)
(-0.256579 0.0737417 0)
(-0.22037 0.0680304 0)
(-0.196832 0.0371137 0)
(-0.126157 0.00975985 0)
(-0.0627581 -0.0405178 0)
(0.00359875 -0.120098 0)
(0.0588931 -0.238218 0)
(0.112384 -0.317038 0)
(0.0982075 -0.443249 0)
(0.151292 -0.557799 0)
(0.0911118 -0.719957 0)
(0.126767 -0.784782 0)
(0.161685 -0.849193 0)
(0.209899 -0.916603 0)
(-0.0214666 -0.201022 0)
(-0.10997 -0.25798 0)
(-0.351957 -0.36545 0)
(-0.524098 -0.651259 0)
(-0.635938 -0.501865 0)
(-0.622058 -0.380073 0)
(-0.618917 -0.514059 0)
(-0.503056 -0.372438 0)
(-0.417232 -0.289474 0)
(-0.363936 -0.194261 0)
(-0.330991 -0.178385 0)
(-0.291979 -0.252704 0)
(-0.336077 -0.509826 0)
(-0.264913 -0.503294 0)
(-0.211132 -0.562143 0)
(-0.162891 -0.60828 0)
(-0.116492 -0.691808 0)
(-0.107416 -0.876063 0)
(0.0108542 -1.01841 0)
(-0.118558 -0.709566 0)
(-0.285012 -0.158968 0)
(-0.328439 -0.293052 0)
(-0.0915199 -0.0500557 0)
(-0.00575411 -0.451782 0)
(-0.0644325 -0.564295 0)
(-0.2527 -0.676614 0)
(-0.319453 -0.700497 0)
(-0.613708 0.231658 0)
(-0.211924 0.11936 0)
(0.121895 0.160522 0)
(0.225326 0.3936 0)
(0.0166809 0.303403 0)
(-0.293164 0.00933932 0)
(-0.311638 -0.00516868 0)
(-0.228692 0.800733 0)
(-0.343996 0.735684 0)
(-0.517793 0.677731 0)
(-0.691844 0.538782 0)
(-0.927049 0.153246 0)
(-0.987715 -0.0742068 0)
(-0.878319 -0.556812 0)
(-0.746433 -0.81519 0)
(-0.562667 -0.856655 0)
(-0.488037 -0.65709 0)
(-0.67569 -0.0983452 0)
(-0.986218 0.964771 0)
(-0.0158792 -0.467084 0)
(-0.0332438 -0.386957 0)
(-0.0380963 -0.0705559 0)
(-0.0306 0.187132 0)
(0.137404 -0.357105 0)
(0.125606 -0.558185 0)
(0.0342344 -0.545551 0)
(-0.185848 -0.523733 0)
(-0.188677 -0.143553 0)
(-0.289009 -0.0413994 0)
(-0.412384 -0.435854 0)
(-0.314727 -0.648457 0)
(-0.192901 -0.691684 0)
(0.0181471 -0.558454 0)
(0.125562 -0.405245 0)
(0.205937 -0.382043 0)
(0.158078 -0.352857 0)
(0.079481 -0.298978 0)
(-0.134236 -0.178969 0)
(-0.328944 -0.0864971 0)
(-0.670034 -0.00869299 0)
(-1.05415 0.361993 0)
(-1.13988 1.13985 0)
(-0.190668 0.506321 0)
(-0.0831428 0.452223 0)
(0.059447 0.450586 0)
(0.180009 0.340265 0)
(0.336878 0.139409 0)
(0.21053 -0.102229 0)
(0.224185 -0.0193569 0)
(0.160933 0.363831 0)
(-0.110921 0.433949 0)
(0.0286471 0.465411 0)
(-0.0330465 0.521273 0)
(-0.110072 0.558137 0)
(-0.155176 0.290707 0)
(-0.125254 0.275066 0)
(-0.110102 0.352843 0)
(-0.129424 0.237642 0)
(-0.160823 0.1114 0)
(-0.211838 -0.0321822 0)
(-0.301551 -0.0660078 0)
(-0.419749 -0.047762 0)
(-0.595437 0.101457 0)
(-0.830115 0.465435 0)
(-0.978275 1.16835 0)
(-0.131323 0.387744 0)
(-0.0279567 0.282102 0)
(-0.0122066 0.273085 0)
(0.121684 0.1362 0)
(0.178653 -0.154442 0)
(0.145643 -0.2689 0)
(-0.0248887 -0.247508 0)
(0.065717 0.0648674 0)
(-0.0783118 0.281488 0)
(-0.0226401 0.246705 0)
(-0.144487 0.0562603 0)
(0.0184385 -0.374 0)
(0.0100201 -0.417173 0)
(-0.0651321 -0.386334 0)
(-0.0162876 -0.340122 0)
(0.0475923 -0.293203 0)
(0.0449385 -0.251519 0)
(-0.0125532 -0.189411 0)
(-0.114659 -0.0792326 0)
(-0.236094 0.109387 0)
(-0.389876 0.331034 0)
(-0.489971 0.589437 0)
(-0.471899 1.03031 0)
(-0.0429329 0.459614 0)
(0.0620346 0.241853 0)
(0.057518 0.163061 0)
(0.167693 0.0602883 0)
(0.157512 0.00341078 0)
(0.0968116 -0.0523321 0)
(-0.0528494 -0.0645382 0)
(-0.00573121 0.21217 0)
(0.0348497 0.315142 0)
(0.147558 0.29094 0)
(0.232116 0.21393 0)
(0.268925 0.234678 0)
(0.103044 0.181691 0)
(0.0111396 0.111341 0)
(-0.0374932 0.121247 0)
(-0.092601 0.104956 0)
(-0.145621 0.0966885 0)
(-0.204779 0.0991632 0)
(-0.269162 0.161138 0)
(-0.31665 0.247765 0)
(-0.323835 0.409101 0)
(-0.311508 0.614478 0)
(-0.183159 0.852801 0)
(0.0469256 0.414018 0)
(0.0938099 0.238651 0)
(0.099419 0.160055 0)
(0.107572 0.0833784 0)
(0.0725698 0.0114007 0)
(0.0467466 -0.030441 0)
(-0.0439338 -0.0501305 0)
(-0.058599 0.0797191 0)
(0.0495089 0.215886 0)
(0.123634 0.189411 0)
(0.111068 0.0991178 0)
(0.0515237 -0.036918 0)
(0.0328908 -0.0844845 0)
(-0.00439356 -0.115491 0)
(-0.0444464 -0.127119 0)
(-0.0689336 -0.111706 0)
(-0.101001 -0.0830822 0)
(-0.141407 -0.0226076 0)
(-0.189018 0.0838321 0)
(-0.235125 0.22299 0)
(-0.252987 0.3873 0)
(-0.220672 0.555855 0)
(-0.114646 0.70848 0)
(0.0582677 0.30942 0)
(0.0924517 0.218915 0)
(0.101871 0.137733 0)
(0.100159 0.0833181 0)
(0.0802289 0.0522123 0)
(0.0428842 0.0402682 0)
(-0.0256435 0.0270899 0)
(-0.0638759 0.0756362 0)
(-0.0390938 0.110619 0)
(0.0355402 0.165311 0)
(0.0469198 0.175914 0)
(0.0421328 0.167675 0)
(0.00548356 0.150558 0)
(-0.0373649 0.13101 0)
(-0.0853001 0.122573 0)
(-0.130137 0.12166 0)
(-0.17522 0.127516 0)
(-0.215497 0.143723 0)
(-0.23841 0.184544 0)
(-0.240046 0.254963 0)
(-0.223767 0.357402 0)
(-0.18601 0.475558 0)
(-0.106719 0.581809 0)
(0.0392828 0.248369 0)
(0.0670591 0.19619 0)
(0.0859442 0.139615 0)
(0.0757043 0.10445 0)
(0.0526432 0.0843947 0)
(0.0277526 0.0714579 0)
(-0.00812572 0.0648269 0)
(-0.0366491 0.0880985 0)
(-0.0420554 0.104448 0)
(-0.029366 0.13411 0)
(-0.0119655 0.149591 0)
(-0.0169349 0.120329 0)
(-0.0381065 0.0790981 0)
(-0.0628522 0.041352 0)
(-0.090034 0.0241963 0)
(-0.111779 0.0321723 0)
(-0.134609 0.0619789 0)
(-0.162445 0.109527 0)
(-0.190216 0.176328 0)
(-0.203461 0.253472 0)
(-0.188644 0.337339 0)
(-0.149941 0.418344 0)
(-0.0857617 0.48596 0)
(0.0207747 0.20865 0)
(0.0431878 0.170067 0)
(0.0553379 0.135612 0)
(0.0467614 0.116908 0)
(0.0332229 0.104008 0)
(0.0181512 0.0969686 0)
(-0.00331247 0.0946326 0)
(-0.0177587 0.104111 0)
(-0.026219 0.109902 0)
(-0.0291387 0.131421 0)
(-0.0194405 0.142975 0)
(-0.0157911 0.138807 0)
(-0.0229086 0.125427 0)
(-0.0408661 0.114793 0)
(-0.0681549 0.107874 0)
(-0.0948355 0.106829 0)
(-0.116624 0.120153 0)
(-0.132972 0.14762 0)
(-0.143025 0.191937 0)
(-0.14672 0.247447 0)
(-0.135569 0.314127 0)
(-0.102988 0.379665 0)
(-0.0544974 0.43107 0)
(0.0121266 0.185896 0)
(0.0263148 0.157839 0)
(0.0323678 0.13742 0)
(0.0282058 0.123857 0)
(0.0212163 0.113726 0)
(0.0122985 0.108589 0)
(0.00127072 0.10611 0)
(-0.00658832 0.112085 0)
(-0.0131729 0.116193 0)
(-0.0166267 0.129592 0)
(-0.0120927 0.138404 0)
(-0.00959874 0.139427 0)
(-0.00934035 0.131455 0)
(-0.0185156 0.12308 0)
(-0.0333904 0.117591 0)
(-0.0505892 0.118514 0)
(-0.0715678 0.130838 0)
(-0.0858348 0.157526 0)
(-0.0944514 0.196779 0)
(-0.096492 0.239221 0)
(-0.0865663 0.286227 0)
(-0.0579792 0.338093 0)
(-0.0174891 0.382585 0)
(0.00715527 0.172646 0)
(0.0156527 0.149465 0)
(0.0201886 0.137067 0)
(0.0189419 0.127983 0)
(0.0149755 0.120315 0)
(0.00979854 0.115769 0)
(0.00317104 0.113818 0)
(-0.00157786 0.117018 0)
(-0.00586463 0.120584 0)
(-0.00757009 0.12966 0)
(-0.0047398 0.136464 0)
(-0.00179846 0.137518 0)
(-0.000741158 0.13304 0)
(-0.00480626 0.130473 0)
(-0.0135743 0.129605 0)
(-0.0244316 0.134808 0)
(-0.040018 0.148511 0)
(-0.0527759 0.171149 0)
(-0.0592197 0.204402 0)
(-0.057059 0.241366 0)
(-0.050146 0.272843 0)
(-0.0266778 0.305733 0)
(0.00943722 0.340114 0)
(0.00419469 0.163941 0)
(0.0100435 0.14322 0)
(0.0138302 0.135452 0)
(0.0141598 0.129316 0)
(0.0120889 0.124062 0)
(0.0083917 0.120527 0)
(0.00347961 0.119096 0)
(-0.000639603 0.120741 0)
(-0.00438695 0.123158 0)
(-0.00617025 0.128949 0)
(-0.00376248 0.133021 0)
(-0.00092044 0.134347 0)
(-0.000974395 0.134071 0)
(-0.00441782 0.136508 0)
(-0.01121 0.138868 0)
(-0.020322 0.147029 0)
(-0.0321172 0.16048 0)
(-0.0372951 0.179407 0)
(-0.0373323 0.204482 0)
(-0.0322759 0.235463 0)
(-0.0199776 0.259596 0)
(-7.93617e-05 0.280172 0)
(0.0330286 0.303529 0)
(0.0026735 0.158459 0)
(0.00718627 0.13878 0)
(0.0102111 0.133607 0)
(0.0102532 0.129589 0)
(0.00889153 0.126391 0)
(0.00564934 0.124257 0)
(0.00174478 0.123538 0)
(-0.00183115 0.124652 0)
(-0.00512525 0.126479 0)
(-0.00674588 0.129144 0)
(-0.007104 0.131601 0)
(-0.00630312 0.133827 0)
(-0.00817231 0.136077 0)
(-0.0101238 0.139097 0)
(-0.0145063 0.144966 0)
(-0.0192248 0.155422 0)
(-0.0239594 0.1648 0)
(-0.0246002 0.177345 0)
(-0.0215446 0.198562 0)
(-0.013973 0.222882 0)
(0.00235234 0.240447 0)
(0.0233664 0.252012 0)
(0.052633 0.268345 0)
(0.00221303 0.153973 0)
(0.00523458 0.135481 0)
(0.00651108 0.132917 0)
(0.00674618 0.130672 0)
(0.0059184 0.12869 0)
(0.00427552 0.127514 0)
(0.002098 0.126903 0)
(-0.000240649 0.127667 0)
(-0.00257712 0.128771 0)
(-0.00438331 0.130406 0)
(-0.00554134 0.132819 0)
(-0.00571566 0.135765 0)
(-0.00756025 0.138666 0)
(-0.00921193 0.142749 0)
(-0.0108854 0.148989 0)
(-0.0114937 0.156818 0)
(-0.00907333 0.164933 0)
(-0.00775817 0.176604 0)
(-0.0041342 0.193303 0)
(0.0068403 0.210358 0)
(0.0233197 0.22169 0)
(0.0429025 0.229351 0)
(0.0683853 0.24059 0)
(0.00160098 0.150883 0)
(0.00343562 0.133975 0)
(0.00461137 0.13218 0)
(0.00531055 0.130466 0)
(0.00517493 0.129323 0)
(0.00475783 0.128807 0)
(0.00392582 0.12874 0)
(0.00283084 0.12959 0)
(0.00171983 0.130985 0)
(0.00051197 0.132482 0)
(-0.00108816 0.133542 0)
(-0.00198898 0.135698 0)
(-0.002794 0.139729 0)
(-0.00377566 0.143352 0)
(-0.00361708 0.148143 0)
(-0.0023698 0.153906 0)
(0.000319609 0.163507 0)
(0.00262201 0.174108 0)
(0.00863267 0.185152 0)
(0.0194904 0.197025 0)
(0.0337728 0.204797 0)
(0.051326 0.208523 0)
(0.0714329 0.215625 0)
(0.00114563 0.148881 0)
(0.00260275 0.132225 0)
(0.0041637 0.130912 0)
(0.00476838 0.12981 0)
(0.00491607 0.129271 0)
(0.00484738 0.129001 0)
(0.00451417 0.12921 0)
(0.00426484 0.129975 0)
(0.00427951 0.131085 0)
(0.00446372 0.132963 0)
(0.00413573 0.134675 0)
(0.00353538 0.136907 0)
(0.00429496 0.140417 0)
(0.0050114 0.143389 0)
(0.00586125 0.147175 0)
(0.00685422 0.152169 0)
(0.00908547 0.15882 0)
(0.0147437 0.166934 0)
(0.0225015 0.175356 0)
(0.0331492 0.18423 0)
(0.046724 0.189119 0)
(0.0629516 0.190827 0)
(0.0784971 0.195427 0)
(0.00102881 0.147009 0)
(0.00229599 0.131034 0)
(0.0029999 0.13021 0)
(0.00355922 0.129761 0)
(0.00380814 0.129294 0)
(0.00391711 0.129032 0)
(0.00388972 0.12922 0)
(0.00392116 0.129878 0)
(0.0041278 0.131155 0)
(0.00448222 0.133052 0)
(0.00513304 0.135119 0)
(0.00516668 0.136892 0)
(0.00608103 0.138916 0)
(0.00771109 0.142479 0)
(0.00983809 0.146405 0)
(0.0123329 0.151507 0)
(0.0150456 0.156509 0)
(0.0198995 0.161437 0)
(0.0273481 0.16789 0)
(0.0368779 0.173428 0)
(0.0493218 0.175981 0)
(0.0630387 0.177641 0)
(0.077434 0.180731 0)
(0.000792139 0.145568 0)
(0.00188293 0.130072 0)
(0.00260042 0.129462 0)
(0.00335652 0.12906 0)
(0.00379516 0.128925 0)
(0.00411008 0.12905 0)
(0.00425768 0.129299 0)
(0.00441496 0.129731 0)
(0.00472482 0.130508 0)
(0.00514114 0.132242 0)
(0.00595807 0.133972 0)
(0.00693637 0.135226 0)
(0.00775056 0.13745 0)
(0.00932642 0.139758 0)
(0.0114356 0.142856 0)
(0.0147804 0.146871 0)
(0.0204731 0.150344 0)
(0.026436 0.154362 0)
(0.0332959 0.158272 0)
(0.0425893 0.161228 0)
(0.0541333 0.162475 0)
(0.0641951 0.162723 0)
(0.0781184 0.163607 0)
(0.000880079 0.144036 0)
(0.00205067 0.129091 0)
(0.00284797 0.128723 0)
(0.00363269 0.12871 0)
(0.00422823 0.128724 0)
(0.00475601 0.128752 0)
(0.00530197 0.129044 0)
(0.0058368 0.129602 0)
(0.00637167 0.130442 0)
(0.00691542 0.131312 0)
(0.00815884 0.132763 0)
(0.00987323 0.134725 0)
(0.0116371 0.136547 0)
(0.0135753 0.138336 0)
(0.0156524 0.140588 0)
(0.0194145 0.142833 0)
(0.0229193 0.145691 0)
(0.0280864 0.149177 0)
(0.034756 0.151035 0)
(0.043994 0.152876 0)
(0.0529912 0.153243 0)
(0.0632071 0.153074 0)
(0.0752577 0.150158 0)
(0.000691278 0.142902 0)
(0.00164281 0.128245 0)
(0.00247052 0.127914 0)
(0.00337262 0.127871 0)
(0.00409171 0.127897 0)
(0.00475551 0.128039 0)
(0.00541409 0.128303 0)
(0.00608815 0.128743 0)
(0.00685502 0.129467 0)
(0.00779166 0.130613 0)
(0.00896628 0.131689 0)
(0.0101534 0.132838 0)
(0.0120539 0.134323 0)
(0.0145166 0.136307 0)
(0.017099 0.137857 0)
(0.0203241 0.139089 0)
(0.0247694 0.141172 0)
(0.0307802 0.141803 0)
(0.0379622 0.142932 0)
(0.0445113 0.14352 0)
(0.0532276 0.144242 0)
(0.0621263 0.141513 0)
(0.0727762 0.138067 0)
(0.000703782 0.14151 0)
(0.00176804 0.127179 0)
(0.00260166 0.126795 0)
(0.00357392 0.126805 0)
(0.00442125 0.127016 0)
(0.00531274 0.127367 0)
(0.00616047 0.127678 0)
(0.00703733 0.128108 0)
(0.00802439 0.128684 0)
(0.00929654 0.129412 0)
(0.0106183 0.130204 0)
(0.0119465 0.131169 0)
(0.0136991 0.131812 0)
(0.0157547 0.132982 0)
(0.0192806 0.133798 0)
(0.0232104 0.135319 0)
(0.0273384 0.13591 0)
(0.0318157 0.136855 0)
(0.0367889 0.137554 0)
(0.0430815 0.13665 0)
(0.0514639 0.134147 0)
(0.0599069 0.132312 0)
(0.0680953 0.129135 0)
(0.000679359 0.140485 0)
(0.00171807 0.126439 0)
(0.00257801 0.126156 0)
(0.00354179 0.126189 0)
(0.00434941 0.126256 0)
(0.00526325 0.126399 0)
(0.0061672 0.126621 0)
(0.00708665 0.126954 0)
(0.00805839 0.127345 0)
(0.00924286 0.12786 0)
(0.0107888 0.128808 0)
(0.0130534 0.129394 0)
(0.0151016 0.130128 0)
(0.0174722 0.130618 0)
(0.0196004 0.131501 0)
(0.0223569 0.131591 0)
(0.0261994 0.131751 0)
(0.0309711 0.131846 0)
(0.0369947 0.130256 0)
(0.0435277 0.12915 0)
(0.0492502 0.128281 0)
(0.0557512 0.124871 0)
(0.0638612 0.11985 0)
(0.000677669 0.139053 0)
(0.00178995 0.125275 0)
(0.00274978 0.125029 0)
(0.00385399 0.125149 0)
(0.00485212 0.125331 0)
(0.00588455 0.125519 0)
(0.00691953 0.125778 0)
(0.00800742 0.126079 0)
(0.00915869 0.126417 0)
(0.0103499 0.126774 0)
(0.0115397 0.126988 0)
(0.0127971 0.12753 0)
(0.0146747 0.128013 0)
(0.0170109 0.128286 0)
(0.0199632 0.128014 0)
(0.023697 0.127539 0)
(0.0274885 0.127296 0)
(0.0314992 0.126432 0)
(0.0356366 0.126245 0)
(0.0400948 0.124367 0)
(0.0462478 0.120851 0)
(0.0526367 0.117495 0)
(0.0586584 0.113368 0)
(0.000637905 0.13803 0)
(0.00170556 0.12443 0)
(0.00262805 0.124069 0)
(0.00370454 0.124141 0)
(0.00468385 0.124251 0)
(0.00569185 0.124383 0)
(0.00669358 0.12458 0)
(0.00774494 0.124849 0)
(0.00888544 0.125161 0)
(0.0101694 0.125501 0)
(0.011737 0.125835 0)
(0.0137058 0.125978 0)
(0.0157434 0.125831 0)
(0.0179711 0.125651 0)
(0.0204112 0.125446 0)
(0.0227625 0.125117 0)
(0.0256195 0.124363 0)
(0.0292074 0.123221 0)
(0.0335242 0.120733 0)
(0.0385746 0.118377 0)
(0.0432517 0.116007 0)
(0.0481029 0.112069 0)
(0.0535977 0.107184 0)
(0.000658178 0.136642 0)
(0.00189494 0.123269 0)
(0.00295848 0.122932 0)
(0.00415615 0.123071 0)
(0.00522988 0.123226 0)
(0.00631885 0.123406 0)
(0.00736416 0.123589 0)
(0.00840458 0.12373 0)
(0.00947434 0.123822 0)
(0.0106116 0.123859 0)
(0.0118126 0.123845 0)
(0.0131063 0.123838 0)
(0.0147162 0.123737 0)
(0.0166413 0.123329 0)
(0.0189438 0.122683 0)
(0.0217522 0.121553 0)
(0.0249584 0.120258 0)
(0.0282994 0.118891 0)
(0.0316897 0.117242 0)
(0.0353296 0.114616 0)
(0.0394866 0.110975 0)
(0.0439466 0.107036 0)
(0.0483114 0.102358 0)
(0.00064432 0.135523 0)
(0.00182705 0.122239 0)
(0.00285308 0.121852 0)
(0.00402456 0.122016 0)
(0.00507131 0.122207 0)
(0.00615586 0.12244 0)
(0.00721651 0.122688 0)
(0.00828791 0.122906 0)
(0.00938588 0.123063 0)
(0.0105587 0.123105 0)
(0.0118365 0.123027 0)
(0.0132658 0.122697 0)
(0.0148971 0.122195 0)
(0.0166954 0.121582 0)
(0.0186678 0.120726 0)
(0.0207914 0.119593 0)
(0.0231095 0.11812 0)
(0.0258026 0.116093 0)
(0.0289379 0.113473 0)
(0.0323965 0.110545 0)
(0.0358724 0.1072 0)
(0.0394064 0.103025 0)
(0.0430885 0.0982186 0)
(0.000710065 0.134096 0)
(0.00201905 0.120951 0)
(0.00309635 0.120563 0)
(0.00433397 0.120765 0)
(0.00540897 0.120951 0)
(0.00652389 0.121166 0)
(0.00759195 0.121366 0)
(0.00863451 0.121517 0)
(0.00964452 0.121582 0)
(0.0106896 0.12152 0)
(0.0117637 0.121328 0)
(0.012881 0.121019 0)
(0.0141361 0.120463 0)
(0.0156088 0.119619 0)
(0.0172953 0.118514 0)
(0.0192318 0.117069 0)
(0.0214296 0.115257 0)
(0.0237982 0.113142 0)
(0.0263205 0.110667 0)
(0.029028 0.107592 0)
(0.0319358 0.10389 0)
(0.0349209 0.0996601 0)
(0.0379096 0.0948517 0)
(0.00073776 0.132783 0)
(0.00201415 0.119965 0)
(0.00301782 0.119556 0)
(0.00421678 0.119817 0)
(0.00524789 0.120051 0)
(0.00634777 0.120296 0)
(0.0074586 0.120537 0)
(0.00861698 0.12074 0)
(0.00976161 0.120861 0)
(0.0108446 0.120879 0)
(0.0118805 0.120636 0)
(0.0128494 0.120077 0)
(0.0138401 0.119211 0)
(0.0149249 0.118179 0)
(0.016179 0.116913 0)
(0.0176349 0.11535 0)
(0.0193343 0.113401 0)
(0.0212347 0.111047 0)
(0.0233241 0.10822 0)
(0.0256008 0.104971 0)
(0.0279783 0.10123 0)
(0.0303629 0.0969341 0)
(0.0327547 0.0921059 0)
(0.000893873 0.131242 0)
(0.00204153 0.118694 0)
(0.00279747 0.118262 0)
(0.0038762 0.118524 0)
(0.00478271 0.118744 0)
(0.00580245 0.118975 0)
(0.00687821 0.119236 0)
(0.00801221 0.119476 0)
(0.00916292 0.119627 0)
(0.0103058 0.119698 0)
(0.0114088 0.119588 0)
(0.0124736 0.119199 0)
(0.0135023 0.118541 0)
(0.0144446 0.117456 0)
(0.0153555 0.115865 0)
(0.0162481 0.113882 0)
(0.0173189 0.111651 0)
(0.01867 0.109154 0)
(0.0202892 0.106305 0)
(0.0220503 0.102951 0)
(0.0239184 0.0990925 0)
(0.0258024 0.0947524 0)
(0.0276561 0.0899352 0)
(0.000982801 0.129894 0)
(0.00186788 0.118143 0)
(0.0021741 0.117749 0)
(0.00294003 0.117984 0)
(0.00353218 0.118159 0)
(0.00430903 0.118305 0)
(0.00513004 0.118348 0)
(0.00606733 0.118413 0)
(0.0071217 0.118508 0)
(0.00828283 0.118544 0)
(0.00949454 0.118463 0)
(0.0106967 0.118166 0)
(0.0118336 0.117541 0)
(0.012882 0.116549 0)
(0.0138505 0.115217 0)
(0.0148092 0.113445 0)
(0.0157494 0.111071 0)
(0.0165045 0.108063 0)
(0.0172843 0.104751 0)
(0.0184447 0.101286 0)
(0.0198196 0.0974579 0)
(0.0212279 0.0931191 0)
(0.0225866 0.0882989 0)
(0.00100058 0.128448 0)
(0.0012737 0.117815 0)
(0.000730122 0.117344 0)
(0.000854444 0.117424 0)
(0.000820478 0.117515 0)
(0.00110392 0.117519 0)
(0.00144406 0.117478 0)
(0.00201 0.117401 0)
(0.0028031 0.11733 0)
(0.00384519 0.117212 0)
(0.00509541 0.117042 0)
(0.00645627 0.116725 0)
(0.00782273 0.116139 0)
(0.0092446 0.115258 0)
(0.0106377 0.113988 0)
(0.0119035 0.112271 0)
(0.0129684 0.110146 0)
(0.0138858 0.107644 0)
(0.0147762 0.104418 0)
(0.0153801 0.100454 0)
(0.0158261 0.0962514 0)
(0.0166815 0.0918938 0)
(0.0175502 0.0871497 0)
(0.000823606 0.127575 0)
(0.000237668 0.118308 0)
(-0.00157817 0.117978 0)
(-0.00242678 0.117799 0)
(-0.00341502 0.117682 0)
(-0.00396309 0.117522 0)
(-0.00435313 0.117287 0)
(-0.00442153 0.116952 0)
(-0.00417548 0.116518 0)
(-0.00354336 0.116049 0)
(-0.0024701 0.115602 0)
(-0.000963877 0.115127 0)
(0.000820408 0.114509 0)
(0.00268913 0.11362 0)
(0.00456168 0.112436 0)
(0.00629215 0.110845 0)
(0.00785967 0.108822 0)
(0.00944975 0.106331 0)
(0.0107532 0.103439 0)
(0.0117183 0.100205 0)
(0.012448 0.0961602 0)
(0.0125854 0.091396 0)
(0.0126187 0.0865055 0)
(0.000477472 0.12741 0)
(-0.00127547 0.119929 0)
(-0.00413375 0.119558 0)
(-0.00609096 0.119112 0)
(-0.00814928 0.118711 0)
(-0.0097299 0.118276 0)
(-0.0110172 0.117765 0)
(-0.0119572 0.117177 0)
(-0.0125673 0.116518 0)
(-0.0127261 0.115656 0)
(-0.0124389 0.114663 0)
(-0.0116447 0.113598 0)
(-0.0102398 0.112527 0)
(-0.0082589 0.111401 0)
(-0.00579062 0.11012 0)
(-0.00299247 0.108689 0)
(-0.000149033 0.106959 0)
(0.00229871 0.104778 0)
(0.0042911 0.102082 0)
(0.00602531 0.098921 0)
(0.00737964 0.0954598 0)
(0.00820115 0.0916441 0)