/*--------------------------------*- C++ -*----------------------------------*\
| =========                 |                                                 |
| \\      /  F ield         | OpenFOAM: The Open Source CFD Toolbox           |
|  \\    /   O peration     | Version:  2.4.0                                 |
|   \\  /    A nd           | Web:      www.OpenFOAM.org                      |
|    \\/     M anipulation  |                                                 |
\*---------------------------------------------------------------------------*/
FoamFile
{
    version     2.0;
    format      ascii;
    class       volScalarField;
    location    "0.95";
    object      alpha.oil;
}
// * * * * * * * * * * * * * * * * * * * * * * * * * * * * * * * * * * * * * //

dimensions      [0 0 0 0 0 0 0];

internalField   nonuniform List<scalar> 
559
(
7.48876e-06
1.0738e-05
1.17908e-05
1.18453e-05
7.77765e-06
0.000194673
0.0111485
0.114805
0.0651229
0.0819614
0.0634113
0.058516
0.0570639
0.0561105
0.05564
0.0548133
0.0539321
0.0516256
0.0454488
0.045368
0.0453302
0.0452483
0.0451383
0.0450859
0.0451671
0.0451935
0.0450587
0.396295
0.473933
0.389001
0.314888
0.288704
0.267438
0.246478
0.256132
0.277526
0.277299
0.258105
0.15811
0.0779478
0.0587533
0.0556168
0.0426437
0.0447976
0.0450148
0.0448988
0.52473
0.841309
0.863588
0.81356
0.61471
0.315185
0.230654
0.230557
0.216119
0.208751
0.188613
0.105698
0.0817841
0.0738211
0.0499818
0.0425963
0.0446372
0.0449298
0.0447966
0.530915
0.803741
0.964812
0.981812
0.970659
0.817041
0.518879
0.354699
0.273521
0.251315
0.311953
0.387436
0.445293
0.314724
0.11017
0.0541997
0.0447126
0.0481397
0.0447081
0.703296
0.878406
0.988747
0.988749
0.988748
0.963685
0.449053
0.236543
0.236425
0.237302
0.427332
0.785058
0.891787
0.804831
0.339346
0.0538899
0.045447
0.0524259
0.0554037
0.908102
0.924629
0.988594
0.988747
0.988746
0.983249
0.612008
0.304365
0.243963
0.22251
0.392103
0.748564
0.89174
0.891981
0.713197
0.154216
0.0507369
0.0628954
0.113037
0.920533
0.942403
0.988698
0.988745
0.988745
0.965697
0.609979
0.263324
0.230972
0.221978
0.324935
0.703803
0.874542
0.891783
0.861028
0.594947
0.267284
0.245356
0.395181
0.918135
0.955695
0.966128
0.988741
0.9887
0.959655
0.64134
0.283759
0.230031
0.222059
0.261392
0.6212
0.853552
0.873222
0.873763
0.78612
0.641367
0.561374
0.550819
0.511413
0.79748
0.909103
0.934264
0.944768
0.614974
0.0117718
9.78525e-06
0.770043
0.803526
0.806136
0.80516
0.919713
0.920003
0.919668
0.916199
0.918138
0.90587
0.897305
0.8918
0.907769
0.896489
0.884063
0.874377
0.906199
0.889732
0.878338
0.867075
0.803231
0.845378
0.861851
0.856857
0.025724
0.173155
0.496262
0.690452
1.54052e-06
6.89389e-06
0.000773802
0.0188281
7.23561e-07
7.24339e-07
7.2498e-07
7.49288e-07
7.36585e-07
7.27164e-07
7.2702e-07
7.26597e-07
7.26413e-07
7.27051e-07
7.55281e-07
7.20298e-07
1.94894e-06
1.7525e-06
8.50933e-07
9.01018e-07
1.52178e-06
1.26618e-06
1.11563e-06
1.01284e-06
5.6311e-07
8.43247e-07
1.07042e-06
7.86847e-07
4.12354e-06
9.69539e-06
8.00267e-06
2.2923e-06
2.47871e-05
2.46769e-05
2.00415e-05
4.65447e-06
2.47118e-05
8.03e-06
7.66076e-07
5.41923e-07
0.915689
0.95029
0.944505
0.979365
0.988543
0.927314
0.600809
0.288164
0.229871
0.226215
0.241395
0.447394
0.733554
0.839332
0.877264
0.789486
0.630321
0.544888
0.529389
0.915985
0.919809
0.941256
0.956551
0.966631
0.865684
0.545555
0.293783
0.229648
0.223492
0.223676
0.310179
0.557772
0.788732
0.87741
0.866657
0.72799
0.579483
0.529391
0.88938
0.895917
0.917666
0.928134
0.906578
0.755916
0.503239
0.352757
0.311745
0.28461
0.252827
0.277488
0.441709
0.684234
0.862648
0.866915
0.797538
0.622038
0.572145
0.864608
0.857668
0.858742
0.860969
0.805275
0.669408
0.569751
0.54187
0.539733
0.517612
0.430257
0.349232
0.450649
0.669079
0.818031
0.811588
0.751195
0.694536
0.711766
0.845992
0.822573
0.808728
0.789601
0.749096
0.713348
0.70125
0.701346
0.702291
0.689472
0.622836
0.535199
0.532034
0.706789
0.770629
0.746325
0.744786
0.762942
0.768899
0.832518
0.80749
0.786121
0.772106
0.761657
0.750105
0.743746
0.740343
0.735297
0.727983
0.712777
0.685178
0.671021
0.706829
0.733649
0.745974
0.755477
0.754594
0.750091
0.781813
0.80785
0.772435
0.741713
0.737976
0.737968
0.723146
0.718519
0.717057
0.71418
0.710318
0.707962
0.707451
0.728233
0.73348
0.674751
0.337021
0.116353
0.0995881
0.233872
0.650314
0.764309
0.740276
0.743016
0.748839
0.749115
0.75068
0.750137
0.749583
0.749018
0.746654
0.731623
0.652328
0.38032
0.0212073
3.05137e-05
4.73366e-06
3.04241e-06
0.00257518
0.0724248
0.421097
0.719528
0.768579
0.768842
0.768575
0.759602
0.68063
0.527555
0.355997
0.231222
0.0930692
0.00583557
2.58259e-05
5.39375e-06
4.13669e-06
2.62395e-06
1.4331e-06
3.48426e-06
0.000420809
0.0165651
0.152397
0.374569
0.453437
0.424106
0.215514
0.0603991
0.00608455
4.71489e-05
9.64101e-06
1.12743e-05
8.63856e-06
7.98007e-06
8.12025e-06
8.27278e-06
3.48159e-06
1.38748e-06
7.19476e-07
7.89205e-07
2.83019e-05
0.000810562
0.00468129
0.00755859
0.004109
7.39904e-05
1.68293e-06
1.56495e-06
1.3015e-06
1.3113e-06
1.83744e-06
3.28828e-06
8.33118e-06
8.82252e-06
8.09158e-06
2.01615e-06
1.3783e-06
8.60855e-07
8.00247e-07
7.93159e-07
1.09565e-06
1.28609e-06
5.66978e-07
7.10578e-07
1.09502e-06
1.23593e-06
1.25694e-06
1.36851e-06
1.84269e-06
2.75531e-06
1.77497e-06
1.0157e-06
1.29623e-06
6.29441e-07
7.72909e-07
1.21469e-06
9.34773e-07
9.44819e-07
8.99176e-07
5.50979e-07
4.63317e-07
2.38222e-07
2.57851e-07
7.72558e-07
1.15021e-06
1.27219e-06
1.28305e-06
1.51832e-06
1.88058e-06
1.32525e-06
1.03593e-06
7.20674e-07
5.8054e-07
7.20131e-07
1.49974e-06
6.88102e-07
8.60742e-07
1.27942e-06
2.47726e-06
1.10839e-06
2.54158e-07
1.28927e-07
1.2886e-07
5.55153e-07
1.26424e-06
1.53978e-06
1.70419e-06
1.50132e-06
1.50177e-06
1.14085e-06
7.15065e-07
5.13197e-07
7.9291e-07
5.35448e-06
6.91824e-07
1.76917e-06
5.49818e-06
5.17908e-06
1.62787e-06
4.13773e-07
1.40374e-07
9.32154e-08
1.66184e-07
7.66869e-07
1.58777e-06
2.05314e-06
2.05309e-06
2.05314e-06
1.44298e-06
5.84507e-07
4.51859e-07
8.66932e-07
6.54104e-06
1.14377e-06
6.6036e-06
8.07594e-06
5.94385e-06
1.30368e-06
5.39676e-07
1.76206e-07
9.32979e-08
1.97141e-07
4.90495e-07
1.38285e-06
1.97952e-06
2.05314e-06
2.05309e-06
9.86148e-07
3.17796e-07
3.40766e-07
2.68735e-06
6.55326e-06
1.42075e-06
7.39176e-06
8.07935e-06
4.97163e-06
1.12681e-06
4.152e-07
1.6325e-07
8.74654e-08
1.74345e-07
3.23615e-07
5.40807e-07
1.11937e-06
1.80572e-06
1.65108e-06
4.3191e-07
6.89936e-08
2.89342e-07
4.63452e-06
6.18735e-06
)
;

boundaryField
{
    leftWall
    {
        type            zeroGradient;
    }
    rightWall
    {
        type            zeroGradient;
    }
    lowerWall
    {
        type            zeroGradient;
    }
    atmosphere
    {
        type            inletOutlet;
        inletValue      nonuniform 0();
        value           nonuniform 0();
    }
    defaultFaces
    {
        type            empty;
    }
    procBoundary1to0
    {
        type            processor;
        value           nonuniform List<scalar> 
26
(
5.78528e-06
6.36275e-06
4.60595e-06
6.26746e-06
6.96701e-06
0.000215286
0.00772333
0.039092
0.0809659
0.349674
0.76707
0.930869
0.948304
0.633396
0.0294052
0.000167243
9.66477e-07
9.66477e-07
7.93355e-07
1.31076e-06
1.94374e-06
1.51819e-06
5.60665e-07
1.33862e-06
2.08468e-05
2.45741e-05
)
;
    }
    procBoundary1to3
    {
        type            processor;
        value           nonuniform List<scalar> 
23
(
1.15176e-06
4.03738e-07
2.92972e-07
3.42827e-07
6.21294e-07
1.39127e-06
3.4372e-06
2.06304e-06
8.21745e-07
2.82735e-07
1.59338e-07
8.30527e-08
6.18237e-08
9.63144e-08
1.35894e-07
1.92736e-07
3.9083e-07
2.65428e-07
1.22211e-07
4.69999e-08
3.92747e-07
4.60889e-06
1.61305e-06
)
;
    }
}


// ************************************************************************* //
