/*--------------------------------*- C++ -*----------------------------------*\
| =========                 |                                                 |
| \\      /  F ield         | OpenFOAM: The Open Source CFD Toolbox           |
|  \\    /   O peration     | Version:  2.4.0                                 |
|   \\  /    A nd           | Web:      www.OpenFOAM.org                      |
|    \\/     M anipulation  |                                                 |
\*---------------------------------------------------------------------------*/
FoamFile
{
    version     2.0;
    format      ascii;
    class       volScalarField;
    location    "0.95";
    object      alpha.mercury;
}
// * * * * * * * * * * * * * * * * * * * * * * * * * * * * * * * * * * * * * //

dimensions      [0 0 0 0 0 0 0];

internalField   nonuniform List<scalar> 
559
(
0.999992
0.999989
0.999988
0.999987
0.996737
0.702628
0.0160024
0.00866718
0.845419
0.701389
0.658498
0.676113
0.73692
0.832068
0.907828
0.920561
0.928953
0.940378
0.951826
0.952924
0.952975
0.953089
0.954359
0.954624
0.954674
0.954728
0.954833
0.153807
0.0509669
0.0104855
0.0103501
0.0170334
0.0384024
0.0648693
0.0950087
0.15322
0.332011
0.582715
0.774513
0.881917
0.914825
0.931494
0.954675
0.954736
0.954845
0.954919
0.00486925
0.00127039
5.16434e-05
2.4786e-05
2.47458e-05
0.000103279
0.000218575
0.000181521
0.0147538
0.185904
0.58249
0.828651
0.884471
0.906477
0.941007
0.954734
0.954851
0.954929
0.954969
0.0166278
0.000643435
3.29643e-05
2.51424e-05
2.46983e-05
3.11373e-05
3.11969e-05
5.94025e-05
0.0040367
0.0673749
0.274795
0.447399
0.501133
0.668497
0.883241
0.943357
0.954852
0.951734
0.955027
0.00119845
0.000182235
8.37206e-05
5.60447e-05
3.77265e-05
3.65847e-05
3.62237e-05
4.62095e-05
0.00039114
0.00976693
0.0327266
0.0242592
0.0333561
0.160846
0.646648
0.945259
0.954348
0.947448
0.944298
0.00123011
0.0002244
5.61039e-05
6.54937e-05
6.13003e-05
3.59374e-05
3.26208e-05
3.26192e-05
4.30657e-05
0.000480779
0.00128225
0.000779087
0.000862141
0.0210967
0.222282
0.836664
0.948753
0.93643
0.880383
0.00156666
0.000158792
4.47638e-05
4.49376e-05
5.5874e-05
3.86574e-05
3.91388e-05
3.91402e-05
3.81726e-05
3.6434e-05
8.55708e-05
7.24569e-05
0.000110322
0.000784691
0.0256528
0.310836
0.677746
0.687062
0.467396
0.00144701
0.000134553
6.05537e-05
3.04495e-05
2.60539e-05
2.86143e-05
3.61547e-05
3.89931e-05
3.6285e-05
3.35573e-05
3.6095e-05
4.26446e-05
9.43458e-05
0.000749786
0.00198721
0.0140194
0.0582989
0.064072
0.0305511
0.00974225
8.87349e-05
8.94688e-05
4.45385e-05
3.08087e-05
7.87368e-06
5.03977e-08
4.08856e-10
0.0373022
0.0450099
0.0419191
0.0361469
8.77998e-05
0.000110004
9.9099e-05
9.87413e-05
8.83065e-05
9.72327e-05
0.000100962
0.000101398
6.52333e-05
8.00264e-05
9.02552e-05
9.67978e-05
5.52367e-05
7.42381e-05
8.64583e-05
9.72337e-05
2.3655e-05
3.86806e-05
5.49065e-05
7.4387e-05
1.05772e-07
1.6533e-06
1.18653e-05
3.58041e-05
4.01344e-10
2.95445e-10
3.10095e-10
2.29014e-10
3.79599e-10
2.69157e-10
2.34057e-10
2.14453e-10
5.02717e-10
3.39972e-10
2.4882e-10
2.0844e-10
4.15708e-10
3.13237e-10
2.59241e-10
2.05467e-10
1.90215e-10
1.3976e-10
1.29209e-10
1.2277e-10
9.85019e-11
9.85204e-11
9.81606e-11
9.60262e-11
1.27099e-10
1.1308e-10
1.07627e-10
1.02505e-10
1.30442e-10
1.20914e-10
1.11351e-10
1.00983e-10
1.04065e-10
9.02272e-11
7.66026e-11
6.15984e-11
4.44466e-11
2.89289e-11
2.49556e-11
2.31197e-11
0.00152302
0.000114968
0.000106561
2.94491e-05
2.60613e-05
2.84592e-05
3.64804e-05
3.97941e-05
3.50415e-05
3.35513e-05
4.26142e-05
5.57625e-05
0.000296162
0.0012313
0.00119177
0.000961079
0.00117193
0.00145118
0.00151978
9.77483e-05
9.6501e-05
5.68078e-05
4.73011e-05
2.66362e-05
2.83639e-05
3.65692e-05
4.55462e-05
6.25042e-05
6.87481e-05
0.000126857
0.000178657
0.00078639
0.00130489
0.00130217
0.000631793
0.000280304
0.000182374
0.000370644
0.000101283
7.80821e-05
4.91964e-05
3.51796e-05
3.22849e-05
3.1506e-05
5.11816e-05
0.000143192
0.000333311
0.000520242
0.000578193
0.000715642
0.000941816
0.000934742
0.000622723
0.0010615
0.000169117
0.00010837
0.00014422
0.000101451
0.000102648
8.00091e-05
5.52375e-05
5.1648e-05
8.14008e-05
0.000232778
0.000460893
0.00062093
0.000696728
0.000720144
0.000862493
0.000858468
0.000388253
0.000219531
0.000910802
0.000114666
8.40859e-05
0.000105125
0.000118045
0.000142468
0.000149111
0.000144684
0.000159618
0.000263528
0.000410863
0.000495456
0.000491653
0.000448848
0.000432634
0.000563662
0.000348887
0.000194364
8.17411e-05
4.50168e-05
4.66632e-05
7.03869e-05
0.000117705
0.00011802
0.000161941
0.00019552
0.000213756
0.000238577
0.000306319
0.000329217
0.000296688
0.00023894
0.000195941
0.000169825
0.000159908
0.000147068
0.000109709
6.21013e-05
3.86331e-05
2.65078e-05
2.47896e-05
3.14154e-05
7.764e-05
0.000121286
0.000185996
0.000209173
0.000214998
0.000206327
0.00018618
0.000155426
0.000122428
0.000106442
9.3741e-05
8.51123e-05
7.43478e-05
5.35345e-05
4.24062e-05
1.21533e-05
4.3733e-06
1.17993e-06
1.07912e-06
1.05903e-05
5.45636e-05
0.000101644
0.000127654
0.000128296
0.000111442
9.65419e-05
8.72194e-05
7.85688e-05
6.9656e-05
5.1862e-05
4.31205e-05
3.87141e-05
2.21868e-05
5.34251e-06
2.65926e-07
1.03295e-08
3.00891e-09
2.66058e-09
1.50759e-07
3.99715e-06
2.40002e-05
4.563e-05
5.21148e-05
4.70205e-05
4.13897e-05
3.46511e-05
2.71053e-05
1.7357e-05
8.32257e-06
3.79933e-06
1.3057e-06
2.15428e-07
1.38225e-08
3.18324e-09
2.18261e-09
1.31708e-09
1.31758e-09
1.51622e-09
8.09794e-08
1.18439e-06
5.37846e-06
8.55942e-06
8.51878e-06
5.68607e-06
3.35684e-06
1.22397e-06
2.19668e-07
2.58354e-08
6.12989e-09
5.17895e-09
7.1427e-09
8.00173e-09
7.38456e-09
5.66762e-09
2.43209e-09
1.45128e-09
1.78218e-10
3.37426e-10
9.01666e-09
7.26745e-08
1.70736e-07
2.02055e-07
9.76971e-08
1.58072e-08
4.90537e-09
2.46854e-09
2.47852e-09
3.55777e-09
5.17927e-09
8.48235e-09
1.1171e-08
1.11587e-08
9.31079e-09
3.71172e-09
1.7823e-09
1.11589e-10
8.96239e-11
7.70362e-11
1.71921e-10
1.07052e-09
2.46734e-09
4.68516e-09
4.46778e-09
2.78766e-09
2.20306e-09
3.27398e-09
5.14849e-09
7.1032e-09
7.12233e-09
8.79334e-09
1.03003e-08
8.58794e-09
4.66225e-09
1.87802e-09
9.25138e-11
8.78668e-11
7.717e-11
6.9273e-11
7.87492e-11
3.56951e-10
1.87229e-09
4.53784e-09
4.27207e-09
2.01472e-09
2.01835e-09
2.3259e-09
2.84187e-09
3.07165e-09
5.826e-09
8.21772e-09
7.88546e-09
5.23632e-09
1.92065e-09
9.52064e-11
8.8098e-11
8.14372e-11
6.92641e-11
5.25359e-11
6.30597e-11
1.40051e-10
2.15836e-09
8.33808e-09
7.11425e-09
3.35345e-09
3.12419e-09
3.29569e-09
2.73486e-09
3.0511e-09
6.15912e-09
6.89056e-09
5.12895e-09
1.97777e-09
8.46488e-11
6.75814e-11
6.38237e-11
6.40669e-11
5.22611e-11
4.21271e-11
4.73004e-11
7.51419e-10
7.4895e-09
1.06132e-08
9.57757e-09
7.79588e-09
6.00732e-09
3.19328e-09
3.07713e-09
4.76917e-09
5.51991e-09
3.48383e-09
1.84644e-09
4.53945e-11
3.77685e-11
4.31833e-11
4.74136e-11
4.51618e-11
3.80191e-11
3.45376e-11
2.70145e-10
5.48728e-09
9.48416e-09
7.16629e-09
4.73606e-09
3.58398e-09
3.05396e-09
3.3929e-09
4.38767e-09
3.88613e-09
2.6279e-09
1.74423e-09
2.17296e-11
2.64525e-11
3.32589e-11
3.85071e-11
3.7193e-11
3.11091e-11
2.80595e-11
1.23525e-10
2.90535e-09
5.16308e-09
5.02876e-09
3.94366e-09
3.52353e-09
3.56478e-09
3.81231e-09
3.32988e-09
2.82261e-09
2.4448e-09
1.71364e-09
)
;

boundaryField
{
    leftWall
    {
        type            zeroGradient;
    }
    rightWall
    {
        type            zeroGradient;
    }
    lowerWall
    {
        type            zeroGradient;
    }
    atmosphere
    {
        type            inletOutlet;
        inletValue      nonuniform 0();
        value           nonuniform 0();
    }
    defaultFaces
    {
        type            empty;
    }
    procBoundary1to0
    {
        type            processor;
        value           nonuniform List<scalar> 
26
(
0.999994
0.999993
0.999995
0.999992
0.997837
0.816984
0.0325405
0.0012804
0.000248752
9.48304e-05
9.48675e-05
4.91772e-05
3.2338e-05
6.89218e-06
1.12986e-07
7.60769e-10
7.19488e-10
7.19488e-10
9.86991e-10
7.61954e-10
3.27021e-10
1.54127e-10
1.67207e-10
1.45238e-10
1.19607e-10
5.98309e-11
)
;
    }
    procBoundary1to3
    {
        type            processor;
        value           nonuniform List<scalar> 
23
(
1.09241e-11
1.10996e-11
1.166e-11
1.26655e-11
1.71762e-11
2.31527e-11
2.90424e-11
3.18049e-11
2.88054e-11
2.30223e-11
2.08757e-11
2.23961e-11
1.6328e-10
1.29328e-09
2.64559e-09
3.53231e-09
3.84743e-09
3.83392e-09
3.38793e-09
2.34126e-09
2.18986e-09
2.51838e-09
1.72987e-09
)
;
    }
}


// ************************************************************************* //
