/*--------------------------------*- C++ -*----------------------------------*\
| =========                 |                                                 |
| \\      /  F ield         | OpenFOAM: The Open Source CFD Toolbox           |
|  \\    /   O peration     | Version:  2.4.0                                 |
|   \\  /    A nd           | Web:      www.OpenFOAM.org                      |
|    \\/     M anipulation  |                                                 |
\*---------------------------------------------------------------------------*/
FoamFile
{
    version     2.0;
    format      ascii;
    class       volScalarField;
    location    "0.95";
    object      alpha.air;
}
// * * * * * * * * * * * * * * * * * * * * * * * * * * * * * * * * * * * * * //

dimensions      [0 0 0 0 0 0 0];

internalField   nonuniform List<scalar> 
559
(
1.50423e-13
1.12015e-12
6.3361e-12
7.78027e-09
3.60879e-06
5.52737e-05
8.13429e-05
0.00198468
0.000100478
0.000487875
0.000278614
0.0001571
6.9205e-05
4.22381e-05
3.63582e-05
3.8148e-05
4.26566e-05
3.28569e-05
1.18524e-05
1.18524e-05
1.18524e-05
1.98362e-05
4.6313e-06
2.00678e-06
5.35126e-05
1.50998e-05
1.0959e-05
0.0269521
0.0156146
0.00457197
0.000340666
0.000104488
3.8461e-05
3.54552e-05
3.54452e-05
0.000425172
0.00215073
0.00214525
0.000379298
0.000405068
0.000475192
0.000119991
7.59102e-06
2.822e-05
2.80823e-05
1.0949e-05
0.300695
0.0167099
0.00112995
0.000152391
3.54676e-05
3.54623e-05
3.54575e-05
3.54517e-05
3.59992e-05
0.000583375
0.00287888
0.000558357
0.000131796
3.2495e-05
4.43098e-05
3.55016e-05
1.09807e-05
2.49155e-05
1.09438e-05
0.328486
0.170436
0.0221639
0.00325435
0.000252787
3.54633e-05
3.54622e-05
3.54827e-05
0.00112079
0.00207424
0.00302518
0.00302527
0.000695963
1.28838e-05
1.29385e-05
1.31158e-05
1.09545e-05
1.10346e-05
1.09393e-05
0.276991
0.11073
0.000667282
3.70064e-05
3.55369e-05
3.5468e-05
3.54676e-05
3.54723e-05
0.000255059
0.00302523
0.00302533
0.00295485
0.000262157
0.000167628
0.000169842
1.90437e-05
1.095e-05
1.09461e-05
1.09423e-05
0.0378032
0.0557476
0.0042498
0.00132733
0.000635468
0.000111878
6.74348e-05
4.32292e-05
8.56324e-05
0.00123392
0.00281404
0.000213514
0.000137241
0.000700096
0.00206298
0.000688712
1.92858e-05
1.14496e-05
4.88229e-05
0.0055276
0.0364266
0.00531324
0.00626752
0.00188289
4.08255e-05
2.61984e-05
2.61991e-05
2.6199e-05
0.000120977
0.000767849
5.23513e-05
0.000139546
0.0008104
0.00320009
0.0032015
0.00126182
0.000418901
0.000622578
0.00346318
0.0230035
0.020252
0.00629962
0.00582639
5.71842e-05
2.61991e-05
2.61988e-05
2.61995e-05
2.63192e-05
4.02971e-05
3.72577e-05
0.000233176
0.00177222
0.00320176
0.00319952
0.00320115
0.00236751
0.000692396
0.00767973
0.00744114
0.00200768
0.000233089
0.00232375
0.37005
0.98815
0.999991
0.00272781
0.000843669
0.000423967
0.000314336
0.00106719
0.000193936
7.48711e-05
0.000311177
9.45824e-05
7.43844e-05
7.43859e-05
7.43987e-05
7.43725e-05
7.43729e-05
7.43842e-05
7.43859e-05
0.00191225
0.000537612
0.000154123
8.71446e-05
0.143799
0.0657052
0.0214494
0.00763158
0.973983
0.822241
0.475978
0.238895
1
0.999995
0.999228
0.981173
1
1
1
1
1
1
1
1
1
1
1
1
0.999999
0.999999
1
1
0.999999
0.999999
1
1
1
1
0.999999
1
0.999996
0.99999
0.999992
0.999998
0.999976
0.999976
0.99998
0.999996
0.999976
0.999992
1
1
0.00311372
0.0126563
0.0203519
0.0116606
0.00192852
3.6221e-05
3.04698e-05
0.0010244
0.00901423
0.0106581
0.00112378
3.82763e-05
0.000165155
0.000900855
0.00135975
0.00284843
0.00104204
5.28037e-05
5.28037e-05
0.000732929
0.0012523
0.00733053
0.011702
0.00645265
8.13254e-05
0.00178116
0.0165904
0.026264
0.0262616
0.0185854
0.00404842
0.000230203
0.000239618
0.00116151
0.00221277
0.000195821
5.28037e-05
5.28037e-05
7.44017e-05
0.000247494
0.00331164
0.00917621
0.00913528
0.00487668
0.00517941
0.00656669
0.00180904
0.0041303
0.0168932
0.0168861
0.000536328
0.000239352
0.000533021
0.000411416
5.60204e-05
5.28037e-05
5.28037e-05
7.43987e-05
0.000155327
0.00123339
0.00300861
0.00346792
0.00138339
0.000251977
4.71325e-05
4.18463e-05
0.00100479
0.0106338
0.0168758
0.00399645
0.000312791
6.27525e-05
5.94298e-05
0.000165583
0.000100358
0.000143676
7.7648e-05
0.000137818
0.000188321
9.09719e-05
5.01151e-05
3.35808e-05
3.34982e-05
3.31749e-05
3.31748e-05
0.000502428
0.00699322
0.0168582
0.0130103
0.000208241
4.09576e-05
0.000598666
0.00249095
0.0116099
0.0169277
0.00262985
0.00117118
0.00312538
0.00441147
0.00223555
0.000154712
3.31749e-05
3.31748e-05
3.31748e-05
0.000119923
0.000600393
0.00174159
0.00252914
0.000131435
0.000202621
0.0122169
0.0548582
0.172163
0.189407
0.0922858
0.0189442
0.017325
0.0361082
0.0241798
0.00106953
7.95862e-05
4.11924e-05
0.000108918
0.000311621
0.000612174
0.00074182
0.00135445
0.00548128
0.0497012
0.253167
0.652959
0.882882
0.899743
0.744631
0.253257
0.0744226
0.062971
0.0445157
0.0130685
0.00596375
0.007103
0.0173486
0.0363797
0.0586105
0.0767655
0.115751
0.258143
0.605286
0.97875
0.99997
0.999996
0.999998
0.997244
0.921903
0.539567
0.197666
0.129686
0.124625
0.12255
0.139655
0.249578
0.433173
0.625996
0.761663
0.905581
0.994136
0.999974
0.999996
0.999997
0.999998
1
0.999997
0.999524
0.982154
0.840157
0.612474
0.53411
0.568052
0.780896
0.938901
0.993898
0.999953
0.999991
0.99999
0.999992
0.999993
0.999993
0.999993
0.999997
1
1
1
0.999968
0.999162
0.995269
0.992404
0.995888
0.999927
1
1
1
0.999999
0.999999
0.999998
0.999993
0.999992
0.999993
0.999999
1
1
1
1
0.999999
0.999998
0.999999
1
1
1
1
1
0.999999
0.999998
0.999999
1
0.999999
1
1
1
1
1
1
1
0.999999
0.999999
1
1
1
1
1
1
0.999999
1
1
1
1
1
1
1
1
1
0.999999
0.999999
0.999999
0.999999
1
1
1
1
1
1
1
1
1
1
1
0.999996
1
0.999999
0.999996
0.999996
0.999999
1
0.999999
0.999999
1
1
1
1
1
0.999999
1
1
1
1
0.999995
1
0.999994
0.999993
0.999995
1
1
0.999999
0.999999
1
1
1
0.999999
0.999999
0.999999
1
1
1
0.999998
0.999995
0.999999
0.999994
0.999993
0.999996
1
1
0.999999
0.999999
0.999999
0.999999
1
0.999999
0.999999
0.999999
1
1
1
0.999996
0.999995
)
;

boundaryField
{
    leftWall
    {
        type            alphaContactAngle;
        thetaProperties 
6
(

(
water
mercury
)
 90 0 0 0

(
water
air
)
 90 0 0 0

(
water
oil
)
 90 0 0 0

(
mercury
air
)
 90 0 0 0

(
oil
mercury
)
 90 0 0 0

(
oil
air
)
 90 0 0 0
);
        value           nonuniform 0();
    }
    rightWall
    {
        type            alphaContactAngle;
        thetaProperties 
6
(

(
water
mercury
)
 90 0 0 0

(
water
air
)
 90 0 0 0

(
water
oil
)
 90 0 0 0

(
mercury
air
)
 90 0 0 0

(
oil
mercury
)
 90 0 0 0

(
oil
air
)
 90 0 0 0
);
        value           nonuniform List<scalar> 
25
(
1.0959e-05
1.0949e-05
1.09438e-05
1.09393e-05
1.09423e-05
4.88229e-05
0.000622578
0.000692396
5.28037e-05
5.28037e-05
5.28037e-05
0.000143676
0.0169277
0.189407
0.899743
0.999998
1
1
1
1
1
0.999996
0.999995
0.999995
0.999995
)
;
    }
    lowerWall
    {
        type            alphaContactAngle;
        thetaProperties 
6
(

(
water
mercury
)
 90 0 0 0

(
water
air
)
 90 0 0 0

(
water
oil
)
 90 0 0 0

(
mercury
air
)
 90 0 0 0

(
oil
mercury
)
 90 0 0 0

(
oil
air
)
 90 0 0 0
);
        value           nonuniform List<scalar> 
40
(
1.50423e-13
1.50423e-13
1.12015e-12
6.3361e-12
7.78027e-09
3.60879e-06
5.52737e-05
8.13429e-05
0.00198468
0.00272781
0.000843669
0.000423967
0.000314336
0.000100478
0.0269521
0.300695
0.328486
0.276991
0.0378032
0.0055276
0.00346318
0.000100478
0.000487875
0.000278614
0.0001571
6.9205e-05
4.22381e-05
3.63582e-05
3.8148e-05
4.26566e-05
3.28569e-05
1.18524e-05
1.18524e-05
1.18524e-05
1.98362e-05
4.6313e-06
2.00678e-06
5.35126e-05
1.50998e-05
1.0959e-05
)
;
    }
    atmosphere
    {
        type            inletOutlet;
        inletValue      nonuniform 0();
        value           nonuniform 0();
    }
    defaultFaces
    {
        type            empty;
    }
    procBoundary1to0
    {
        type            processor;
        value           nonuniform List<scalar> 
26
(
3.60785e-14
7.64999e-13
8.20178e-12
2.12619e-08
6.9359e-06
6.70421e-05
6.72262e-05
0.000127446
0.00170501
0.00498836
0.00268821
0.00124253
0.00551206
0.359831
0.970527
0.999834
1
1
1
1
0.999999
1
1
0.999999
0.99998
0.999976
)
;
    }
    procBoundary1to3
    {
        type            processor;
        value           nonuniform List<scalar> 
23
(
0.999999
1
1
1
1
1
0.999998
0.999999
1
1
0.999999
0.999999
0.999999
0.999999
0.999999
0.999999
0.999999
0.999999
1
1
1
0.999996
1
)
;
    }
}


// ************************************************************************* //
