/*--------------------------------*- C++ -*----------------------------------*\
| =========                 |                                                 |
| \\      /  F ield         | OpenFOAM: The Open Source CFD Toolbox           |
|  \\    /   O peration     | Version:  2.4.0                                 |
|   \\  /    A nd           | Web:      www.OpenFOAM.org                      |
|    \\/     M anipulation  |                                                 |
\*---------------------------------------------------------------------------*/
FoamFile
{
    version     2.0;
    format      ascii;
    class       volScalarField;
    location    "0.95";
    object      alphas;
}
// * * * * * * * * * * * * * * * * * * * * * * * * * * * * * * * * * * * * * //

dimensions      [0 0 0 0 0 0 0];

internalField   nonuniform List<scalar> 
559
(
1.99999
1.99999
1.99999
1.99999
1.99349
1.40562
0.0433974
0.138094
1.75626
1.4862
1.38124
1.41121
1.53111
1.72037
1.8714
1.89605
1.91197
1.93248
1.94914
1.95125
1.95132
1.95148
1.95387
1.95434
1.95468
1.95469
1.95476
0.784766
0.622711
0.423688
0.33661
0.323084
0.344358
0.376323
0.446256
0.585242
0.947772
1.42997
1.70827
1.843
1.88983
1.91896
1.95202
1.95435
1.95479
1.95477
1.43655
0.893979
0.867081
0.814067
0.614866
0.315498
0.231197
0.231026
0.245734
0.582309
1.36223
1.76468
1.85112
1.88687
1.93213
1.95217
1.95437
1.95486
1.95477
1.54963
1.31634
1.03137
0.991625
0.971466
0.81721
0.519048
0.354924
0.284957
0.392287
0.870618
1.29131
1.44965
1.65176
1.87669
1.94095
1.95445
1.95164
1.9548
1.53667
1.21096
0.990916
0.988972
0.98893
0.963864
0.449232
0.236742
0.237972
0.265912
0.501861
0.842441
0.959286
1.12703
1.63315
1.94447
1.95417
1.94735
1.94403
1.02397
1.09232
1.00146
0.99286
0.990775
0.983657
0.612275
0.304559
0.244306
0.227173
0.403109
0.750762
0.893876
0.936275
1.16395
1.82961
1.9483
1.93579
1.87395
0.940249
1.052
1.00473
1.00764
0.994505
0.965897
0.610135
0.263481
0.231127
0.222414
0.327409
0.704105
0.875181
0.895783
0.921934
1.22622
1.62656
1.62074
1.33184
0.931418
1.02497
1.027
1.0077
1.00623
0.959884
0.641491
0.283916
0.230182
0.222205
0.261585
0.621397
0.85444
0.880039
0.887343
0.823757
0.767569
0.69662
0.613998
0.553936
0.819981
0.915305
0.935052
0.951801
1.72514
2.97622
2.99998
0.852831
0.896076
0.891246
0.878397
0.92309
0.920804
0.92009
0.91733
0.918598
0.906288
0.89773
0.892226
0.908122
0.896872
0.884466
0.874794
0.912046
0.891494
0.878974
0.867531
1.23467
1.04257
0.926309
0.879901
2.94767
2.63988
1.92422
1.40721
3
2.99999
2.99846
2.96235
3
3
3
3
3
3
3
3
3
3
3
3
3
3
3
3
3
3
3
3
3
3
3
3
2.99999
2.99998
2.99998
3
2.99995
2.99995
2.99996
2.99999
2.99995
2.99999
3
3
0.928076
0.988489
1.00577
1.01441
0.994381
0.927479
0.600973
0.291317
0.256984
0.258257
0.244852
0.44762
0.734642
0.844497
0.883727
0.799954
0.635791
0.547949
0.532587
0.918379
0.923759
0.963361
0.991751
0.986042
0.865984
0.550971
0.343645
0.308565
0.302414
0.279686
0.322682
0.560035
0.792061
0.883499
0.874559
0.729138
0.580006
0.53029
0.889805
0.896815
0.927699
0.955733
0.934048
0.770609
0.51888
0.372743
0.317838
0.298042
0.304662
0.329578
0.445201
0.686821
0.865493
0.870272
0.798045
0.622413
0.572592
0.865034
0.858339
0.862602
0.870105
0.815782
0.67372
0.570972
0.542933
0.5411
0.522019
0.463599
0.401584
0.464355
0.670794
0.818658
0.813588
0.751921
0.695005
0.712407
0.846461
0.823272
0.809591
0.790163
0.749566
0.713976
0.702172
0.702436
0.703374
0.691877
0.644681
0.586901
0.571762
0.707802
0.770915
0.748211
0.752352
0.797912
0.819918
0.840644
0.811328
0.795888
0.785768
0.768841
0.751182
0.744504
0.741036
0.735875
0.728735
0.714917
0.690722
0.678903
0.707443
0.734381
0.782702
0.920105
1.27113
1.31837
1.05883
0.864926
0.824782
0.850456
0.810945
0.741589
0.723757
0.718953
0.717629
0.715328
0.712342
0.710357
0.711663
0.744784
0.882668
1.43428
2.29591
2.765
2.79882
2.46779
1.4102
0.98778
0.929444
0.87682
0.788268
0.767199
0.772164
0.80234
0.858862
0.924954
0.977037
1.07895
1.4268
2.19619
2.95746
2.99994
2.99999
3
2.99431
2.83814
2.03985
1.31262
1.15774
1.14281
1.13631
1.17864
1.42942
1.82711
2.234
2.51622
2.80981
2.98824
2.99995
2.99999
2.99999
3
3
2.99999
2.99899
2.96303
2.67288
2.21201
2.05579
2.12827
2.55821
2.8771
2.98778
2.99991
2.99998
2.99998
2.99999
2.99999
2.99999
2.99999
3
3
3
3
2.99993
2.9983
2.99049
2.98477
2.99177
2.99986
3
3
3
3
3
3
2.99999
2.99998
2.99999
3
3
3
3
3
3
3
3
3
3
3
3
3
3
3
3
3
3
3
3
3
3
3
3
3
3
3
3
3
3
3
3
3
3
3
3
3
3
3
3
3
3
3
3
3
3
3
3
3
3
3
3
3
3
3
3
3
3
2.99999
3
3
2.99999
2.99999
3
3
3
3
3
3
3
3
3
3
3
3
3
3
2.99999
3
2.99999
2.99999
2.99999
3
3
3
3
3
3
3
3
3
3
3
3
3
3
2.99999
3
2.99999
2.99999
2.99999
3
3
3
3
3
3
3
3
3
3
3
3
3
2.99999
2.99999
)
;

boundaryField
{
    leftWall
    {
        type            zeroGradient;
    }
    rightWall
    {
        type            zeroGradient;
    }
    lowerWall
    {
        type            zeroGradient;
    }
    atmosphere
    {
        type            zeroGradient;
    }
    defaultFaces
    {
        type            empty;
    }
    procBoundary1to0
    {
        type            processor;
        value           nonuniform List<scalar> 
26
(
1.99999
1.99999
2
1.99999
1.9957
1.63438
0.0730059
0.0420351
0.0865785
0.364828
0.775324
0.934695
0.964904
1.7129
2.94099
2.99967
3
3
3
3
3
3
3
3
2.99996
2.99995
)
;
    }
    procBoundary1to3
    {
        type            processor;
        value           nonuniform List<scalar> 
23
(
3
3
3
3
3
3
3
3
3
3
3
3
3
3
3
3
3
3
3
3
3
2.99999
3
)
;
    }
}


// ************************************************************************* //
