/*--------------------------------*- C++ -*----------------------------------*\
| =========                 |                                                 |
| \\      /  F ield         | OpenFOAM: The Open Source CFD Toolbox           |
|  \\    /   O peration     | Version:  2.4.0                                 |
|   \\  /    A nd           | Web:      www.OpenFOAM.org                      |
|    \\/     M anipulation  |                                                 |
\*---------------------------------------------------------------------------*/
FoamFile
{
    version     2.0;
    format      ascii;
    class       volScalarField;
    location    "0.95";
    object      p;
}
// * * * * * * * * * * * * * * * * * * * * * * * * * * * * * * * * * * * * * //

dimensions      [1 -1 -2 0 0 0 0];

internalField   nonuniform List<scalar> 
559
(
5438.23
4630.91
3852.3
3044.39
2244.38
1547.87
928.403
1099.42
1336.24
1198.96
1160.51
1198.55
1221.4
1263.15
1378.3
1537.63
1828.97
2436.32
2853.93
3253.15
3601.96
3935.79
4122.54
4635.91
5306.25
5325.96
5486.64
856.64
789.404
739.395
720.418
727.127
751.057
805.017
871.682
954.145
1093.09
1451.23
1927.86
2407.94
2670.22
2828.79
3399.62
4195.38
4221.53
4452.15
841.639
870.075
913.847
938.529
968.842
1014.99
1087.04
1169.74
1282.16
1260.19
1407.89
1741.64
1941.61
2232.99
2543.81
2901.84
3626.69
3719.86
3812.56
808.011
791.464
748.152
725.479
713.243
727.478
765.026
816.947
893.592
939.719
828.137
853.457
936.126
1200.98
1494.82
2106.27
2809.76
2811.24
3011.29
780.461
777.193
790.446
815.831
846.283
874.039
929.58
969.255
968.139
887.16
749.695
719.139
714.616
741.941
938.45
1677.68
2156.63
2242.16
2265.22
753.242
746.028
717.735
699.898
694.923
715.863
752.681
793.254
846.709
837.697
751.144
742.741
749.672
701.232
684.744
1090.69
1479.98
1546.96
1501.04
713.378
713.355
694.215
712.048
736.86
763.595
796.319
810.616
798.371
780.733
713.234
668.768
657.988
661.141
620.643
644.445
865.444
941.805
937.946
680.487
678.21
650.858
636.172
649.345
693.605
724.049
734.374
748.683
730.716
675.977
641.333
638.17
622.825
594.716
531.822
464.152
511.191
527.611
734.35
792.784
689.752
520.677
307.989
27.5276
2.05661
3.81531
785.698
797.673
787.881
761.967
721.032
675.81
640.393
612.49
650.979
624.846
594.74
562.474
495.122
478.088
466.331
448.983
314.72
320.726
317.186
304.48
32.5899
44.8656
91.8309
132.493
2.42244
2.0408
3.7191
12.5312
3.63289
3.38243
3.13336
3.15819
2.81122
2.90362
3.03059
2.96258
2.59973
2.60137
2.65547
2.73562
2.08488
2.11164
2.17015
2.27611
1.607
1.64946
1.74108
1.88645
1.27256
1.33403
1.46362
1.65927
1.34245
1.43765
1.58677
1.77875
1.6894
1.75968
1.86121
1.99184
1.98927
2.03187
2.08909
2.163
2.20337
2.22653
2.25557
2.29384
654.868
645.65
602.748
613.422
641.431
659.328
684.187
693.984
678.409
664.632
614.239
584.831
578.373
572.627
555.832
566.344
609.983
640.693
658.341
579.059
549.893
505.133
512.511
545.546
580.241
604.424
602.279
588.217
568.689
535.993
502.099
505.675
477.959
434.978
391.671
384.029
422.807
455.866
512.6
460.773
428.049
447.77
487.813
518.204
532.914
518.689
494.127
464.603
431.634
403.953
408.303
380.761
355.416
332.495
308.335
323.75
341.523
410.319
369.594
361.127
386.834
428.555
457.678
458.628
436.382
404.997
368.941
331.16
311.346
321.54
315.376
295.266
263.955
244.725
238.519
247.164
289.87
280.461
294.108
335.244
369.168
386.437
379.385
355.025
323.638
286.887
249.126
238.73
248.212
244.593
221.483
189.273
164.505
148.891
148.281
170.974
186.906
224.738
266.91
293.973
303.208
296.433
278.611
255.466
229.119
206.653
194.622
187.777
176.022
146.102
98.9272
54.8869
37.0448
33.9469
41.409
106.18
153.411
186.797
213.46
224.828
221.501
207.525
186.001
163.43
151.744
144.092
127.016
89.9442
45.8515
18.4913
6.55344
4.37697
4.54437
3.95561
23.0423
71.6978
106.324
125.302
132.463
127.873
113.186
89.1652
58.606
40.7936
30.7464
24.0105
11.2466
5.39315
4.9594
5.25316
5.67066
5.76164
2.42664
3.16709
10.1984
32.0305
41.8351
44.7842
40.3404
27.8769
22.4217
12.0322
7.64458
3.18641
4.54929
4.48766
5.01817
5.51502
5.85964
5.56982
5.51474
2.88147
3.06864
3.0371
4.35807
8.77399
12.0617
10.0155
6.31564
2.52948
2.56282
2.81903
3.12953
3.49374
4.42775
4.85524
4.93531
5.06567
5.10242
5.1264
2.53475
2.99606
3.3511
3.37622
3.11557
2.91106
2.95971
3.27178
4.07757
4.24373
3.91692
3.24479
3.2309
3.87094
4.35676
4.61377
4.81642
4.84166
4.86141
2.19086
2.72468
3.21039
3.68542
4.19452
4.62419
4.52246
4.07015
3.62369
3.54184
3.43327
3.07802
3.0291
3.4019
3.81727
4.13601
4.40558
4.51076
4.54985
2.0329
2.62963
3.11875
3.45781
3.62217
3.5867
3.47634
3.48313
3.56844
3.58026
3.35509
3.016
2.8417
3.0597
3.44595
3.813
4.11573
4.24327
4.28158
2.13189
2.62983
3.04483
3.32502
3.48903
3.55298
3.57396
3.59001
3.55465
3.43251
3.23185
2.99977
2.90923
3.04256
3.30141
3.61694
3.89109
4.01371
4.06129
2.23426
2.59749
2.92974
3.16361
3.30334
3.37719
3.4034
3.40571
3.38234
3.30605
3.18657
3.08373
3.06306
3.1404
3.26119
3.49037
3.72573
3.83434
3.87739
2.31549
2.55781
2.80557
3.00682
3.13015
3.19556
3.22407
3.22993
3.2197
3.18259
3.13138
3.09147
3.08334
3.13782
3.24147
3.41737
3.58965
3.68444
3.71916
2.37632
2.51419
2.68406
2.85115
2.96964
3.03483
3.0693
3.08281
3.08653
3.06746
3.03991
3.03281
3.04798
3.1021
3.19929
3.33
3.46554
3.54012
3.55768
)
;

boundaryField
{
    leftWall
    {
        type            fixedFluxPressure;
        gradient        nonuniform 0();
        value           nonuniform 0();
    }
    rightWall
    {
        type            fixedFluxPressure;
        gradient        uniform 0;
        value           nonuniform List<scalar> 
25
(
5486.64
4452.15
3812.56
3011.29
2265.22
1501.04
937.946
527.611
658.341
455.866
341.523
247.164
148.281
33.9469
4.54437
5.76164
5.51474
5.1264
4.86141
4.54985
4.28158
4.06129
3.87739
3.71916
3.55768
)
;
    }
    lowerWall
    {
        type            fixedFluxPressure;
        gradient        nonuniform List<scalar> 
40
(
132718
0
0
0
0
0
0
0
0
5076.41
5496.93
5532.21
5526.18
0
0
0
0
0
0
0
0
45592.9
27436.7
25202.1
26768.4
31910.6
44121.1
62070.2
67402.5
72525.5
80297.5
85446.4
84600
83454.1
83717.7
84608.4
84359.1
83474.2
83426.5
83118.9
)
;
        value           nonuniform List<scalar> 
40
(
5836.38
5438.23
4630.91
3852.3
3044.39
2244.38
1547.87
928.403
1099.42
818.09
832.749
823.182
797.229
1336.24
856.64
841.639
808.011
780.461
753.242
713.378
680.487
1473.02
1281.27
1236.11
1278.85
1317.13
1395.51
1564.5
1739.84
2046.54
2677.21
3110.26
3506.94
3852.32
4186.94
4376.36
4888.98
5556.67
5576.23
5735.99
)
;
    }
    atmosphere
    {
        type            totalPressure;
        U               U.air;
        phi             phi.air;
        rho             rho;
        psi             none;
        gamma           1;
        p0              nonuniform 0();
        value           nonuniform 0();
    }
    defaultFaces
    {
        type            empty;
    }
    procBoundary1to0
    {
        type            processor;
        value           nonuniform List<scalar> 
26
(
5431.14
4621.77
3854.8
2996.28
2318.67
1347.43
967.468
1085.19
751.087
793.546
669.201
520.307
336.961
40.3147
2.44098
3.56316
2.78341
2.78341
2.67194
2.09348
1.61898
1.27194
1.31939
1.6451
1.952
2.17987
)
;
    }
    procBoundary1to3
    {
        type            processor;
        value           nonuniform List<scalar> 
23
(
2.32732
2.33728
2.34928
2.36718
2.40679
2.47707
2.58606
2.71479
2.81927
2.88426
2.92352
2.94728
2.96433
2.96667
2.96743
2.97457
3.00296
3.05541
3.13424
3.236
3.33722
3.39123
3.40028
)
;
    }
}


// ************************************************************************* //
