/*--------------------------------*- C++ -*----------------------------------*\
| =========                 |                                                 |
| \\      /  F ield         | OpenFOAM: The Open Source CFD Toolbox           |
|  \\    /   O peration     | Version:  2.4.0                                 |
|   \\  /    A nd           | Web:      www.OpenFOAM.org                      |
|    \\/     M anipulation  |                                                 |
\*---------------------------------------------------------------------------*/
FoamFile
{
    version     2.0;
    format      ascii;
    class       surfaceScalarField;
    location    "0.95";
    object      phi;
}
// * * * * * * * * * * * * * * * * * * * * * * * * * * * * * * * * * * * * * //

dimensions      [0 3 -1 0 0 0 0];

internalField   nonuniform List<scalar> 
1061
(
-2.14237e-06
-2.36786e-06
-2.30396e-06
-2.45592e-06
-3.32277e-06
-7.73365e-06
-2.24027e-05
-4.97317e-05
7.78203e-06
-7.78203e-06
1.79304e-05
-1.01484e-05
2.26955e-05
-4.76505e-06
2.7086e-05
-4.39056e-06
2.92553e-05
-2.16926e-06
2.96418e-05
-3.86526e-07
2.9537e-05
1.04753e-07
2.9421e-05
1.16001e-07
2.66644e-05
2.75662e-06
2.4567e-05
2.09745e-06
2.32048e-05
1.36213e-06
2.12908e-05
1.91407e-06
2.16404e-05
-3.49679e-07
2.4197e-05
-2.55653e-06
1.97384e-05
4.45858e-06
6.87622e-06
1.28622e-05
-4.41918e-06
1.12954e-05
-8.1235e-06
3.70432e-06
-8.1235e-06
1.41979e-05
-2.19799e-05
2.39949e-05
-1.99455e-05
2.81806e-05
-8.95073e-06
3.2473e-05
-8.68291e-06
3.38138e-05
-3.51011e-06
2.98484e-05
3.57892e-06
2.68733e-05
3.07983e-06
2.64106e-05
5.787e-07
2.27596e-05
6.40761e-06
8.73384e-06
1.61232e-05
2.76575e-07
9.8194e-06
-3.71375e-06
5.90439e-06
-8.50277e-06
4.43934e-06
-2.26673e-06
-8.79257e-06
5.4715e-06
-3.27965e-06
5.95545e-07
1.77381e-05
-5.52879e-06
1.74197e-05
-8.3633e-06
6.53883e-06
-1.64868e-05
4.57993e-06
-2.65598e-05
5.8696e-06
-2.12351e-05
1.23246e-05
-1.54057e-05
1.65634e-05
-1.29217e-05
1.86814e-05
-5.62808e-06
1.94964e-05
2.76384e-06
1.69013e-05
5.67498e-06
8.87659e-06
8.60339e-06
-1.04285e-05
2.57127e-05
-3.79657e-05
4.36604e-05
-4.84333e-05
2.0287e-05
-4.59113e-05
3.38235e-06
-3.82156e-05
-3.25636e-06
-2.8466e-05
-1.85421e-05
-9.9812e-06
-2.17644e-05
-2.49787e-06
1.02548e-05
-6.15937e-06
2.10812e-05
-4.86223e-06
5.24168e-06
-2.1349e-05
9.35621e-06
-3.59161e-05
1.52122e-05
-2.70911e-05
1.85723e-05
-1.87659e-05
2.08119e-05
-1.51613e-05
2.028e-05
-5.09611e-06
1.69985e-05
6.04533e-06
1.04543e-05
1.22191e-05
6.61361e-07
1.83964e-05
-1.50339e-05
4.14079e-05
-3.09627e-05
5.95893e-05
-4.30452e-05
3.23695e-05
-4.27305e-05
3.06761e-06
-4.08648e-05
-5.12202e-06
-3.59221e-05
-2.34848e-05
-2.3923e-05
-3.37636e-05
-1.15731e-05
-2.0951e-06
-6.79104e-06
1.62992e-05
-3.65873e-06
2.10937e-06
-2.50078e-05
2.16488e-06
-3.8081e-05
4.98844e-07
-2.54251e-05
4.26038e-06
-2.25274e-05
2.87319e-06
-1.37742e-05
3.17795e-06
-5.40088e-06
-4.21457e-07
9.64474e-06
-7.5275e-07
1.25504e-05
6.83748e-07
1.69599e-05
-1.4698e-06
4.35614e-05
-1.2323e-05
7.04425e-05
-2.51827e-05
4.52292e-05
-3.17064e-05
9.5913e-06
-3.70249e-05
1.9649e-07
-3.5885e-05
-2.46247e-05
-3.24849e-05
-3.71637e-05
-1.86395e-05
-1.59405e-05
-8.14287e-06
5.80252e-06
-2.30539e-06
-3.72811e-06
-2.73132e-05
6.03925e-06
-4.41202e-05
8.78773e-06
-2.81736e-05
1.22211e-05
-2.59608e-05
1.06977e-05
-1.22507e-05
5.52384e-06
-2.27023e-07
-3.91235e-06
1.90809e-05
-1.20212e-05
2.06593e-05
-1.12772e-05
1.62158e-05
-3.31585e-06
3.56001e-05
-3.91571e-06
7.10423e-05
-1.80197e-05
5.93332e-05
-2.63429e-05
1.79144e-05
-2.33133e-05
-2.8331e-06
-2.82965e-05
-1.96415e-05
-3.04098e-05
-3.50504e-05
-2.3242e-05
-2.31083e-05
-9.71982e-06
-7.71966e-06
-1.44833e-06
-1.19996e-05
-2.87615e-05
5.37992e-06
-4.95001e-05
6.82785e-06
-2.96215e-05
5.79473e-06
-2.49277e-05
-7.26343e-07
-5.72966e-06
-5.05896e-06
4.10559e-06
-1.11206e-05
2.51426e-05
-1.47601e-05
2.42988e-05
-1.11784e-05
1.26342e-05
-3.76524e-06
2.81869e-05
2.40207e-06
6.4875e-05
-6.70479e-06
6.84401e-05
-2.1528e-05
3.27376e-05
-2.59344e-05
1.57332e-06
-2.26644e-05
-2.29115e-05
-2.82036e-05
-2.95111e-05
-2.64383e-05
-2.48736e-05
-1.35755e-05
-2.05824e-05
-2.9473e-06
-2.26278e-05
-3.17088e-05
3.93793e-06
-5.34381e-05
5.14524e-06
-3.08288e-05
6.68121e-06
-2.64637e-05
1.83527e-06
-8.83724e-07
-9.92246e-06
1.58633e-05
-1.77911e-05
3.30112e-05
-1.85541e-05
2.50618e-05
-1.7799e-05
1.1879e-05
-7.62287e-06
1.80108e-05
4.48643e-06
5.27657e-05
2.96502e-06
6.99615e-05
-1.36572e-05
4.93598e-05
-2.20929e-05
1.0009e-05
-2.1955e-05
-2.30494e-05
-2.38061e-05
-2.766e-05
-2.91358e-05
-1.95439e-05
-2.76301e-05
-2.20881e-05
-1.19673e-05
-3.82907e-05
-4.36761e-05
-1.1925e-05
-7.96001e-05
1.78715e-05
-0.00010006
7.36221e-06
-0.000154862
-1.02811e-05
-0.000215257
-5.57277e-06
-0.000281001
1.73712e-05
-0.000305182
5.81802e-05
-0.000329132
-0.000207695
-5.88887e-05
-2.07114e-05
-3.51254e-05
-2.37633e-05
-1.30224e-05
-2.21031e-05
-2.47842e-05
1.17618e-05
-0.000114047
-6.72489e-06
-0.000120792
-1.70176e-05
-0.000121064
-2.18309e-05
-2.60001e-05
-0.000119849
-0.000146634
-1.49521e-05
-0.000144563
-1.90891e-05
-0.000142636
-2.37573e-05
-2.52105e-05
-0.000143426
-0.000212645
-1.75646e-05
-0.000208671
-2.30627e-05
-0.000203537
-2.88912e-05
-2.94914e-05
-0.000199256
-0.000272275
-2.62906e-05
-0.000263563
-3.17741e-05
-0.000255482
-3.69721e-05
-3.81342e-05
-0.00024684
-0.000308458
-2.30145e-05
-0.000304987
-3.52442e-05
-0.000294812
-4.71475e-05
-5.20053e-05
-0.000280941
-0.000339758
-1.23873e-05
-0.000320083
-5.49195e-05
-0.000299737
-6.74941e-05
-5.49402e-05
-0.000296802
-0.000201778
-1.83038e-05
-0.000236331
-2.03674e-05
-0.000283448
-2.03771e-05
-2.61191e-05
-0.000312269
-0.000271877
-1.12002e-05
-0.000267466
-2.47782e-05
-0.000254602
-3.32419e-05
-3.9831e-05
-0.00024089
-0.000266524
-8.28689e-06
-0.000271843
-1.94593e-05
-0.000271226
-3.3858e-05
-4.37561e-05
-0.000267301
-0.000248954
-6.80935e-06
-0.000246971
-2.1443e-05
-0.000245225
-3.56033e-05
-4.73639e-05
-0.000241617
-0.00017671
-1.17014e-05
-0.00017129
-2.68626e-05
-0.000165472
-4.14212e-05
-5.50711e-05
-0.000157765
-4.18895e-05
-2.29422e-05
-3.13308e-05
-3.74211e-05
-1.88481e-05
-5.3904e-05
-6.46735e-05
-9.24565e-06
0.000112149
-3.34527e-05
0.000119522
-4.47941e-05
0.000123536
-5.79178e-05
-6.40691e-05
0.000122931
0.000191477
-3.52119e-05
0.000191479
-4.4796e-05
0.000186851
-5.32895e-05
-5.97146e-05
0.000182496
0.000217187
-3.23921e-05
0.000213626
-4.12351e-05
0.00020815
-4.78138e-05
-5.3546e-05
0.000201981
0.000211513
0.000206283
0.000198956
0.000192169
-9.68055e-07
-4.07082e-05
-1.46564e-05
-1.71404e-05
-2.28929e-05
-1.82272e-05
-3.51039e-05
1.13273e-05
-4.4794e-05
2.55535e-05
-5.0044e-05
3.82612e-05
-5.13284e-05
2.63461e-05
-4.59426e-05
6.49331e-06
-3.07859e-05
2.85406e-06
4.16189e-07
2.15636e-05
1.95572e-05
5.08205e-05
7.09902e-06
6.1818e-05
-2.54932e-05
4.26012e-05
-5.31075e-05
4.56495e-06
-7.33432e-05
-7.42424e-06
-7.55862e-05
-1.73009e-05
-6.07915e-05
-3.68828e-05
-3.26327e-05
-6.64495e-05
-7.63088e-05
-9.97994e-05
-6.07572e-05
-7.35539e-05
-4.33859e-05
-6.6622e-05
-2.51591e-05
-7.19753e-05
1.66806e-05
-7.98712e-05
3.34493e-05
-7.47753e-05
3.31653e-05
-6.58936e-05
1.74644e-05
-5.61515e-05
-3.24872e-06
-3.9942e-05
-1.33554e-05
-1.45039e-05
-3.87449e-06
1.07974e-05
2.55192e-05
1.42073e-05
5.84081e-05
-4.81863e-06
6.16272e-05
-3.78103e-05
3.75566e-05
-5.62002e-05
1.09657e-05
-5.52539e-05
-1.82473e-05
-4.16195e-05
-5.05172e-05
-1.77011e-05
-9.03679e-05
-9.40099e-05
-0.000143532
-6.06517e-05
-0.000132272
-5.46455e-05
-0.000128748
-2.86827e-05
-0.000124366
1.2298e-05
-0.000115063
2.41468e-05
-9.68693e-05
1.49713e-05
-7.63661e-05
-3.03883e-06
-5.95517e-05
-2.00631e-05
-4.51207e-05
-2.77864e-05
-2.80339e-05
-2.09613e-05
-5.53466e-06
3.01997e-06
8.22725e-06
4.46462e-05
8.05336e-06
6.18011e-05
-3.51297e-06
4.9123e-05
-6.82182e-06
1.42746e-05
-4.03324e-07
-2.46658e-05
2.07541e-06
-5.29959e-05
2.88816e-06
-9.11807e-05
-9.11217e-05
-0.000189393
-7.05149e-05
-0.000180629
-6.34097e-05
-0.000175087
-3.42253e-05
-0.000159748
-3.04066e-06
-0.000137695
2.09433e-06
-0.00011041
-1.23143e-05
-8.46715e-05
-2.87771e-05
-6.67325e-05
-3.80021e-05
-5.55533e-05
-3.89656e-05
-4.47599e-05
-3.17547e-05
-3.02755e-05
-1.14644e-05
-1.27766e-05
2.71473e-05
-2.1706e-06
5.11951e-05
-2.41233e-06
4.93647e-05
4.37355e-06
7.48868e-06
1.7251e-05
-3.75432e-05
1.99827e-05
-5.57276e-05
1.0727e-05
-8.1925e-05
-8.03947e-05
-0.000228067
-8.92875e-05
-0.000214355
-7.71212e-05
-0.000199068
-4.95126e-05
-0.00017744
-2.46684e-05
-0.000151781
-2.35646e-05
-0.000127106
-3.69897e-05
-0.000107962
-4.79212e-05
-9.62115e-05
-4.97526e-05
-8.68178e-05
-4.83593e-05
-7.62048e-05
-4.23677e-05
-6.30498e-05
-2.46195e-05
-4.57964e-05
9.89381e-06
-2.71624e-05
3.25611e-05
-9.02681e-06
3.12291e-05
5.97198e-06
-7.51011e-06
2.07693e-05
-5.23405e-05
2.55763e-05
-6.05346e-05
1.299e-05
-6.93387e-05
-6.74047e-05
-0.000260227
-0.000110002
-0.000244601
-9.27472e-05
-0.000223305
-7.08081e-05
-0.000202233
-4.57412e-05
-0.000184761
-4.10366e-05
-0.000167431
-5.43193e-05
-0.000150561
-6.4791e-05
-0.000134945
-6.53685e-05
-0.000120978
-6.23261e-05
-0.000109362
-5.3984e-05
-9.5765e-05
-3.82166e-05
-7.28477e-05
-1.30235e-05
-4.56107e-05
5.32406e-06
-1.29085e-05
-1.47307e-06
1.11217e-05
-3.15403e-05
1.99504e-05
-6.11691e-05
1.27885e-05
-5.33728e-05
2.06632e-06
-5.86165e-05
-6.53384e-05
-0.000286196
-0.000120607
-0.000267568
-0.000111375
-0.000246
-9.23759e-05
-0.000220759
-7.09821e-05
-0.000198302
-6.3494e-05
-0.000178008
-7.46136e-05
-0.000156528
-8.62705e-05
-0.000136263
-8.56334e-05
-0.000118638
-7.99512e-05
-0.000103771
-6.88507e-05
-8.64185e-05
-5.55695e-05
-6.03943e-05
-3.90477e-05
-2.83361e-05
-2.67341e-05
-1.16858e-06
-2.86406e-05
5.3839e-06
-3.80928e-05
-8.42664e-06
-4.73586e-05
-3.0334e-05
-3.14655e-05
-3.0776e-05
-5.81742e-05
-9.61143e-05
-0.000290807
-0.000142069
-0.000267427
-0.000134755
-0.000247584
-0.000112219
-0.000212784
-0.000105781
-0.00018031
-9.59679e-05
-0.000157528
-9.73961e-05
-0.000137147
-0.000106652
-0.000115702
-0.000107079
-9.6571e-05
-9.90819e-05
-8.08001e-05
-8.46216e-05
-6.58656e-05
-7.0504e-05
-5.16153e-05
-5.32981e-05
-3.52416e-05
-4.31078e-05
-2.76524e-05
-3.62299e-05
-4.16499e-05
-2.40956e-05
-5.78938e-05
-3.11145e-05
-9.51143e-05
5.75501e-06
-4.63822e-05
-0.000106906
-0.000142496
-0.000265207
-0.000117751
-0.00028262
-0.000117342
-0.00023834
-0.0001565
-0.000214714
-0.000129407
-0.000181242
-0.00012944
-0.000152606
-0.000126031
-0.00013255
-0.000126708
-0.000118977
-0.000120651
-0.000105209
-0.000112849
-9.56435e-05
-9.41875e-05
-7.84472e-05
-8.77003e-05
-0.000114962
-1.67831e-05
-0.00013159
-2.648e-05
-0.000203162
3.53422e-05
-0.000258816
3.15583e-05
-0.000189446
-0.000100484
-6.33522e-05
-0.000120339
-2.58443e-05
-0.000144414
-0.000168341
-0.000260763
-0.00012429
-0.000231463
-0.000146642
-0.000243586
-0.000144376
-0.000227684
-0.00014531
-0.000201155
-0.000155968
-0.000170083
-0.000157104
-0.000144632
-0.000152159
-0.000105991
-0.000159292
-0.000138775
-8.00654e-05
-0.00022409
-8.87261e-06
-0.000385322
7.35312e-05
-0.000435572
3.34671e-05
-0.000402316
-5.97359e-05
-0.000262237
-0.000104737
-0.000143148
-8.75306e-05
-0.000104893
-0.00013874
-6.54976e-05
-0.000159735
-3.25275e-05
-0.000177384
-0.000200868
-0.000213983
-0.000151925
-0.000174361
-0.000186263
-0.000132568
-0.00018617
-0.00011912
-0.000158757
-0.000142956
-0.000132132
-0.000190431
-0.000109629
-0.000234044
-0.000108546
-0.000298411
-9.49242e-05
-0.0003201
-5.83762e-05
-0.000308999
-1.99744e-05
-0.000261152
2.56844e-05
-0.000250626
2.29411e-05
-0.000256359
-5.40031e-05
-0.000237303
-0.000123792
-0.000164795
-0.000160038
-0.000100936
-0.000202599
-4.86664e-05
-0.000212004
-2.18819e-05
-0.000204169
-0.00022275
-0.000143618
-0.000166072
-0.000134525
-0.000195357
-0.000129055
-0.000191639
-0.000118326
-0.000169487
-0.000122867
-0.00012759
-0.000158221
-7.42752e-05
-0.000203647
-6.312e-05
-0.000217708
-8.08638e-05
-0.000205257
-7.08272e-05
-0.000213284
-1.19473e-05
-0.000208029
2.04294e-05
-0.000193828
8.74028e-06
-0.000177104
-7.07268e-05
-0.000150126
-0.00015077
-0.000114487
-0.000195678
-7.24384e-05
-0.000244647
-3.55253e-05
-0.000248917
-1.3253e-05
-0.000226441
-0.000236003
8.08054e-06
-0.000183398
-4.62051e-06
-0.000182655
-3.07845e-05
-0.000165475
-4.79659e-05
-0.000152305
-5.0975e-05
-0.000124581
-3.64588e-05
-8.87913e-05
-4.04172e-05
-5.91614e-05
-7.41292e-05
-4.71518e-05
-0.000115591
-2.93656e-05
-0.000120487
-7.05075e-06
-9.4085e-05
-5.97288e-06
-6.10806e-05
-2.42641e-05
-3.98616e-05
-9.19459e-05
-4.80818e-05
-0.00014255
-4.47804e-05
-0.000198979
-2.59003e-05
-0.000263528
-1.0882e-05
-0.000263935
-1.39675e-06
-0.000235926
-0.0002374
0.000114669
-0.000175136
0.000100772
-0.000168759
7.87549e-05
-0.000143457
4.77741e-05
-0.000121324
3.03791e-05
-0.000107186
3.0278e-05
-8.86901e-05
3.36768e-05
-6.25602e-05
3.34169e-05
-4.68919e-05
2.84303e-05
-2.4379e-05
3.40951e-05
-1.27155e-05
5.13631e-05
-2.32408e-05
7.58459e-05
-4.87469e-05
7.46117e-05
-9.07117e-05
5.02646e-05
-0.000118203
3.59574e-05
-0.000184672
2.60384e-05
-0.000253609
2.01118e-05
-0.000258009
1.28872e-05
-0.000228702
-0.000224513
0.000163457
-0.000156097
0.000142967
-0.000148268
0.000115341
-0.000115831
8.33813e-05
-8.93648e-05
6.18364e-05
-8.5641e-05
5.14938e-05
-7.83476e-05
5.41049e-05
-6.51714e-05
6.12081e-05
-5.39952e-05
7.32255e-05
-3.63964e-05
9.87347e-05
-3.82248e-05
0.000125568
-5.00743e-05
0.000136097
-5.92759e-05
0.000117432
-7.20462e-05
9.32145e-05
-9.39859e-05
7.72142e-05
-0.000168672
5.54042e-05
-0.000231799
3.68705e-05
-0.000239475
1.85669e-05
-0.000210398
-0.000205946
0.000183015
-0.00013713
0.000160347
-0.000125601
0.000134255
-8.97389e-05
0.000111642
-6.67517e-05
9.02353e-05
-6.42344e-05
7.44111e-05
-6.25233e-05
6.75861e-05
-5.83464e-05
6.64592e-05
-5.28683e-05
6.95245e-05
-3.94617e-05
7.43154e-05
-4.30157e-05
8.34456e-05
-5.92045e-05
9.06851e-05
-6.65154e-05
9.40112e-05
-7.53723e-05
9.69676e-05
-9.69423e-05
9.15081e-05
-0.000163212
6.98211e-05
-0.000210111
4.4097e-05
-0.000213751
1.95887e-05
-0.00018589
-0.000186357
0.000174413
0.000155461
0.000136264
0.000113929
9.34126e-05
8.13489e-05
7.53896e-05
7.29299e-05
7.55412e-05
7.65788e-05
7.54964e-05
8.37813e-05
9.59419e-05
0.00010676
9.9152e-05
7.44207e-05
4.28402e-05
1.41028e-05
)
;

boundaryField
{
    leftWall
    {
        type            calculated;
        value           nonuniform 0();
    }
    rightWall
    {
        type            calculated;
        value           uniform 0;
    }
    lowerWall
    {
        type            calculated;
        value           nonuniform List<scalar> 
40
(
9.83286e-23
0
0
0
0
0
0
0
0
-1.12497e-22
-6.28657e-23
1.40621e-23
7.54802e-23
0
0
0
0
0
0
0
0
-7.21715e-23
1.8198e-23
2.70074e-22
1.49513e-22
2.13723e-22
-1.26765e-22
1.76706e-22
7.85822e-23
-1.12678e-22
5.42837e-25
-9.41645e-24
-3.1588e-23
-1.74464e-22
-3.70293e-23
-4.93689e-22
-1.90325e-22
-9.99855e-23
2.93998e-22
-4.21352e-22
)
;
    }
    atmosphere
    {
        type            calculated;
        value           nonuniform 0();
    }
    defaultFaces
    {
        type            empty;
        value           nonuniform 0();
    }
    procBoundary1to0
    {
        type            processor;
        value           nonuniform List<scalar> 
26
(
2.14237e-06
2.25494e-07
-6.38994e-08
1.51955e-07
8.66852e-07
4.41087e-06
1.4669e-05
2.7329e-05
4.17934e-05
7.02636e-05
0.000165371
0.000232901
0.000276293
0.000282238
0.000288322
0.000268181
-2.30536e-06
0.000264774
0.00026361
0.000247477
0.000181602
5.31304e-05
-0.000101639
-0.000189718
-0.000220007
-0.000215583
)
;
    }
    procBoundary1to3
    {
        type            processor;
        value           nonuniform List<scalar> 
23
(
-2.83225e-05
-3.60051e-05
-4.04869e-05
-4.67593e-05
-0.000119374
-0.000106649
-7.05416e-05
-4.44167e-05
-4.37184e-05
-5.04596e-05
-5.23871e-05
-5.04086e-05
-4.2073e-05
-4.40534e-05
-5.81221e-05
-7.48004e-05
-8.75329e-05
-0.00010776
-0.000155604
-0.00018538
-0.00018217
-0.000157152
-0.000172254
)
;
    }
}


// ************************************************************************* //
