/*--------------------------------*- C++ -*----------------------------------*\
| =========                 |                                                 |
| \\      /  F ield         | OpenFOAM: The Open Source CFD Toolbox           |
|  \\    /   O peration     | Version:  2.4.0                                 |
|   \\  /    A nd           | Web:      www.OpenFOAM.org                      |
|    \\/     M anipulation  |                                                 |
\*---------------------------------------------------------------------------*/
FoamFile
{
    version     2.0;
    format      ascii;
    class       surfaceScalarField;
    location    "0.95";
    object      phi.water;
}
// * * * * * * * * * * * * * * * * * * * * * * * * * * * * * * * * * * * * * //

dimensions      [0 3 -1 0 0 0 0];

internalField   nonuniform List<scalar> 
1061
(
-2.14181e-06
-2.36543e-06
-2.16105e-06
2.23213e-05
2.63792e-05
4.02636e-05
-2.01401e-05
-5.27728e-05
9.63378e-06
1.7743e-05
1.86381e-05
7.50748e-06
2.2432e-05
1.80124e-05
2.68076e-05
2.14513e-05
2.84233e-05
2.95989e-05
2.77989e-05
4.16395e-05
2.80346e-05
4.94532e-05
2.712e-05
4.74585e-05
2.21756e-05
5.48999e-05
2.18645e-05
6.06836e-05
2.06272e-05
5.52651e-05
1.88228e-05
5.1754e-05
1.92018e-05
4.48378e-05
2.1457e-05
4.36928e-05
1.7774e-05
4.90402e-05
5.85826e-06
5.14265e-05
-4.3309e-06
3.37913e-05
-8.2458e-06
1.4381e-05
3.21166e-06
1.41763e-05
-3.12819e-05
2.37981e-05
-2.76867e-05
2.80405e-05
-2.11862e-05
3.23694e-05
-2.06044e-05
3.39178e-05
-9.92504e-06
3.0011e-05
1.77256e-06
2.67021e-05
1.34524e-06
2.59157e-05
-4.39785e-07
2.21033e-05
8.1972e-06
7.22246e-06
2.86682e-05
-2.9734e-06
2.94831e-05
-7.15435e-06
2.74829e-05
-1.02037e-05
3.06676e-05
-3.59585e-06
1.90268e-05
1.34034e-06
2.07799e-05
-3.83764e-06
4.32052e-05
-5.39751e-06
3.48285e-05
-8.79062e-06
1.25788e-05
-5.1572e-06
1.05664e-05
-8.98789e-05
7.99512e-06
-6.57145e-05
1.33148e-05
-4.32925e-05
1.76118e-05
-3.5123e-05
1.99863e-05
-2.44145e-05
2.01944e-05
-1.19472e-05
1.74846e-05
-6.8138e-06
9.59682e-06
-1.39328e-06
-6.71525e-06
1.65512e-05
-3.12149e-05
4.6095e-05
-4.64451e-05
4.47157e-05
-4.55571e-05
3.84682e-05
-3.94341e-05
3.36739e-05
-2.99427e-05
1.77764e-05
-1.22178e-05
1.56539e-05
-6.7188e-06
4.5352e-05
-6.29682e-06
4.41788e-05
-4.7856e-06
1.54202e-05
-6.83293e-06
7.86071e-06
-9.0042e-05
1.19175e-05
-6.62339e-05
1.7468e-05
-4.47297e-05
2.15237e-05
-3.918e-05
2.23892e-05
-2.88591e-05
1.85322e-05
-1.20635e-05
1.17802e-05
7.57876e-06
1.63708e-06
1.48468e-05
-1.35442e-05
3.77369e-05
-2.84708e-05
5.90769e-05
-4.11462e-05
4.37255e-05
-4.24256e-05
2.22817e-05
-4.07609e-05
1.47991e-05
-3.73018e-05
2.13695e-06
-2.83391e-05
-8.09052e-06
-1.55314e-05
2.03912e-05
-6.8415e-06
3.09274e-05
-3.78139e-06
8.62424e-06
-1.01766e-05
3.25553e-06
-7.67521e-05
1.61418e-06
-5.84557e-05
4.40815e-06
-4.65544e-05
4.24074e-06
-3.70675e-05
5.49363e-06
-2.71033e-05
1.27288e-06
-1.36995e-05
-2.11885e-07
-1.80423e-06
8.01877e-07
9.34462e-06
-1.5163e-06
3.763e-05
-1.32686e-05
6.67224e-05
-2.81624e-05
4.47712e-05
-3.33127e-05
5.61538e-06
-3.63032e-05
-1.4198e-05
-3.72353e-05
-2.65241e-05
-3.51954e-05
-1.6727e-05
-2.11319e-05
1.11239e-05
-8.39891e-06
2.04639e-05
-1.85326e-06
1.40242e-05
8.92838e-07
5.75028e-06
-6.87023e-05
6.00073e-06
-5.757e-05
9.4192e-06
-5.23287e-05
9.43937e-06
-4.00585e-05
5.2607e-06
-2.84083e-05
-3.89176e-06
3.59593e-06
-1.1626e-05
1.25916e-05
-1.09753e-05
1.27752e-05
-3.45068e-06
3.16742e-05
-4.52022e-06
6.70506e-05
-1.85141e-05
5.57645e-05
-2.72775e-05
6.27705e-06
-2.53927e-05
-1.96043e-05
-3.05614e-05
-3.84371e-05
-3.12236e-05
-3.42663e-05
-2.41392e-05
3.17592e-06
-1.00235e-05
1.99533e-05
-1.17019e-06
1.65282e-05
2.40527e-06
4.42743e-06
-6.88041e-05
3.28031e-06
-5.51052e-05
2.93977e-06
-4.98313e-05
-6.30615e-07
-3.02109e-05
-6.23744e-06
-1.64687e-05
-1.22065e-05
2.56217e-06
-1.46628e-05
1.03144e-05
-1.11996e-05
7.54266e-06
-4.00953e-06
2.43016e-05
1.82492e-06
6.12177e-05
-6.80007e-06
6.49927e-05
-2.07186e-05
2.57833e-05
-2.60998e-05
-1.88624e-05
-2.42934e-05
-4.16621e-05
-2.96532e-05
-4.21933e-05
-2.9611e-05
-1.19799e-05
-1.49213e-05
1.39812e-05
-3.27749e-06
8.08756e-06
-3.81851e-06
-6.05646e-07
-7.157e-05
-2.79989e-06
-5.42117e-05
-5.89075e-07
-5.12641e-05
-2.08259e-06
-2.91452e-05
-1.15242e-05
-3.27439e-06
-1.79824e-05
1.66784e-05
-1.84618e-05
1.42669e-05
-1.77263e-05
8.34623e-06
-7.85579e-06
1.44194e-05
3.92638e-06
4.91711e-05
3.07514e-06
6.6632e-05
-1.16501e-05
4.41818e-05
-2.17985e-05
-2.91118e-06
-2.40158e-05
-3.96332e-05
-2.72883e-05
-4.33975e-05
-3.11126e-05
-3.00205e-05
-2.72459e-05
-2.33361e-05
-1.18497e-05
-3.95609e-05
-5.03252e-05
-1.62603e-05
-7.48057e-05
-2.66278e-06
-0.00010955
-2.94352e-05
-0.00017149
-5.32794e-05
-0.00022458
-0.000114365
-0.00027922
-0.000196958
-0.000310094
-8.26305e-05
-0.000352749
-0.0002095
-5.58791e-05
-3.26882e-05
-3.33939e-05
-3.3695e-05
-1.50726e-05
-3.10987e-05
-3.32002e-05
-7.82043e-07
-0.000130843
-1.97727e-05
-0.000133435
-2.90686e-05
-0.000133775
-3.29819e-05
-3.6392e-05
-0.000133539
-0.000162268
-2.86886e-05
-0.000159644
-3.17701e-05
-0.000156547
-3.4811e-05
-3.54139e-05
-0.000156276
-0.000222002
-3.28752e-05
-0.000216482
-3.65354e-05
-0.000212177
-4.08569e-05
-4.04188e-05
-0.000208822
-0.000271068
-5.16024e-05
-0.000263237
-4.88562e-05
-0.000257478
-5.08659e-05
-5.03001e-05
-0.000246189
-0.00029419
-0.000104677
-0.000285265
-9.63345e-05
-0.000278373
-8.32844e-05
-7.44915e-05
-0.000268602
-0.000300975
-4.83473e-05
-0.000281625
-4.5207e-05
-0.000264443
-4.77058e-05
-5.75599e-05
-0.000272481
-0.000208905
-1.93519e-05
-0.000243196
-2.28389e-05
-0.000227173
-3.05302e-05
-3.6346e-05
-0.000194294
-0.000271737
-1.1241e-05
-0.000266552
-2.48612e-05
-0.00025434
-3.32892e-05
-4.09147e-05
-7.42805e-05
-0.000266514
-8.40989e-06
-0.000272293
-1.95469e-05
-0.000277016
-3.4059e-05
-4.429e-05
-0.000190499
-0.000248621
-6.99765e-06
-0.000246996
-2.16195e-05
-0.000242516
-3.60442e-05
-4.76717e-05
-0.000237462
-0.000176691
-1.19379e-05
-0.000170016
-2.70815e-05
-0.000164222
-4.16683e-05
-5.56745e-05
-0.000156966
-4.1622e-05
-2.27762e-05
-3.0628e-05
-3.53317e-05
-1.78695e-05
-5.31322e-05
-6.43744e-05
-6.91891e-06
0.000112625
-2.91322e-05
0.000120016
-4.15478e-05
0.000123311
-5.48305e-05
-6.37229e-05
0.000124311
0.000193299
-3.2124e-05
0.000188673
-4.21631e-05
0.000172092
-5.0533e-05
-5.73213e-05
0.000183389
0.000216436
-2.63784e-05
0.000215882
-3.14882e-05
0.000199219
-3.74603e-05
-5.00313e-05
0.000194421
0.000211015
0.00020636
0.000199044
0.000192302
-2.74151e-05
-6.05513e-05
-3.45814e-05
-4.32966e-05
-3.38595e-05
-4.57333e-05
-3.99134e-05
-1.47901e-05
-4.83795e-05
4.99506e-06
-5.15239e-05
1.88596e-05
-5.15133e-05
1.52891e-05
-4.62183e-05
1.54502e-06
-3.13087e-05
-1.57179e-06
-7.98894e-07
1.69438e-05
1.85036e-05
4.70898e-05
9.70549e-06
5.68345e-05
-2.01224e-05
3.56503e-05
-5.2237e-05
-1.04721e-05
-7.20666e-05
-2.73758e-05
-7.19356e-05
-3.72708e-05
-5.72187e-05
-5.18255e-05
-3.05353e-05
-7.9376e-05
-8.81634e-05
-0.000113619
-8.41051e-05
-8.85892e-05
-6.86856e-05
-7.5247e-05
-5.00196e-05
-7.2365e-05
-6.17083e-06
-7.88026e-05
1.43497e-05
-7.39232e-05
1.60264e-05
-6.5629e-05
8.1481e-06
-5.65823e-05
-8.60906e-06
-4.07312e-05
-1.82444e-05
-1.57821e-05
-8.86647e-06
9.49765e-06
2.04605e-05
1.44164e-05
5.30689e-05
-2.79161e-06
5.3757e-05
-3.65985e-05
2.46112e-05
-5.65364e-05
-7.79509e-06
-5.1298e-05
-4.10893e-05
-3.64069e-05
-6.79026e-05
-1.50124e-05
-0.000102595
-0.000105706
-0.000156531
-8.42693e-05
-0.000143147
-7.59859e-05
-0.000133179
-4.84408e-05
-0.000122319
-6.91332e-06
-0.000112127
5.2702e-06
-9.47036e-05
2.61595e-07
-7.64897e-05
-1.2059e-05
-6.04586e-05
-2.69428e-05
-4.61671e-05
-3.4402e-05
-2.92149e-05
-2.73621e-05
-6.67465e-06
-3.33925e-06
7.73812e-06
3.86302e-05
7.39298e-06
5.46052e-05
-4.189e-06
3.88353e-05
-8.20512e-06
-1.03306e-06
1.07393e-07
-4.37435e-05
4.27896e-06
-6.86808e-05
4.12443e-06
-0.000104532
-0.000105244
-0.000196041
-9.44869e-05
-0.000183417
-8.29523e-05
-0.000172751
-5.23266e-05
-0.000155188
-2.04291e-05
-0.000134173
-1.45609e-05
-0.000108992
-2.60314e-05
-8.57423e-05
-3.98667e-05
-6.91271e-05
-4.84473e-05
-5.84007e-05
-4.93813e-05
-4.73027e-05
-4.14749e-05
-3.15506e-05
-1.97714e-05
-1.32081e-05
2.0129e-05
-3.08665e-06
4.31214e-05
-4.72133e-06
3.74759e-05
1.20418e-07
-9.61136e-06
1.47053e-05
-5.413e-05
1.85279e-05
-7.10093e-05
1.06748e-05
-9.89217e-05
-9.94268e-05
-0.000226529
-0.000110076
-0.000212536
-9.40816e-05
-0.000194719
-6.67279e-05
-0.000173369
-4.14478e-05
-0.000150069
-3.95344e-05
-0.000128413
-5.17475e-05
-0.000111972
-6.20293e-05
-0.000101559
-6.32957e-05
-9.23969e-05
-6.09514e-05
-8.04187e-05
-5.36077e-05
-6.41209e-05
-3.44727e-05
-4.5688e-05
1.1677e-06
-2.83473e-05
2.26293e-05
-1.18594e-05
1.74817e-05
1.70022e-06
-2.51198e-05
1.7091e-05
-6.995e-05
2.26663e-05
-8.18968e-05
1.22396e-05
-0.000104271
-0.000105922
-0.000253032
-0.000142713
-0.000238165
-0.000110723
-0.000218965
-8.82937e-05
-0.000199756
-6.58364e-05
-0.000184302
-5.9291e-05
-0.000169133
-6.94056e-05
-0.000153268
-7.87061e-05
-0.000137755
-7.90564e-05
-0.000123614
-7.59467e-05
-0.000111028
-6.68538e-05
-9.59589e-05
-5.07591e-05
-7.32122e-05
-2.65251e-05
-4.69684e-05
-8.33135e-06
-1.62554e-05
-1.8225e-05
5.52103e-06
-5.18234e-05
1.32737e-05
-9.90725e-05
7.63651e-06
-0.000150622
-4.05682e-08
-0.000198932
-0.000196702
-0.000272997
-0.000207346
-0.000258439
-0.000153406
-0.000239404
-0.000114674
-0.000215656
-9.40578e-05
-0.000194491
-8.49895e-05
-0.000176558
-9.18009e-05
-0.000157175
-0.000102098
-0.000137805
-0.000101376
-0.000120286
-9.63714e-05
-0.000104911
-8.64913e-05
-8.69756e-05
-7.56578e-05
-6.17529e-05
-6.07363e-05
-3.19278e-05
-5.10947e-05
-7.16724e-06
-6.67719e-05
-6.19122e-06
-0.000116013
-3.25087e-05
-0.000201913
-5.30908e-05
-4.06651e-05
-3.64843e-05
-0.000141726
-0.000110509
-0.000250602
-0.000211132
-0.000246542
-0.000219861
-0.00023507
-0.000185774
-0.000206819
-0.000141548
-0.000177521
-0.000122792
-0.000156204
-0.000123408
-0.000138463
-0.000131041
-0.000118821
-0.000133075
-0.000100425
-0.000132865
-8.41556e-05
-0.00013595
-6.82887e-05
-0.000142015
-5.36305e-05
-0.000141424
-4.09754e-05
-0.000167989
-4.3246e-05
-0.000202199
-6.36293e-05
-2.03271e-05
-5.38104e-05
-0.000120109
-7.45961e-05
5.06609e-05
-4.74255e-05
-8.90545e-05
-0.000127065
-0.000193544
-0.000141149
-0.000201713
-0.000219074
-0.000213101
-0.000236075
-0.000206374
-0.000228826
-0.00018184
-0.000203909
-0.000153895
-0.000195485
-0.000137472
-0.000203521
-0.000128048
-0.00022192
-0.000123147
-0.000248201
-0.000116906
-0.000310571
-0.000107554
-6.98989e-05
-0.000113606
-0.000101921
-0.000134147
-9.76497e-05
-0.000130619
-0.00011613
-0.000151402
6.91866e-05
-0.000190271
-0.000100835
-6.36153e-05
-0.000120263
-2.58958e-05
-0.000144472
-0.000168354
-0.000147377
-0.000111912
-0.000185166
-0.000132519
-0.000189577
-0.000203719
-0.000206188
-0.000258754
-0.000220358
-0.000296719
-0.000215106
-0.000334619
-0.000202042
-0.000303758
-0.000214045
-0.000132925
-0.000277988
-0.000172334
-0.000233069
-0.000201437
-0.000302147
6.34769e-05
-0.000412031
3.19151e-05
-0.000399388
-6.08988e-05
-0.000259672
-0.000105449
-0.00014378
-8.82585e-05
-0.000105029
-0.000140399
-6.56641e-05
-0.000162347
-3.25929e-05
-0.000178005
-0.000200912
-0.000204113
-0.000153407
-0.000113558
-0.000183167
-0.000171594
-0.000135936
-0.000228501
-0.000145211
-0.000291421
-0.000161562
-0.000343019
-0.00019375
-0.000285721
-0.000225328
-0.00027121
-0.000103946
-0.000314774
-5.86074e-05
-0.000309153
-2.03675e-05
-0.000261265
2.54146e-05
-0.000250488
2.26931e-05
-0.000255975
-5.41741e-05
-0.000236248
-0.000124331
-0.000163997
-0.000160949
-0.000100785
-0.000203307
-4.91109e-05
-0.000212622
-2.21465e-05
-0.000204402
-0.000222771
-0.000140602
-0.000165568
-0.0001317
-0.000191888
-0.000127627
-0.000187936
-0.000113523
-0.000169677
-0.000119108
-0.000126903
-0.000157635
-7.40935e-05
-0.000204276
-6.78275e-05
-0.00021514
-8.18713e-05
-0.000204107
-6.55729e-05
-0.000213319
-1.20159e-05
-0.000208127
2.03904e-05
-0.000193704
8.60926e-06
-0.000176729
-7.10704e-05
-0.000149567
-0.000150895
-0.00011398
-0.000196104
-7.21474e-05
-0.000245064
-3.57596e-05
-0.00024915
-1.35533e-05
-0.000226627
-0.000236026
1.12087e-05
-0.000182299
-5.9102e-07
-0.000182189
-2.70896e-05
-0.000163365
-4.73464e-05
-0.00015037
-5.07781e-05
-0.000124624
-3.52096e-05
-8.87625e-05
-4.11151e-05
-5.82992e-05
-7.18519e-05
-4.61828e-05
-0.000109848
-2.92177e-05
-0.000120578
-6.17609e-06
-9.41195e-05
-7.06672e-06
-6.06109e-05
-2.52568e-05
-3.93504e-05
-9.0915e-05
-4.75696e-05
-0.000140737
-4.43375e-05
-0.000199119
-2.56299e-05
-0.0002637
-1.0865e-05
-0.000264166
-1.53684e-06
-0.000236052
-0.000237414
0.000115674
-0.000173918
0.000102943
-0.000163573
8.03217e-05
-0.000143091
4.90456e-05
-0.000122032
3.04731e-05
-0.000107212
3.02831e-05
-8.87295e-05
3.36314e-05
-6.25566e-05
3.21679e-05
-4.60974e-05
2.78555e-05
-2.28798e-05
3.24454e-05
-1.19879e-05
5.05582e-05
-2.31296e-05
7.62119e-05
-4.83246e-05
7.52363e-05
-8.95906e-05
5.08935e-05
-0.000117346
3.62661e-05
-0.000184626
2.62625e-05
-0.000253755
2.03421e-05
-0.000258202
1.28909e-05
-0.00022885
-0.000224545
0.000164221
-0.000155864
0.00014224
-0.000148522
0.00011629
-0.000116306
8.42358e-05
-8.96177e-05
6.20065e-05
-8.5828e-05
5.15044e-05
-7.83354e-05
5.41609e-05
-6.51978e-05
6.11968e-05
-5.40684e-05
7.3225e-05
-3.65581e-05
9.79698e-05
-3.7767e-05
0.000125479
-4.94152e-05
0.000136108
-5.75303e-05
0.000118147
-7.155e-05
9.25821e-05
-9.36579e-05
7.75069e-05
-0.000168692
5.56111e-05
-0.000231914
3.71551e-05
-0.000239672
1.86144e-05
-0.000210473
-0.000205978
0.000182972
-0.000137091
0.000160355
-0.000125633
0.000134342
-8.98467e-05
0.000111701
-6.6923e-05
9.03235e-05
-6.43795e-05
7.44527e-05
-6.25736e-05
6.75899e-05
-5.83683e-05
6.63005e-05
-5.29059e-05
6.94866e-05
-3.96583e-05
7.42279e-05
-4.32177e-05
8.34578e-05
-5.93521e-05
9.07175e-05
-6.64859e-05
9.40378e-05
-7.45427e-05
9.6681e-05
-9.64136e-05
9.16278e-05
-0.000163234
7.01049e-05
-0.000210251
4.43221e-05
-0.000213962
1.96165e-05
-0.000185932
-0.000186388
0.000174491
0.000155495
0.000136284
0.000113941
9.34534e-05
8.13719e-05
7.53926e-05
7.28268e-05
7.55395e-05
7.65609e-05
7.54891e-05
8.37671e-05
9.59723e-05
0.000106825
9.92887e-05
7.46323e-05
4.2971e-05
1.41163e-05
)
;

boundaryField
{
    leftWall
    {
        type            fixedValue;
        value           nonuniform 0();
    }
    rightWall
    {
        type            fixedValue;
        value           uniform 0;
    }
    lowerWall
    {
        type            fixedValue;
        value           uniform 0;
    }
    atmosphere
    {
        type            calculated;
        value           nonuniform 0();
    }
    defaultFaces
    {
        type            empty;
        value           nonuniform 0();
    }
    procBoundary1to0
    {
        type            processor;
        value           nonuniform List<scalar> 
26
(
2.14235e-06
2.25474e-07
-6.39189e-08
1.55396e-07
6.51421e-07
6.08046e-06
1.45552e-05
2.70789e-05
3.9723e-05
6.44898e-05
0.000165084
0.000238616
0.000280328
0.000308098
0.000347798
0.000254628
-5.82965e-06
0.000264308
0.000263554
0.000247487
0.000181433
5.27095e-05
-0.000103514
-0.000190599
-0.000217908
-0.000214657
)
;
    }
    procBoundary1to3
    {
        type            processor;
        value           nonuniform List<scalar> 
23
(
-2.80794e-05
-3.59931e-05
-4.05125e-05
-4.67919e-05
-0.00011941
-0.000106652
-7.05682e-05
-4.44555e-05
-4.37728e-05
-5.05035e-05
-5.24061e-05
-5.04218e-05
-4.19333e-05
-4.39827e-05
-5.81595e-05
-7.48022e-05
-8.75479e-05
-0.000107794
-0.000155708
-0.000185533
-0.000182285
-0.000157181
-0.000172264
)
;
    }
}


// ************************************************************************* //
