/*--------------------------------*- C++ -*----------------------------------*\
| =========                 |                                                 |
| \\      /  F ield         | OpenFOAM: The Open Source CFD Toolbox           |
|  \\    /   O peration     | Version:  2.4.0                                 |
|   \\  /    A nd           | Web:      www.OpenFOAM.org                      |
|    \\/     M anipulation  |                                                 |
\*---------------------------------------------------------------------------*/
FoamFile
{
    version     2.0;
    format      ascii;
    class       surfaceScalarField;
    location    "0.95";
    object      phi.mercury;
}
// * * * * * * * * * * * * * * * * * * * * * * * * * * * * * * * * * * * * * //

dimensions      [0 3 -1 0 0 0 0];

internalField   nonuniform List<scalar> 
1061
(
-2.14239e-06
-2.36789e-06
-2.30399e-06
-2.4963e-06
-8.57345e-06
-9.35942e-05
-0.000194744
-0.00020564
7.24336e-06
-4.73285e-05
1.76012e-05
-6.60611e-05
2.28489e-05
-7.3123e-05
2.72e-05
-7.22822e-05
2.94491e-05
-6.97107e-05
2.9858e-05
-6.43084e-05
2.96679e-05
-5.79125e-05
2.95978e-05
-5.18684e-05
2.69418e-05
-4.6455e-05
2.47171e-05
-3.42266e-05
2.33374e-05
-1.64717e-05
2.1414e-05
-6.43674e-06
2.17625e-05
-4.59798e-06
2.42704e-05
-5.98871e-06
1.99173e-05
1.42166e-06
7.08215e-06
1.06196e-05
-4.39041e-06
9.16713e-06
-8.0675e-06
1.54872e-06
-1.01268e-05
8.81665e-06
-0.000157074
1.64369e-05
-0.000153232
2.36651e-05
-7.94239e-05
3.16672e-05
-5.59955e-05
3.67097e-05
-5.09337e-05
3.66659e-05
-4.3618e-05
3.47061e-05
-4.91632e-05
3.2759e-05
-4.1405e-05
2.5516e-05
-3.01454e-05
1.09702e-05
-1.85548e-05
1.99614e-06
-2.87834e-06
-2.96812e-06
9.40956e-07
-8.30056e-06
1.09617e-06
-2.16053e-06
-1.1407e-05
5.72091e-06
-4.79088e-06
8.52738e-07
1.65824e-05
-5.4936e-06
1.61625e-05
-8.28359e-06
5.346e-06
-1.7916e-05
8.64233e-06
-0.000256438
7.94286e-06
-0.000223845
1.35518e-05
-7.38393e-05
1.82406e-05
-3.87467e-05
2.22129e-05
-2.66229e-05
2.86883e-05
-2.59892e-05
2.53596e-05
-2.7876e-05
-7.1999e-06
-3.43319e-05
-3.74175e-05
-4.02162e-05
-4.45081e-05
-2.66937e-05
-4.84768e-05
-1.88823e-05
-4.58268e-05
-2.01527e-05
-3.80149e-05
-2.33211e-05
-2.82941e-05
-2.98254e-05
-9.82809e-06
-2.56129e-05
-2.23589e-06
8.29836e-06
-6.10632e-06
1.93614e-05
-4.82404e-06
3.27789e-06
-2.30143e-05
6.04606e-06
-0.00024095
7.52354e-06
-0.000173135
1.49628e-05
-5.72292e-05
1.93802e-05
-4.10617e-05
2.06191e-05
-2.39537e-05
1.89491e-05
-9.76817e-06
8.30724e-06
1.92899e-06
-1.85526e-05
-3.90253e-06
-3.60945e-05
-3.90572e-05
-3.95534e-05
-4.03995e-05
-4.20775e-05
-4.13546e-05
-4.16873e-05
-6.83684e-05
-3.95116e-05
-7.76547e-05
-3.54489e-05
-6.40895e-05
-2.34766e-05
-4.2447e-05
-1.12808e-05
-3.44847e-06
-6.76337e-06
1.48607e-05
-3.58655e-06
6.47535e-07
-2.67726e-05
7.85993e-07
-0.000227124
2.07779e-06
-0.000134871
5.53333e-06
-6.1253e-05
5.44091e-06
-4.99287e-05
6.71526e-06
-3.63405e-05
3.31109e-06
-1.49794e-05
8.95124e-07
-1.02106e-05
-5.07602e-06
-7.1823e-06
-1.54021e-05
-1.89048e-05
-1.84953e-05
-4.68426e-05
-1.93709e-05
-7.40744e-05
-2.27548e-05
-0.00012065
-3.11833e-05
-0.000132798
-3.35745e-05
-0.000109092
-3.09469e-05
-6.37387e-05
-1.84161e-05
-1.94826e-05
-8.10042e-06
4.18311e-06
-2.28485e-06
-5.76245e-06
-3.05976e-05
1.25432e-06
-0.000225638
3.83066e-06
-0.0001332
9.34679e-06
-5.83397e-05
9.42803e-06
-4.26983e-05
7.2614e-06
-3.35553e-05
-1.04961e-06
1.32606e-06
-1.02561e-05
8.72411e-06
-1.13017e-05
4.30988e-06
-7.52652e-06
1.271e-05
-6.44525e-06
7.62558e-06
-9.43926e-06
-2.30754e-05
-1.6765e-05
-6.26767e-05
-1.89667e-05
-9.83131e-05
-2.31691e-05
-0.000121973
-2.82316e-05
-0.000100851
-2.28492e-05
-4.40635e-05
-9.6869e-06
-1.50028e-05
-1.47689e-06
-1.91926e-05
-4.42993e-05
-6.52364e-07
-0.000222904
9.8476e-07
-0.000109577
4.61928e-06
-5.79064e-05
1.23832e-06
-3.33788e-05
-2.46199e-06
-2.5825e-05
-8.71328e-06
-2.52925e-06
-1.35386e-05
1.25444e-06
-1.15689e-05
-5.66984e-06
-5.43125e-06
1.10077e-05
7.80208e-07
4.55261e-05
-2.56179e-06
4.37198e-05
-1.3712e-05
1.35481e-05
-1.57665e-05
-4.70583e-05
-2.04675e-05
-0.000124106
-2.86679e-05
-0.000156
-2.38834e-05
-0.000118427
-1.31474e-05
-7.77033e-05
-2.99228e-06
-7.80721e-05
-0.000128002
-3.98329e-06
-0.000223197
-6.1525e-06
-8.35474e-05
1.31594e-06
-6.36254e-05
1.68432e-06
-2.60176e-05
-7.51755e-06
-2.21024e-06
-1.56995e-05
1.6287e-05
-1.7852e-05
8.67606e-06
-1.75226e-05
-1.61847e-06
-8.9449e-06
3.00536e-06
2.21005e-06
3.70062e-05
2.39544e-06
5.40824e-05
-7.09622e-06
3.16375e-05
-9.6e-06
-2.77069e-05
-1.59035e-05
-0.000124764
-2.52593e-05
-0.000188336
-2.99629e-05
-0.000188162
-2.3406e-05
-0.000173588
-1.16579e-05
-0.000185952
-0.000243299
-0.000118488
-3.53178e-05
-3.42713e-05
-0.000138171
-5.01391e-05
-0.000180159
-5.631e-05
-0.00022867
-8.04253e-05
-0.00027292
-9.41246e-05
-0.00027409
-4.31732e-05
-0.000326486
-0.000207707
-2.63344e-05
-6.6865e-05
-1.52587e-05
-6.75716e-05
-7.05232e-07
-6.39536e-05
-6.40042e-05
1.11888e-05
-0.000145758
-3.30302e-05
-0.000144374
-4.09797e-05
-0.000142455
-4.45027e-05
-4.69067e-05
-0.000141138
-0.000172809
-3.95971e-05
-0.000172946
-4.41977e-05
-0.00017062
-4.75684e-05
-4.84054e-05
-0.000170469
-0.000225829
-4.14723e-05
-0.000221095
-4.74842e-05
-0.000219268
-5.27249e-05
-5.38856e-05
-0.000217832
-0.000264325
-5.09315e-05
-0.000260082
-5.69635e-05
-0.000257316
-6.11768e-05
-6.2039e-05
-0.00024505
-0.00028328
-3.93365e-05
-0.000279326
-6.0677e-05
-0.000268885
-6.84322e-05
-7.05106e-05
-0.000254988
-0.00022281
-3.48677e-05
-0.000250062
-3.85251e-05
-0.000246615
-3.66095e-05
-4.47911e-05
-0.000245087
-0.000201981
-1.84503e-05
-0.000237718
-2.05314e-05
-0.000258703
-2.46236e-05
-3.91832e-05
-0.000100962
-0.000271837
-1.12584e-05
-0.000267313
-2.48344e-05
-0.000254282
-3.32728e-05
-3.98539e-05
-0.00012748
-0.000266547
-8.3962e-06
-0.000271803
-1.95345e-05
-0.000271397
-3.39119e-05
-4.38335e-05
-0.000266864
-0.000248966
-6.86183e-06
-0.000246971
-2.14726e-05
-0.000245229
-3.56283e-05
-4.73881e-05
-0.000241584
-0.000176713
-1.17213e-05
-0.000171285
-2.68874e-05
-0.00016546
-4.14437e-05
-5.50918e-05
-0.000157752
-4.18852e-05
-2.29542e-05
-3.1319e-05
-3.74298e-05
-1.8826e-05
-5.39115e-05
-6.4679e-05
-9.22221e-06
0.000112158
-3.34421e-05
0.00011954
-4.477e-05
0.00012356
-5.79002e-05
-6.40681e-05
0.000122959
0.000191477
-3.5131e-05
0.000191494
-4.47032e-05
0.000186854
-5.32355e-05
-5.9716e-05
0.000182515
0.000217064
-3.23041e-05
0.000213542
-4.11736e-05
0.000208092
-4.77709e-05
-5.35478e-05
0.000201987
0.000211433
0.000206251
0.000198955
0.000192166
-2.23327e-05
-0.000146806
-4.79024e-05
-6.96731e-05
-3.23449e-05
-6.18532e-05
-3.31102e-05
-1.82501e-05
-4.20653e-05
3.88821e-06
-4.6388e-05
1.88646e-05
-5.05697e-05
9.05118e-06
-4.74308e-05
-1.10491e-05
-3.28157e-05
-1.89616e-05
-3.86787e-06
-6.84109e-07
1.53976e-05
1.7014e-05
7.45734e-06
2.64737e-05
-1.52603e-05
-3.77657e-05
-3.66529e-05
-0.000133748
-4.32688e-05
-0.000189262
-3.6062e-05
-0.000207127
-2.73118e-05
-0.00020846
-1.13669e-05
-0.000228297
-0.000278237
-0.000127241
-0.00010799
-9.88994e-05
-9.47131e-05
-7.31911e-05
-5.69783e-05
-6.38809e-05
-9.35231e-06
-7.40177e-05
1.509e-05
-7.17727e-05
1.60742e-05
-6.65869e-05
-3.67389e-06
-6.01598e-05
-3.96825e-05
-4.70517e-05
-6.31012e-05
-2.8372e-05
-6.36667e-05
-7.01508e-06
-5.64112e-05
-2.94735e-06
-2.84114e-05
-2.36219e-05
-6.75415e-05
-3.74198e-05
-0.000130766
-3.49371e-05
-0.000175138
-2.1833e-05
-0.000204394
-1.03535e-05
-0.000157945
-7.31421e-07
-0.000164855
-0.000202962
-0.000168085
-0.000113629
-0.000148759
-0.000101076
-0.000130283
-6.07149e-05
-0.000117358
-1.21024e-05
-0.000109709
-3.82142e-07
-9.85134e-05
-1.58909e-05
-8.46453e-05
-5.33396e-05
-7.80737e-05
-9.21853e-05
-7.52518e-05
-0.000113405
-6.57491e-05
-0.000117406
-4.7183e-05
-0.0001089
-3.43845e-05
-8.59768e-05
-3.23476e-05
-9.02084e-05
-2.5901e-05
-0.000107051
-2.03603e-05
-0.000139741
-8.26642e-06
-0.000209273
3.42979e-06
-0.000127351
4.02032e-06
-0.000136034
-0.000148286
-0.000205592
-0.000127508
-0.000186941
-0.000115129
-0.000171044
-7.86998e-05
-0.000155098
-4.42628e-05
-0.000140401
-4.44701e-05
-0.000119618
-7.40279e-05
-0.000107504
-0.000109487
-0.000104366
-0.000130955
-0.000100202
-0.000140196
-8.92909e-05
-0.000137457
-7.24672e-05
-0.000123148
-5.44693e-05
-0.000103283
-3.79974e-05
-8.27177e-05
-2.37211e-05
-6.71742e-05
-1.68719e-05
-8.0766e-05
-4.53075e-06
-0.000130722
1.2622e-05
-0.000101535
1.06954e-05
-0.000122494
-0.000134537
-0.00022529
-0.000145497
-0.000209351
-0.000132256
-0.000192735
-0.000107178
-0.000177506
-8.66406e-05
-0.000160316
-9.09328e-05
-0.000142802
-0.000115529
-0.000132882
-0.000135036
-0.000125574
-0.000139311
-0.000116249
-0.000137673
-0.000103731
-0.000128189
-8.74276e-05
-0.000109308
-6.81105e-05
-8.49039e-05
-4.65412e-05
-5.99889e-05
-2.30382e-05
-4.80242e-05
-3.70873e-06
-5.12752e-05
1.38172e-05
-8.19925e-05
1.81401e-05
-8.98866e-05
9.17111e-06
-0.000111326
-0.000122129
-0.00023766
-0.000168593
-0.000224334
-0.000145615
-0.000209717
-0.00013254
-0.000194439
-0.000117946
-0.000177737
-0.00011425
-0.000162778
-0.000127337
-0.000152111
-0.000137735
-0.000140743
-0.00013542
-0.000128651
-0.000127282
-0.000115932
-0.00011367
-9.86674e-05
-9.46904e-05
-7.61658e-05
-6.85184e-05
-5.17153e-05
-4.95478e-05
-2.23399e-05
-4.99482e-05
5.27909e-07
-6.60902e-05
9.47987e-06
-9.03363e-05
5.27174e-06
-0.000108819
-4.95747e-07
-0.000121664
-0.000124583
-0.000245752
-0.000195145
-0.000234449
-0.00016965
-0.00022011
-0.000150388
-0.000201166
-0.000136787
-0.000182817
-0.000130917
-0.000167525
-0.000134007
-0.000154145
-0.000141341
-0.000139568
-0.000137574
-0.00012311
-0.000127565
-0.00010593
-0.000114271
-8.68155e-05
-9.90471e-05
-6.36572e-05
-8.14224e-05
-3.71931e-05
-6.95147e-05
-1.2502e-05
-7.15202e-05
-5.3573e-06
-8.50165e-05
-2.08457e-05
-8.92505e-05
-3.76867e-05
-4.8841e-05
-2.82009e-05
-0.000102277
-8.54935e-05
-0.000235316
-0.000138888
-0.000223603
-0.000187491
-0.000213456
-0.000185227
-0.000194452
-0.000157447
-0.000174353
-0.000146713
-0.000158149
-0.000141546
-0.000143214
-0.000146474
-0.000125867
-0.000146108
-0.000108799
-0.000138963
-9.2054e-05
-0.000129752
-7.33489e-05
-0.000118804
-5.55646e-05
-0.000110189
-4.12083e-05
-0.000102604
-3.32427e-05
-7.6932e-05
-3.08907e-05
-2.57322e-05
-4.54116e-05
-7.10867e-05
-9.05628e-05
2.26894e-05
-4.67463e-05
-0.000101096
-0.000138951
-0.00017084
-8.67573e-05
-0.000198642
-0.000141707
-0.00021468
-0.0001834
-0.000203636
-0.000201887
-0.000182409
-0.000174204
-0.000157589
-0.000156342
-0.000140643
-0.000150023
-0.000127247
-0.000157053
-0.000116769
-0.000165262
-0.000105515
-0.000129118
-9.55189e-05
-5.2208e-05
-9.35651e-05
-7.3871e-05
-9.63262e-05
-6.73496e-05
-0.000138935
-4.21926e-05
-0.000239455
4.35994e-05
-0.000189418
-9.96513e-05
-6.4519e-05
-0.000116996
-2.59199e-05
-0.000143791
-0.000168659
-0.000157631
-0.000123784
-0.000164584
-9.48565e-05
-0.00018573
-0.000117059
-0.000206428
-0.00013697
-0.000201335
-0.000155662
-0.00018198
-0.000180818
-0.000163451
-0.000163354
-0.000154972
-0.000155668
-0.000135977
-0.000113506
-0.000185604
-6.4336e-05
-0.000339165
7.25831e-05
-0.000432953
3.64758e-05
-0.000393555
-6.10605e-05
-0.000259176
-0.000107191
-0.000142795
-9.20009e-05
-0.000105022
-0.00014309
-6.61225e-05
-0.00016548
-3.28451e-05
-0.000179122
-0.000201495
-0.000213766
-0.000151972
-0.000156914
-0.00018623
-0.000114212
-0.000167329
-0.000137835
-9.65836e-05
-0.000173897
-0.000105095
-0.0002148
-0.000113356
-0.000245623
-0.000115428
-0.000288085
-9.76271e-05
-0.000316603
-5.58274e-05
-0.00030948
-2.10837e-05
-0.000261788
2.48375e-05
-0.00024944
2.25383e-05
-0.000251224
-5.48917e-05
-0.000233027
-0.000125857
-0.000163066
-0.000161801
-0.000100419
-0.000205646
-4.94157e-05
-0.000214186
-2.25711e-05
-0.000205241
-0.000223207
-0.0001436
-0.000166115
-0.000134517
-0.000195388
-0.000129022
-0.000191664
-0.000117736
-0.0001696
-0.000122273
-0.000128432
-0.000159852
-7.5486e-05
-0.0002049
-6.71975e-05
-0.000218378
-8.28967e-05
-0.000205276
-6.91178e-05
-0.000213415
-1.17513e-05
-0.000208349
2.09043e-05
-0.000193084
9.73953e-06
-0.000176117
-6.89657e-05
-0.000148165
-0.000151342
-0.000112242
-0.000197096
-7.15791e-05
-0.000246364
-3.56507e-05
-0.000250513
-1.3979e-05
-0.000227495
-0.000236411
8.10499e-06
-0.000183412
-4.59913e-06
-0.000182672
-3.07727e-05
-0.000165491
-4.79625e-05
-0.00015232
-5.08852e-05
-0.000124597
-3.61032e-05
-8.88033e-05
-4.09896e-05
-5.90439e-05
-7.37711e-05
-4.69085e-05
-0.000113932
-2.8785e-05
-0.000120766
-6.68979e-06
-9.44721e-05
-6.55943e-06
-6.09981e-05
-2.46718e-05
-3.94158e-05
-9.17406e-05
-4.75996e-05
-0.000142688
-4.28957e-05
-0.000198984
-2.46392e-05
-0.00026392
-1.05395e-05
-0.000265053
-1.75902e-06
-0.000236841
-0.000237736
0.000114694
-0.000175145
0.000100793
-0.000168774
7.87711e-05
-0.000143468
4.77879e-05
-0.000121348
3.03791e-05
-0.000107202
3.02875e-05
-8.86979e-05
3.36543e-05
-6.25248e-05
3.23603e-05
-4.64374e-05
2.8019e-05
-2.51859e-05
3.26688e-05
-1.4374e-05
5.1051e-05
-2.36569e-05
7.59682e-05
-4.79826e-05
7.51798e-05
-8.91258e-05
5.07797e-05
-0.000117775
3.6104e-05
-0.000184712
2.69993e-05
-0.000254199
2.08015e-05
-0.00025875
1.28667e-05
-0.000229256
-0.000224841
0.000163474
-0.000156118
0.000142978
-0.000148281
0.000115359
-0.00011586
8.33913e-05
-8.93953e-05
6.18395e-05
-8.5658e-05
5.14935e-05
-7.83611e-05
5.42049e-05
-6.51861e-05
5.97516e-05
-5.40973e-05
7.29175e-05
-3.69455e-05
9.77082e-05
-3.89949e-05
0.000124376
-4.9333e-05
0.000135834
-5.80429e-05
0.000118449
-7.15873e-05
9.35003e-05
-9.39907e-05
7.72989e-05
-0.000168632
5.587e-05
-0.00023218
3.76382e-05
-0.000239993
1.88918e-05
-0.000210885
-0.000206227
0.000183008
-0.000137145
0.000160375
-0.000125611
0.000134275
-8.97659e-05
0.000111641
-6.67769e-05
9.02385e-05
-6.42485e-05
7.4412e-05
-6.25338e-05
6.75881e-05
-5.83543e-05
6.47721e-05
-5.29083e-05
6.88914e-05
-3.99135e-05
7.36444e-05
-4.37507e-05
8.274e-05
-5.97692e-05
9.0444e-05
-6.6699e-05
9.41377e-05
-7.54675e-05
9.72526e-05
-9.71288e-05
9.18e-05
-0.000163391
7.0512e-05
-0.000210481
4.47781e-05
-0.000214468
1.9872e-05
-0.000186259
-0.000186614
0.000174405
0.000155483
0.000136275
0.000113928
9.3415e-05
8.13506e-05
7.53906e-05
7.2164e-05
7.53149e-05
7.64507e-05
7.53117e-05
8.37583e-05
9.60815e-05
0.000107026
9.959e-05
7.49435e-05
4.31822e-05
1.43255e-05
)
;

boundaryField
{
    leftWall
    {
        type            fixedValue;
        value           nonuniform 0();
    }
    rightWall
    {
        type            fixedValue;
        value           uniform 0;
    }
    lowerWall
    {
        type            fixedValue;
        value           uniform 0;
    }
    atmosphere
    {
        type            calculated;
        value           nonuniform 0();
    }
    defaultFaces
    {
        type            empty;
        value           nonuniform 0();
    }
    procBoundary1to0
    {
        type            processor;
        value           nonuniform List<scalar> 
26
(
2.14237e-06
2.25494e-07
-6.38994e-08
1.51955e-07
8.67436e-07
3.88355e-06
1.84871e-05
1.58859e-05
2.41712e-05
9.01936e-05
0.000186597
0.000239297
0.000279092
0.000287323
0.000315278
0.0002663
-2.35992e-06
0.000264516
0.000263422
0.000247421
0.000181647
5.31601e-05
-0.000101608
-0.000189706
-0.000219875
-0.000215454
)
;
    }
    procBoundary1to3
    {
        type            processor;
        value           nonuniform List<scalar> 
23
(
-2.82994e-05
-3.60013e-05
-4.04906e-05
-4.67632e-05
-0.000119381
-0.000106649
-7.05546e-05
-4.44288e-05
-4.37273e-05
-5.04668e-05
-5.23933e-05
-5.04176e-05
-4.14071e-05
-4.33769e-05
-5.80848e-05
-7.49241e-05
-8.77161e-05
-0.000107923
-0.000155917
-0.00018586
-0.000182638
-0.000157421
-0.000172472
)
;
    }
}


// ************************************************************************* //
