/*--------------------------------*- C++ -*----------------------------------*\
| =========                 |                                                 |
| \\      /  F ield         | OpenFOAM: The Open Source CFD Toolbox           |
|  \\    /   O peration     | Version:  2.4.0                                 |
|   \\  /    A nd           | Web:      www.OpenFOAM.org                      |
|    \\/     M anipulation  |                                                 |
\*---------------------------------------------------------------------------*/
FoamFile
{
    version     2.0;
    format      ascii;
    class       surfaceScalarField;
    location    "0.95";
    object      phi.oil;
}
// * * * * * * * * * * * * * * * * * * * * * * * * * * * * * * * * * * * * * //

dimensions      [0 3 -1 0 0 0 0];

internalField   nonuniform List<scalar> 
1061
(
-2.85932e-07
-2.61608e-07
-4.55467e-08
-8.86046e-07
9.40239e-07
5.87063e-05
-2.01707e-05
-3.80689e-05
9.60103e-06
3.68799e-05
1.86059e-05
3.77013e-05
2.21899e-05
5.13883e-05
2.68265e-05
5.54042e-05
2.89032e-05
6.24181e-05
2.87212e-05
6.69149e-05
2.82011e-05
6.84608e-05
2.72958e-05
6.7376e-05
2.28159e-05
7.12461e-05
2.19369e-05
7.12884e-05
2.05483e-05
6.24003e-05
1.87934e-05
5.5907e-05
1.91601e-05
4.75644e-05
2.27109e-05
4.65945e-05
1.59693e-05
5.54012e-05
2.52501e-06
6.03642e-05
-5.02708e-06
5.63148e-05
-9.30784e-06
4.93086e-05
3.4371e-05
1.49191e-05
-3.86227e-06
2.42935e-05
-5.79423e-06
2.85418e-05
1.26178e-07
3.27446e-05
8.68017e-07
3.32653e-05
5.05515e-06
2.80404e-05
1.09766e-05
2.48367e-05
1.55107e-05
2.4585e-05
1.17621e-05
2.15143e-05
1.40522e-05
6.5687e-06
2.79516e-05
-3.51804e-06
2.61242e-05
-7.37418e-06
2.52452e-05
-1.03245e-05
2.93168e-05
-3.52333e-06
1.74786e-05
1.33623e-06
1.85543e-05
-4.86234e-06
4.20372e-05
-6.27757e-06
4.40776e-05
-1.00545e-05
3.18466e-05
1.3895e-05
7.26026e-06
-5.63887e-05
5.74445e-06
-3.22213e-05
1.21373e-05
-1.58891e-05
1.61439e-05
-1.07858e-05
1.71795e-05
-7.33789e-07
1.76323e-05
1.40376e-05
1.49486e-05
2.65134e-05
6.93426e-06
3.27773e-05
-9.67018e-06
5.57021e-05
-3.93317e-05
7.48973e-05
-5.01058e-05
5.49902e-05
-4.68646e-05
4.73395e-05
-4.01058e-05
4.33606e-05
-3.06884e-05
2.37889e-05
-1.28351e-05
1.84369e-05
-8.08012e-06
4.67766e-05
-7.28942e-06
5.75976e-05
-5.67513e-06
4.54438e-05
1.4108e-05
7.52807e-06
-5.72332e-05
1.38905e-05
-3.12526e-05
1.85168e-05
-1.78616e-05
2.07913e-05
-1.46818e-05
2.00301e-05
-4.5993e-06
1.62361e-05
8.27564e-06
8.7452e-06
1.7169e-05
-1.31053e-06
2.6859e-05
-1.60344e-05
5.29989e-05
-3.05989e-05
7.67714e-05
-4.55937e-05
4.84922e-05
-4.3988e-05
2.60952e-05
-4.29538e-05
2.1994e-05
-3.75744e-05
5.43072e-06
-2.86407e-05
-5.37824e-06
-1.70676e-05
2.08722e-05
-7.35854e-06
4.66587e-05
-5.14042e-06
2.97003e-05
8.39443e-06
1.93287e-06
-4.87526e-05
8.64075e-07
-3.12778e-05
4.2607e-06
-2.25967e-05
2.85764e-06
-1.36495e-05
3.12159e-06
-5.2131e-06
-1.12574e-06
1.02754e-05
-1.78968e-06
2.52492e-05
3.07772e-07
3.75002e-05
-1.12683e-06
6.23432e-05
-1.03951e-05
8.49588e-05
-2.37303e-05
5.10341e-05
-3.17714e-05
1.30089e-05
-3.77404e-05
4.22995e-06
-3.7459e-05
-1.54125e-05
-3.86089e-05
-1.67941e-05
-2.28867e-05
1.3099e-05
-8.96671e-06
3.77387e-05
-2.66732e-06
2.9384e-05
7.1234e-06
5.92363e-06
-4.40122e-05
8.51977e-06
-3.06807e-05
1.22298e-05
-2.59993e-05
1.07088e-05
-1.19677e-05
5.52936e-06
1.85998e-07
-3.91741e-06
1.94867e-05
-1.24885e-05
2.57964e-05
-1.20761e-05
2.48978e-05
-2.87365e-06
4.82076e-05
-2.74412e-06
8.49221e-05
-1.76762e-05
6.55142e-05
-2.61485e-05
2.23357e-05
-2.31458e-05
-5.79327e-07
-2.88746e-05
-1.63688e-05
-3.29653e-05
-2.48382e-05
-2.66148e-05
5.10408e-06
-1.02627e-05
2.46578e-05
-1.16478e-06
1.95854e-05
3.62293e-06
5.43101e-06
-4.79691e-05
6.73153e-06
-3.12892e-05
5.84762e-06
-2.57446e-05
-6.85046e-07
-6.46645e-06
-5.02267e-06
3.68409e-06
-1.08284e-05
2.60164e-05
-1.48857e-05
3.26656e-05
-1.11139e-05
2.61569e-05
-2.93087e-06
4.11589e-05
3.92138e-06
7.76904e-05
-6.6207e-06
7.67199e-05
-2.1745e-05
3.62808e-05
-2.59178e-05
4.78609e-06
-2.2532e-05
-2.04645e-05
-2.78775e-05
-2.59131e-05
-2.87986e-05
-5.61976e-06
-1.43956e-05
1.19807e-05
-2.76109e-06
1.20613e-05
2.62768e-06
4.16576e-06
-5.17496e-05
5.06697e-06
-3.11339e-05
6.68536e-06
-2.71637e-05
1.87875e-06
-9.42847e-07
-9.85116e-06
1.5936e-05
-1.77434e-05
3.38822e-05
-1.86614e-05
3.14458e-05
-1.80092e-05
2.071e-05
-6.82523e-06
2.92918e-05
6.24339e-06
6.44291e-05
2.82558e-06
7.96489e-05
-1.43722e-05
5.33368e-05
-2.21514e-05
1.29337e-05
-2.17071e-05
-2.04415e-05
-2.32156e-05
-2.53002e-05
-2.85057e-05
-1.44719e-05
-2.82229e-05
-1.11863e-05
-1.20697e-05
-2.52311e-05
-3.04703e-05
-8.35012e-06
-8.31717e-05
2.07396e-05
-9.91311e-05
1.03557e-05
-0.000153352
-7.6608e-06
-0.000214406
-4.59418e-05
-0.000281145
-0.000132056
-0.00030397
-0.000137097
-0.000328559
-0.000216911
-6.12547e-05
-1.77892e-05
-3.65359e-05
-2.12858e-05
-1.3231e-05
-1.98737e-05
-2.27745e-05
1.37284e-05
-0.000112623
-5.5892e-06
-0.000119692
-1.58691e-05
-0.000119933
-2.07073e-05
-2.48986e-05
-0.00011861
-0.000145126
-1.36431e-05
-0.000142917
-1.76988e-05
-0.000140997
-2.24007e-05
-2.38595e-05
-0.000141855
-0.00021163
-1.60451e-05
-0.000207708
-2.14589e-05
-0.00020235
-2.7279e-05
-2.78689e-05
-0.000197846
-0.000272404
-3.02681e-05
-0.000263607
-3.21915e-05
-0.000255192
-3.56859e-05
-3.643e-05
-0.000246945
-0.000307982
-7.04052e-05
-0.000304883
-6.74547e-05
-0.000296489
-6.35518e-05
-5.75515e-05
-0.000282822
-0.000316898
-5.36697e-05
-0.000299206
-7.1538e-05
-0.000291384
-8.38138e-05
-7.56969e-05
-0.000291507
-0.000259106
-2.95652e-05
-0.00024297
-5.19828e-05
-0.000249388
-5.09836e-05
-4.76485e-05
-0.000241979
-0.000268931
-1.34372e-05
-0.000263691
-2.72534e-05
-0.000252444
-3.69067e-05
-4.86583e-05
-0.000127211
-0.000266419
-1.23103e-05
-0.00027079
-2.31379e-05
-0.000272648
-3.74588e-05
-4.73715e-05
-0.000213793
-0.000250179
-1.26098e-05
-0.000245612
-2.56478e-05
-0.00024014
-3.93665e-05
-5.02503e-05
-0.000234371
-0.000172354
-1.64588e-05
-0.000157943
-3.10207e-05
-0.000159265
-4.44781e-05
-5.7329e-05
-0.000150632
-4.33669e-05
-1.96232e-05
-3.0697e-05
-3.55023e-05
-1.53587e-05
-5.20609e-05
-6.34295e-05
-3.07627e-06
0.000112226
-1.79447e-05
0.00012504
-2.33551e-05
0.000128677
-3.70087e-05
-5.80076e-05
0.000129507
0.000187011
-1.3201e-05
0.000194566
-2.2237e-05
0.000175443
-3.4002e-05
-5.06565e-05
0.000186826
0.000197482
-1.50126e-05
0.000197464
-2.32114e-05
0.000184827
-2.51534e-05
-3.84496e-05
0.000200566
0.000181831
0.000154332
0.000202301
0.000176276
6.22272e-07
-3.8988e-05
-1.44386e-05
-1.61738e-05
-2.25148e-05
-1.82299e-05
-3.49032e-05
1.07813e-05
-4.46285e-05
2.55712e-05
-4.95872e-05
4.04996e-05
-5.10936e-05
3.44795e-05
-4.53414e-05
1.63056e-05
-2.93863e-05
1.2466e-05
3.63641e-06
3.18196e-05
2.15447e-05
6.07114e-05
5.29211e-06
6.96906e-05
-2.69554e-05
4.6471e-05
-5.3289e-05
8.15552e-06
-7.36129e-05
-4.55326e-06
-7.70208e-05
-1.35155e-05
-6.3355e-05
-2.97546e-05
-3.44929e-05
-5.61673e-05
-6.54311e-05
-9.85948e-05
-5.82608e-05
-7.26417e-05
-4.08803e-05
-6.6196e-05
-2.38098e-05
-7.17466e-05
1.71597e-05
-7.98957e-05
3.41197e-05
-7.51129e-05
3.69273e-05
-6.6273e-05
2.53604e-05
-5.56628e-05
5.43679e-06
-3.85924e-05
-3.8342e-06
-1.19746e-05
6.40846e-06
1.34912e-05
3.62588e-05
1.39647e-05
6.86353e-05
-5.77126e-06
6.96913e-05
-3.80688e-05
4.24178e-05
-5.6227e-05
1.38967e-05
-5.62777e-05
-1.46614e-05
-4.43882e-05
-4.50867e-05
-1.98686e-05
-8.22281e-05
-8.44252e-05
-0.00014197
-5.73383e-05
-0.000131222
-5.16537e-05
-0.0001283
-2.6416e-05
-0.000124194
1.39952e-05
-0.000115399
2.67073e-05
-9.80157e-05
2.05309e-05
-7.63517e-05
4.39022e-06
-5.79438e-05
-1.20194e-05
-4.27996e-05
-1.88947e-05
-2.54865e-05
-1.17144e-05
-3.31216e-06
1.23526e-05
9.25502e-06
5.40698e-05
8.62801e-06
7.06674e-05
-3.29806e-06
5.41726e-05
-6.60045e-06
1.72413e-05
-5.02368e-07
-2.08219e-05
1.17481e-06
-4.84177e-05
2.05415e-06
-8.42475e-05
-8.32396e-05
-0.000188322
-6.64576e-05
-0.000180176
-5.96915e-05
-0.000175405
-3.06612e-05
-0.000160494
5.33487e-07
-0.000138853
6.72375e-06
-0.000111275
-6.23685e-06
-8.38028e-05
-2.23856e-05
-6.4664e-05
-3.15807e-05
-5.2976e-05
-3.25282e-05
-4.22149e-05
-2.53419e-05
-2.87086e-05
-5.34425e-06
-1.18496e-05
3.32173e-05
-1.42654e-06
5.82408e-05
-1.60971e-06
5.47903e-05
5.35166e-06
1.19287e-05
1.79753e-05
-3.28053e-05
2.05409e-05
-5.07104e-05
1.07491e-05
-7.6387e-05
-7.49386e-05
-0.000228372
-8.54534e-05
-0.000214766
-7.33198e-05
-0.00020016
-4.52815e-05
-0.00017866
-2.01661e-05
-0.000152408
-1.84782e-05
-0.000126558
-3.15565e-05
-0.000106241
-4.24655e-05
-9.39225e-05
-4.44666e-05
-8.43687e-05
-4.33945e-05
-7.42049e-05
-3.77265e-05
-6.24911e-05
-2.00069e-05
-4.56082e-05
1.45729e-05
-2.64721e-05
3.81871e-05
-8.02375e-06
3.69404e-05
7.32709e-06
-1.70815e-06
2.19832e-05
-4.71805e-05
2.63811e-05
-5.76333e-05
1.3195e-05
-7.42193e-05
-7.41403e-05
-0.000261768
-0.000109981
-0.000246148
-8.95729e-05
-0.000224339
-6.70681e-05
-0.000202873
-4.20413e-05
-0.000184905
-3.67047e-05
-0.000166857
-4.91527e-05
-0.000149621
-5.97141e-05
-0.000133946
-6.02743e-05
-0.000120011
-5.71787e-05
-0.000108719
-4.90032e-05
-9.56988e-05
-3.31559e-05
-7.26972e-05
-7.23191e-06
-4.50153e-05
1.12808e-05
-1.16092e-05
4.79635e-06
1.27732e-05
-2.77603e-05
2.05616e-05
-7.07669e-05
1.19339e-05
-0.000102587
1.74928e-06
-0.000132211
-0.000136223
-0.00028578
-0.000177983
-0.000268936
-0.000120686
-0.000246899
-9.1345e-05
-0.000221438
-7.00299e-05
-0.000199459
-6.10815e-05
-0.000178545
-6.96601e-05
-0.000156278
-8.09852e-05
-0.000135657
-8.04168e-05
-0.000117984
-7.52494e-05
-0.000103314
-6.52278e-05
-8.61932e-05
-5.30226e-05
-5.98478e-05
-3.73823e-05
-2.70668e-05
-2.74258e-05
-3.67397e-07
-3.95576e-05
2.56025e-06
-7.62075e-05
-1.96737e-05
-0.000149949
-4.11874e-05
-0.000240904
-3.17371e-05
-0.000144781
-0.000143441
-0.000260463
-0.000212687
-0.000262408
-0.000196192
-0.000248151
-0.000149962
-0.000213275
-0.000112638
-0.000180927
-0.000100186
-0.000158
-9.99919e-05
-0.000136821
-0.000108872
-0.000115029
-0.000110013
-9.62714e-05
-0.000106947
-8.07341e-05
-0.000103803
-6.59186e-05
-0.000104854
-5.18064e-05
-0.000103663
-3.73822e-05
-0.000111004
-3.26478e-05
-0.000169156
-4.54676e-05
-0.000153816
-6.88732e-05
-0.00013399
-7.60632e-05
-0.000219557
-5.43666e-05
-0.000157693
-0.000175899
-0.000195761
-0.000160398
-0.000217266
-0.000231847
-0.000226029
-0.000224117
-0.000213953
-0.000188361
-0.000180767
-0.00016277
-0.000153008
-0.000149899
-0.000133649
-0.000152306
-0.000119337
-0.000162636
-0.000109934
-0.00017517
-0.00010117
-0.000216823
-9.25771e-05
-0.000356415
-9.13322e-05
-0.000105677
-0.000111152
-0.000114221
-0.000122225
-0.000162813
-0.000158727
-0.000139245
-0.0001449
-0.000136725
-5.91353e-05
-0.000148525
-2.74066e-05
-0.000172475
-0.000182936
-0.000145095
-0.000132732
-0.000160906
-0.000153558
-0.000182981
-0.000240669
-0.000200928
-0.000267997
-0.000194739
-0.00027091
-0.000173116
-0.000270671
-0.000155482
-0.00026751
-0.000149539
-0.0004599
-0.000172056
-0.000147254
-0.000302715
-0.000159146
-0.000334786
-0.000286067
-0.000287774
-2.07327e-05
-0.00026506
-6.72351e-05
-0.000210827
-0.000113795
-0.000131597
-0.00014915
-8.404e-05
-0.000190978
-5.54447e-05
-0.000205684
-3.10428e-05
-0.000195562
-0.000210793
-0.000207023
-0.000158095
-0.000114699
-0.000192638
-0.000147666
-0.000169494
-0.000168772
-0.000179863
-0.00020644
-0.000197289
-0.000255149
-0.000179234
-0.000431049
-0.000186779
-0.000374331
-0.000384306
-0.000318296
-9.03811e-05
-0.000311842
-2.99937e-05
-0.000270541
6.52864e-06
-0.000244438
1.37275e-05
-0.000227048
-6.11809e-05
-0.000173806
-0.000143756
-0.000132321
-0.000148086
-8.1662e-05
-0.000190849
-4.31006e-05
-0.000174315
-2.23562e-05
-0.00019558
-0.000230442
-0.000134619
-0.000168985
-0.00012498
-0.000195828
-0.000112004
-0.00018932
-0.000104389
-0.000162925
-0.000110373
-0.000132376
-0.000162228
-8.15054e-05
-0.000203409
-7.39673e-05
-0.000220064
-8.25975e-05
-0.000210542
-7.46894e-05
-0.000217822
-1.25126e-05
-0.000212884
1.71525e-05
-0.000185561
4.21042e-06
-0.000162068
-7.55844e-05
-0.00013488
-0.000161704
-0.000108484
-0.000205756
-7.03003e-05
-0.000242309
-3.35608e-05
-0.00025237
-1.11729e-05
-0.000230788
-0.000244689
1.62015e-05
-0.000180703
3.52876e-06
-0.000182972
-2.18951e-05
-0.000164634
-4.29213e-05
-0.000129819
-4.9295e-05
-0.000118905
-3.65362e-05
-8.93341e-05
-4.03936e-05
-5.87296e-05
-7.44714e-05
-4.49409e-05
-0.000116275
-3.12744e-05
-0.000126601
-1.1329e-05
-0.000102728
-9.94375e-06
-6.47335e-05
-2.59934e-05
-3.56058e-05
-8.84581e-05
-3.82002e-05
-0.000139974
-3.8549e-05
-0.000201131
-2.20781e-05
-0.000266408
-9.00204e-06
-0.000266709
1.25064e-07
-0.000239812
-0.000216124
0.000121139
-0.000174039
0.000107343
-0.000158347
7.84994e-05
-0.000120774
5.14062e-05
-0.000126217
2.97053e-05
-0.000110931
2.9937e-05
-9.04962e-05
3.36958e-05
-6.32861e-05
3.03347e-05
-4.69483e-05
2.40049e-05
-2.22653e-05
2.82286e-05
-1.48071e-05
4.39156e-05
-2.60604e-05
7.2654e-05
-4.66278e-05
7.90664e-05
-8.29498e-05
5.70158e-05
-0.000110757
4.18545e-05
-0.000182731
2.94617e-05
-0.000254234
2.07343e-05
-0.00025996
1.08668e-05
-0.000232213
-0.000230188
0.000159362
-0.000148703
0.000142674
-0.000123941
0.000130805
-0.000117172
8.46817e-05
-0.000103653
5.74732e-05
-9.27644e-05
5.021e-05
-7.93301e-05
5.37848e-05
-6.57171e-05
6.11016e-05
-5.44973e-05
6.59859e-05
-3.73319e-05
9.32494e-05
-3.86997e-05
0.000121331
-5.2662e-05
0.000133797
-5.94369e-05
0.000118736
-7.08333e-05
9.46709e-05
-9.29939e-05
7.80436e-05
-0.000165632
5.85905e-05
-0.000228953
3.54637e-05
-0.000240734
1.41836e-05
-0.000186762
-0.000221956
0.000159983
-0.000130012
0.000181777
-0.000122636
0.000150003
-0.000100326
0.000104414
-8.00235e-05
8.81322e-05
-7.0044e-05
7.20043e-05
-6.44173e-05
6.71881e-05
-5.91535e-05
6.57481e-05
-5.32991e-05
6.64987e-05
-4.01936e-05
6.74532e-05
-4.43563e-05
8.09086e-05
-5.91507e-05
8.95303e-05
-6.66271e-05
9.54272e-05
-7.62998e-05
9.22396e-05
-9.7161e-05
8.69379e-05
-0.000152689
7.13347e-05
-0.000202057
3.04613e-05
-0.000215302
1.7801e-05
-0.000183482
-0.000203652
0.000165694
0.000175091
0.00014754
0.000104838
8.914e-05
8.00182e-05
7.50554e-05
7.2217e-05
7.46172e-05
7.44708e-05
7.15181e-05
8.17931e-05
9.63225e-05
9.18692e-05
9.37761e-05
6.93792e-05
2.66144e-05
1.45339e-05
)
;

boundaryField
{
    leftWall
    {
        type            fixedValue;
        value           nonuniform 0();
    }
    rightWall
    {
        type            fixedValue;
        value           uniform 0;
    }
    lowerWall
    {
        type            fixedValue;
        value           uniform 0;
    }
    atmosphere
    {
        type            calculated;
        value           nonuniform 0();
    }
    defaultFaces
    {
        type            empty;
        value           nonuniform 0();
    }
    procBoundary1to0
    {
        type            processor;
        value           nonuniform List<scalar> 
26
(
2.14405e-06
2.28876e-07
-6.73376e-08
1.75434e-07
8.45925e-07
4.68706e-06
1.65008e-05
3.10508e-05
4.71219e-05
7.45054e-05
0.000165388
0.000232491
0.000276125
0.000285775
0.000339395
0.000216565
-5.58408e-05
0.000261643
0.000261703
0.00024485
0.000180901
5.64808e-05
-9.83209e-05
-0.000171886
-0.000197447
-0.000188548
)
;
    }
    procBoundary1to3
    {
        type            processor;
        value           nonuniform List<scalar> 
23
(
-1.62221e-05
-2.20825e-05
-3.88471e-05
-4.60457e-05
-0.000110573
-9.3352e-05
-7.62066e-05
-5.19518e-05
-4.77211e-05
-5.19911e-05
-5.30814e-05
-5.07584e-05
-4.13414e-05
-4.23896e-05
-5.42054e-05
-6.12015e-05
-7.22319e-05
-8.72488e-05
-0.000149388
-0.000185646
-0.000181599
-0.000169395
-0.000163074
)
;
    }
}


// ************************************************************************* //
