/*--------------------------------*- C++ -*----------------------------------*\
| =========                 |                                                 |
| \\      /  F ield         | OpenFOAM: The Open Source CFD Toolbox           |
|  \\    /   O peration     | Version:  2.4.0                                 |
|   \\  /    A nd           | Web:      www.OpenFOAM.org                      |
|    \\/     M anipulation  |                                                 |
\*---------------------------------------------------------------------------*/
FoamFile
{
    version     2.0;
    format      ascii;
    class       surfaceScalarField;
    location    "0.95";
    object      phi.air;
}
// * * * * * * * * * * * * * * * * * * * * * * * * * * * * * * * * * * * * * //

dimensions      [0 3 -1 0 0 0 0];

internalField   nonuniform List<scalar> 
1061
(
-2.14231e-06
-2.36768e-06
-2.29482e-06
-1.03995e-06
1.6712e-06
-2.82782e-05
-0.000123671
0.000174661
7.63357e-06
0.000207777
1.77907e-05
0.000209555
2.26616e-05
8.26385e-05
2.70596e-05
-1.33719e-05
2.92329e-05
-2.42877e-05
2.94057e-05
-2.45882e-05
2.91429e-05
-2.25984e-05
2.90912e-05
-1.98106e-05
2.65677e-05
9.63645e-06
2.45966e-05
0.000107427
2.32371e-05
0.000106791
2.12554e-05
4.12501e-05
2.15688e-05
4.03986e-05
2.41632e-05
4.42293e-05
1.97241e-05
2.75969e-05
5.30021e-06
1.58194e-05
-4.44619e-06
2.67641e-05
-8.31853e-06
1.43936e-05
-1.68119e-06
2.57852e-05
9.34146e-06
4.45301e-05
-0.000236606
3.18202e-05
-0.000303732
3.19582e-05
-6.18621e-05
3.47091e-05
-3.79547e-05
3.28167e-05
-2.54955e-05
3.06699e-05
-2.91012e-05
2.8475e-05
-2.9524e-05
1.56839e-05
-5.44859e-05
-5.66569e-06
-7.52818e-05
-1.01648e-05
5.75062e-06
-8.53404e-06
1.0802e-05
-1.14045e-05
1.91748e-05
-3.77001e-06
1.05629e-05
3.07305e-06
3.67313e-06
-4.94213e-07
2.29935e-05
-5.55796e-06
2.2129e-05
-8.76399e-06
1.25306e-05
-1.2581e-05
-1.28889e-05
6.08967e-05
-1.52024e-05
0.000116836
8.91577e-06
0.000200197
1.61944e-05
0.000172845
1.85519e-05
8.07897e-05
1.86647e-05
3.47124e-05
1.58205e-05
3.56898e-05
5.44688e-06
3.73606e-05
-2.34222e-05
0.000206539
-4.90821e-05
0.000164884
-5.57378e-05
0.00013296
-4.70796e-05
0.000110105
-3.8833e-05
4.12708e-05
-2.91513e-05
-1.98463e-05
-1.11196e-05
-1.19058e-05
-4.08856e-06
1.98034e-05
-6.30503e-06
2.60617e-05
-5.0258e-06
1.35278e-05
-1.62136e-05
1.48082e-05
2.63114e-05
2.8028e-05
3.22834e-06
2.40464e-05
-6.92252e-05
2.34146e-05
-0.000111369
1.90152e-05
-6.03737e-05
1.65359e-05
-2.50721e-05
1.01107e-05
-1.4709e-05
-1.30574e-05
-3.48365e-07
-3.29554e-05
-3.55511e-05
-2.7089e-05
6.94109e-05
-4.36002e-05
3.18103e-05
-4.48307e-05
-1.72821e-06
-4.38994e-05
-3.41462e-05
-3.57974e-05
-3.51637e-05
-2.42773e-05
-2.82739e-05
-1.23896e-05
-3.8482e-07
-6.77098e-06
2.07824e-05
-3.87282e-06
5.61975e-06
-2.06441e-05
3.03413e-06
2.67736e-05
-5.8388e-06
4.41997e-05
-1.47164e-06
9.24507e-05
2.23914e-06
0.00016768
2.64312e-06
0.000148875
-1.56996e-06
6.07861e-05
-1.53155e-06
4.22494e-05
8.32283e-07
3.78758e-05
1.35928e-05
8.31714e-05
2.03725e-05
0.000118048
-1.39469e-05
1.49352e-05
-2.7113e-05
-6.56031e-05
-3.43147e-05
-6.28457e-05
-3.56691e-05
-6.44611e-05
-3.40845e-05
4.41528e-06
-1.90363e-05
9.1253e-06
-8.25695e-06
7.66189e-06
-2.32492e-06
-1.19935e-06
-2.21615e-05
8.60187e-06
3.40886e-05
1.85864e-05
3.59367e-05
1.77276e-05
1.83098e-05
1.26354e-05
-3.1281e-05
2.7821e-07
-0.000100573
-6.3854e-06
3.08002e-06
-1.3298e-05
7.67571e-06
-1.26631e-05
1.22263e-05
-1.46352e-06
4.0651e-05
2.53201e-05
0.000119153
-1.37827e-05
0.000126763
-2.65852e-05
4.56237e-05
-1.35071e-05
3.65307e-05
-2.21687e-05
-2.28894e-06
-4.20821e-05
-1.55148e-05
-2.59176e-05
5.30954e-05
-9.73887e-06
3.07949e-05
-1.39905e-06
3.40507e-06
-5.0069e-06
5.4791e-06
1.61545e-05
1.36035e-05
4.21261e-05
-5.4508e-07
5.66721e-05
-1.09377e-05
0.000129609
-1.5375e-05
0.000151948
-1.22145e-05
3.92433e-05
-1.50488e-05
2.83916e-05
-1.09434e-05
1.7194e-05
-3.2822e-06
2.93615e-05
1.0653e-05
6.93258e-05
-2.41752e-07
9.13327e-05
-2.06914e-05
3.50811e-05
-2.59844e-05
9.25095e-06
-6.92749e-06
4.11956e-05
-3.24002e-05
-4.39128e-07
-3.34717e-05
-1.06392e-05
-1.42471e-05
5.30293e-05
-2.93981e-06
3.71232e-05
-3.56639e-05
5.12601e-06
-2.00093e-05
1.50526e-05
1.54141e-05
1.14562e-05
3.17596e-05
-1.90107e-06
2.83988e-05
-2.11086e-05
2.84565e-05
-1.88265e-05
3.65514e-05
-1.86879e-05
2.27878e-05
-1.79119e-05
2.99353e-05
-7.61214e-06
7.35256e-05
4.78378e-06
0.00010362
3.75696e-06
9.44126e-05
-1.28225e-05
5.17812e-05
-1.66439e-05
3.37963e-05
-1.06861e-05
3.41331e-05
-4.52587e-07
1.62241e-05
-7.79054e-06
-9.69147e-05
-3.86046e-05
-0.000217272
-1.46649e-05
-0.000193526
-0.000147087
-6.10941e-05
-0.00011425
0.000117586
-7.0976e-06
8.14038e-05
-0.000130739
5.55256e-05
-0.000212881
0.000183348
-0.00028519
8.87002e-05
-0.000308417
5.9343e-05
-0.000329138
-0.000207694
-5.36647e-05
-1.79561e-05
-1.91157e-05
-2.95095e-05
6.11598e-07
-3.18258e-05
-2.97681e-05
6.27455e-05
-7.09467e-05
6.77581e-06
-0.000109898
-1.4781e-05
-0.000106609
-2.1752e-05
-2.11868e-05
-0.000101023
-0.00014251
-1.05183e-05
-0.000138516
-1.38848e-05
-0.000136532
-1.82287e-05
-2.04292e-05
-0.000138787
-0.000211536
1.3993e-05
-0.000207975
-8.44803e-06
-0.000201035
-2.33696e-05
-2.58341e-05
-0.000194603
-0.000276718
4.55349e-05
-0.000261687
3.03996e-05
-0.000253391
1.26945e-05
4.49211e-06
-0.000245361
-0.000321867
1.60208e-05
-0.000353557
8.13621e-06
-0.000338285
8.1336e-06
1.60888e-06
-0.000310681
-0.000342395
-1.1844e-05
-0.000331807
-5.33647e-05
-0.000318461
-6.23679e-05
-4.27219e-05
-0.000327141
-0.000201778
-1.83037e-05
-0.000236328
-2.03673e-05
-0.000283784
-2.03652e-05
-2.59145e-05
-0.000319507
-0.000271877
-1.12001e-05
-0.000267466
-2.47782e-05
-0.000254601
-3.32419e-05
-3.9831e-05
-0.000240986
-0.000266523
-8.28688e-06
-0.000271842
-1.94593e-05
-0.000271226
-3.3858e-05
-4.37561e-05
-0.000267301
-0.000248954
-6.80934e-06
-0.00024697
-2.1443e-05
-0.000245225
-3.56033e-05
-4.73639e-05
-0.000241617
-0.000176709
-1.17013e-05
-0.00017129
-2.68626e-05
-0.000165472
-4.14212e-05
-5.5071e-05
-0.000157765
-4.18895e-05
-2.29422e-05
-3.13308e-05
-3.74211e-05
-1.88481e-05
-5.3904e-05
-6.46735e-05
-9.24565e-06
0.000112149
-3.34527e-05
0.000119522
-4.47942e-05
0.000123536
-5.79178e-05
-6.40691e-05
0.000122931
0.000191477
-3.52122e-05
0.000191479
-4.47963e-05
0.000186851
-5.32898e-05
-5.97146e-05
0.000182496
0.000217187
-3.23925e-05
0.000213626
-4.12354e-05
0.00020815
-4.7814e-05
-5.3546e-05
0.000201981
0.000211513
0.000206283
0.000198956
0.000192169
8.64603e-06
2.50593e-05
1.6514e-05
7.14213e-05
-3.05028e-05
6.80624e-05
-5.76419e-05
0.000102109
-5.63283e-05
0.000110831
-5.18039e-05
4.20738e-05
-5.45148e-05
7.88718e-05
-3.65436e-05
7.57876e-05
-2.27194e-05
6.65367e-05
2.94512e-05
8.60595e-05
2.95638e-05
0.000104498
8.67963e-06
0.000114248
-2.13645e-05
5.63508e-05
-4.01486e-05
4.19873e-05
-8.10481e-05
7.60755e-05
-0.000112432
0.000134269
-6.86255e-05
5.63241e-05
-3.09426e-05
-6.83349e-05
-8.47745e-05
-8.30724e-05
-3.17533e-05
-4.28009e-05
9.50847e-06
-7.14205e-05
4.39278e-05
-9.49782e-05
7.68079e-05
-9.93613e-05
8.91392e-05
-8.74751e-05
9.3678e-05
-6.50052e-05
9.1676e-05
-4.77e-05
6.24428e-05
-2.91188e-05
5.2787e-05
3.31268e-06
6.53314e-05
3.03745e-05
9.49734e-05
1.22247e-05
0.000129654
6.98185e-07
8.48838e-05
-1.63652e-05
4.60876e-05
-2.95177e-05
5.04987e-05
-5.03165e-05
1.4572e-05
-4.35675e-05
-4.72001e-05
-1.85861e-05
-8.72764e-05
-9.12718e-05
-0.000136767
-5.27343e-05
-0.000108053
-3.38399e-05
-0.000144706
3.79708e-05
-0.00015803
7.64412e-05
-0.000143
8.90948e-05
-0.000110662
8.50667e-05
-6.53541e-05
6.19922e-05
-4.24158e-05
4.07979e-05
-2.77407e-05
2.09858e-05
-1.02682e-05
4.23982e-05
9.58442e-06
7.42806e-05
5.27637e-06
0.000114224
1.35141e-05
0.000125002
5.77645e-06
6.07853e-05
4.18517e-06
3.04788e-05
8.2144e-06
-2.65865e-05
1.58635e-06
-4.82835e-05
2.02963e-06
-8.79324e-05
-8.51237e-05
-0.00018359
-6.39736e-05
-0.000173701
-5.04038e-05
-0.000197791
5.61093e-06
-0.000198292
3.81155e-05
-0.000163599
5.15393e-05
-0.00011055
3.01873e-05
-8.29751e-05
-2.045e-05
-6.79055e-05
-4.07818e-05
-4.48449e-05
-4.34117e-05
-1.95857e-05
9.32293e-06
-1.7018e-05
6.75931e-05
-2.05237e-05
9.82928e-05
7.99976e-07
0.000127885
1.26858e-06
6.84098e-05
4.50093e-06
7.42434e-06
1.78919e-05
-1.62168e-05
2.01936e-05
4.90378e-06
9.9032e-06
-4.12444e-07
6.79359e-06
-0.000226765
-1.53754e-05
-0.000215763
-2.56502e-05
-0.000202442
6.00347e-06
-0.00017815
3.38802e-05
-0.000151936
2.57752e-05
-0.000127706
-3.34552e-05
-0.000108921
-4.9935e-05
-9.72636e-05
-5.12092e-05
-7.83416e-05
-5.05058e-05
-4.12009e-05
-2.58073e-05
-5.24643e-05
2.22861e-05
-5.51092e-05
6.32714e-05
-2.40561e-05
9.9052e-05
-6.0424e-06
3.99335e-05
1.49807e-05
-2.13825e-06
3.71585e-05
2.69093e-05
3.8232e-05
2.83645e-05
1.35689e-05
2.77456e-05
3.34692e-05
-0.00027055
-1.00968e-05
-0.000273951
-2.13719e-05
-0.000260107
4.95605e-06
-0.000225984
3.7594e-05
-0.000187934
4.15107e-05
-0.00016682
-1.65804e-05
-0.000150367
-6.45723e-05
-0.000134505
-6.70253e-05
-0.000118615
-6.07756e-05
-0.000100845
-4.26691e-05
-8.51887e-05
-1.31168e-05
-6.58216e-05
2.80299e-05
-3.73291e-05
6.50936e-05
-1.00956e-05
6.58726e-05
4.34656e-05
5.36631e-05
4.92193e-05
3.50429e-05
2.44402e-05
5.0022e-05
4.16509e-06
1.19774e-05
-2.66254e-06
-0.00032767
-3.57003e-05
-0.000304663
-1.98508e-05
-0.000274053
-1.9238e-05
-0.000243139
1.24922e-05
-0.000206108
2.56374e-05
-0.000175517
1.21207e-05
-0.000156051
-5.67563e-06
-0.000135441
-3.23437e-06
-0.000115634
9.99639e-06
-0.00010053
2.69267e-05
-8.35801e-05
4.50349e-05
-5.16374e-05
6.06563e-05
-1.90798e-06
7.41091e-05
3.0135e-05
7.99978e-05
2.95541e-05
5.4225e-05
6.31365e-06
1.96468e-05
-2.69703e-05
1.12974e-05
-3.06549e-05
-5.27881e-05
-9.36281e-05
-0.000322444
-0.000131624
-0.000305525
-8.95777e-05
-0.000274009
-1.5318e-05
-0.000228744
-2.90028e-05
-0.000186161
-1.09574e-05
-0.000153954
-3.6569e-06
-0.000125362
-1.32726e-05
-9.63935e-05
-1.6114e-05
-7.28777e-05
-1.86574e-05
-6.74735e-05
-4.76137e-06
-5.86721e-05
6.91303e-06
-4.67003e-05
2.47499e-05
-2.36045e-05
3.05413e-05
-1.98013e-05
4.54998e-05
-4.04819e-05
6.60616e-06
-5.7776e-05
-3.00097e-05
-9.51145e-05
5.7589e-06
-4.63821e-05
-0.000106906
-0.000142496
-0.00026814
-0.000117694
-0.000307181
-0.000112698
-0.000261567
-0.000134929
-0.000222869
-7.12326e-05
-0.00018362
-6.65951e-05
-0.000148983
-6.92025e-05
-0.000122206
-6.95196e-05
-0.000113668
-6.47034e-05
-9.39842e-05
-6.59651e-05
-8.98833e-05
-4.23737e-05
-7.19408e-05
-2.90554e-05
-0.000119565
-4.7711e-06
-0.000132652
-2.21437e-05
-0.000203401
3.59252e-05
-0.000258817
3.15611e-05
-0.000189446
-0.000100484
-6.33522e-05
-0.000120339
-2.58443e-05
-0.000144414
-0.000168341
-0.00026079
-0.00012429
-0.000232098
-0.000146641
-0.000249464
-0.000143531
-0.000237692
-0.00013463
-0.000205363
-0.000127717
-0.000166839
-0.000121355
-0.000139
-0.000119815
-9.87349e-05
-0.000122953
-0.000137579
-7.79389e-05
-0.000223848
-8.41218e-06
-0.000385323
7.35398e-05
-0.000435573
3.34673e-05
-0.000402317
-5.97357e-05
-0.000262238
-0.000104736
-0.000143148
-8.753e-05
-0.000104893
-0.000138739
-6.54976e-05
-0.000159734
-3.25275e-05
-0.000177384
-0.000200868
-0.000213983
-0.000151924
-0.000174362
-0.000186263
-0.000132561
-0.00018617
-0.000118979
-0.000158749
-0.000142559
-0.000131978
-0.000190048
-0.000109363
-0.00023363
-0.000108385
-0.000298408
-9.49132e-05
-0.0003201
-5.83761e-05
-0.000308998
-1.99744e-05
-0.000261152
2.56844e-05
-0.000250626
2.29411e-05
-0.000256359
-5.40031e-05
-0.000237303
-0.000123792
-0.000164796
-0.000160038
-0.000100936
-0.000202599
-4.86664e-05
-0.000212004
-2.18819e-05
-0.000204169
-0.00022275
-0.000143618
-0.000166072
-0.000134525
-0.000195356
-0.000129055
-0.000191639
-0.000118326
-0.000169487
-0.000122867
-0.00012759
-0.000158221
-7.42752e-05
-0.000203647
-6.312e-05
-0.000217707
-8.08637e-05
-0.000205256
-7.08271e-05
-0.000213283
-1.19473e-05
-0.000208028
2.04294e-05
-0.000193828
8.74028e-06
-0.000177104
-7.07267e-05
-0.000150126
-0.00015077
-0.000114487
-0.000195677
-7.24383e-05
-0.000244647
-3.55253e-05
-0.000248917
-1.3253e-05
-0.000226441
-0.000236003
8.08052e-06
-0.000183398
-4.62051e-06
-0.000182655
-3.07845e-05
-0.000165474
-4.79659e-05
-0.000152305
-5.0975e-05
-0.000124581
-3.64588e-05
-8.87913e-05
-4.04172e-05
-5.91614e-05
-7.41291e-05
-4.71518e-05
-0.000115591
-2.93656e-05
-0.000120487
-7.05073e-06
-9.40848e-05
-5.97286e-06
-6.10805e-05
-2.4264e-05
-3.98616e-05
-9.19457e-05
-4.80818e-05
-0.00014255
-4.47803e-05
-0.000198979
-2.59002e-05
-0.000263527
-1.0882e-05
-0.000263935
-1.39675e-06
-0.000235926
-0.0002374
0.000114669
-0.000175136
0.000100772
-0.000168758
7.87548e-05
-0.000143457
4.7774e-05
-0.000121324
3.03791e-05
-0.000107186
3.0278e-05
-8.86902e-05
3.36768e-05
-6.25603e-05
3.34169e-05
-4.68919e-05
2.84303e-05
-2.4379e-05
3.40951e-05
-1.27155e-05
5.1363e-05
-2.32408e-05
7.58458e-05
-4.87468e-05
7.46116e-05
-9.07116e-05
5.02646e-05
-0.000118203
3.59574e-05
-0.000184672
2.60384e-05
-0.000253608
2.01117e-05
-0.000258008
1.28872e-05
-0.000228701
-0.000224512
0.000163457
-0.000156097
0.000142966
-0.000148268
0.00011534
-0.000115831
8.33812e-05
-8.93646e-05
6.18363e-05
-8.56409e-05
5.14938e-05
-7.83475e-05
5.41049e-05
-6.51714e-05
6.12081e-05
-5.39952e-05
7.32254e-05
-3.63964e-05
9.87346e-05
-3.82248e-05
0.000125568
-5.00743e-05
0.000136097
-5.92758e-05
0.000117431
-7.20461e-05
9.32144e-05
-9.39857e-05
7.72142e-05
-0.000168671
5.54041e-05
-0.000231798
3.68705e-05
-0.000239475
1.85669e-05
-0.000210398
-0.000205945
0.000183015
-0.00013713
0.000160347
-0.000125601
0.000134255
-8.97387e-05
0.000111642
-6.67515e-05
9.02353e-05
-6.42344e-05
7.44111e-05
-6.25233e-05
6.75862e-05
-5.83464e-05
6.64593e-05
-5.28683e-05
6.95245e-05
-3.94617e-05
7.43154e-05
-4.30157e-05
8.34455e-05
-5.92045e-05
9.0685e-05
-6.65154e-05
9.4011e-05
-7.53722e-05
9.69675e-05
-9.69422e-05
9.15081e-05
-0.000163212
6.9821e-05
-0.000210111
4.4097e-05
-0.000213751
1.95887e-05
-0.00018589
-0.000186357
0.000174413
0.000155461
0.000136263
0.000113929
9.34126e-05
8.13489e-05
7.53896e-05
7.29299e-05
7.55413e-05
7.65788e-05
7.54964e-05
8.37812e-05
9.59418e-05
0.00010676
9.9152e-05
7.44207e-05
4.28402e-05
1.41028e-05
)
;

boundaryField
{
    leftWall
    {
        type            fixedValue;
        value           nonuniform 0();
    }
    rightWall
    {
        type            fixedValue;
        value           uniform 0;
    }
    lowerWall
    {
        type            fixedValue;
        value           uniform 0;
    }
    atmosphere
    {
        type            calculated;
        value           nonuniform 0();
    }
    defaultFaces
    {
        type            empty;
        value           nonuniform 0();
    }
    procBoundary1to0
    {
        type            processor;
        value           nonuniform List<scalar> 
26
(
2.14235e-06
2.25472e-07
-6.3927e-08
1.52236e-07
8.19491e-07
4.86705e-06
1.53476e-05
2.72713e-05
3.04722e-05
6.87742e-05
0.000178014
0.000233291
0.000265806
0.000275419
0.000287244
0.000268185
-2.30507e-06
0.000264773
0.00026361
0.000247477
0.000181601
5.31303e-05
-0.000101639
-0.000189718
-0.000220007
-0.000215583
)
;
    }
    procBoundary1to3
    {
        type            processor;
        value           nonuniform List<scalar> 
23
(
-2.83227e-05
-3.60051e-05
-4.04869e-05
-4.67593e-05
-0.000119374
-0.000106649
-7.05415e-05
-4.44166e-05
-4.37184e-05
-5.04596e-05
-5.23871e-05
-5.04087e-05
-4.20731e-05
-4.40534e-05
-5.81221e-05
-7.48004e-05
-8.75329e-05
-0.00010776
-0.000155604
-0.00018538
-0.00018217
-0.000157152
-0.000172254
)
;
    }
}


// ************************************************************************* //
