/*--------------------------------*- C++ -*----------------------------------*\
| =========                 |                                                 |
| \\      /  F ield         | OpenFOAM: The Open Source CFD Toolbox           |
|  \\    /   O peration     | Version:  2.4.0                                 |
|   \\  /    A nd           | Web:      www.OpenFOAM.org                      |
|    \\/     M anipulation  |                                                 |
\*---------------------------------------------------------------------------*/
FoamFile
{
    version     2.0;
    format      ascii;
    class       volVectorField;
    location    "0.95";
    object      U.air;
}
// * * * * * * * * * * * * * * * * * * * * * * * * * * * * * * * * * * * * * //

dimensions      [0 1 -1 0 0 0 0];

internalField   nonuniform List<vector> 
559
(
(-0.0211045 -0.00583251 0)
(-0.000767904 -0.0194078 0)
(0.0024116 -0.00340143 0)
(0.00217141 -0.0199063 0)
(-0.00347335 0.0220295 0)
(-0.0589189 -0.0111022 0)
(-0.156867 -0.080714 0)
(-0.275209 -0.0665133 0)
(-0.00556651 0.266846 0)
(0.168048 0.214773 0)
(0.241608 -0.165655 0)
(0.291003 -0.42853 0)
(0.327389 -0.525839 0)
(0.341172 -0.583129 0)
(0.335818 -0.581734 0)
(0.331805 -0.555784 0)
(0.316859 -0.435556 0)
(0.295613 -0.126832 0)
(0.275054 -0.0555729 0)
(0.257371 -0.141788 0)
(0.234938 -0.108616 0)
(0.256808 -0.0414092 0)
(0.271028 -0.0418389 0)
(0.171088 -0.0367388 0)
(-0.0147297 0.0273297 0)
(-0.109681 -0.0304702 0)
(-0.068765 -0.0660493 0)
(0.137474 0.651016 0)
(0.408404 0.28803 0)
(0.465108 0.0129351 0)
(0.359517 0.309967 0)
(0.389011 0.320395 0)
(0.395847 0.349782 0)
(0.365426 0.351848 0)
(0.333729 0.313108 0)
(0.269509 0.233101 0)
(0.0484409 0.307582 0)
(-0.117203 0.478827 0)
(-0.09659 0.314429 0)
(-0.11662 0.312294 0)
(-0.155123 0.264134 0)
(0.0483008 0.19484 0)
(0.0393797 0.157942 0)
(-0.0441098 0.163347 0)
(-0.107123 0.126917 0)
(-0.0759851 0.0115694 0)
(0.0359102 0.160243 0)
(-0.196277 -0.505768 0)
(-0.0279066 -0.573684 0)
(0.148087 -0.125349 0)
(0.201511 -0.336983 0)
(0.234247 -0.439405 0)
(0.204868 -0.440522 0)
(0.157219 -0.397901 0)
(-0.0354992 0.0348122 0)
(-0.451889 0.0815118 0)
(-0.630672 0.216515 0)
(-0.610438 0.181967 0)
(-0.500269 0.0588262 0)
(-0.405441 -0.0975756 0)
(-0.272216 -0.0844011 0)
(0.00448688 0.10168 0)
(-0.0761249 0.105298 0)
(-0.0900426 0.0314803 0)
(-0.0194287 -0.102208 0)
(0.16729 0.134135 0)
(0.200594 0.398609 0)
(0.33672 0.551546 0)
(0.259027 0.416759 0)
(0.251423 0.396412 0)
(0.230932 0.417196 0)
(0.1682 0.435522 0)
(0.0128207 0.437538 0)
(-0.21458 0.656426 0)
(-0.343386 0.608072 0)
(-0.433024 0.476482 0)
(-0.511807 0.384843 0)
(-0.501694 0.114957 0)
(-0.479009 -0.0736047 0)
(-0.400813 -0.0809453 0)
(-0.158539 0.0426026 0)
(-0.0967668 0.126001 0)
(-0.0813791 0.0687371 0)
(0.00354264 -0.0746549 0)
(0.0955699 0.187768 0)
(-0.0706797 0.0857673 0)
(-0.00669136 -0.0795836 0)
(-0.00574472 -0.0607446 0)
(0.037621 -0.0543314 0)
(0.00474716 -0.223964 0)
(-0.0304087 -0.198121 0)
(-0.000427189 -0.117071 0)
(0.108695 0.0299625 0)
(0.223664 0.505502 0)
(-0.00343251 0.168312 0)
(-0.223448 -0.0105621 0)
(-0.36745 -0.119807 0)
(-0.43211 -0.260438 0)
(-0.456999 -0.0737094 0)
(-0.309768 0.0453079 0)
(-0.123486 0.0828677 0)
(-0.0785292 0.00240623 0)
(0.0267073 -0.109711 0)
(0.130594 0.153994 0)
(0.101424 0.204779 0)
(0.238803 0.330683 0)
(0.175876 0.436705 0)
(0.0743166 0.297467 0)
(-0.00757203 0.376998 0)
(-0.14254 0.284849 0)
(-0.173819 0.253264 0)
(-0.0829886 0.339099 0)
(0.19038 0.605762 0)
(0.0674763 0.382152 0)
(-0.255276 -0.0782414 0)
(-0.239303 -0.085823 0)
(-0.195542 -0.158371 0)
(-0.416001 0.00701332 0)
(-0.441978 0.125456 0)
(-0.180201 0.099288 0)
(-0.0688491 0.0251504 0)
(0.0337179 -0.0462189 0)
(0.110461 0.100936 0)
(0.0619455 0.185034 0)
(0.114212 0.154088 0)
(-0.0625101 0.173676 0)
(-0.167969 -0.0244474 0)
(-0.139119 -0.0285367 0)
(-0.177363 0.0128589 0)
(-0.174757 0.00738081 0)
(-0.0907173 0.170833 0)
(0.069326 0.46358 0)
(0.106518 0.536269 0)
(-0.144486 0.216632 0)
(-0.295803 0.172162 0)
(-0.172541 0.143785 0)
(-0.236028 -0.0106954 0)
(-0.402484 0.188531 0)
(-0.294384 0.274666 0)
(-0.0785975 0.162082 0)
(0.00506555 -0.00525227 0)
(0.0972772 -0.0244614 0)
(0.0716395 0.11908 0)
(0.176349 0.216203 0)
(0.0644543 0.404784 0)
(-0.11133 0.530748 0)
(-0.253279 0.245546 0)
(-0.228801 0.154781 0)
(-0.230282 0.138161 0)
(-0.16601 0.246077 0)
(0.00183197 0.437979 0)
(0.0953012 0.460159 0)
(-0.0233516 0.225659 0)
(-0.222816 0.062564 0)
(-0.14068 0.175505 0)
(-0.0475922 0.0886958 0)
(-0.0672314 -0.141114 0)
(-0.308207 -0.260534 0)
(-0.278853 -0.270184 0)
(-0.0967377 -0.292411 0)
(-0.493515 0.247451 0)
(-0.190984 0.28714 0)
(-0.878179 0.502852 0)
(-1.17059 0.3805 0)
(-1.52108 0.637755 0)
(-1.57501 0.352946 0)
(-1.65237 1.45121 0)
(-1.28989 -0.388488 0)
(-0.441469 -0.706472 0)
(-0.178496 -0.794793 0)
(-0.0756943 -0.726683 0)
(0.200167 -0.706382 0)
(-0.249962 0.274169 0)
(-0.510009 0.0285248 0)
(-0.601835 -0.0736825 0)
(-0.549806 -0.108884 0)
(-0.746355 -0.121657 0)
(-0.762088 -0.24199 0)
(-0.753257 -0.28571 0)
(-0.745347 -0.269098 0)
(-1.15625 0.0390799 0)
(-1.12956 -0.0985092 0)
(-1.0847 -0.209396 0)
(-1.04576 -0.253425 0)
(-1.50308 0.35459 0)
(-1.4165 0.121441 0)
(-1.37054 -0.0796351 0)
(-1.32682 -0.157705 0)
(-1.70726 0.153332 0)
(-1.83284 0.152109 0)
(-1.85558 0.0900563 0)
(-1.71232 0.022196 0)
(-1.70126 0.586983 0)
(-1.59183 -0.210508 0)
(-1.61279 -0.337677 0)
(-1.66226 -0.279787 0)
(-1.02357 -0.553428 0)
(-1.15519 -0.371093 0)
(-1.4949 -0.165511 0)
(-1.58061 -0.101326 0)
(-1.5119 -0.0230817 0)
(-1.41348 -0.227265 0)
(-1.36541 -0.301355 0)
(-1.35008 -0.319028 0)
(-1.4537 -0.162338 0)
(-1.4514 -0.270821 0)
(-1.46574 -0.447987 0)
(-1.43107 -0.549047 0)
(-1.35296 -0.062432 0)
(-1.314 -0.217666 0)
(-1.32292 -0.377106 0)
(-1.27596 -0.516036 0)
(-0.956346 -0.110291 0)
(-0.936734 -0.312053 0)
(-0.886939 -0.484944 0)
(-0.854781 -0.640321 0)
(-0.243265 -0.197415 0)
(-0.22728 -0.370827 0)
(-0.0950655 -0.546315 0)
(-0.0823081 -0.709148 0)
(0.593785 -0.29511 0)
(0.619314 -0.419085 0)
(0.677318 -0.596581 0)
(0.678583 -0.673772 0)
(1.01193 -0.380426 0)
(1.02381 -0.517562 0)
(1.02209 -0.641285 0)
(1.00429 -0.726841 0)
(1.15395 -0.393505 0)
(1.1484 -0.494355 0)
(1.13104 -0.579758 0)
(1.11372 -0.645534 0)
(1.12934 -0.34969 0)
(1.1113 -0.444078 0)
(1.08297 -0.501736 0)
(1.0595 -0.569481 0)
(0.255108 0.0383406 0)
(0.0170619 0.269928 0)
(-0.0289564 0.252845 0)
(-0.214792 0.281407 0)
(-0.317519 0.249136 0)
(-0.294062 0.162814 0)
(-0.297654 0.225692 0)
(-0.272801 0.250862 0)
(-0.179213 0.347256 0)
(0.00866512 0.465944 0)
(0.195798 0.522136 0)
(0.139107 0.43813 0)
(-0.0136397 0.274931 0)
(-0.177609 0.180739 0)
(-0.355953 0.223273 0)
(-0.546846 0.114997 0)
(-0.508137 -0.390351 0)
(-0.255483 -0.609396 0)
(-0.0850414 -0.576135 0)
(-0.480286 -0.00366269 0)
(-0.3249 0.198605 0)
(-0.326951 0.272477 0)
(-0.403562 0.456187 0)
(-0.538667 0.533636 0)
(-0.510123 0.343152 0)
(-0.428712 0.440875 0)
(-0.323033 0.348107 0)
(-0.223258 0.290893 0)
(-0.0816268 0.361896 0)
(0.096369 0.487136 0)
(0.154839 0.619423 0)
(0.0700537 0.351177 0)
(-0.0465261 0.186232 0)
(-0.167489 0.275199 0)
(-0.251381 0.371204 0)
(-0.263116 -0.00285667 0)
(-0.149931 -0.41341 0)
(-0.0350867 -0.440181 0)
(-0.734697 -0.227584 0)
(-0.683378 -0.106293 0)
(-0.704272 0.18639 0)
(-0.800198 0.38717 0)
(-0.801486 0.44808 0)
(-0.685987 0.46851 0)
(-0.487605 0.393141 0)
(-0.298336 0.262541 0)
(-0.194009 0.174489 0)
(-0.115598 0.241517 0)
(-0.0151487 0.383522 0)
(0.0673304 0.579015 0)
(0.0693065 0.49831 0)
(0.0391999 0.264498 0)
(0.0101604 0.254691 0)
(0.0153541 -0.0574836 0)
(0.0476953 -0.194404 0)
(0.00154886 -0.423551 0)
(0.0282057 -0.441821 0)
(-1.02501 -0.281886 0)
(-0.969775 -0.191468 0)
(-1.03199 0.117584 0)
(-1.06645 0.293916 0)
(-0.963191 0.35761 0)
(-0.727277 0.275658 0)
(-0.520216 0.0956518 0)
(-0.40048 -0.0126723 0)
(-0.310961 -0.0706064 0)
(-0.186989 0.122103 0)
(-0.119654 0.34565 0)
(-0.100868 0.517521 0)
(-0.0190755 0.63063 0)
(0.00185399 0.336469 0)
(0.00199657 0.0672362 0)
(0.0404764 -0.175185 0)
(0.14433 -0.131825 0)
(0.0691434 -0.247472 0)
(0.0524758 -0.215305 0)
(-1.28743 -0.223801 0)
(-1.21529 -0.188184 0)
(-1.1407 0.0222265 0)
(-1.02487 0.149375 0)
(-0.872506 0.164835 0)
(-0.734536 -0.0254293 0)
(-0.624966 -0.192023 0)
(-0.551367 -0.23873 0)
(-0.479428 -0.238666 0)
(-0.343858 -0.0533884 0)
(-0.278825 0.212539 0)
(-0.281474 0.392631 0)
(-0.197158 0.56414 0)
(-0.0868551 0.298938 0)
(0.0288538 0.0439445 0)
(0.126087 0.0453438 0)
(0.245913 0.113918 0)
(0.129151 0.0837007 0)
(0.0565376 0.108007 0)
(-1.55215 -0.0709575 0)
(-1.48618 -0.145491 0)
(-1.4448 0.0138097 0)
(-1.29108 0.168427 0)
(-1.11244 0.134939 0)
(-0.95015 -0.150473 0)
(-0.850925 -0.283626 0)
(-0.768349 -0.273714 0)
(-0.680277 -0.248172 0)
(-0.600953 -0.138871 0)
(-0.522637 0.0542725 0)
(-0.412523 0.258763 0)
(-0.259572 0.436745 0)
(-0.135999 0.250432 0)
(0.116231 0.101676 0)
(0.251601 0.128501 0)
(0.224501 0.16214 0)
(0.0494201 0.102873 0)
(0.0206946 0.0934251 0)
(-1.69219 -0.122514 0)
(-1.68749 -0.0645755 0)
(-1.54406 0.000816851 0)
(-1.38135 0.145256 0)
(-1.2046 0.19638 0)
(-1.02629 0.00513984 0)
(-0.885041 -0.163807 0)
(-0.779673 -0.171563 0)
(-0.673781 -0.135002 0)
(-0.591806 -0.0563314 0)
(-0.50467 0.0509304 0)
(-0.359544 0.184167 0)
(-0.141344 0.320263 0)
(0.0873036 0.352903 0)
(0.205155 0.248301 0)
(0.1149 -0.0163412 0)
(-0.0493582 -0.112122 0)
(-0.186331 -0.0691778 0)
(-0.0704369 -0.0739178 0)
(-1.52261 -0.400176 0)
(-1.60026 -0.25329 0)
(-1.54008 -0.0861701 0)
(-1.34543 -0.0249997 0)
(-1.09527 0.043088 0)
(-0.913081 0.0113071 0)
(-0.741978 -0.0710097 0)
(-0.593937 -0.0701601 0)
(-0.44885 -0.0428202 0)
(-0.38113 0.0400357 0)
(-0.337632 0.108018 0)
(-0.277719 0.188966 0)
(-0.184182 0.185543 0)
(-0.100053 0.0488729 0)
(-0.133057 -0.0863784 0)
(-0.150466 0.645976 0)
(-0.422303 1.17136 0)
(-0.466465 -0.0592151 0)
(-0.0860269 -0.350916 0)
(-1.48055 -0.285921 0)
(-1.46974 -0.213882 0)
(-1.35459 -0.366942 0)
(-1.29894 -0.250474 0)
(-1.08408 -0.188994 0)
(-0.872707 -0.152056 0)
(-0.718821 -0.185447 0)
(-0.636735 -0.202662 0)
(-0.557592 -0.187477 0)
(-0.4971 -0.220751 0)
(-0.429474 -0.18638 0)
(-0.453807 -0.146129 0)
(-0.615291 0.212253 0)
(-0.794678 1.18951 0)
(-1.30859 0.77767 0)
(-1.3179 -0.706797 0)
(-0.599609 -1.03968 0)
(-0.195838 -0.971134 0)
(-0.0884862 -1.0286 0)
(-1.41291 -0.629598 0)
(-1.35667 -0.45647 0)
(-1.36201 -0.162542 0)
(-1.1762 -0.420641 0)
(-1.16049 -0.542908 0)
(-0.994096 -0.48438 0)
(-0.804503 -0.485431 0)
(-0.627432 -0.412595 0)
(-0.534955 -0.210094 0)
(-0.664095 0.463502 0)
(-1.5252 1.11379 0)
(-2.44924 0.343011 0)
(-2.42769 -0.247191 0)
(-1.64441 -0.681813 0)
(-1.00292 -0.394271 0)
(-0.67423 -0.434044 0)
(-0.453744 -0.384553 0)
(-0.251933 -0.607954 0)
(-0.0958469 -0.765934 0)
(-1.15448 -0.719289 0)
(-1.03903 -0.920657 0)
(-0.759604 -0.883084 0)
(-0.70044 -0.291242 0)
(-0.656587 0.0243534 0)
(-0.900129 0.0426072 0)
(-1.12494 0.0457063 0)
(-1.37599 0.230342 0)
(-1.66454 -0.123141 0)
(-1.74949 -0.330705 0)
(-1.46589 -0.0931685 0)
(-1.44883 0.00507938 0)
(-1.4114 -0.260472 0)
(-1.29319 -0.408195 0)
(-1.089 -0.57403 0)
(-0.713409 -0.859483 0)
(-0.36642 -0.991925 0)
(-0.198063 -0.982495 0)
(-0.033631 -1.07675 0)
(-0.735747 -0.851399 0)
(-0.722162 -1.00986 0)
(-0.693813 -1.0498 0)
(-0.671227 -1.00559 0)
(-0.589243 -0.872943 0)
(-0.678381 -0.606258 0)
(-1.04887 -0.637853 0)
(-1.17932 -0.828195 0)
(-1.13534 -0.61875 0)
(-1.10358 0.00765245 0)
(-1.1489 0.235792 0)
(-1.14909 0.161323 0)
(-1.05628 -0.28476 0)
(-0.78742 -0.821544 0)
(-0.714644 -1.01541 0)
(-0.478913 -1.19055 0)
(-0.26759 -1.16991 0)
(-0.142688 -1.06889 0)
(-0.00636493 -1.13841 0)
(0.0488145 -0.838745 0)
(0.0545286 -0.892315 0)
(-0.098305 -0.840832 0)
(-0.219108 -0.786447 0)
(-0.311874 -0.621657 0)
(-0.23222 -0.387853 0)
(-0.168963 -0.218888 0)
(-0.295865 -0.173606 0)
(-0.509163 -0.147562 0)
(-0.676631 -0.0797997 0)
(-0.603465 0.00964079 0)
(-0.479817 -0.0550811 0)
(-0.258113 -0.438929 0)
(-0.17174 -0.745412 0)
(-0.280585 -0.970123 0)
(-0.16142 -1.23729 0)
(-0.0902574 -1.26738 0)
(-0.0433381 -1.14477 0)
(0.0232532 -1.16477 0)
(0.669149 -0.835613 0)
(0.612739 -0.814589 0)
(0.497588 -0.721513 0)
(0.342636 -0.688713 0)
(0.184808 -0.56961 0)
(0.130941 -0.377381 0)
(0.166829 -0.21949 0)
(0.187409 -0.16826 0)
(0.186986 -0.0814072 0)
(0.132558 -0.00556114 0)
(0.210063 -0.0819625 0)
(0.304124 -0.204656 0)
(0.473085 -0.452338 0)
(0.322577 -0.591059 0)
(0.248873 -0.901823 0)
(0.168626 -1.27027 0)
(0.136645 -1.27434 0)
(0.0600084 -1.14006 0)
(0.067847 -1.13024 0)
(0.943605 -0.821109 0)
(0.857952 -0.789812 0)
(0.723869 -0.651128 0)
(0.530574 -0.479868 0)
(0.363565 -0.484433 0)
(0.280776 -0.460289 0)
(0.254181 -0.365905 0)
(0.313742 -0.286195 0)
(0.36243 -0.16774 0)
(0.437385 -0.126523 0)
(0.584496 -0.130194 0)
(0.73149 -0.221813 0)
(0.722396 -0.358437 0)
(0.512399 -0.480676 0)
(0.484187 -0.831111 0)
(0.39611 -1.15076 0)
(0.245934 -1.18973 0)
(0.124603 -1.05227 0)
(0.0626565 -1.02583 0)
(1.04112 -0.706938 0)
(0.956634 -0.652686 0)
(0.814899 -0.467897 0)
(0.656608 -0.39279 0)
(0.522535 -0.369719 0)
(0.426228 -0.322706 0)
(0.354538 -0.293419 0)
(0.36159 -0.268699 0)
(0.362152 -0.207457 0)
(0.376046 -0.237048 0)
(0.413683 -0.330838 0)
(0.462309 -0.33987 0)
(0.505449 -0.36262 0)
(0.484204 -0.436354 0)
(0.542059 -0.772172 0)
(0.486145 -1.03584 0)
(0.307761 -1.09196 0)
(0.148752 -0.94858 0)
(0.0502326 -0.927543 0)
(0.989686 -0.615862 0)
(0.904854 -0.558273 0)
(0.816071 -0.403979 0)
(0.683037 -0.258543 0)
(0.531719 -0.239795 0)
(0.449195 -0.273772 0)
(0.40688 -0.269547 0)
(0.405848 -0.245433 0)
(0.386676 -0.173827 0)
(0.411768 -0.189117 0)
(0.39715 -0.271044 0)
(0.416485 -0.333883 0)
(0.465288 -0.393953 0)
(0.544015 -0.513061 0)
(0.595277 -0.795535 0)
(0.509274 -0.955626 0)
(0.329881 -0.936976 0)
(0.120642 -0.819762 0)
(0.0196827 -0.852987 0)
)
;

boundaryField
{
    leftWall
    {
        type            fixedValue;
        value           nonuniform 0();
    }
    rightWall
    {
        type            fixedValue;
        value           uniform (0 0 0);
    }
    lowerWall
    {
        type            fixedValue;
        value           uniform (0 0 0);
    }
    atmosphere
    {
        type            fluxCorrectedVelocity;
        value           nonuniform 0();
    }
    defaultFaces
    {
        type            empty;
    }
    procBoundary1to0
    {
        type            processor;
        value           nonuniform List<vector> 
26
(
(-0.0274894 0.00337172 0)
(-0.00392649 -0.00923052 0)
(-0.00124615 -0.00348456 0)
(-0.00486881 -0.0317573 0)
(-0.0191086 0.0369571 0)
(-0.0343015 -0.0580761 0)
(-0.230007 -0.0163557 0)
(-0.340265 0.0105806 0)
(-0.109672 0.364647 0)
(-0.423034 0.237501 0)
(-0.956611 0.860487 0)
(-1.41893 0.827204 0)
(-1.54946 0.932468 0)
(-1.43992 0.685081 0)
(-1.18302 1.41949 0)
(-1.44901 0.36283 0)
(-1.30115 0.263654 0)
(-1.30115 0.263654 0)
(-1.34727 0.0523004 0)
(-1.30696 0.219638 0)
(-1.03667 0.239552 0)
(-0.388095 0.165184 0)
(0.371541 0.0202899 0)
(0.930946 -0.122258 0)
(1.15311 -0.199617 0)
(1.15397 -0.210928 0)
)
;
    }
    procBoundary1to3
    {
        type            processor;
        value           nonuniform List<vector> 
23
(
(0.959582 -0.313811 0)
(0.928343 -0.389451 0)
(0.908612 -0.434897 0)
(0.876866 -0.502806 0)
(0.799164 -0.552685 0)
(0.70511 -0.493887 0)
(0.599102 -0.294805 0)
(0.520418 -0.17962 0)
(0.476765 -0.187684 0)
(0.429816 -0.220512 0)
(0.409963 -0.243181 0)
(0.408839 -0.24649 0)
(0.426619 -0.226633 0)
(0.476984 -0.224689 0)
(0.540641 -0.273536 0)
(0.547168 -0.380681 0)
(0.56732 -0.445616 0)
(0.576904 -0.536849 0)
(0.615489 -0.703688 0)
(0.477862 -0.809626 0)
(0.30054 -0.797032 0)
(0.126314 -0.68173 0)
(0.0165848 -0.81264 0)
)
;
    }
}


// ************************************************************************* //
