/*--------------------------------*- C++ -*----------------------------------*\
| =========                 |                                                 |
| \\      /  F ield         | OpenFOAM: The Open Source CFD Toolbox           |
|  \\    /   O peration     | Version:  2.4.0                                 |
|   \\  /    A nd           | Web:      www.OpenFOAM.org                      |
|    \\/     M anipulation  |                                                 |
\*---------------------------------------------------------------------------*/
FoamFile
{
    version     2.0;
    format      ascii;
    class       volVectorField;
    location    "0.95";
    object      U.mercury;
}
// * * * * * * * * * * * * * * * * * * * * * * * * * * * * * * * * * * * * * //

dimensions      [0 1 -1 0 0 0 0];

internalField   nonuniform List<vector> 
559
(
(-0.0211047 -0.00583274 0)
(-0.000768036 -0.0194086 0)
(0.00241145 -0.00342673 0)
(0.00217301 -0.0237873 0)
(-0.00374764 -0.00565337 0)
(-0.0529307 -0.0901662 0)
(-0.190434 -0.885439 0)
(-0.182736 -1.12349 0)
(-0.00767944 -0.318124 0)
(0.164664 -0.420747 0)
(0.24161 -0.507136 0)
(0.292831 -0.550979 0)
(0.329323 -0.60075 0)
(0.344889 -0.632195 0)
(0.341252 -0.628164 0)
(0.337798 -0.605792 0)
(0.321887 -0.559575 0)
(0.29844 -0.466778 0)
(0.276306 -0.353644 0)
(0.258864 -0.259711 0)
(0.236951 -0.220651 0)
(0.258511 -0.167761 0)
(0.272693 -0.107656 0)
(0.182758 -0.0529355 0)
(-0.00432394 -0.0388048 0)
(-0.10794 -0.0725255 0)
(-0.0673186 -0.0968416 0)
(0.0492847 -0.169833 0)
(0.137874 -0.265387 0)
(0.224944 -0.263662 0)
(0.319465 -0.215007 0)
(0.398818 -0.132001 0)
(0.428813 -0.00208519 0)
(0.412757 0.0880006 0)
(0.386061 0.107838 0)
(0.353398 0.0889747 0)
(0.199361 0.0900832 0)
(0.0469826 0.157541 0)
(0.00443308 0.174257 0)
(-0.0671992 0.15908 0)
(-0.128274 0.0890483 0)
(0.0725515 0.110844 0)
(0.06238 0.12987 0)
(-0.0361204 0.106175 0)
(-0.104043 0.0783921 0)
(-0.0732142 -0.0218506 0)
(0.114453 -1.26812 0)
(0.0849487 -1.15335 0)
(0.125597 -0.611788 0)
(0.186833 -0.421741 0)
(0.226338 -0.471504 0)
(0.325614 -0.45459 0)
(0.352903 -0.519936 0)
(0.232124 -0.468765 0)
(-0.378914 -0.320053 0)
(-0.479623 -0.220637 0)
(-0.560197 -0.167273 0)
(-0.561674 -0.155364 0)
(-0.488457 -0.140439 0)
(-0.395772 -0.172964 0)
(-0.259983 -0.137905 0)
(0.0224161 0.0584417 0)
(-0.0643443 0.0744056 0)
(-0.0877828 -0.0107776 0)
(-0.0182687 -0.131678 0)
(0.0866352 -1.2214 0)
(0.0577118 -1.03595 0)
(0.163551 -0.116569 0)
(0.185949 0.0324797 0)
(0.240578 0.178824 0)
(0.246356 0.260485 0)
(0.20229 0.320916 0)
(-0.000319993 0.202264 0)
(-0.371305 -0.114013 0)
(-0.43221 -0.0746571 0)
(-0.485725 -0.0468693 0)
(-0.485029 -0.0763104 0)
(-0.458437 -0.124102 0)
(-0.450844 -0.155098 0)
(-0.394332 -0.149024 0)
(-0.147695 0.00674234 0)
(-0.0904203 0.0954009 0)
(-0.0797252 0.0318068 0)
(0.00518733 -0.105961 0)
(0.0332122 -1.10997 0)
(-0.0183966 -0.651447 0)
(0.0683913 -0.359807 0)
(0.0549192 -0.349626 0)
(0.0765301 -0.343673 0)
(0.06731 -0.307908 0)
(0.00741211 -0.281763 0)
(0.0145936 -0.219369 0)
(-0.128089 -0.222887 0)
(-0.208049 -0.297593 0)
(-0.226872 -0.33407 0)
(-0.22153 -0.546006 0)
(-0.300537 -0.586952 0)
(-0.394743 -0.45446 0)
(-0.428039 -0.268772 0)
(-0.288627 -0.0312291 0)
(-0.118927 0.0592863 0)
(-0.0774151 -0.0213591 0)
(0.0269273 -0.145497 0)
(0.0384809 -1.0989 0)
(-0.00980686 -0.665355 0)
(0.10987 -0.255259 0)
(0.107729 -0.164766 0)
(0.0978052 -0.0394316 0)
(0.0712498 0.159803 0)
(-0.0976097 0.160532 0)
(-0.145088 0.133549 0)
(-0.103819 0.0763766 0)
(-0.0961838 -0.112886 0)
(-0.0553545 -0.372505 0)
(-0.159484 -0.602287 0)
(-0.219485 -0.659943 0)
(-0.210215 -0.549862 0)
(-0.337775 -0.343358 0)
(-0.347207 -0.175355 0)
(-0.162469 -0.0191619 0)
(-0.0689836 -0.0401401 0)
(0.0332796 -0.161535 0)
(0.0294278 -1.09332 0)
(-0.0427286 -0.629599 0)
(0.0700328 -0.29677 0)
(0.0409705 -0.223404 0)
(-0.00927872 -0.253976 0)
(-0.0518405 -0.137451 0)
(-0.144507 -0.0509228 0)
(-0.169694 -0.0754205 0)
(-0.103719 0.0659415 0)
(-0.00780645 0.227363 0)
(0.0237027 0.190578 0)
(-0.0848949 0.0178889 0)
(-0.224847 -0.294809 0)
(-0.177102 -0.625263 0)
(-0.305293 -0.589765 0)
(-0.325486 -0.273352 0)
(-0.234943 -0.138866 0)
(-0.0726395 -0.158378 0)
(0.00482753 -0.283794 0)
(0.0308091 -1.07839 0)
(-0.125653 -0.446986 0)
(-0.00729771 -0.28678 0)
(0.0380124 -0.117514 0)
(-0.00470814 0.023969 0)
(-0.151776 0.104386 0)
(-0.203084 0.0558179 0)
(-0.223027 0.00936693 0)
(-0.169607 0.0342158 0)
(-0.0232782 0.220707 0)
(0.0682792 0.271551 0)
(-0.0117948 0.130076 0)
(-0.133767 -0.147938 0)
(-0.116512 -0.589503 0)
(-0.25356 -0.908743 0)
(-0.32549 -0.836797 0)
(-0.344072 -0.635389 0)
(-0.17314 -0.624881 0)
(-0.0929359 -0.97654 0)
(-0.18699 -1.14379 0)
(-0.646311 -0.0641264 0)
(-1.03649 -0.305152 0)
(-1.2439 -0.2273 0)
(-1.54127 -0.408389 0)
(-1.59585 -0.606012 0)
(-1.76752 -0.00932941 0)
(-1.29067 -0.390823 0)
(-0.180514 -1.2085 0)
(-0.100525 -1.17452 0)
(-0.0686782 -1.09327 0)
(0.0622316 -1.1001 0)
(-0.798096 -0.243025 0)
(-0.787011 -0.364721 0)
(-0.780354 -0.410199 0)
(-0.754079 -0.450422 0)
(-0.936103 -0.494118 0)
(-0.938562 -0.546274 0)
(-0.932787 -0.572261 0)
(-0.923417 -0.575425 0)
(-1.24646 -0.42602 0)
(-1.2032 -0.491828 0)
(-1.17918 -0.540515 0)
(-1.1619 -0.55488 0)
(-1.46536 -0.547706 0)
(-1.40196 -0.613728 0)
(-1.38765 -0.670026 0)
(-1.34742 -0.696344 0)
(-1.59331 -0.721487 0)
(-1.58582 -0.790894 0)
(-1.50982 -0.81647 0)
(-1.43712 -0.809853 0)
(-1.73423 -0.587302 0)
(-1.65197 -0.90446 0)
(-1.51564 -0.911337 0)
(-1.42233 -0.88248 0)
(-1.02403 -0.554344 0)
(-1.15794 -0.376976 0)
(-1.51973 -0.374087 0)
(-1.46452 -0.744894 0)
(-1.51141 -0.0238831 0)
(-1.4132 -0.227967 0)
(-1.3642 -0.30152 0)
(-1.34794 -0.318817 0)
(-1.45389 -0.163123 0)
(-1.45151 -0.27152 0)
(-1.46531 -0.448409 0)
(-1.43328 -0.550193 0)
(-1.35308 -0.0634703 0)
(-1.31389 -0.218441 0)
(-1.32304 -0.377778 0)
(-1.27581 -0.516528 0)
(-0.956364 -0.110776 0)
(-0.936726 -0.312471 0)
(-0.886885 -0.485302 0)
(-0.854711 -0.640675 0)
(-0.243257 -0.197633 0)
(-0.227237 -0.371023 0)
(-0.0949723 -0.546496 0)
(-0.0821826 -0.709304 0)
(0.593793 -0.295122 0)
(0.619399 -0.41911 0)
(0.677434 -0.596611 0)
(0.678723 -0.673803 0)
(1.01195 -0.380257 0)
(1.02392 -0.517148 0)
(1.0223 -0.641057 0)
(1.0044 -0.726818 0)
(1.15359 -0.391955 0)
(1.14808 -0.492768 0)
(1.13125 -0.578867 0)
(1.11379 -0.645504 0)
(1.12909 -0.349135 0)
(1.11136 -0.444034 0)
(1.08297 -0.501776 0)
(1.05949 -0.569528 0)
(0.0384364 -1.05144 0)
(-0.298662 -0.280988 0)
(-0.233946 -0.34129 0)
(-0.134552 -0.122821 0)
(-0.210714 -0.0662476 0)
(-0.234061 0.0554414 0)
(-0.268848 0.0335439 0)
(-0.28876 -0.0367866 0)
(-0.23462 -0.0218771 0)
(-0.108595 0.104781 0)
(0.0594557 0.248532 0)
(0.0983421 0.208234 0)
(-0.000865805 -0.118313 0)
(-0.156197 -0.626104 0)
(-0.243189 -0.928303 0)
(-0.224093 -1.05173 0)
(-0.165698 -1.19086 0)
(-0.125791 -1.38493 0)
(0.00576767 -1.51375 0)
(-0.71023 -0.459064 0)
(-0.618207 -0.415712 0)
(-0.484909 -0.278841 0)
(-0.315523 -0.0687011 0)
(-0.38602 0.0958988 0)
(-0.393185 0.113952 0)
(-0.382376 0.0466536 0)
(-0.357582 -0.0760264 0)
(-0.309279 -0.155928 0)
(-0.203389 -0.107416 0)
(-0.112389 -0.0570632 0)
(0.027801 0.075722 0)
(-0.0524108 -0.23172 0)
(-0.192117 -0.664197 0)
(-0.21198 -0.910836 0)
(-0.176398 -0.97827 0)
(-0.0678457 -0.881248 0)
(-0.0337873 -0.926214 0)
(0.0238363 -1.23485 0)
(-0.910914 -0.564783 0)
(-0.873506 -0.500347 0)
(-0.769908 -0.282298 0)
(-0.649252 -0.0165693 0)
(-0.599774 0.0623506 0)
(-0.557887 0.0518468 0)
(-0.503402 -0.0805912 0)
(-0.460076 -0.303718 0)
(-0.435319 -0.458231 0)
(-0.406439 -0.491909 0)
(-0.320662 -0.445207 0)
(-0.203313 -0.322566 0)
(-0.17072 -0.418461 0)
(-0.174365 -0.610313 0)
(-0.106236 -0.78968 0)
(-0.115702 -1.0078 0)
(0.0269466 -0.653482 0)
(0.0113915 -0.693171 0)
(0.0327753 -0.781087 0)
(-1.15278 -0.564377 0)
(-1.05613 -0.50236 0)
(-0.985803 -0.320767 0)
(-0.877904 -0.0996026 0)
(-0.783836 -0.0654976 0)
(-0.696331 -0.197193 0)
(-0.637216 -0.414235 0)
(-0.58921 -0.582907 0)
(-0.570011 -0.66217 0)
(-0.526954 -0.66593 0)
(-0.448855 -0.605951 0)
(-0.343587 -0.500306 0)
(-0.241192 -0.452132 0)
(-0.166729 -0.406522 0)
(-0.0897121 -0.560476 0)
(-0.100389 -1.01606 0)
(0.0652849 -0.590212 0)
(0.0673661 -0.623524 0)
(0.0522153 -0.668593 0)
(-1.29441 -0.690758 0)
(-1.19678 -0.607978 0)
(-1.08915 -0.442832 0)
(-0.996216 -0.321666 0)
(-0.904854 -0.344911 0)
(-0.815136 -0.496435 0)
(-0.755148 -0.631945 0)
(-0.70763 -0.686638 0)
(-0.662288 -0.707943 0)
(-0.598071 -0.679152 0)
(-0.527906 -0.597941 0)
(-0.418094 -0.496957 0)
(-0.304661 -0.340683 0)
(-0.189302 -0.233979 0)
(-0.056714 -0.224053 0)
(0.018964 -0.352427 0)
(0.130428 -0.41176 0)
(0.0629764 -0.566878 0)
(0.0427365 -0.639383 0)
(-1.35995 -0.773485 0)
(-1.27984 -0.703159 0)
(-1.18278 -0.612054 0)
(-1.08477 -0.525857 0)
(-1.00221 -0.533358 0)
(-0.912684 -0.617363 0)
(-0.850348 -0.675894 0)
(-0.795658 -0.673304 0)
(-0.725127 -0.639203 0)
(-0.664628 -0.574819 0)
(-0.590927 -0.46679 0)
(-0.47008 -0.322718 0)
(-0.335537 -0.229125 0)
(-0.203733 -0.230044 0)
(-0.0252546 -0.278729 0)
(0.0312704 -0.447682 0)
(0.0690329 -0.497413 0)
(-0.0146768 -0.569092 0)
(0.010445 -0.610472 0)
(-1.34913 -0.855852 0)
(-1.31739 -0.741621 0)
(-1.23836 -0.678282 0)
(-1.13594 -0.619947 0)
(-1.02849 -0.58444 0)
(-0.940281 -0.628893 0)
(-0.861971 -0.672315 0)
(-0.793683 -0.652271 0)
(-0.708919 -0.609254 0)
(-0.62074 -0.539812 0)
(-0.525418 -0.460885 0)
(-0.398371 -0.352163 0)
(-0.265582 -0.258346 0)
(-0.123872 -0.270339 0)
(-0.011893 -0.387134 0)
(-0.0544352 -0.509348 0)
(-0.167213 -0.645872 0)
(-0.241862 -0.740425 0)
(-0.0506706 -0.743717 0)
(-1.28927 -0.963873 0)
(-1.22154 -0.892253 0)
(-1.17731 -0.809706 0)
(-1.1049 -0.715918 0)
(-0.984417 -0.681407 0)
(-0.893423 -0.679491 0)
(-0.805107 -0.719995 0)
(-0.726106 -0.709056 0)
(-0.624592 -0.655094 0)
(-0.546727 -0.595697 0)
(-0.444053 -0.536353 0)
(-0.3395 -0.48127 0)
(-0.249683 -0.452195 0)
(-0.194786 -0.454082 0)
(-0.188973 -0.532459 0)
(-0.24189 -0.451914 0)
(-0.416975 1.08231 0)
(-0.464572 -0.0540625 0)
(-0.0857405 -0.345996 0)
(-1.28829 -0.690548 0)
(-1.13636 -0.960861 0)
(-1.11586 -0.939065 0)
(-1.11426 -0.875388 0)
(-1.04846 -0.783983 0)
(-0.900617 -0.725258 0)
(-0.790655 -0.733649 0)
(-0.72067 -0.749316 0)
(-0.653728 -0.737821 0)
(-0.610308 -0.729013 0)
(-0.536547 -0.687313 0)
(-0.50231 -0.662688 0)
(-0.52812 -0.628852 0)
(-0.751245 -0.055065 0)
(-1.26957 0.788973 0)
(-1.3067 -0.706758 0)
(-0.598664 -1.0397 0)
(-0.1969 -0.972705 0)
(-0.0886216 -1.03015 0)
(-1.4102 -0.632017 0)
(-1.23978 -0.663326 0)
(-1.04782 -0.931299 0)
(-1.07145 -0.996076 0)
(-1.09222 -0.986522 0)
(-1.04451 -0.954785 0)
(-0.911309 -0.926474 0)
(-0.824533 -0.931417 0)
(-0.803647 -0.931702 0)
(-0.848371 -0.58264 0)
(-1.51678 0.871643 0)
(-2.44018 0.348851 0)
(-2.40355 -0.263164 0)
(-1.62811 -0.69248 0)
(-0.995372 -0.410354 0)
(-0.671842 -0.447297 0)
(-0.451502 -0.398993 0)
(-0.251505 -0.611683 0)
(-0.0957543 -0.767921 0)
(-1.15425 -0.719843 0)
(-1.03791 -0.922989 0)
(-0.760847 -0.865558 0)
(-0.755182 -0.571001 0)
(-0.773411 -0.78585 0)
(-1.09812 -0.967706 0)
(-1.27291 -0.75994 0)
(-1.50051 -0.0361066 0)
(-1.65513 -0.107724 0)
(-1.75021 -0.328067 0)
(-1.46985 -0.0949809 0)
(-1.44942 0.00259129 0)
(-1.40486 -0.265116 0)
(-1.27637 -0.42117 0)
(-1.0771 -0.592823 0)
(-0.705891 -0.87392 0)
(-0.363093 -1.00196 0)
(-0.197695 -0.986293 0)
(-0.0335802 -1.07863 0)
(-0.735656 -0.851687 0)
(-0.722088 -1.0101 0)
(-0.693781 -1.05068 0)
(-0.671019 -1.00742 0)
(-0.587077 -0.874195 0)
(-0.6751 -0.601741 0)
(-1.05227 -0.633641 0)
(-1.18704 -0.828001 0)
(-1.13664 -0.621903 0)
(-1.10468 0.00601346 0)
(-1.15124 0.232477 0)
(-1.15171 0.157764 0)
(-1.05412 -0.289162 0)
(-0.781534 -0.833999 0)
(-0.70542 -1.0287 0)
(-0.471063 -1.20464 0)
(-0.262722 -1.18037 0)
(-0.14155 -1.07385 0)
(-0.00624057 -1.14047 0)
(0.0489491 -0.838873 0)
(0.0546346 -0.892416 0)
(-0.0982373 -0.840926 0)
(-0.219081 -0.786565 0)
(-0.311835 -0.621862 0)
(-0.232093 -0.38857 0)
(-0.169098 -0.222091 0)
(-0.295873 -0.1777 0)
(-0.507195 -0.149158 0)
(-0.677048 -0.0807312 0)
(-0.605482 0.00858262 0)
(-0.482046 -0.0558371 0)
(-0.257651 -0.439952 0)
(-0.168882 -0.747891 0)
(-0.275325 -0.97587 0)
(-0.153963 -1.24567 0)
(-0.0852288 -1.27459 0)
(-0.0418823 -1.14952 0)
(0.0233911 -1.16661 0)
(0.669284 -0.835669 0)
(0.612847 -0.814669 0)
(0.497669 -0.721603 0)
(0.342681 -0.688814 0)
(0.184825 -0.56969 0)
(0.130947 -0.377479 0)
(0.166839 -0.21971 0)
(0.187223 -0.168503 0)
(0.184751 -0.0836114 0)
(0.128971 -0.00913708 0)
(0.208368 -0.0835325 0)
(0.303861 -0.204717 0)
(0.474316 -0.450944 0)
(0.324744 -0.590562 0)
(0.252495 -0.903221 0)
(0.174087 -1.27357 0)
(0.140886 -1.27951 0)
(0.0614851 -1.14388 0)
(0.0680145 -1.13185 0)
(0.943679 -0.821137 0)
(0.858022 -0.789883 0)
(0.723996 -0.651227 0)
(0.530646 -0.480005 0)
(0.363579 -0.48451 0)
(0.280777 -0.460353 0)
(0.254182 -0.365976 0)
(0.313717 -0.286904 0)
(0.361319 -0.172001 0)
(0.43405 -0.131086 0)
(0.580933 -0.131201 0)
(0.730073 -0.219532 0)
(0.723214 -0.355873 0)
(0.513986 -0.479912 0)
(0.485942 -0.831093 0)
(0.399931 -1.15309 0)
(0.248805 -1.19242 0)
(0.12572 -1.05467 0)
(0.0628145 -1.02718 0)
(1.04114 -0.706975 0)
(0.956743 -0.652727 0)
(0.8151 -0.468027 0)
(0.656701 -0.392905 0)
(0.522547 -0.369777 0)
(0.426231 -0.322756 0)
(0.354542 -0.293465 0)
(0.361597 -0.268941 0)
(0.361677 -0.21039 0)
(0.374535 -0.241357 0)
(0.412506 -0.332736 0)
(0.461936 -0.340568 0)
(0.5057 -0.36294 0)
(0.485113 -0.436645 0)
(0.543961 -0.772873 0)
(0.488762 -1.03735 0)
(0.309802 -1.0951 0)
(0.149426 -0.950192 0)
(0.0503598 -0.928789 0)
(0.989688 -0.615904 0)
(0.904949 -0.558306 0)
(0.816226 -0.404087 0)
(0.683092 -0.258624 0)
(0.53173 -0.239838 0)
(0.449201 -0.273809 0)
(0.406887 -0.269577 0)
(0.405869 -0.245521 0)
(0.386495 -0.174951 0)
(0.41124 -0.191145 0)
(0.396522 -0.272619 0)
(0.416522 -0.334796 0)
(0.46577 -0.394564 0)
(0.544989 -0.51364 0)
(0.596841 -0.796423 0)
(0.511099 -0.957247 0)
(0.330971 -0.938589 0)
(0.121061 -0.821309 0)
(0.0197458 -0.854162 0)
)
;

boundaryField
{
    leftWall
    {
        type            fixedValue;
        value           nonuniform 0();
    }
    rightWall
    {
        type            fixedValue;
        value           uniform (0 0 0);
    }
    lowerWall
    {
        type            fixedValue;
        value           uniform (0 0 0);
    }
    atmosphere
    {
        type            fluxCorrectedVelocity;
        value           nonuniform 0();
    }
    defaultFaces
    {
        type            empty;
    }
    procBoundary1to0
    {
        type            processor;
        value           nonuniform List<vector> 
26
(
(-0.0274897 0.00337149 0)
(-0.00392683 -0.00923122 0)
(-0.00124654 -0.00355019 0)
(-0.00486754 -0.0366575 0)
(-0.0191474 -0.00498474 0)
(-0.0271731 -0.13181 0)
(-0.246361 -0.392394 0)
(-0.182224 -1.00756 0)
(-0.0891093 -0.457988 0)
(-0.309638 -0.012301 0)
(-0.908355 0.069928 0)
(-1.29723 0.150094 0)
(-1.55881 -0.0725835 0)
(-1.54038 -0.287853 0)
(-1.60782 -0.0971463 0)
(-1.42594 0.333949 0)
(-1.30121 0.262249 0)
(-1.30121 0.262249 0)
(-1.34663 0.051009 0)
(-1.30717 0.217891 0)
(-1.03695 0.238839 0)
(-0.388271 0.164938 0)
(0.371454 0.0203092 0)
(0.930928 -0.122161 0)
(1.1526 -0.198473 0)
(1.15353 -0.210001 0)
)
;
    }
    procBoundary1to3
    {
        type            processor;
        value           nonuniform List<vector> 
23
(
(0.959582 -0.313838 0)
(0.928341 -0.389486 0)
(0.908607 -0.434925 0)
(0.87686 -0.50283 0)
(0.79916 -0.55271 0)
(0.705107 -0.493913 0)
(0.599114 -0.294835 0)
(0.520429 -0.17965 0)
(0.476774 -0.187707 0)
(0.429823 -0.22053 0)
(0.409971 -0.243198 0)
(0.408854 -0.246516 0)
(0.426649 -0.226995 0)
(0.477122 -0.225409 0)
(0.540872 -0.274378 0)
(0.547489 -0.381477 0)
(0.56794 -0.44623 0)
(0.577867 -0.537499 0)
(0.616813 -0.704631 0)
(0.478697 -0.810289 0)
(0.301158 -0.798259 0)
(0.126553 -0.68314 0)
(0.0166359 -0.813699 0)
)
;
    }
}


// ************************************************************************* //
