/*--------------------------------*- C++ -*----------------------------------*\
| =========                 |                                                 |
| \\      /  F ield         | OpenFOAM: The Open Source CFD Toolbox           |
|  \\    /   O peration     | Version:  2.4.0                                 |
|   \\  /    A nd           | Web:      www.OpenFOAM.org                      |
|    \\/     M anipulation  |                                                 |
\*---------------------------------------------------------------------------*/
FoamFile
{
    version     2.0;
    format      ascii;
    class       volVectorField;
    location    "0.95";
    object      U.oil;
}
// * * * * * * * * * * * * * * * * * * * * * * * * * * * * * * * * * * * * * //

dimensions      [0 1 -1 0 0 0 0];

internalField   nonuniform List<vector> 
559
(
(-0.0211218 0.00343175 0)
(-0.000794858 -0.00869036 0)
(0.00241856 0.00838682 0)
(0.00201892 -0.0132541 0)
(-0.00363371 0.0151224 0)
(-0.0580311 0.0289728 0)
(-0.181782 0.313197 0)
(-0.314479 -0.367386 0)
(0.00278306 -0.162008 0)
(0.182174 -0.251768 0)
(0.242421 -0.335666 0)
(0.287047 -0.376934 0)
(0.323941 -0.433196 0)
(0.334292 -0.471654 0)
(0.325949 -0.464329 0)
(0.315698 -0.43154 0)
(0.284035 -0.364056 0)
(0.259129 -0.237655 0)
(0.244595 -0.137405 0)
(0.22811 -0.0613165 0)
(0.206905 -0.0371758 0)
(0.235417 0.0189988 0)
(0.241761 0.0812329 0)
(0.13029 0.127727 0)
(-0.0362147 0.136712 0)
(-0.116426 0.104348 0)
(-0.0747759 0.0751451 0)
(0.0821888 0.295706 0)
(0.218054 0.371423 0)
(0.329964 0.524844 0)
(0.346629 0.574875 0)
(0.389077 0.660403 0)
(0.360175 0.707139 0)
(0.299891 0.695929 0)
(0.274232 0.637483 0)
(0.266353 0.573061 0)
(0.146728 0.474047 0)
(-0.018254 0.416337 0)
(-0.0534343 0.376347 0)
(-0.104371 0.350013 0)
(-0.144823 0.279335 0)
(0.0396591 0.287824 0)
(0.00157156 0.310683 0)
(-0.0730909 0.287262 0)
(-0.116052 0.255996 0)
(-0.0842115 0.161285 0)
(0.146367 -0.240671 0)
(0.0360169 -0.340038 0)
(0.110129 -0.39282 0)
(0.164677 -0.408196 0)
(0.197546 -0.445319 0)
(0.21988 -0.445404 0)
(0.197591 -0.39483 0)
(0.138028 -0.353851 0)
(0.0544437 -0.238714 0)
(-0.31387 0.0440639 0)
(-0.584359 0.0302047 0)
(-0.582346 0.0328462 0)
(-0.506661 0.063046 0)
(-0.422942 0.0121165 0)
(-0.287925 0.024755 0)
(-0.0315471 0.213371 0)
(-0.105487 0.235338 0)
(-0.0976571 0.155371 0)
(-0.023323 0.0348099 0)
(0.118258 -0.338731 0)
(0.0686014 -0.0642113 0)
(0.222494 0.134843 0)
(0.211569 0.200342 0)
(0.24305 0.321071 0)
(0.233099 0.445636 0)
(0.155727 0.458289 0)
(0.0527349 0.462398 0)
(-0.0811373 0.520974 0)
(-0.244403 0.463212 0)
(-0.495209 0.295397 0)
(-0.503316 0.205629 0)
(-0.492323 0.158953 0)
(-0.48891 0.0931247 0)
(-0.440421 0.045932 0)
(-0.210665 0.157882 0)
(-0.125652 0.264316 0)
(-0.0898278 0.20341 0)
(-0.00440042 0.0690483 0)
(0.0857183 -0.222731 0)
(-0.0433467 -0.18258 0)
(0.0634217 -0.226074 0)
(0.0296606 -0.24943 0)
(0.0442417 -0.284506 0)
(0.0135299 -0.272917 0)
(-0.0345242 -0.169355 0)
(-0.000273254 -0.050274 0)
(0.0107212 0.180339 0)
(-0.0344629 0.414721 0)
(-0.240738 0.325866 0)
(-0.306166 0.195355 0)
(-0.428265 0.186775 0)
(-0.48807 -0.0128376 0)
(-0.517223 -0.0976391 0)
(-0.360657 0.104633 0)
(-0.14771 0.219693 0)
(-0.0835055 0.136665 0)
(0.0252566 0.02983 0)
(0.115684 -0.217548 0)
(0.0275672 -0.141546 0)
(0.150511 -0.0574231 0)
(0.133696 0.043618 0)
(0.0955347 0.176374 0)
(0.0372508 0.294409 0)
(-0.13637 0.287417 0)
(-0.167243 0.271359 0)
(-0.0863254 0.303972 0)
(0.0314653 0.406276 0)
(-0.113318 0.256848 0)
(-0.268441 -0.00813732 0)
(-0.280856 -0.102468 0)
(-0.295723 -0.0569402 0)
(-0.475055 -0.083812 0)
(-0.406503 -0.00795089 0)
(-0.185494 0.147632 0)
(-0.0703126 0.128602 0)
(0.0351211 0.02151 0)
(0.11362 -0.236275 0)
(0.0216458 -0.155439 0)
(0.111444 -0.152154 0)
(0.0324771 -0.104192 0)
(-0.0466327 -0.135601 0)
(-0.0743511 -0.0209169 0)
(-0.177701 0.0597676 0)
(-0.179167 0.0553071 0)
(-0.0898838 0.217578 0)
(0.0365239 0.401627 0)
(0.0367965 0.347877 0)
(-0.179523 0.165118 0)
(-0.294957 0.0731015 0)
(-0.259071 -0.0923958 0)
(-0.307212 -0.0850742 0)
(-0.380937 0.00863856 0)
(-0.26282 0.0662521 0)
(-0.0805264 0.0481886 0)
(0.0033563 -0.005459 0)
(0.0980536 -0.252408 0)
(0.0084183 -0.170503 0)
(0.0915936 -0.126329 0)
(0.0587565 0.00671007 0)
(-0.021886 0.142103 0)
(-0.182271 0.205755 0)
(-0.22747 0.185449 0)
(-0.234628 0.139268 0)
(-0.161679 0.167986 0)
(0.0163839 0.363015 0)
(0.109461 0.392572 0)
(-0.0427415 0.230404 0)
(-0.254778 -0.0041675 0)
(-0.234236 -0.117657 0)
(-0.241577 -0.133603 0)
(-0.326021 -0.00667979 0)
(-0.368985 0.073241 0)
(-0.211235 0.0645094 0)
(-0.0740787 0.0731936 0)
(-0.430879 -0.184844 0)
(-0.457822 0.151527 0)
(-0.895723 0.0476786 0)
(-1.16319 0.0502725 0)
(-1.53736 -0.136809 0)
(-1.58983 -0.455376 0)
(-1.84234 -0.893815 0)
(-1.6561 -0.658607 0)
(-0.413035 -0.556133 0)
(-0.251209 -0.517449 0)
(-0.156855 -0.429879 0)
(0.0336371 -0.421959 0)
(-0.598275 0.0966511 0)
(-0.64401 -0.0500856 0)
(-0.660561 -0.106382 0)
(-0.630808 -0.185169 0)
(-0.806704 -0.203942 0)
(-0.776048 -0.256764 0)
(-0.775007 -0.30124 0)
(-0.765486 -0.310041 0)
(-1.16144 -0.13471 0)
(-1.12802 -0.189735 0)
(-1.08957 -0.248092 0)
(-1.05728 -0.262432 0)
(-1.47891 -0.236536 0)
(-1.40585 -0.281078 0)
(-1.38186 -0.346649 0)
(-1.33704 -0.377653 0)
(-1.65481 -0.544331 0)
(-1.66487 -0.557588 0)
(-1.61167 -0.567084 0)
(-1.52446 -0.540481 0)
(-1.72817 -0.968172 0)
(-1.58452 -0.873476 0)
(-1.49148 -0.799315 0)
(-1.48216 -0.727645 0)
(-1.24018 -0.692283 0)
(-1.67617 -1.06762 0)
(-1.61755 -1.20194 0)
(-1.40473 -1.04754 0)
(-1.50265 -0.0618321 0)
(-1.39483 -0.260075 0)
(-1.35104 -0.34476 0)
(-1.33211 -0.46804 0)
(-1.45565 -0.192882 0)
(-1.44777 -0.304694 0)
(-1.4611 -0.48542 0)
(-1.45052 -0.60046 0)
(-1.37449 -0.115424 0)
(-1.31259 -0.261864 0)
(-1.30886 -0.416498 0)
(-1.23537 -0.541389 0)
(-0.943419 -0.185743 0)
(-0.904116 -0.372967 0)
(-0.858118 -0.526734 0)
(-0.821567 -0.674967 0)
(-0.26082 -0.219305 0)
(-0.224543 -0.39412 0)
(-0.0901113 -0.562333 0)
(-0.0546282 -0.717517 0)
(0.574855 -0.280609 0)
(0.649321 -0.393946 0)
(0.70667 -0.571361 0)
(0.71312 -0.664249 0)
(1.00561 -0.228638 0)
(1.05492 -0.33065 0)
(1.11752 -0.505454 0)
(1.09077 -0.677436 0)
(1.09692 -0.149278 0)
(1.09613 -0.239245 0)
(1.17396 -0.373821 0)
(1.19264 -0.561187 0)
(1.08221 -0.216116 0)
(1.16185 -0.370068 0)
(1.12098 -0.495066 0)
(1.06298 -0.563943 0)
(0.104221 -0.181414 0)
(-0.0882622 -0.0541709 0)
(-0.0940739 -0.0997745 0)
(-0.132896 -0.00773131 0)
(-0.22054 0.0165667 0)
(-0.255657 0.154208 0)
(-0.286286 0.151485 0)
(-0.291033 0.0793933 0)
(-0.218753 0.103958 0)
(-0.0779573 0.230473 0)
(0.108422 0.373377 0)
(0.112749 0.34169 0)
(-0.0436857 0.189856 0)
(-0.226557 -0.0286642 0)
(-0.372539 -0.0613748 0)
(-0.426138 -0.107285 0)
(-0.40898 -0.17034 0)
(-0.251211 -0.285996 0)
(-0.100827 -0.368898 0)
(-0.569076 -0.228238 0)
(-0.441458 -0.126763 0)
(-0.394866 -0.100747 0)
(-0.327239 0.0902936 0)
(-0.417012 0.193512 0)
(-0.419837 0.212568 0)
(-0.399256 0.16619 0)
(-0.351795 0.0636306 0)
(-0.26846 0.0242575 0)
(-0.148316 0.0891906 0)
(0.0132311 0.239966 0)
(0.115013 0.356707 0)
(0.059719 0.298155 0)
(-0.115764 0.102165 0)
(-0.302283 4.60108e-05 0)
(-0.336003 -0.0740478 0)
(-0.281894 -0.213176 0)
(-0.156827 -0.377057 0)
(-0.0390868 -0.384636 0)
(-0.754124 -0.299188 0)
(-0.747606 -0.266836 0)
(-0.718028 -0.136157 0)
(-0.665189 0.0893011 0)
(-0.63754 0.161134 0)
(-0.577297 0.159869 0)
(-0.485499 0.0892721 0)
(-0.367416 -0.00706486 0)
(-0.274915 -0.0653389 0)
(-0.19626 -0.03397 0)
(-0.08972 0.0925436 0)
(0.0454947 0.288485 0)
(0.0697686 0.346872 0)
(0.0157199 0.284744 0)
(-0.0502131 0.133461 0)
(-0.0263862 -0.0381812 0)
(0.0165009 -0.186866 0)
(-0.000166209 -0.39995 0)
(0.0264843 -0.418847 0)
(-1.04854 -0.282709 0)
(-0.992657 -0.253433 0)
(-0.985024 -0.124406 0)
(-0.903695 0.0475165 0)
(-0.792869 0.0944753 0)
(-0.663704 0.0400117 0)
(-0.52185 -0.0411417 0)
(-0.39233 -0.105556 0)
(-0.317608 -0.124953 0)
(-0.264526 -0.0881853 0)
(-0.211369 0.0222525 0)
(-0.11037 0.222466 0)
(-0.00099202 0.331457 0)
(-0.0121444 0.27317 0)
(-0.00716806 0.0517929 0)
(0.0574179 -0.152856 0)
(0.141819 -0.254436 0)
(0.0729292 -0.392879 0)
(0.0533063 -0.380188 0)
(-1.2947 -0.386238 0)
(-1.21397 -0.319607 0)
(-1.13109 -0.167563 0)
(-1.02023 -0.0410958 0)
(-0.873841 -0.0227469 0)
(-0.731942 -0.0975645 0)
(-0.611267 -0.168747 0)
(-0.534599 -0.197787 0)
(-0.482486 -0.195799 0)
(-0.436247 -0.16811 0)
(-0.393322 -0.0811409 0)
(-0.283064 0.110219 0)
(-0.177489 0.246736 0)
(-0.098771 0.258041 0)
(0.00475559 0.0556594 0)
(0.0671713 -0.165596 0)
(0.173725 -0.227608 0)
(0.0969693 -0.341606 0)
(0.0555617 -0.344254 0)
(-1.45569 -0.482534 0)
(-1.3949 -0.419068 0)
(-1.27023 -0.288734 0)
(-1.13114 -0.163568 0)
(-1.03492 -0.16391 0)
(-0.932925 -0.218373 0)
(-0.847597 -0.253629 0)
(-0.765123 -0.241814 0)
(-0.68205 -0.222239 0)
(-0.622528 -0.178748 0)
(-0.568449 -0.0893965 0)
(-0.458582 0.0482805 0)
(-0.298985 0.14589 0)
(-0.159425 0.116738 0)
(0.0377556 -0.0682997 0)
(0.0911294 -0.297295 0)
(0.115882 -0.375408 0)
(0.00864421 -0.433763 0)
(0.0145306 -0.433496 0)
(-1.48413 -0.651763 0)
(-1.48184 -0.469119 0)
(-1.37594 -0.349141 0)
(-1.24957 -0.246121 0)
(-1.12352 -0.203493 0)
(-1.01357 -0.259298 0)
(-0.890366 -0.310282 0)
(-0.780411 -0.316697 0)
(-0.680512 -0.306411 0)
(-0.60514 -0.271552 0)
(-0.518612 -0.20659 0)
(-0.38813 -0.103281 0)
(-0.227594 -0.0193957 0)
(-0.0623032 -0.0753374 0)
(0.0548105 -0.234806 0)
(-0.0265555 -0.434388 0)
(-0.171821 -0.594936 0)
(-0.269032 -0.778448 0)
(-0.0613262 -0.810167 0)
(-1.2879 -0.924301 0)
(-1.35731 -0.692615 0)
(-1.35502 -0.565041 0)
(-1.23523 -0.425906 0)
(-1.03794 -0.380213 0)
(-0.909483 -0.418038 0)
(-0.783323 -0.483476 0)
(-0.673871 -0.48149 0)
(-0.561306 -0.455711 0)
(-0.479342 -0.406954 0)
(-0.39312 -0.366098 0)
(-0.310827 -0.313379 0)
(-0.233895 -0.287445 0)
(-0.170385 -0.34123 0)
(-0.180224 -0.482781 0)
(-0.291013 -0.911405 0)
(-0.496203 -1.47779 0)
(-0.404668 -0.488077 0)
(-0.184425 -0.65256 0)
(-1.0687 -1.09225 0)
(-1.03374 -1.05293 0)
(-1.15921 -0.840003 0)
(-1.18285 -0.700755 0)
(-1.05127 -0.615851 0)
(-0.876022 -0.56839 0)
(-0.760359 -0.600821 0)
(-0.681916 -0.626313 0)
(-0.613451 -0.618535 0)
(-0.571413 -0.614642 0)
(-0.513267 -0.621595 0)
(-0.482474 -0.62082 0)
(-0.487588 -0.682209 0)
(-0.681869 -1.16035 0)
(-0.856843 -0.716037 0)
(-1.01667 -0.658287 0)
(-0.480729 -0.905701 0)
(-0.207513 -0.985774 0)
(-0.092254 -1.05955 0)
(-1.19107 -0.834906 0)
(-0.889307 -1.17277 0)
(-0.870555 -1.18374 0)
(-1.01796 -1.03469 0)
(-1.07514 -0.950096 0)
(-0.984855 -0.868524 0)
(-0.863576 -0.857785 0)
(-0.796413 -0.907087 0)
(-0.803454 -1.0036 0)
(-1.03984 -1.38846 0)
(-2.28917 -2.66582 0)
(-1.63488 -0.191535 0)
(-1.53664 -0.417404 0)
(-1.27144 -0.63215 0)
(-0.908682 -0.700228 0)
(-0.569479 -0.759815 0)
(-0.365615 -0.727896 0)
(-0.237802 -0.781521 0)
(-0.0915977 -0.829137 0)
(-1.12824 -0.747865 0)
(-1.00733 -0.956751 0)
(-0.819932 -1.31501 0)
(-0.8528 -1.47385 0)
(-0.955486 -1.57427 0)
(-1.25645 -1.67292 0)
(-1.48074 -1.66134 0)
(-3.18077 -3.46895 0)
(-1.59378 -0.29412 0)
(-1.71382 -0.337917 0)
(-1.53727 -0.177736 0)
(-1.43818 -0.020852 0)
(-1.36391 -0.299187 0)
(-1.14323 -0.546754 0)
(-0.896236 -0.832147 0)
(-0.569808 -1.10467 0)
(-0.317394 -1.18063 0)
(-0.193601 -1.06145 0)
(-0.0320949 -1.12587 0)
(-0.690028 -0.875263 0)
(-0.677432 -1.02177 0)
(-0.63337 -1.03407 0)
(-0.58295 -0.948977 0)
(-0.546309 -0.899743 0)
(-0.688264 -0.604135 0)
(-1.05344 -0.631569 0)
(-1.16982 -0.739653 0)
(-1.15967 -0.641943 0)
(-1.13776 -0.02008 0)
(-1.18028 0.201127 0)
(-1.16084 0.11368 0)
(-1.00836 -0.328426 0)
(-0.714838 -0.918046 0)
(-0.689478 -1.09006 0)
(-0.469011 -1.24145 0)
(-0.257022 -1.19173 0)
(-0.136472 -1.09476 0)
(-0.00385666 -1.17301 0)
(0.092881 -0.840378 0)
(0.0938405 -0.898895 0)
(-0.0545877 -0.848965 0)
(-0.188372 -0.798095 0)
(-0.292725 -0.634879 0)
(-0.233167 -0.404431 0)
(-0.167551 -0.234486 0)
(-0.299102 -0.202832 0)
(-0.503105 -0.16623 0)
(-0.693783 -0.0901728 0)
(-0.642784 -0.0051697 0)
(-0.526153 -0.0630751 0)
(-0.261874 -0.445297 0)
(-0.126557 -0.75987 0)
(-0.23818 -0.993613 0)
(-0.134699 -1.26144 0)
(-0.0772971 -1.28534 0)
(-0.0358026 -1.16581 0)
(0.0308843 -1.22079 0)
(0.705544 -0.828954 0)
(0.651565 -0.816114 0)
(0.549713 -0.735787 0)
(0.365165 -0.741456 0)
(0.201408 -0.59356 0)
(0.133865 -0.38363 0)
(0.166861 -0.220375 0)
(0.187169 -0.16994 0)
(0.18312 -0.087048 0)
(0.109686 -0.0264368 0)
(0.172518 -0.0993833 0)
(0.269308 -0.203296 0)
(0.482088 -0.430977 0)
(0.353446 -0.579374 0)
(0.284838 -0.91179 0)
(0.19117 -1.27665 0)
(0.148153 -1.2866 0)
(0.06765 -1.15887 0)
(0.0723407 -1.21081 0)
(0.982851 -0.818436 0)
(0.922953 -0.779258 0)
(0.824017 -0.673844 0)
(0.591933 -0.557455 0)
(0.383753 -0.520699 0)
(0.283676 -0.469729 0)
(0.254541 -0.369445 0)
(0.313611 -0.288781 0)
(0.361528 -0.172574 0)
(0.426772 -0.13883 0)
(0.561468 -0.145332 0)
(0.711286 -0.215344 0)
(0.719265 -0.33708 0)
(0.528207 -0.463979 0)
(0.507897 -0.822912 0)
(0.412797 -1.15268 0)
(0.254868 -1.19759 0)
(0.13186 -1.07189 0)
(0.0751751 -1.11992 0)
(1.07825 -0.693716 0)
(1.05393 -0.641207 0)
(0.940524 -0.520425 0)
(0.740137 -0.456491 0)
(0.545446 -0.399779 0)
(0.426501 -0.332405 0)
(0.355074 -0.297559 0)
(0.361575 -0.270985 0)
(0.361564 -0.211364 0)
(0.372962 -0.24519 0)
(0.405229 -0.345037 0)
(0.45128 -0.345747 0)
(0.505664 -0.362822 0)
(0.497883 -0.437268 0)
(0.55192 -0.762905 0)
(0.49474 -1.03573 0)
(0.314928 -1.10139 0)
(0.158304 -0.984726 0)
(0.0598733 -1.01936 0)
(1.04942 -0.609266 0)
(0.99672 -0.549071 0)
(0.92714 -0.452535 0)
(0.745896 -0.315391 0)
(0.547181 -0.26302 0)
(0.452489 -0.281963 0)
(0.407524 -0.273151 0)
(0.405995 -0.247331 0)
(0.386313 -0.176432 0)
(0.410596 -0.193508 0)
(0.394105 -0.278315 0)
(0.408876 -0.339213 0)
(0.465548 -0.399081 0)
(0.554716 -0.521909 0)
(0.59956 -0.796039 0)
(0.511304 -0.95681 0)
(0.333919 -0.941327 0)
(0.138165 -0.88933 0)
(0.0240271 -0.931738 0)
)
;

boundaryField
{
    leftWall
    {
        type            fixedValue;
        value           nonuniform 0();
    }
    rightWall
    {
        type            fixedValue;
        value           uniform (0 0 0);
    }
    lowerWall
    {
        type            fixedValue;
        value           uniform (0 0 0);
    }
    atmosphere
    {
        type            fluxCorrectedVelocity;
        value           nonuniform 0();
    }
    defaultFaces
    {
        type            empty;
    }
    procBoundary1to0
    {
        type            processor;
        value           nonuniform List<vector> 
26
(
(-0.0275165 0.0109304 0)
(-0.00394594 -0.00189085 0)
(-0.00127915 0.00369061 0)
(-0.00501627 -0.0302735 0)
(-0.0191278 0.0219285 0)
(-0.0341274 -0.0389554 0)
(-0.245252 0.23184 0)
(-0.365545 -0.229368 0)
(-0.134457 0.173995 0)
(-0.313258 0.0946698 0)
(-0.811825 0.358366 0)
(-1.30726 0.408996 0)
(-1.54834 0.158106 0)
(-1.50823 -0.157491 0)
(-1.76094 -0.631674 0)
(-1.02538 -0.134181 0)
(-1.3023 0.202191 0)
(-1.3023 0.202191 0)
(-1.30944 0.00898532 0)
(-1.30265 0.151393 0)
(-1.05513 0.15913 0)
(-0.422819 0.140523 0)
(0.360146 0.031383 0)
(0.939061 -0.0642942 0)
(1.04829 0.015114 0)
(1.07319 -0.0434374 0)
)
;
    }
    procBoundary1to3
    {
        type            processor;
        value           nonuniform List<vector> 
23
(
(0.957371 -0.310385 0)
(0.931185 -0.388738 0)
(0.910698 -0.432764 0)
(0.877792 -0.500103 0)
(0.801394 -0.553223 0)
(0.711952 -0.505969 0)
(0.627503 -0.317213 0)
(0.537776 -0.207182 0)
(0.482846 -0.201896 0)
(0.432004 -0.226062 0)
(0.410632 -0.246021 0)
(0.409079 -0.247913 0)
(0.42671 -0.227961 0)
(0.477161 -0.226419 0)
(0.540895 -0.275703 0)
(0.547965 -0.383863 0)
(0.570557 -0.450641 0)
(0.579702 -0.540665 0)
(0.617187 -0.705197 0)
(0.478715 -0.809807 0)
(0.304053 -0.805652 0)
(0.132865 -0.738194 0)
(0.0140785 -0.847849 0)
)
;
    }
}


// ************************************************************************* //
