/*--------------------------------*- C++ -*----------------------------------*\
| =========                 |                                                 |
| \\      /  F ield         | OpenFOAM: The Open Source CFD Toolbox           |
|  \\    /   O peration     | Version:  2.4.0                                 |
|   \\  /    A nd           | Web:      www.OpenFOAM.org                      |
|    \\/     M anipulation  |                                                 |
\*---------------------------------------------------------------------------*/
FoamFile
{
    version     2.0;
    format      ascii;
    class       volVectorField;
    location    "0.95";
    object      U.water;
}
// * * * * * * * * * * * * * * * * * * * * * * * * * * * * * * * * * * * * * //

dimensions      [0 1 -1 0 0 0 0];

internalField   nonuniform List<vector> 
559
(
(-0.0211045 -0.00583049 0)
(-0.000767916 -0.0194007 0)
(0.00241162 -0.00310531 0)
(0.00214326 0.00526 0)
(-0.00249427 0.15794 0)
(-0.0686526 0.131279 0)
(-0.149616 0.336706 0)
(-0.279466 -0.433884 0)
(0.00490805 -0.1683 0)
(0.184636 -0.266473 0)
(0.245317 -0.34585 0)
(0.289152 -0.381811 0)
(0.325311 -0.439168 0)
(0.334459 -0.481536 0)
(0.326338 -0.47126 0)
(0.315883 -0.438516 0)
(0.28208 -0.378969 0)
(0.257673 -0.255862 0)
(0.243878 -0.148615 0)
(0.228056 -0.0664461 0)
(0.207215 -0.0401536 0)
(0.236329 0.0152295 0)
(0.252616 0.0291693 0)
(0.159744 0.0519541 0)
(-0.0141037 0.0191115 0)
(-0.109771 -0.0337964 0)
(-0.0690172 -0.0493365 0)
(0.0813242 0.21828 0)
(0.211754 0.263375 0)
(0.318328 0.39533 0)
(0.339357 0.43408 0)
(0.388431 0.521918 0)
(0.377891 0.612529 0)
(0.324188 0.621398 0)
(0.294823 0.564472 0)
(0.282582 0.545288 0)
(0.170532 0.482612 0)
(-0.00929246 0.419 0)
(-0.0508644 0.376173 0)
(-0.102925 0.347587 0)
(-0.142716 0.277687 0)
(0.0391817 0.286185 0)
(0.00215128 0.305773 0)
(-0.0642263 0.216243 0)
(-0.108004 0.126233 0)
(-0.0769761 0.0432931 0)
(0.178452 -0.391615 0)
(0.0710089 -0.427932 0)
(0.122555 -0.497805 0)
(0.178794 -0.523005 0)
(0.215389 -0.535858 0)
(0.248155 -0.514907 0)
(0.222436 -0.518613 0)
(0.173979 -0.467701 0)
(0.0714503 -0.346336 0)
(-0.258524 -0.0303112 0)
(-0.570208 0.024517 0)
(-0.575868 0.0236747 0)
(-0.496839 0.0525038 0)
(-0.416574 0.00662593 0)
(-0.276447 0.0270245 0)
(-0.0276163 0.21207 0)
(-0.0950571 0.182915 0)
(-0.0912132 0.0362173 0)
(-0.0202227 -0.0616659 0)
(0.12288 -0.498032 0)
(0.0659126 -0.292963 0)
(0.193786 -0.0328709 0)
(0.212779 0.0639548 0)
(0.264852 0.190685 0)
(0.260598 0.321576 0)
(0.188971 0.387344 0)
(0.0927835 0.383921 0)
(-0.0544284 0.402137 0)
(-0.226025 0.344371 0)
(-0.501312 0.261878 0)
(-0.50941 0.191711 0)
(-0.495637 0.143671 0)
(-0.487947 0.0795813 0)
(-0.437448 0.0389501 0)
(-0.2039 0.156064 0)
(-0.116442 0.198144 0)
(-0.0830335 0.080154 0)
(0.00117036 -0.02614 0)
(0.0895738 -0.372898 0)
(-0.020678 -0.304038 0)
(0.0583389 -0.31301 0)
(0.0388844 -0.339144 0)
(0.0657932 -0.365561 0)
(0.0461196 -0.365086 0)
(-0.00977175 -0.249838 0)
(0.0059444 -0.153833 0)
(0.0154768 0.0824985 0)
(-0.0482049 0.318424 0)
(-0.292968 0.27027 0)
(-0.359138 0.140031 0)
(-0.410341 0.0908858 0)
(-0.476978 -0.0374809 0)
(-0.5178 -0.105205 0)
(-0.344272 0.091617 0)
(-0.132188 0.129825 0)
(-0.0790268 0.0323077 0)
(0.0262932 -0.0481864 0)
(0.113674 -0.342081 0)
(0.0215869 -0.27642 0)
(0.107796 -0.19731 0)
(0.11082 -0.100352 0)
(0.0928709 0.0204899 0)
(0.0316047 0.169 0)
(-0.115759 0.19779 0)
(-0.154542 0.190766 0)
(-0.0818555 0.209911 0)
(0.0119944 0.321845 0)
(-0.135471 0.22626 0)
(-0.290689 -0.0547668 0)
(-0.302272 -0.174245 0)
(-0.314343 -0.154132 0)
(-0.467417 -0.109674 0)
(-0.403992 -0.0133885 0)
(-0.183406 0.0900466 0)
(-0.070257 0.0834002 0)
(0.0324116 0.0143282 0)
(0.0969377 -0.341486 0)
(0.0119872 -0.282317 0)
(0.0525818 -0.273039 0)
(0.0209186 -0.221132 0)
(-0.0337565 -0.221858 0)
(-0.11345 -0.1056 0)
(-0.163662 -0.024712 0)
(-0.173191 -0.0201212 0)
(-0.096372 0.132887 0)
(0.0162147 0.319014 0)
(0.0170469 0.294671 0)
(-0.186497 0.0902412 0)
(-0.299014 -0.060736 0)
(-0.268007 -0.204798 0)
(-0.325482 -0.169641 0)
(-0.391835 0.00105946 0)
(-0.265506 0.0569692 0)
(-0.0870137 0.0378083 0)
(-0.00249419 -0.0161266 0)
(0.0454137 -0.352674 0)
(-0.0556504 -0.27337 0)
(-0.0175077 -0.237786 0)
(0.00192437 -0.119816 0)
(-0.0535615 0.0180803 0)
(-0.190233 0.113662 0)
(-0.218825 0.0925065 0)
(-0.22797 0.0677674 0)
(-0.166408 0.0926592 0)
(-0.00442011 0.284094 0)
(0.0848225 0.330856 0)
(-0.0220392 0.185387 0)
(-0.247234 -0.0918633 0)
(-0.235456 -0.211982 0)
(-0.296255 -0.21252 0)
(-0.359782 -0.0718842 0)
(-0.365016 0.026259 0)
(-0.203271 -0.00770301 0)
(-0.0728637 -0.0414329 0)
(-0.412647 -0.20731 0)
(-0.436856 0.0914394 0)
(-0.999692 -0.126391 0)
(-1.24963 -0.199618 0)
(-1.55308 -0.393607 0)
(-1.66575 -0.819402 0)
(-2.03714 -1.01368 0)
(-1.30467 -0.406562 0)
(-0.384829 -0.692759 0)
(-0.217834 -0.616435 0)
(-0.154635 -0.510941 0)
(0.00773668 -0.504647 0)
(-0.714275 -0.0629892 0)
(-0.720189 -0.207144 0)
(-0.734299 -0.259729 0)
(-0.710816 -0.322586 0)
(-0.897428 -0.361656 0)
(-0.866107 -0.401675 0)
(-0.864528 -0.431258 0)
(-0.847482 -0.435204 0)
(-1.21142 -0.317342 0)
(-1.1838 -0.364387 0)
(-1.13545 -0.401504 0)
(-1.1105 -0.40978 0)
(-1.47007 -0.449912 0)
(-1.40563 -0.469759 0)
(-1.37942 -0.517989 0)
(-1.33707 -0.533596 0)
(-1.60269 -0.782724 0)
(-1.58459 -0.745352 0)
(-1.5456 -0.736825 0)
(-1.47491 -0.703447 0)
(-1.92278 -1.27669 0)
(-1.6833 -1.16115 0)
(-1.49006 -0.968103 0)
(-1.42298 -0.85647 0)
(-1.03112 -0.559257 0)
(-1.23836 -0.422517 0)
(-1.57795 -0.542099 0)
(-1.4897 -0.77478 0)
(-1.51053 -0.0246621 0)
(-1.41294 -0.22858 0)
(-1.35675 -0.300967 0)
(-1.35806 -0.324333 0)
(-1.45387 -0.163377 0)
(-1.4511 -0.27194 0)
(-1.47076 -0.450611 0)
(-1.48899 -0.571059 0)
(-1.35272 -0.0638761 0)
(-1.31073 -0.218509 0)
(-1.32995 -0.382163 0)
(-1.24906 -0.510494 0)
(-0.956059 -0.112176 0)
(-0.936771 -0.314075 0)
(-0.88388 -0.486849 0)
(-0.856386 -0.650285 0)
(-0.243282 -0.198669 0)
(-0.225643 -0.372613 0)
(-0.0939249 -0.547483 0)
(-0.0746434 -0.710052 0)
(0.603731 -0.290276 0)
(0.634219 -0.411021 0)
(0.687058 -0.590836 0)
(0.684199 -0.668986 0)
(1.02141 -0.34501 0)
(1.03497 -0.482808 0)
(1.03412 -0.618588 0)
(1.01727 -0.724191 0)
(1.14876 -0.362111 0)
(1.15732 -0.468961 0)
(1.14871 -0.567458 0)
(1.12364 -0.64113 0)
(1.12472 -0.347409 0)
(1.11238 -0.444808 0)
(1.08331 -0.50263 0)
(1.06007 -0.570002 0)
(-0.045709 -0.264214 0)
(-0.21326 -0.179129 0)
(-0.188717 -0.227569 0)
(-0.161779 -0.129114 0)
(-0.247881 -0.0574115 0)
(-0.267459 0.0560266 0)
(-0.284922 0.0581996 0)
(-0.288141 0.0139104 0)
(-0.22762 0.0330734 0)
(-0.095759 0.157487 0)
(0.0823423 0.309126 0)
(0.109105 0.278758 0)
(0.000290349 0.141265 0)
(-0.210871 -0.120197 0)
(-0.373634 -0.171614 0)
(-0.407662 -0.202613 0)
(-0.376567 -0.249855 0)
(-0.224409 -0.370765 0)
(-0.0893464 -0.4431 0)
(-0.647119 -0.35401 0)
(-0.52641 -0.266299 0)
(-0.473126 -0.239144 0)
(-0.345188 -0.0348736 0)
(-0.409093 0.0929229 0)
(-0.410761 0.109324 0)
(-0.389426 0.0785466 0)
(-0.350549 -0.00441122 0)
(-0.278388 -0.0465572 0)
(-0.164246 0.0144463 0)
(-0.0110447 0.167053 0)
(0.104145 0.286577 0)
(0.066886 0.227888 0)
(-0.101846 0.0137887 0)
(-0.312171 -0.120179 0)
(-0.323381 -0.217498 0)
(-0.246843 -0.343171 0)
(-0.123432 -0.491736 0)
(-0.0265653 -0.499558 0)
(-0.836006 -0.423915 0)
(-0.818365 -0.392478 0)
(-0.764762 -0.253212 0)
(-0.673125 -0.0161702 0)
(-0.617514 0.0593884 0)
(-0.557998 0.0577551 0)
(-0.479305 0.00788216 0)
(-0.377573 -0.0778056 0)
(-0.292048 -0.137506 0)
(-0.215768 -0.108239 0)
(-0.109997 0.0173612 0)
(0.0301458 0.212965 0)
(0.0642623 0.268607 0)
(0.00737834 0.205921 0)
(-0.0555652 0.0410835 0)
(-0.0379666 -0.154669 0)
(0.0379291 -0.293157 0)
(0.01392 -0.496712 0)
(0.0342836 -0.519402 0)
(-1.09251 -0.423944 0)
(-1.02493 -0.367108 0)
(-0.985604 -0.227453 0)
(-0.88225 -0.0520755 0)
(-0.766705 -0.00956841 0)
(-0.649541 -0.0529675 0)
(-0.526307 -0.122067 0)
(-0.411553 -0.186704 0)
(-0.344872 -0.206247 0)
(-0.294314 -0.16805 0)
(-0.234268 -0.0546097 0)
(-0.119414 0.148366 0)
(-0.00739811 0.254464 0)
(-0.0236228 0.193611 0)
(-0.0297477 -0.0480748 0)
(0.0302573 -0.254309 0)
(0.129585 -0.348653 0)
(0.0665613 -0.497575 0)
(0.0558462 -0.493262 0)
(-1.29121 -0.514795 0)
(-1.21104 -0.428525 0)
(-1.11226 -0.27341 0)
(-0.991167 -0.14063 0)
(-0.856664 -0.123834 0)
(-0.732819 -0.194357 0)
(-0.63363 -0.264846 0)
(-0.571865 -0.290142 0)
(-0.525633 -0.282846 0)
(-0.477388 -0.247518 0)
(-0.414806 -0.149468 0)
(-0.285545 0.0427681 0)
(-0.181842 0.170058 0)
(-0.110553 0.170496 0)
(-0.0210832 -0.051016 0)
(0.0373317 -0.270907 0)
(0.149372 -0.33444 0)
(0.0844102 -0.458791 0)
(0.0547415 -0.469518 0)
(-1.4072 -0.601123 0)
(-1.34618 -0.512513 0)
(-1.23887 -0.39063 0)
(-1.112 -0.271851 0)
(-1.02463 -0.268254 0)
(-0.941109 -0.317375 0)
(-0.86412 -0.346471 0)
(-0.78499 -0.331969 0)
(-0.70204 -0.309199 0)
(-0.638915 -0.259769 0)
(-0.5745 -0.163389 0)
(-0.459969 -0.0277737 0)
(-0.305873 0.0617773 0)
(-0.174319 0.00892713 0)
(0.00618785 -0.183939 0)
(0.0492796 -0.40948 0)
(0.085179 -0.491033 0)
(-0.00606626 -0.591684 0)
(0.00604146 -0.596292 0)
(-1.39453 -0.75558 0)
(-1.40668 -0.575427 0)
(-1.32668 -0.456191 0)
(-1.21743 -0.366197 0)
(-1.09329 -0.318723 0)
(-0.993826 -0.361214 0)
(-0.890212 -0.409209 0)
(-0.789087 -0.414423 0)
(-0.691879 -0.40485 0)
(-0.6154 -0.366641 0)
(-0.525541 -0.306599 0)
(-0.394407 -0.211104 0)
(-0.244562 -0.132671 0)
(-0.0929952 -0.189595 0)
(0.00896376 -0.350764 0)
(-0.076901 -0.579971 0)
(-0.251663 -0.890405 0)
(-0.312539 -1.20179 0)
(-0.0771508 -1.17403 0)
(-1.25641 -1.03281 0)
(-1.24653 -0.846426 0)
(-1.26832 -0.664623 0)
(-1.18526 -0.536385 0)
(-1.01805 -0.493011 0)
(-0.891484 -0.524626 0)
(-0.784414 -0.582205 0)
(-0.690114 -0.579079 0)
(-0.582139 -0.553355 0)
(-0.499817 -0.506852 0)
(-0.406986 -0.474712 0)
(-0.322168 -0.427601 0)
(-0.244848 -0.403121 0)
(-0.196029 -0.481338 0)
(-0.256505 -0.708119 0)
(-0.453104 -1.28898 0)
(-0.378792 0.952317 0)
(-0.463566 -0.0509784 0)
(-0.0928054 -0.340759 0)
(-1.11385 -1.0917 0)
(-1.05798 -1.08398 0)
(-1.04744 -1.01006 0)
(-1.1141 -0.834948 0)
(-1.05425 -0.6975 0)
(-0.882123 -0.66651 0)
(-0.766846 -0.69456 0)
(-0.712872 -0.728855 0)
(-0.669766 -0.750022 0)
(-0.650897 -0.802874 0)
(-0.593927 -0.838654 0)
(-0.551782 -0.834252 0)
(-0.661283 -1.09143 0)
(-0.858962 -1.23078 0)
(-1.09565 0.735033 0)
(-1.31575 -0.708029 0)
(-0.599298 -1.04066 0)
(-0.196017 -0.971532 0)
(-0.0885003 -1.02903 0)
(-1.31123 -0.748656 0)
(-1.03593 -1.11531 0)
(-1.01359 -1.17218 0)
(-1.02371 -1.2099 0)
(-1.1498 -1.19368 0)
(-1.19826 -1.18367 0)
(-1.10634 -1.23321 0)
(-1.05051 -1.3323 0)
(-1.24184 -1.53263 0)
(-1.84198 -2.13046 0)
(-1.41815 0.707098 0)
(-2.35588 0.288068 0)
(-2.40156 -0.265695 0)
(-1.63896 -0.685831 0)
(-1.00101 -0.400983 0)
(-0.67369 -0.437171 0)
(-0.453111 -0.387997 0)
(-0.251893 -0.608552 0)
(-0.0958499 -0.765962 0)
(-1.15173 -0.728289 0)
(-1.02067 -0.937278 0)
(-0.873689 -1.03415 0)
(-1.11269 -1.31979 0)
(-1.34985 -1.60951 0)
(-1.7822 -1.96431 0)
(-2.21757 -1.94816 0)
(-1.48319 -0.0681154 0)
(-1.65166 -0.125964 0)
(-1.74985 -0.332275 0)
(-1.46641 -0.0947054 0)
(-1.4488 0.00416795 0)
(-1.41025 -0.261314 0)
(-1.29145 -0.409843 0)
(-1.08628 -0.578256 0)
(-0.711577 -0.862913 0)
(-0.365653 -0.994251 0)
(-0.197997 -0.983099 0)
(-0.0336359 -1.0768 0)
(-0.72107 -0.854409 0)
(-0.706399 -1.01203 0)
(-0.684747 -1.05274 0)
(-0.665088 -1.00549 0)
(-0.571509 -0.86108 0)
(-0.662201 -0.57939 0)
(-1.0466 -0.618437 0)
(-1.19249 -0.828039 0)
(-1.13247 -0.620915 0)
(-1.10378 0.00700331 0)
(-1.14925 0.235237 0)
(-1.14934 0.160795 0)
(-1.05548 -0.285868 0)
(-0.787075 -0.823889 0)
(-0.712259 -1.01784 0)
(-0.477296 -1.19342 0)
(-0.266559 -1.1723 0)
(-0.142476 -1.06979 0)
(-0.00636273 -1.13851 0)
(0.062269 -0.836411 0)
(0.0728298 -0.891745 0)
(-0.0851503 -0.841328 0)
(-0.214733 -0.786793 0)
(-0.311437 -0.62258 0)
(-0.231872 -0.389639 0)
(-0.168988 -0.227317 0)
(-0.296639 -0.18378 0)
(-0.506912 -0.150225 0)
(-0.676547 -0.080649 0)
(-0.603712 0.00900209 0)
(-0.48016 -0.05557 0)
(-0.256824 -0.439123 0)
(-0.169202 -0.74617 0)
(-0.278695 -0.971517 0)
(-0.159755 -1.23937 0)
(-0.0892538 -1.26896 0)
(-0.0430834 -1.14559 0)
(0.0232604 -1.16488 0)
(0.683129 -0.841307 0)
(0.625562 -0.812908 0)
(0.507555 -0.724278 0)
(0.346219 -0.690749 0)
(0.185265 -0.570069 0)
(0.130977 -0.377618 0)
(0.166854 -0.22004 0)
(0.187149 -0.16884 0)
(0.184045 -0.083289 0)
(0.127948 -0.00861585 0)
(0.207021 -0.0829686 0)
(0.30238 -0.204307 0)
(0.473751 -0.450585 0)
(0.32537 -0.590492 0)
(0.250483 -0.902223 0)
(0.169929 -1.27074 0)
(0.137458 -1.27541 0)
(0.0602429 -1.14061 0)
(0.067858 -1.1304 0)
(0.947479 -0.820765 0)
(0.863203 -0.792214 0)
(0.727691 -0.653874 0)
(0.532675 -0.481983 0)
(0.363977 -0.484978 0)
(0.280834 -0.460464 0)
(0.254189 -0.36604 0)
(0.313728 -0.286782 0)
(0.362067 -0.169736 0)
(0.43624 -0.12837 0)
(0.583169 -0.130548 0)
(0.730673 -0.220281 0)
(0.723543 -0.35601 0)
(0.514579 -0.479739 0)
(0.485141 -0.830702 0)
(0.397039 -1.15112 0)
(0.246406 -1.1901 0)
(0.124722 -1.05253 0)
(0.0626717 -1.02599 0)
(1.0432 -0.705913 0)
(0.957053 -0.652949 0)
(0.815677 -0.468681 0)
(0.657068 -0.393471 0)
(0.522731 -0.370121 0)
(0.426276 -0.32292 0)
(0.354555 -0.293536 0)
(0.361597 -0.268906 0)
(0.36202 -0.208413 0)
(0.375808 -0.238015 0)
(0.413501 -0.331321 0)
(0.462082 -0.340325 0)
(0.505872 -0.362548 0)
(0.484834 -0.436632 0)
(0.542537 -0.772297 0)
(0.486702 -1.03619 0)
(0.308109 -1.09265 0)
(0.148804 -0.948724 0)
(0.0502445 -0.927707 0)
(0.990003 -0.615915 0)
(0.905046 -0.558331 0)
(0.816388 -0.404211 0)
(0.683246 -0.258812 0)
(0.531841 -0.240053 0)
(0.449248 -0.273947 0)
(0.4069 -0.269638 0)
(0.405869 -0.245536 0)
(0.386635 -0.174222 0)
(0.411659 -0.189589 0)
(0.397065 -0.271388 0)
(0.416565 -0.334297 0)
(0.465413 -0.394392 0)
(0.54429 -0.513415 0)
(0.595628 -0.795778 0)
(0.509644 -0.956007 0)
(0.330006 -0.937193 0)
(0.120675 -0.819894 0)
(0.0196896 -0.853123 0)
)
;

boundaryField
{
    leftWall
    {
        type            fixedValue;
        value           nonuniform 0();
    }
    rightWall
    {
        type            fixedValue;
        value           uniform (0 0 0);
    }
    lowerWall
    {
        type            fixedValue;
        value           uniform (0 0 0);
    }
    atmosphere
    {
        type            fluxCorrectedVelocity;
        value           nonuniform 0();
    }
    defaultFaces
    {
        type            empty;
    }
    procBoundary1to0
    {
        type            processor;
        value           nonuniform List<vector> 
26
(
(-0.0274894 0.00337424 0)
(-0.00392647 -0.00922002 0)
(-0.00124664 -0.00312276 0)
(-0.00488327 -0.0127536 0)
(-0.0200182 0.164865 0)
(-0.0466542 0.0604822 0)
(-0.218377 0.213201 0)
(-0.328528 -0.232858 0)
(-0.0624015 0.129484 0)
(-0.251458 0.046774 0)
(-0.745565 0.282427 0)
(-1.28211 0.21218 0)
(-1.5572 -0.141586 0)
(-1.68866 -0.694536 0)
(-1.85195 -0.62916 0)
(-1.41896 0.365749 0)
(-1.30175 0.261233 0)
(-1.30175 0.261233 0)
(-1.34682 0.0510487 0)
(-1.30765 0.218187 0)
(-1.03708 0.237877 0)
(-0.388886 0.164327 0)
(0.371036 0.0219864 0)
(0.927236 -0.0888806 0)
(1.15307 -0.17951 0)
(1.15163 -0.208244 0)
)
;
    }
    procBoundary1to3
    {
        type            processor;
        value           nonuniform List<vector> 
23
(
(0.95958 -0.314061 0)
(0.928349 -0.389658 0)
(0.908612 -0.435036 0)
(0.876872 -0.502938 0)
(0.799171 -0.552737 0)
(0.705148 -0.493945 0)
(0.599215 -0.294928 0)
(0.520563 -0.179802 0)
(0.476859 -0.18786 0)
(0.429859 -0.220621 0)
(0.409981 -0.243241 0)
(0.408857 -0.246532 0)
(0.426645 -0.226778 0)
(0.477039 -0.224897 0)
(0.540713 -0.273741 0)
(0.547265 -0.38087 0)
(0.567466 -0.445763 0)
(0.577109 -0.537008 0)
(0.615769 -0.703903 0)
(0.477966 -0.809666 0)
(0.300579 -0.797106 0)
(0.126332 -0.681839 0)
(0.0165887 -0.812712 0)
)
;
    }
}


// ************************************************************************* //
