/*--------------------------------*- C++ -*----------------------------------*\
| =========                 |                                                 |
| \\      /  F ield         | OpenFOAM: The Open Source CFD Toolbox           |
|  \\    /   O peration     | Version:  2.4.0                                 |
|   \\  /    A nd           | Web:      www.OpenFOAM.org                      |
|    \\/     M anipulation  |                                                 |
\*---------------------------------------------------------------------------*/
FoamFile
{
    version     2.0;
    format      ascii;
    class       volScalarField;
    location    "0.35";
    object      alpha.mercury;
}
// * * * * * * * * * * * * * * * * * * * * * * * * * * * * * * * * * * * * * //

dimensions      [0 0 0 0 0 0 0];

internalField   nonuniform List<scalar> 
575
(
1
1
1
1
1
1
1
1
1
1
1
1
1
1
1
1
1
1
1
1
1
0.999993
1
1
1
1
1
1
1
1
1
1
1
1
1
1
1
1
1
1
1
1
1
0.999993
1
1
1
1
1
1
1
1
1
1
1
1
1
1
1
1
1
1
1
0.999999
0.999999
0.999992
1
1
1
1
1
1
1
1
1
1
0.999999
0.999999
0.999997
0.999989
0.999954
0.999926
0.999957
0.99998
0.99999
0.999993
0.999995
0.999989
0.999999
0.999998
0.999998
0.999996
0.999997
0.99999
0.999987
0.999977
0.999924
0.99983
0.999625
0.999235
0.998023
0.995387
0.98827
0.982523
0.990962
0.996818
0.999166
0.999821
0.999962
0.99998
0.999223
0.99916
0.999059
0.998584
0.998643
0.99717
0.996162
0.994258
0.988578
0.979399
0.96336
0.939666
0.888357
0.811758
0.682109
0.560644
0.52058
0.581394
0.775829
0.952388
0.996515
0.999878
0.953981
0.951616
0.947604
0.934654
0.931649
0.901054
0.873632
0.837403
0.76685
0.670998
0.551602
0.426123
0.271838
0.1364
0.0415936
0.00831249
0.000933443
0.0232512
0.146052
0.574158
0.94468
0.998298
0.604868
0.59483
0.577115
0.537983
0.512454
0.438984
0.367444
0.293647
0.202173
0.116646
0.0541218
0.0191056
0.00412674
0.000586011
7.65335e-05
3.78044e-05
2.28945e-05
5.96686e-05
0.00339523
0.112293
0.760732
0.988541
0.106752
0.102394
0.0947963
0.0825814
0.0708726
0.0528254
0.037517
0.0245289
0.0138098
0.0066976
0.00278382
0.000958192
0.000263125
7.04602e-05
2.74779e-05
2.01402e-05
2.28688e-05
2.29974e-05
9.57644e-05
0.0105691
0.326961
0.876133
0.000434847
0.000394839
0.000333614
0.000259215
0.000185824
0.000123063
8.01393e-05
4.93516e-05
3.0173e-05
1.82474e-05
1.03028e-05
5.96206e-06
2.79599e-06
2.52773e-06
2.69385e-06
2.88911e-06
4.6841e-06
7.2971e-06
7.69942e-06
0.000186435
0.0378049
0.465927
3.96864e-06
3.72275e-06
3.36157e-06
2.89902e-06
2.43096e-06
1.98627e-06
1.70008e-06
1.36508e-06
1.1253e-06
9.67875e-07
7.93208e-07
7.0688e-07
5.78688e-07
4.59437e-07
4.68499e-07
4.54997e-07
4.63138e-07
6.15693e-07
8.28681e-07
5.45626e-06
0.00170177
0.101237
2.47055e-07
2.38881e-07
2.28671e-07
2.12722e-07
1.93594e-07
1.69303e-07
1.53709e-07
1.21856e-07
1.00257e-07
8.31366e-08
6.24993e-08
4.62016e-08
3.48576e-08
2.69657e-08
2.59946e-08
2.38465e-08
2.52676e-08
2.96254e-08
4.54068e-08
2.58964e-07
8.61896e-05
0.00978133
2.27589e-09
2.16487e-09
1.96371e-09
1.81868e-09
1.71693e-09
1.57414e-09
1.49189e-09
1.20826e-09
9.99943e-10
7.26934e-10
5.07942e-10
3.57079e-10
2.47063e-10
1.76874e-10
1.54749e-10
1.38955e-10
1.50173e-10
2.01129e-10
4.48149e-10
6.20756e-08
1.0438e-05
0.000803278
2.38911e-13
5.15902e-14
4.1699e-14
4.31603e-14
3.99758e-14
3.69706e-14
3.55667e-14
3.28519e-14
3.02743e-14
2.46528e-14
2.27248e-14
2.34737e-14
2.40588e-14
2.52257e-14
2.78294e-14
3.33729e-14
6.29764e-14
1.73332e-13
2.78833e-12
1.28099e-08
2.01014e-06
0.000147721
1.44927e-33
1.94881e-32
1.35079e-31
6.4704e-31
2.46129e-30
8.12664e-30
2.42601e-29
8.29067e-29
6.34315e-23
3.04743e-21
3.05925e-20
3.70777e-19
3.75823e-18
3.41548e-17
3.22022e-16
2.83721e-15
2.56541e-14
4.61742e-13
5.64383e-11
2.15134e-09
5.83021e-07
2.43203e-05
6.91759e-33
8.75801e-32
5.77545e-31
2.64995e-30
9.83156e-30
3.23464e-29
9.85211e-29
3.47498e-28
7.13894e-22
2.0229e-20
2.248e-19
3.46373e-18
3.5242e-17
2.78851e-16
2.08486e-15
1.64169e-14
1.48232e-13
1.66867e-12
3.36368e-11
7.61927e-11
6.0717e-08
3.46197e-06
2.75829e-32
3.30402e-31
2.07552e-30
9.16908e-30
3.36902e-29
1.14279e-28
3.7814e-28
1.43721e-27
8.44713e-21
1.28293e-19
5.76653e-19
1.88822e-18
6.15687e-18
2.37819e-17
1.20348e-16
8.40695e-16
7.89991e-15
9.18739e-14
1.15216e-12
2.26413e-12
4.70268e-11
2.10835e-07
3.55862e-06
9.3694e-32
1.05162e-30
6.20089e-30
2.61555e-29
9.34416e-29
3.16392e-28
1.07731e-27
6.71596e-27
1.61438e-25
1.44551e-24
3.37074e-24
6.12309e-24
1.80529e-23
6.21292e-23
2.14917e-22
6.40415e-22
1.78584e-21
5.38242e-21
1.67591e-20
1.37912e-14
4.52225e-13
2.77405e-10
3.94074e-08
9.55492e-32
1.02706e-30
5.84321e-30
2.45791e-29
9.48563e-29
3.90903e-28
1.71798e-27
7.94035e-27
4.97551e-26
4.51306e-25
2.19344e-25
1.85218e-24
1.72205e-23
1.02225e-22
4.60747e-22
1.46416e-21
3.60928e-21
9.17832e-21
4.07943e-20
4.5058e-19
4.93017e-18
6.97278e-14
1.70122e-11
2.1887e-32
2.31539e-31
1.34812e-30
6.264e-30
3.03778e-29
1.70019e-28
9.97653e-28
5.52867e-27
2.91007e-26
1.08371e-25
2.66463e-25
5.0843e-24
5.16863e-23
3.32791e-22
1.65579e-21
6.0603e-21
1.98227e-20
7.97124e-20
4.36238e-19
3.44483e-18
3.43569e-17
2.09946e-16
1.52526e-15
2.55893e-34
2.52549e-33
1.62696e-32
1.5864e-31
2.80391e-30
4.2065e-29
3.82175e-28
2.0253e-27
6.40305e-27
3.83789e-26
8.78667e-25
1.30551e-23
1.3496e-22
9.05239e-22
4.64447e-21
1.8524e-20
6.88985e-20
3.54216e-19
2.34635e-18
1.82961e-17
2.77547e-16
2.29373e-15
9.75835e-15
4.96994e-37
6.63453e-36
1.03727e-34
7.02706e-33
7.41644e-31
2.75342e-29
4.46967e-28
4.05571e-27
2.42332e-26
1.60605e-25
3.05068e-24
4.09759e-23
3.98865e-22
2.68959e-21
1.40993e-20
6.25902e-20
2.92884e-19
1.81739e-18
1.18317e-17
5.66757e-17
8.33365e-16
7.23189e-15
2.43306e-14
5.44034e-40
3.90008e-38
6.09875e-36
1.01248e-33
3.92438e-31
2.84694e-29
6.56304e-28
8.07085e-27
6.8275e-26
5.36815e-25
8.53579e-24
1.12968e-22
1.06069e-21
7.12391e-21
3.87773e-20
2.00325e-19
1.2197e-18
8.81048e-18
5.81677e-17
2.91228e-16
1.05891e-15
2.99651e-15
6.78132e-15
1.15128e-40
8.54424e-38
2.16666e-35
3.95537e-33
6.66755e-31
4.0423e-29
9.68852e-28
1.38568e-26
1.51264e-25
1.57708e-24
2.16991e-23
2.3786e-22
1.986e-21
1.24907e-20
6.41066e-20
2.84041e-19
1.12846e-18
4.0881e-18
1.35975e-17
4.08732e-17
1.13028e-16
3.03823e-16
8.34998e-16
5.72522e-40
3.89016e-37
8.71621e-35
1.64791e-32
1.31214e-30
4.64424e-29
9.84567e-28
1.52005e-26
1.95871e-25
2.34922e-24
2.81856e-23
2.5898e-22
1.73973e-21
8.75227e-21
3.61666e-20
1.28237e-19
3.98191e-19
1.11721e-18
2.99258e-18
7.96294e-18
2.08586e-17
5.34233e-17
1.32697e-16
2.83919e-39
1.69857e-36
3.20592e-34
2.37775e-32
9.3683e-31
2.41062e-29
4.5407e-28
6.9442e-27
9.37382e-26
1.12489e-24
1.1684e-23
9.23067e-23
5.30042e-22
2.35236e-21
8.31501e-21
2.40221e-20
)
;

boundaryField
{
    leftWall
    {
        type            zeroGradient;
    }
    rightWall
    {
        type            zeroGradient;
    }
    lowerWall
    {
        type            zeroGradient;
    }
    atmosphere
    {
        type            inletOutlet;
        inletValue      nonuniform 0();
        value           nonuniform 0();
    }
    defaultFaces
    {
        type            empty;
    }
    procBoundary0to1
    {
        type            processor;
        value           nonuniform List<scalar> 
26
(
0.999955
0.99995
0.999945
0.999934
0.999932
0.999921
0.999887
0.999876
0.993573
0.88099
0.494873
0.125185
0.0133582
0.00456146
0.000672401
6.69833e-05
6.69833e-05
1.14374e-05
1.24868e-07
1.28392e-10
4.51566e-15
3.63158e-14
4.76679e-14
1.48166e-14
2.36286e-15
3.31504e-16
)
;
    }
    procBoundary0to2
    {
        type            processor;
        value           nonuniform List<scalar> 
24
(
6.03694e-20
1.38768e-19
3.05603e-19
6.68906e-19
1.45794e-18
3.21712e-18
7.50368e-18
5.40094e-39
1.1223e-36
9.15077e-35
4.22315e-33
1.3028e-31
2.93691e-30
5.28221e-29
7.95376e-28
1.02314e-26
1.10069e-25
9.3846e-25
6.25248e-24
3.36272e-23
1.50425e-22
5.56657e-22
6.03694e-20
1.78506e-21
)
;
    }
}


// ************************************************************************* //
