/*--------------------------------*- C++ -*----------------------------------*\
| =========                 |                                                 |
| \\      /  F ield         | OpenFOAM: The Open Source CFD Toolbox           |
|  \\    /   O peration     | Version:  2.4.0                                 |
|   \\  /    A nd           | Web:      www.OpenFOAM.org                      |
|    \\/     M anipulation  |                                                 |
\*---------------------------------------------------------------------------*/
FoamFile
{
    version     2.0;
    format      ascii;
    class       volScalarField;
    location    "0.35";
    object      alpha.water;
}
// * * * * * * * * * * * * * * * * * * * * * * * * * * * * * * * * * * * * * //

dimensions      [0 0 0 0 0 0 0];

internalField   nonuniform List<scalar> 
575
(
7.47272e-11
5.58539e-11
4.9934e-11
6.18436e-11
5.33702e-11
1.33609e-10
1.14978e-10
1.86258e-10
4.42909e-10
6.8546e-10
8.16311e-10
1.05226e-09
1.58571e-09
2.21606e-09
2.61625e-09
2.62955e-09
2.32981e-09
1.78028e-09
1.07748e-09
4.29734e-10
1.5848e-10
1.15137e-10
9.13448e-10
7.17358e-10
6.9301e-10
9.07054e-10
8.25981e-10
1.80523e-09
1.68822e-09
2.47631e-09
4.79704e-09
6.73827e-09
7.69928e-09
9.02003e-09
1.17969e-08
1.3656e-08
1.38332e-08
1.30381e-08
1.08844e-08
7.49134e-09
3.99807e-09
2.93441e-09
3.58544e-09
3.44455e-09
6.66943e-09
5.47642e-09
5.57811e-09
7.16192e-09
6.92399e-09
1.19504e-08
1.20479e-08
1.5883e-08
2.58371e-08
3.22676e-08
3.53428e-08
3.92153e-08
4.6472e-08
4.37198e-08
5.96468e-08
7.67993e-08
6.14457e-08
4.35476e-08
4.24979e-08
8.21146e-08
1.5143e-07
1.41496e-07
3.21797e-08
2.66573e-08
2.77267e-08
3.32551e-08
3.34541e-08
4.71691e-08
4.93258e-08
6.07605e-08
1.14342e-07
2.13198e-07
4.40793e-07
9.73431e-07
3.2451e-06
1.08185e-05
4.53877e-05
7.07644e-05
3.95699e-05
1.62324e-05
6.99864e-06
4.25724e-06
2.29791e-06
1.60319e-06
1.42504e-06
1.58839e-06
1.84465e-06
3.52106e-06
2.91589e-06
1.02784e-05
1.30357e-05
2.34079e-05
7.58971e-05
0.000169833
0.000375445
0.000764539
0.00197723
0.00461259
0.011727
0.017454
0.00900199
0.00315331
0.000817057
0.000169952
3.1462e-05
8.52006e-06
0.000776564
0.000839523
0.000940838
0.00141596
0.00135701
0.00282947
0.00383809
0.00574239
0.0114222
0.0206012
0.0366402
0.0603339
0.111643
0.188242
0.317883
0.439266
0.479066
0.417949
0.223803
0.0475054
0.00345866
0.000104498
0.0460187
0.0483841
0.0523964
0.0653455
0.068351
0.0989459
0.126367
0.162597
0.23315
0.329002
0.448398
0.573877
0.728161
0.863599
0.958398
0.991599
0.998587
0.974753
0.85055
0.42405
0.0550019
0.00166179
0.395132
0.40517
0.422885
0.462017
0.487546
0.561016
0.632556
0.706353
0.797827
0.883354
0.945878
0.980894
0.995873
0.999413
0.999917
0.99989
0.999516
0.997732
0.988216
0.878398
0.237016
0.0112827
0.893248
0.897606
0.905204
0.917418
0.929127
0.947175
0.962483
0.975471
0.98619
0.993302
0.997216
0.999042
0.999737
0.999929
0.999966
0.999933
0.999683
0.998199
0.990275
0.966688
0.654002
0.117978
0.999565
0.999605
0.999666
0.999741
0.999814
0.999877
0.99992
0.999951
0.99997
0.999982
0.99999
0.999994
0.999997
0.999996
0.999992
0.999976
0.999911
0.999558
0.996706
0.985666
0.926813
0.498432
0.999996
0.999996
0.999997
0.999997
0.999997
0.999998
0.999998
0.999999
0.999999
0.999999
0.999999
0.999999
0.999998
0.999995
0.999989
0.999971
0.999951
0.999878
0.999507
0.996415
0.97295
0.863023
1
1
1
1
1
1
1
1
1
1
0.999999
0.999979
0.999745
0.998768
0.997362
0.994688
0.995838
0.99762
0.998524
0.99799
0.99205
0.968651
1
1
1
1
1
1
1
1
1
0.999978
0.999626
0.996755
0.982303
0.947108
0.906684
0.862461
0.867709
0.89299
0.924976
0.957316
0.980051
0.976979
0.999954
0.999951
0.999949
0.999946
0.999945
0.999947
0.999957
0.999977
0.999879
0.996831
0.978826
0.917121
0.775938
0.593948
0.453814
0.35919
0.325716
0.332669
0.389822
0.54539
0.735892
0.851879
0.984206
0.983587
0.983055
0.982465
0.982214
0.982523
0.985091
0.99092
0.990647
0.938186
0.788425
0.544265
0.277555
0.115718
0.0537668
0.0290078
0.0192668
0.0118515
0.0142559
0.0631841
0.208904
0.345051
0.598293
0.590864
0.583083
0.573561
0.565876
0.561198
0.583638
0.677109
0.791399
0.689853
0.405719
0.137113
0.0242478
0.00608972
0.00262069
0.00119604
0.000568978
0.000276339
0.00037239
0.00047635
0.00647405
0.0192001
0.0129638
0.0119478
0.0108336
0.00950012
0.00831521
0.0071165
0.00742492
0.0158045
0.0723536
0.104932
0.0198615
0.000722141
0.000276881
0.000209466
0.000115757
5.87914e-05
2.53231e-05
7.61851e-06
2.7461e-06
2.96393e-06
2.01494e-05
0.000163647
0.00503451
5.62761e-07
5.34518e-07
4.57162e-07
4.29229e-07
3.36618e-07
1.78985e-07
1.49242e-07
7.94006e-07
3.79226e-06
5.55599e-06
2.44993e-06
9.76756e-07
9.01623e-07
1.85943e-06
1.97504e-06
1.95854e-06
1.34255e-06
3.29485e-07
4.83011e-08
2.19413e-08
2.68192e-07
4.3504e-06
9.9347e-05
2.5636e-07
1.67112e-07
1.43862e-07
1.0561e-07
2.59632e-08
1.39134e-09
8.28229e-10
4.81904e-09
2.09422e-08
2.27987e-08
2.52121e-08
6.30336e-09
2.06829e-09
2.15831e-09
2.54322e-09
2.11469e-09
8.30876e-10
2.35684e-10
4.30801e-10
7.45671e-10
1.12986e-09
9.76919e-09
7.38479e-07
6.48245e-08
3.61489e-08
3.1594e-08
2.84713e-08
1.14344e-08
1.11476e-09
5.23069e-10
1.69227e-09
1.44682e-08
1.81041e-08
1.39634e-09
2.10894e-10
1.15218e-10
8.65067e-11
3.68581e-11
3.92216e-11
4.66669e-11
3.45407e-11
8.56246e-12
2.68077e-12
8.4317e-13
2.90022e-13
4.50707e-12
4.88698e-08
2.39307e-08
1.73083e-08
1.55956e-08
6.13514e-09
1.42944e-09
4.57026e-10
2.22897e-10
4.54232e-10
3.88885e-09
1.05991e-09
1.88064e-10
1.65935e-10
1.15195e-10
2.36676e-11
5.41192e-12
1.54468e-12
6.219e-13
1.91978e-13
5.27404e-14
8.94446e-14
1.32132e-13
1.48683e-13
1.86465e-08
5.30565e-09
1.96482e-09
1.19567e-09
7.49879e-10
5.93338e-10
4.39995e-10
1.05748e-10
6.80694e-11
9.6879e-11
1.08631e-10
1.47893e-10
1.41834e-10
5.75628e-11
8.77663e-12
1.44218e-12
2.37763e-13
4.61431e-14
1.87718e-14
2.12742e-14
6.81714e-14
1.20731e-13
1.63528e-13
1.52383e-09
9.16674e-10
1.11159e-10
4.14734e-11
3.43942e-11
4.97608e-11
7.77634e-11
6.68811e-11
5.23691e-11
4.65688e-11
6.08082e-11
5.52372e-11
3.55094e-11
7.72971e-12
6.77244e-13
1.28043e-14
5.30918e-15
6.0474e-15
1.14171e-14
2.86236e-14
6.03352e-14
8.79335e-14
8.93917e-14
6.89386e-11
1.63346e-10
2.92324e-11
1.70139e-11
1.27829e-11
1.25311e-11
1.40802e-11
2.01911e-11
2.17611e-11
2.33941e-11
1.7413e-11
1.31076e-11
7.5152e-12
2.4853e-12
2.15256e-13
9.9838e-16
1.0584e-15
1.82428e-15
4.11096e-15
8.18817e-15
1.34048e-14
1.80425e-14
1.85498e-14
1.12875e-11
1.89643e-11
1.02738e-11
6.7071e-12
4.98851e-12
4.59565e-12
5.36081e-12
6.99737e-12
7.31089e-12
6.71737e-12
5.67236e-12
3.83697e-12
1.86026e-12
6.12544e-13
6.92423e-14
8.78547e-17
1.07213e-16
2.28262e-16
5.10004e-16
1.02164e-15
1.73704e-15
2.34796e-15
2.25368e-15
2.64658e-12
4.00278e-12
2.05263e-12
1.36316e-12
1.03522e-12
9.87546e-13
1.31791e-12
1.80918e-12
2.01334e-12
1.86144e-12
1.57549e-12
1.05062e-12
4.9557e-13
1.57103e-13
1.91526e-14
2.71021e-18
)
;

boundaryField
{
    leftWall
    {
        type            zeroGradient;
    }
    rightWall
    {
        type            zeroGradient;
    }
    lowerWall
    {
        type            zeroGradient;
    }
    atmosphere
    {
        type            inletOutlet;
        inletValue      nonuniform 0();
        value           nonuniform 0();
    }
    defaultFaces
    {
        type            empty;
    }
    procBoundary0to1
    {
        type            processor;
        value           nonuniform List<scalar> 
26
(
7.26614e-11
1.4828e-09
5.44699e-08
3.44145e-07
2.01198e-06
1.16851e-05
4.18676e-05
4.19347e-05
0.0056099
0.106538
0.472037
0.84328
0.958364
0.914644
0.529905
0.0874731
0.0874731
0.0186835
0.000478728
4.21772e-06
1.77001e-10
1.48162e-13
1.42694e-13
4.45678e-14
8.40753e-15
1.14325e-15
)
;
    }
    procBoundary0to2
    {
        type            processor;
        value           nonuniform List<scalar> 
24
(
6.34801e-18
1.39719e-17
2.8525e-17
5.44674e-17
9.26395e-17
1.32599e-16
1.55937e-16
1.91589e-13
3.40532e-13
1.75679e-13
1.12941e-13
6.70908e-14
7.69285e-14
1.61903e-13
2.79486e-13
3.4471e-13
3.25449e-13
2.81887e-13
2.0082e-13
9.58041e-14
2.83132e-14
3.07801e-15
6.34801e-18
1.23979e-19
)
;
    }
}


// ************************************************************************* //
