/*--------------------------------*- C++ -*----------------------------------*\
| =========                 |                                                 |
| \\      /  F ield         | OpenFOAM: The Open Source CFD Toolbox           |
|  \\    /   O peration     | Version:  2.4.0                                 |
|   \\  /    A nd           | Web:      www.OpenFOAM.org                      |
|    \\/     M anipulation  |                                                 |
\*---------------------------------------------------------------------------*/
FoamFile
{
    version     2.0;
    format      ascii;
    class       volScalarField;
    location    "0.35";
    object      alpha.air;
}
// * * * * * * * * * * * * * * * * * * * * * * * * * * * * * * * * * * * * * //

dimensions      [0 0 0 0 0 0 0];

internalField   nonuniform List<scalar> 
575
(
1.72917e-16
1.69688e-16
1.67766e-16
2.24425e-16
1.59305e-16
3.85528e-16
2.64745e-16
3.1952e-16
7.188e-16
9.97425e-16
9.3115e-16
9.49841e-16
1.5462e-15
2.85995e-15
4.28411e-15
4.09462e-15
2.49289e-15
1.40982e-15
7.41903e-16
3.61622e-16
1.61377e-16
6.53994e-17
3.66183e-15
3.61928e-15
3.62178e-15
4.64196e-15
3.5458e-15
7.0191e-15
5.35383e-15
6.46718e-15
1.21539e-14
1.59294e-14
1.57304e-14
1.65011e-14
2.43661e-14
3.7567e-14
5.01088e-14
4.70086e-14
3.0056e-14
1.75983e-14
9.34173e-15
4.39773e-15
1.82772e-15
6.82286e-16
3.68481e-14
3.66591e-14
3.71473e-14
4.55476e-14
3.72407e-14
6.19427e-14
5.21379e-14
6.22538e-14
9.86913e-14
1.22343e-13
1.27411e-13
1.40774e-13
1.83366e-13
2.33338e-13
2.76179e-13
2.56056e-13
1.75043e-13
1.07195e-13
5.89159e-14
2.82542e-14
1.20806e-14
4.19468e-15
2.34121e-13
2.34005e-13
2.38865e-13
2.79678e-13
2.43118e-13
3.49492e-13
3.1822e-13
3.68067e-13
5.07372e-13
5.99763e-13
6.49502e-13
7.10003e-13
8.1547e-13
9.02444e-13
9.60731e-13
8.74472e-13
6.48436e-13
4.31516e-13
2.5375e-13
1.30634e-13
5.78436e-14
2.02822e-14
1.04064e-12
1.0386e-12
1.05276e-12
1.17236e-12
1.07757e-12
1.36554e-12
1.31862e-12
1.45028e-12
1.76815e-12
2.05424e-12
2.19534e-12
2.23795e-12
2.2954e-12
2.30916e-12
2.28619e-12
2.1109e-12
1.75781e-12
1.31556e-12
8.48456e-13
4.73819e-13
2.23004e-13
8.30814e-14
3.26399e-12
3.21081e-12
3.16167e-12
3.32438e-12
3.22003e-12
3.63954e-12
3.60905e-12
3.77156e-12
4.13081e-12
4.71514e-12
4.80626e-12
4.494e-12
4.1951e-12
3.94249e-12
3.73363e-12
3.49689e-12
3.14547e-12
2.56556e-12
1.76921e-12
1.03225e-12
4.96947e-13
1.92879e-13
6.40627e-12
6.13427e-12
5.78683e-12
5.74945e-12
5.76002e-12
5.90633e-12
6.12702e-12
5.86864e-12
5.87331e-12
7.1497e-12
6.36642e-12
5.56841e-12
4.93937e-12
4.52349e-12
4.22193e-12
3.99009e-12
3.65716e-12
2.90438e-12
2.00921e-12
1.27608e-12
6.53743e-13
2.80069e-13
5.10621e-12
4.99859e-12
4.89104e-12
4.78112e-12
4.66993e-12
4.55916e-12
4.45026e-12
4.34388e-12
4.23747e-12
4.13461e-12
4.04484e-12
3.95007e-12
3.84521e-12
3.71872e-12
3.58386e-12
3.44378e-12
3.31624e-12
3.18034e-12
2.58287e-12
1.56473e-12
7.5471e-13
3.29747e-13
1.99899e-10
2.20657e-10
2.57095e-10
2.78002e-10
2.80841e-10
2.77879e-10
2.5667e-10
2.60169e-10
2.26933e-10
2.0196e-10
2.62334e-10
5.92291e-10
1.28133e-09
1.49249e-09
1.29491e-09
9.54351e-10
4.95186e-10
1.67032e-10
2.56032e-11
8.14355e-12
2.83718e-12
8.65105e-13
1.53842e-09
1.66661e-09
1.80578e-09
1.8803e-09
1.92116e-09
1.96871e-09
1.91224e-09
1.99449e-09
1.98936e-09
2.3814e-09
3.64233e-09
6.30886e-09
9.57291e-09
1.00381e-08
8.32914e-09
5.57858e-09
3.21505e-09
1.66221e-09
6.66797e-10
1.72653e-10
2.74701e-11
8.09412e-12
7.85463e-09
8.16218e-09
8.32882e-09
8.36944e-09
8.43641e-09
8.64651e-09
8.67799e-09
9.18901e-09
1.06118e-08
1.28378e-08
1.58082e-08
1.6425e-08
1.6419e-08
1.62328e-08
1.39086e-08
8.99302e-09
5.17953e-09
3.19277e-09
1.94947e-09
9.03466e-10
2.03353e-10
7.53759e-11
1.90209e-08
1.88288e-08
1.81122e-08
1.74628e-08
1.72972e-08
1.76457e-08
1.86726e-08
2.33632e-08
2.86003e-08
2.40335e-08
1.84291e-08
1.18179e-08
7.34112e-09
4.83576e-09
3.58291e-09
2.70579e-09
2.41587e-09
2.20236e-09
1.84395e-09
1.34282e-09
7.02104e-10
2.18448e-10
4.93542e-08
4.76994e-08
4.47024e-08
4.26722e-08
4.16142e-08
4.18123e-08
4.49535e-08
5.837e-08
3.74133e-08
2.95522e-08
1.85716e-08
1.07461e-08
6.79712e-09
4.49185e-09
2.43749e-09
1.06764e-09
4.25672e-10
4.21987e-10
4.72741e-10
5.81292e-10
5.30915e-10
3.59344e-10
4.57835e-05
4.89614e-05
5.1259e-05
5.3835e-05
5.47393e-05
5.33757e-05
4.31945e-05
2.21571e-05
9.08483e-06
2.58146e-06
1.08976e-06
6.45313e-07
4.54483e-07
3.16375e-07
1.64665e-07
4.49524e-08
8.11578e-09
1.86308e-09
2.26558e-10
1.58321e-10
1.59183e-10
1.53295e-10
0.0157935
0.0164131
0.0169449
0.0175349
0.0177855
0.0174769
0.0149086
0.00900338
0.00365618
0.0010694
0.000680938
0.000235561
8.88625e-05
0.000108129
8.76567e-05
3.00919e-05
3.05727e-06
3.68269e-06
9.08128e-07
3.67064e-07
2.40909e-08
2.63388e-10
0.401706
0.409136
0.416916
0.426439
0.434124
0.438802
0.416359
0.321813
0.16836
0.0730074
0.0626931
0.0347156
0.0206458
0.0109107
0.00600003
0.00255234
0.000788579
0.000411913
0.000315342
0.000211697
3.2675e-05
8.20012e-06
0.987036
0.988052
0.989166
0.990499
0.991684
0.992883
0.992559
0.982443
0.867617
0.614121
0.578019
0.610307
0.54284
0.413158
0.309393
0.198058
0.102108
0.0474965
0.016014
0.00735613
0.00085837
0.000697694
0.000673235
0.999999
0.999999
0.999999
0.999999
0.999999
0.999998
0.99994
0.998594
0.999263
0.999674
0.999803
0.99985
0.999168
0.995383
0.984435
0.945886
0.851874
0.691352
0.475338
0.3344
0.124481
0.0584989
0.0307089
0.999999
0.999999
0.999999
0.999999
0.999999
0.999997
0.999995
0.999998
0.999997
0.999999
0.999999
1
1
1
1
0.999999
0.999996
0.999921
0.99849
0.989793
0.900772
0.750463
0.596956
0.999999
0.999999
0.999999
0.999999
0.999999
0.999999
0.999999
0.999999
0.999999
0.999999
0.999999
0.999999
1
1
1
1
1
1
1
1
0.999999
0.999986
0.999771
0.999998
0.999998
0.999998
0.999998
0.999999
0.999999
0.999999
0.999999
0.999999
0.999999
0.999999
1
0.999999
0.999999
0.999999
0.999999
1
1
1
1
1
1
1
0.999998
0.999998
0.999998
0.999998
0.999999
0.999999
0.999999
0.999999
0.999999
0.999999
1
1
0.999999
0.999999
0.999999
0.999999
0.999999
1
1
1
1
1
1
0.999998
0.999998
0.999998
0.999999
0.999999
0.999999
0.999999
0.999999
0.999999
1
1
1
0.999999
0.999999
0.999999
0.999999
0.999999
1
1
1
1
1
1
0.999999
0.999999
0.999999
0.999999
0.999999
0.999999
0.999999
0.999999
1
1
1
1
0.999999
0.999999
0.999999
1
1
1
1
0.999999
0.999999
0.999999
0.999999
0.999999
0.999999
0.999999
0.999999
0.999999
0.999999
0.999999
1
1
1
1
1
1
1
0.999999
1
1
1
0.999999
0.999999
0.999999
0.999999
0.999999
0.999999
0.999999
0.999999
0.999999
0.999999
0.999999
1
1
1
1
1
1
1
1
1
1
)
;

boundaryField
{
    leftWall
    {
        type            alphaContactAngle;
        thetaProperties 
6
(

(
water
mercury
)
 90 0 0 0

(
water
air
)
 90 0 0 0

(
water
oil
)
 90 0 0 0

(
mercury
air
)
 90 0 0 0

(
oil
mercury
)
 90 0 0 0

(
oil
air
)
 90 0 0 0
);
        value           nonuniform List<scalar> 
26
(
1.72917e-16
3.66183e-15
3.68481e-14
2.34121e-13
1.04064e-12
3.26399e-12
6.40627e-12
5.10621e-12
1.99899e-10
1.53842e-09
7.85463e-09
1.90209e-08
4.93542e-08
4.57835e-05
0.0157935
0.401706
0.987036
0.999999
0.999999
0.999999
0.999998
0.999998
0.999998
0.999999
0.999999
0.999999
)
;
    }
    rightWall
    {
        type            alphaContactAngle;
        thetaProperties 
6
(

(
water
mercury
)
 90 0 0 0

(
water
air
)
 90 0 0 0

(
water
oil
)
 90 0 0 0

(
mercury
air
)
 90 0 0 0

(
oil
mercury
)
 90 0 0 0

(
oil
air
)
 90 0 0 0
);
        value           nonuniform 0();
    }
    lowerWall
    {
        type            alphaContactAngle;
        thetaProperties 
6
(

(
water
mercury
)
 90 0 0 0

(
water
air
)
 90 0 0 0

(
water
oil
)
 90 0 0 0

(
mercury
air
)
 90 0 0 0

(
oil
mercury
)
 90 0 0 0

(
oil
air
)
 90 0 0 0
);
        value           nonuniform List<scalar> 
22
(
1.72917e-16
1.69688e-16
1.67766e-16
2.24425e-16
1.59305e-16
3.85528e-16
2.64745e-16
3.1952e-16
7.188e-16
9.97425e-16
9.3115e-16
9.49841e-16
1.5462e-15
2.85995e-15
4.28411e-15
4.09462e-15
2.49289e-15
1.40982e-15
7.41903e-16
3.61622e-16
1.61377e-16
6.53994e-17
)
;
    }
    atmosphere
    {
        type            inletOutlet;
        inletValue      nonuniform 0();
        value           nonuniform 0();
    }
    defaultFaces
    {
        type            empty;
    }
    procBoundary0to1
    {
        type            processor;
        value           nonuniform List<scalar> 
26
(
1.91794e-17
1.99555e-16
1.06021e-15
4.27393e-15
1.88964e-14
4.55088e-14
7.96945e-14
9.98406e-14
1.42511e-13
1.42017e-12
1.81647e-11
6.0693e-11
1.06765e-10
8.92622e-11
4.27459e-11
8.39139e-07
8.39139e-07
0.000929789
0.0164853
0.462957
0.998827
1
1
1
0.999999
0.999999
)
;
    }
    procBoundary0to2
    {
        type            processor;
        value           nonuniform List<scalar> 
24
(
1
1
1
1
0.999999
0.999999
0.999999
0.999999
0.999999
0.999999
0.999999
0.999999
1
1
1
1
1
1
1
1
1
1
1
1
)
;
    }
}


// ************************************************************************* //
