/*--------------------------------*- C++ -*----------------------------------*\
| =========                 |                                                 |
| \\      /  F ield         | OpenFOAM: The Open Source CFD Toolbox           |
|  \\    /   O peration     | Version:  2.4.0                                 |
|   \\  /    A nd           | Web:      www.OpenFOAM.org                      |
|    \\/     M anipulation  |                                                 |
\*---------------------------------------------------------------------------*/
FoamFile
{
    version     2.0;
    format      ascii;
    class       volScalarField;
    location    "0.35";
    object      alphas;
}
// * * * * * * * * * * * * * * * * * * * * * * * * * * * * * * * * * * * * * //

dimensions      [0 0 0 0 0 0 0];

internalField   nonuniform List<scalar> 
575
(
2
2
2
2
2
2
2
2
2
2
2
2
2
2
2
2
2
2
2
2
2
1.99999
2
2
2
2
2
2
2
2
2
2
2
2
2
2
2
2
2
2
2
2
2
1.99999
2
2
2
2
2
2
2
2
2
2
2
2
2
2
2
2
2
2
2
2
2
1.99999
2
2
2
2
2
2
2
2
2
2
2
2
1.99999
1.99998
1.99991
1.99986
1.99992
1.99996
1.99998
1.99999
1.99999
1.99999
2
2
2
1.99999
1.99999
1.99998
1.99997
1.99995
1.99985
1.99966
1.99925
1.99847
1.99605
1.99077
1.97654
1.96507
1.98196
1.99366
1.99835
1.99965
1.99993
1.99997
1.99845
1.99832
1.99812
1.99717
1.99729
1.99434
1.99232
1.98852
1.97716
1.9588
1.92672
1.87933
1.77671
1.62352
1.36423
1.12138
1.04151
1.16344
1.55203
1.90488
1.99306
1.99977
1.90796
1.90323
1.89521
1.86931
1.8633
1.80211
1.74726
1.67481
1.5337
1.342
1.1032
0.852246
0.543677
0.272802
0.0831952
0.0167133
0.00234637
0.0484979
0.295501
1.15011
1.88968
1.99664
1.20974
1.18966
1.15423
1.07597
1.02491
0.877968
0.734888
0.587294
0.404347
0.233292
0.108244
0.0382112
0.00825354
0.00117252
0.00015935
0.000148156
0.000507023
0.00232735
0.0151795
0.233895
1.52372
1.97726
0.213505
0.204788
0.189593
0.165163
0.141745
0.105651
0.075034
0.0490579
0.0276197
0.0133952
0.00556765
0.00191639
0.000526316
0.000141736
6.15978e-05
8.70667e-05
0.000339608
0.00182395
0.00982032
0.043881
0.672959
1.75815
0.000869698
0.000789683
0.000667234
0.000518436
0.000371653
0.000246133
0.000160284
9.87092e-05
6.03521e-05
3.65021e-05
2.06179e-05
1.19538e-05
5.77212e-06
6.48945e-06
1.07934e-05
2.73511e-05
9.31658e-05
0.00044916
0.00330208
0.0145206
0.110992
0.967494
7.96085e-06
7.46999e-06
6.74813e-06
5.82314e-06
4.88724e-06
3.99848e-06
3.42619e-06
2.75773e-06
2.28266e-06
1.97808e-06
1.73078e-06
1.88438e-06
2.31607e-06
5.31324e-06
1.15837e-05
2.9419e-05
4.90731e-05
0.000122958
0.000493734
0.00359059
0.0287518
0.238214
5.51172e-07
5.34249e-07
5.11678e-07
4.77833e-07
4.3908e-07
3.91544e-07
3.63436e-07
3.13828e-07
3.00794e-07
3.53323e-07
1.05818e-06
2.15849e-05
0.000254767
0.00123233
0.00263846
0.00531212
0.00416167
0.00237991
0.00147633
0.00201045
0.00803599
0.0411301
1.52614e-07
1.47428e-07
1.38035e-07
1.31655e-07
1.28278e-07
1.28589e-07
1.37848e-07
1.77935e-07
3.08739e-07
2.19776e-05
0.000373743
0.00324485
0.0176968
0.0528924
0.0933165
0.137539
0.132291
0.10701
0.075024
0.0426841
0.0199596
0.0238245
0.000137351
0.000146884
0.000153777
0.000161505
0.000164218
0.000160127
0.000129584
6.68814e-05
0.000139234
0.00317399
0.0211764
0.0828806
0.224063
0.406053
0.546187
0.640811
0.674284
0.667331
0.610178
0.45461
0.26411
0.148269
0.0473805
0.0492394
0.0508346
0.0526046
0.0533564
0.0524306
0.0447259
0.0270865
0.0166659
0.0639529
0.212937
0.456206
0.722622
0.884498
0.946409
0.971053
0.980739
0.988156
0.985746
0.936817
0.791097
0.654973
1.20512
1.22741
1.25075
1.27932
1.30237
1.31641
1.24908
0.966516
0.545322
0.456162
0.719667
0.932318
1.01704
1.01573
1.00938
1.00391
1.00101
1.00055
1.00026
0.999947
0.993591
0.98082
2.96111
2.96416
2.9675
2.9715
2.97505
2.97865
2.97769
2.94908
2.66288
2.12331
2.13618
2.21989
2.0854
1.82611
1.61867
1.39606
1.20419
1.09499
1.03203
1.01471
1.0017
1.00123
0.996316
3
3
3
3
3
3
2.99988
2.99719
2.99852
2.99934
2.9996
2.9997
2.99834
2.99076
2.96887
2.89177
2.70375
2.3827
1.95068
1.6688
1.24896
1.11699
1.06132
3
3
3
3
3
2.99999
2.99999
2.99999
2.99999
3
3
3
3
3
3
3
2.99999
2.99984
2.99698
2.97959
2.80154
2.50093
2.19391
3
3
3
3
3
3
3
3
3
3
3
3
3
3
3
3
3
3
3
3
3
2.99997
2.99954
3
3
3
3
3
3
3
3
3
3
3
3
3
3
3
3
3
3
3
3
3
3
3
3
3
3
3
3
3
3
3
3
3
3
3
3
3
3
3
3
3
3
3
3
3
3
3
3
3
3
3
3
3
3
3
3
3
3
3
3
3
3
3
3
3
3
3
3
3
3
3
3
3
3
3
3
3
3
3
3
3
3
3
3
3
3
3
3
3
3
3
3
3
3
3
3
3
3
3
3
3
3
3
3
3
3
3
3
3
3
3
3
3
3
3
3
3
3
3
3
3
3
3
3
3
3
3
3
3
3
3
)
;

boundaryField
{
    leftWall
    {
        type            zeroGradient;
    }
    rightWall
    {
        type            zeroGradient;
    }
    lowerWall
    {
        type            zeroGradient;
    }
    atmosphere
    {
        type            zeroGradient;
    }
    defaultFaces
    {
        type            empty;
    }
    procBoundary0to1
    {
        type            processor;
        value           nonuniform List<scalar> 
26
(
1.99995
1.99995
1.99994
1.99993
1.99993
1.99991
1.99985
1.99983
1.98796
1.77445
1.02284
0.281905
0.0549938
0.0899174
0.470767
0.912595
0.912595
0.983188
1.03249
1.92591
2.99765
3
3
3
3
3
)
;
    }
    procBoundary0to2
    {
        type            processor;
        value           nonuniform List<scalar> 
24
(
3
3
3
3
3
3
3
3
3
3
3
3
3
3
3
3
3
3
3
3
3
3
3
3
)
;
    }
}


// ************************************************************************* //
