/*--------------------------------*- C++ -*----------------------------------*\
| =========                 |                                                 |
| \\      /  F ield         | OpenFOAM: The Open Source CFD Toolbox           |
|  \\    /   O peration     | Version:  2.4.0                                 |
|   \\  /    A nd           | Web:      www.OpenFOAM.org                      |
|    \\/     M anipulation  |                                                 |
\*---------------------------------------------------------------------------*/
FoamFile
{
    version     2.0;
    format      ascii;
    class       surfaceScalarField;
    location    "0.35";
    object      phi;
}
// * * * * * * * * * * * * * * * * * * * * * * * * * * * * * * * * * * * * * //

dimensions      [0 3 -1 0 0 0 0];

internalField   nonuniform List<scalar> 
1101
(
3.42646e-06
-3.42646e-06
6.87806e-06
-3.4516e-06
1.02348e-05
-3.35669e-06
1.39841e-05
-3.74935e-06
1.6794e-05
-2.80985e-06
2.11453e-05
-4.35135e-06
2.43529e-05
-3.20757e-06
2.72266e-05
-2.87368e-06
3.11311e-05
-3.90456e-06
3.54842e-05
-4.35306e-06
3.9078e-05
-3.59377e-06
4.16059e-05
-2.52799e-06
4.37953e-05
-2.18934e-06
4.61067e-05
-2.31137e-06
4.88377e-05
-2.73103e-06
5.10234e-05
-2.18569e-06
5.05005e-05
5.22878e-07
4.78362e-05
2.66427e-06
4.23976e-05
5.43859e-06
3.30895e-05
9.30817e-06
2.11288e-05
1.19607e-05
1.23942e-05
3.42846e-06
-6.85492e-06
6.88378e-06
-6.90691e-06
1.02414e-05
-6.71433e-06
1.39618e-05
-7.46974e-06
1.69387e-05
-5.78674e-06
2.10631e-05
-8.47575e-06
2.42823e-05
-6.42681e-06
2.738e-05
-5.9714e-06
3.13455e-05
-7.86998e-06
3.5493e-05
-8.50064e-06
3.89621e-05
-7.06287e-06
4.14311e-05
-4.99695e-06
4.40498e-05
-4.80801e-06
4.67993e-05
-5.06093e-06
4.97291e-05
-5.66079e-06
5.17426e-05
-4.1992e-06
5.16851e-05
5.80342e-07
4.85724e-05
5.77707e-06
4.22823e-05
1.17287e-05
3.25056e-05
1.90848e-05
2.24429e-05
2.20234e-05
2.32875e-05
3.42897e-06
-1.02839e-05
6.87472e-06
-1.03527e-05
1.02477e-05
-1.00873e-05
1.39102e-05
-1.11323e-05
1.70622e-05
-8.93876e-06
2.08953e-05
-1.23089e-05
2.42184e-05
-9.74986e-06
2.76925e-05
-9.44548e-06
3.15895e-05
-1.1767e-05
3.52291e-05
-1.21402e-05
3.83334e-05
-1.01672e-05
4.15366e-05
-8.2002e-06
4.50601e-05
-8.33145e-06
4.79948e-05
-7.99572e-06
5.07041e-05
-8.37004e-06
5.23646e-05
-5.85972e-06
5.19732e-05
9.71767e-07
4.94449e-05
8.30533e-06
4.26003e-05
1.85733e-05
3.3724e-05
2.79612e-05
2.21014e-05
3.3646e-05
3.31333e-05
3.43012e-06
-1.3714e-05
6.85911e-06
-1.37817e-05
1.02609e-05
-1.34891e-05
1.38493e-05
-1.47207e-05
1.71565e-05
-1.22459e-05
2.07852e-05
-1.59376e-05
2.41737e-05
-1.31383e-05
2.78654e-05
-1.31372e-05
3.18297e-05
-1.57312e-05
3.46439e-05
-1.49545e-05
3.79523e-05
-1.34756e-05
4.19631e-05
-1.2211e-05
4.60327e-05
-1.24011e-05
4.93293e-05
-1.12923e-05
5.1817e-05
-1.08577e-05
5.22621e-05
-6.30481e-06
5.19187e-05
1.3151e-06
4.9983e-05
1.02411e-05
4.40244e-05
2.45318e-05
3.46816e-05
3.7304e-05
2.14695e-05
4.68581e-05
4.49149e-05
3.43082e-06
-1.71448e-05
6.85147e-06
-1.72023e-05
1.0272e-05
-1.69096e-05
1.38082e-05
-1.82568e-05
1.72006e-05
-1.56383e-05
2.06405e-05
-1.93776e-05
2.42524e-05
-1.67502e-05
2.80554e-05
-1.69402e-05
3.16529e-05
-1.93287e-05
3.45156e-05
-1.78172e-05
3.82931e-05
-1.7253e-05
4.24107e-05
-1.63286e-05
4.63798e-05
-1.63702e-05
4.98678e-05
-1.47803e-05
5.24654e-05
-1.34553e-05
5.3601e-05
-7.44039e-06
5.3472e-05
1.44411e-06
5.28973e-05
1.08158e-05
4.88169e-05
2.86122e-05
4.14741e-05
4.46467e-05
2.76805e-05
6.06517e-05
5.88228e-05
3.44158e-06
-2.05864e-05
6.87118e-06
-2.06319e-05
1.03427e-05
-2.03811e-05
1.37484e-05
-2.16625e-05
1.73332e-05
-1.92231e-05
2.04921e-05
-2.25365e-05
2.4534e-05
-2.07921e-05
2.83683e-05
-2.07744e-05
3.13198e-05
-2.22803e-05
3.49212e-05
-2.14186e-05
3.89705e-05
-2.13023e-05
4.25592e-05
-1.99174e-05
4.58887e-05
-1.96996e-05
4.85451e-05
-1.74368e-05
5.08473e-05
-1.57575e-05
5.29566e-05
-9.54964e-06
5.44191e-05
-1.83984e-08
5.169e-05
1.35449e-05
4.70551e-05
3.32471e-05
4.19849e-05
4.97169e-05
3.06294e-05
7.20072e-05
7.45285e-05
3.46806e-06
-2.40545e-05
6.93145e-06
-2.40953e-05
1.04813e-05
-2.3931e-05
1.36544e-05
-2.48357e-05
1.76843e-05
-2.32529e-05
2.04433e-05
-2.52956e-05
2.4596e-05
-2.49447e-05
2.82331e-05
-2.44115e-05
3.09647e-05
-2.50119e-05
3.39775e-05
-2.44315e-05
3.64915e-05
-2.38162e-05
3.74623e-05
-2.08882e-05
3.72624e-05
-1.94997e-05
3.55558e-05
-1.57302e-05
3.16587e-05
-1.18605e-05
2.86942e-05
-6.58513e-06
2.69507e-05
1.7251e-06
3.10694e-05
9.42621e-06
3.68908e-05
2.74257e-05
3.40715e-05
5.25362e-05
3.10361e-05
7.50426e-05
8.51702e-05
3.45877e-06
-2.75132e-05
6.91396e-06
-2.75505e-05
1.05206e-05
-2.75376e-05
1.33784e-05
-2.76935e-05
1.77938e-05
-2.76683e-05
2.02803e-05
-2.77821e-05
2.28599e-05
-2.75243e-05
2.51935e-05
-2.67451e-05
2.61877e-05
-2.60061e-05
2.55999e-05
-2.38437e-05
2.28994e-05
-2.11156e-05
1.97373e-05
-1.77261e-05
1.63849e-05
-1.61473e-05
1.4207e-05
-1.35523e-05
1.49097e-05
-1.25632e-05
1.60295e-05
-7.70497e-06
1.82633e-05
-5.08682e-07
2.17296e-05
5.95994e-06
2.39171e-05
2.52381e-05
2.09411e-05
5.55123e-05
2.48493e-05
7.11343e-05
9.16926e-05
5.64611e-06
-3.31593e-05
1.11882e-05
-3.30926e-05
1.61646e-05
-3.2514e-05
1.9974e-05
-3.1503e-05
2.3708e-05
-3.14023e-05
2.63641e-05
-3.04382e-05
2.70022e-05
-2.81624e-05
2.96694e-05
-2.94123e-05
3.15395e-05
-2.78763e-05
3.30597e-05
-2.53638e-05
3.8209e-05
-2.6265e-05
4.77437e-05
-2.72608e-05
5.68052e-05
-2.52089e-05
6.57379e-05
-2.2485e-05
6.60685e-05
-1.28937e-05
6.20823e-05
-3.71881e-06
5.02059e-05
1.13677e-05
3.64432e-05
1.97227e-05
2.95821e-05
3.20991e-05
3.54064e-05
4.96881e-05
3.71188e-05
6.94219e-05
7.87187e-05
2.93534e-06
-3.60947e-05
6.14793e-06
-3.63052e-05
9.53496e-06
-3.5901e-05
1.35745e-05
-3.55425e-05
1.76118e-05
-3.54396e-05
2.27113e-05
-3.55377e-05
2.79364e-05
-3.33876e-05
3.44249e-05
-3.59008e-05
4.05599e-05
-3.40112e-05
4.75598e-05
-3.23638e-05
5.40949e-05
-3.28001e-05
5.87534e-05
-3.19194e-05
6.10849e-05
-2.75403e-05
5.97387e-05
-2.11387e-05
5.87085e-05
-1.18635e-05
6.22343e-05
-7.24469e-06
6.97123e-05
3.88975e-06
7.22023e-05
1.72327e-05
6.95349e-05
3.47665e-05
6.50687e-05
5.41543e-05
4.87194e-05
8.57712e-05
7.69081e-05
5.00024e-06
-4.10949e-05
9.98943e-06
-4.12943e-05
1.50509e-05
-4.09625e-05
2.015e-05
-4.06416e-05
2.48991e-05
-4.01887e-05
2.98355e-05
-4.04741e-05
3.46548e-05
-3.82069e-05
4.01243e-05
-4.13703e-05
4.50112e-05
-3.88981e-05
5.1879e-05
-3.92316e-05
5.85962e-05
-3.95173e-05
6.43097e-05
-3.76329e-05
7.00409e-05
-3.32715e-05
7.80836e-05
-2.91815e-05
8.40636e-05
-1.78435e-05
8.93895e-05
-1.25706e-05
8.97795e-05
3.49978e-06
9.24095e-05
1.46026e-05
9.47675e-05
3.24086e-05
9.75468e-05
5.1375e-05
9.99288e-05
8.33892e-05
9.8928e-05
5.31849e-06
-4.64134e-05
1.0586e-05
-4.65618e-05
1.58327e-05
-4.62093e-05
2.0862e-05
-4.56709e-05
2.56957e-05
-4.50223e-05
3.00842e-05
-4.48626e-05
3.50997e-05
-4.32223e-05
3.93894e-05
-4.56599e-05
4.4495e-05
-4.40038e-05
5.27353e-05
-4.74718e-05
6.09066e-05
-4.76885e-05
6.72666e-05
-4.39929e-05
7.4014e-05
-4.00189e-05
8.02733e-05
-3.54408e-05
8.75356e-05
-2.51058e-05
9.45581e-05
-1.95931e-05
0.000104083
-6.02532e-06
0.000110376
8.31012e-06
0.000119389
2.33957e-05
0.000124597
4.61667e-05
0.000141795
6.61907e-05
9.83525e-05
5.50387e-06
-5.19173e-05
1.09739e-05
-5.20319e-05
1.62773e-05
-5.15127e-05
2.13689e-05
-5.07625e-05
2.6139e-05
-4.97924e-05
3.01936e-05
-4.89173e-05
3.4779e-05
-4.78078e-05
3.81998e-05
-4.90807e-05
4.39449e-05
-4.9749e-05
5.30775e-05
-5.66044e-05
6.16945e-05
-5.63055e-05
6.93297e-05
-5.16282e-05
7.81613e-05
-4.88504e-05
8.61278e-05
-4.34073e-05
9.57382e-05
-3.47162e-05
0.000102324
-2.61788e-05
0.000109149
-1.28508e-05
0.000117425
3.41644e-08
0.000127662
1.31593e-05
0.000138846
3.49821e-05
0.000149661
5.53754e-05
7.14783e-05
5.80158e-06
-5.77189e-05
1.15316e-05
-5.77619e-05
1.70155e-05
-5.69965e-05
2.21816e-05
-5.59286e-05
2.679e-05
-5.44007e-05
3.05671e-05
-5.26944e-05
3.3885e-05
-5.11256e-05
3.64223e-05
-5.1618e-05
4.24395e-05
-5.57662e-05
5.16277e-05
-6.57926e-05
5.9136e-05
-6.38137e-05
6.49429e-05
-5.74351e-05
6.75883e-05
-5.14958e-05
6.77508e-05
-4.35698e-05
6.85573e-05
-3.55226e-05
7.14864e-05
-2.91079e-05
7.98132e-05
-2.11776e-05
9.24554e-05
-1.26081e-05
0.000105113
5.02196e-07
0.000122676
1.74184e-05
0.000136701
4.13504e-05
4.11809e-05
6.36552e-06
-6.40844e-05
1.2445e-05
-6.38413e-05
1.83335e-05
-6.2885e-05
2.37481e-05
-6.13432e-05
2.8287e-05
-5.89397e-05
3.09084e-05
-5.53158e-05
3.05301e-05
-5.07474e-05
2.93454e-05
-5.04332e-05
3.30453e-05
-5.94661e-05
3.8215e-05
-7.09623e-05
3.71169e-05
-6.27157e-05
2.62854e-05
-4.66035e-05
1.0388e-05
-3.55984e-05
-1.86584e-06
-3.1316e-05
-5.73256e-06
-3.16559e-05
-3.25072e-06
-3.15897e-05
3.06281e-06
-2.74911e-05
1.64845e-05
-2.60298e-05
3.5646e-05
-1.86593e-05
6.45477e-05
-1.14834e-05
9.43421e-05
1.15561e-05
1.00833e-05
6.78635e-06
-7.08707e-05
1.30538e-05
-7.01088e-05
1.91952e-05
-6.90264e-05
2.50746e-05
-6.72227e-05
3.05996e-05
-6.44647e-05
3.47954e-05
-5.95116e-05
3.31163e-05
-4.90682e-05
1.97377e-05
-3.70546e-05
8.04085e-06
-4.77693e-05
-5.45202e-06
-5.74695e-05
-2.26241e-05
-4.55437e-05
-4.01331e-05
-2.90945e-05
-4.43663e-05
-3.13652e-05
-4.12042e-05
-3.44781e-05
-3.51532e-05
-3.7707e-05
-2.69267e-05
-3.98162e-05
-1.70423e-05
-3.73755e-05
-6.23963e-06
-3.68324e-05
3.90643e-06
-2.88054e-05
2.09058e-05
-2.84828e-05
4.49124e-05
-1.24505e-05
-1.66214e-05
1.89017e-06
-7.27609e-05
3.5888e-06
-7.18074e-05
5.71183e-06
-7.11494e-05
8.45796e-06
-6.99688e-05
1.40637e-05
-7.00704e-05
2.38903e-05
-6.93382e-05
3.22662e-05
-5.74442e-05
1.35509e-05
-1.83393e-05
-3.06615e-05
-3.55686e-06
-7.97558e-05
-8.37512e-06
-9.26479e-05
-3.26516e-05
-8.07276e-05
-4.10148e-05
-6.27724e-05
-4.93205e-05
-4.89104e-05
-4.83401e-05
-3.94252e-05
-4.71922e-05
-2.92614e-05
-4.998e-05
-1.90647e-05
-4.75723e-05
-1.10689e-05
-4.48281e-05
-8.836e-07
-3.89907e-05
1.1841e-05
-4.12074e-05
3.01539e-05
-3.07634e-05
4.63995e-05
-3.2867e-05
-3.29386e-05
-1.3179e-05
-5.95819e-05
-2.35282e-05
-6.14582e-05
-3.07622e-05
-6.39154e-05
-3.32627e-05
-6.74683e-05
-3.04697e-05
-7.28634e-05
-2.02297e-05
-7.95782e-05
5.37634e-06
-8.30502e-05
5.17213e-05
-6.46843e-05
4.71328e-05
1.03158e-06
-2.35484e-05
6.23061e-05
-3.90098e-05
-1.71902e-05
-1.82782e-05
-6.17463e-05
-5.42113e-06
-6.21775e-05
-2.09233e-07
-5.3552e-05
-1.68235e-06
-4.5719e-05
8.55375e-07
-5.25177e-05
1.84757e-06
-4.85645e-05
4.42344e-06
-4.7404e-05
8.92578e-06
-4.34931e-05
1.45042e-05
-4.67858e-05
2.75983e-05
-4.38575e-05
3.82502e-05
-4.3519e-05
-4.24474e-05
-9.53596e-06
-5.0046e-05
-1.70176e-05
-5.39766e-05
-2.28591e-05
-5.80739e-05
-2.67889e-05
-6.35385e-05
-2.9692e-05
-6.99603e-05
-3.50526e-05
-7.42176e-05
-4.46095e-05
-7.34933e-05
-4.74851e-05
-6.18086e-05
-3.57427e-05
-1.07109e-05
-1.00049e-05
3.65683e-05
1.92284e-05
-4.64235e-05
3.9896e-05
-8.24139e-05
6.21393e-05
-8.44209e-05
8.93785e-05
-8.07911e-05
0.000120436
-7.67768e-05
0.000136564
-6.86453e-05
0.000138117
-5.01173e-05
0.000113991
-2.32781e-05
8.1494e-05
-1.09962e-05
5.75346e-05
-2.28264e-05
6.04879e-05
-4.68107e-05
5.87011e-05
-4.17322e-05
-5.08142e-05
-7.23497e-06
-4.2811e-05
-1.24382e-05
-4.87734e-05
-1.57851e-05
-5.4727e-05
-1.7566e-05
-6.17575e-05
-1.84307e-05
-6.90956e-05
-1.81427e-05
-7.45056e-05
-1.67868e-05
-7.48492e-05
-1.52362e-05
-6.33592e-05
-1.40396e-05
-1.19075e-05
1.06388e-05
1.18898e-05
1.81468e-05
-5.39314e-05
2.08265e-05
-8.50936e-05
2.38704e-05
-8.74649e-05
2.57172e-05
-8.26379e-05
2.78079e-05
-7.88674e-05
3.05634e-05
-7.14008e-05
4.03122e-05
-5.98662e-05
7.37465e-05
-5.67124e-05
0.000118896
-5.61462e-05
0.000160899
-6.48289e-05
0.000171603
-5.75149e-05
0.000164847
-3.49766e-05
-2.35816e-05
-8.58967e-08
-4.27251e-05
-4.81898e-07
-4.83774e-05
-1.9209e-06
-5.32879e-05
-4.98076e-06
-5.86977e-05
-1.05527e-05
-6.35237e-05
-1.87372e-05
-6.6321e-05
-2.84501e-05
-6.51364e-05
-3.35142e-05
-5.82951e-05
-3.48742e-06
-4.19343e-05
3.7562e-05
-2.91596e-05
4.70965e-05
-6.34659e-05
4.04785e-05
-7.84756e-05
3.80927e-05
-8.50791e-05
3.95429e-05
-8.40881e-05
4.12056e-05
-8.05302e-05
4.16814e-05
-7.18766e-05
3.82794e-05
-5.64642e-05
2.89594e-05
-4.73924e-05
1.64107e-05
-4.35975e-05
-6.73921e-08
-4.83508e-05
-6.64112e-06
-5.09412e-05
7.77558e-06
-4.93933e-05
-3.44565e-05
4.73649e-07
-4.31987e-05
1.08352e-06
-4.89872e-05
7.51658e-07
-5.29561e-05
-7.32635e-07
-5.72134e-05
-3.43149e-06
-6.08248e-05
-7.0618e-06
-6.26907e-05
-1.03522e-05
-6.18459e-05
-1.14644e-05
-5.7183e-05
-4.48756e-06
-4.89111e-05
1.08565e-05
-4.45036e-05
1.31564e-05
-6.57658e-05
1.04373e-05
-7.57565e-05
8.61719e-06
-8.3259e-05
1.06165e-05
-8.60874e-05
1.41725e-05
-8.40862e-05
1.74573e-05
-7.51613e-05
2.28506e-05
-6.18575e-05
2.81701e-05
-5.27119e-05
2.95729e-05
-4.50003e-05
1.82001e-05
-3.6978e-05
-5.19549e-06
-2.75455e-05
-2.65228e-05
-2.8066e-05
-1.60504e-05
2.03537e-06
-4.52341e-05
3.18651e-06
-5.01384e-05
3.05521e-06
-5.28248e-05
1.53659e-06
-5.56948e-05
-1.34426e-06
-5.7944e-05
-5.25867e-06
-5.87763e-05
-9.11897e-06
-5.79857e-05
-1.05045e-05
-5.57974e-05
-5.86356e-06
-5.35521e-05
1.53187e-06
-5.18991e-05
1.77887e-07
-6.44118e-05
-3.94922e-06
-7.16294e-05
-9.12813e-06
-7.80801e-05
-1.4632e-05
-8.05835e-05
-1.99897e-05
-7.87286e-05
-2.57564e-05
-6.93946e-05
-2.99917e-05
-5.76222e-05
-3.40573e-05
-4.86462e-05
-3.87959e-05
-4.02618e-05
-4.37894e-05
-3.19845e-05
-4.41797e-05
-2.71552e-05
-4.4579e-05
-2.76668e-05
-2.39085e-05
1.72775e-06
-4.69619e-05
2.66678e-06
-5.10774e-05
2.5624e-06
-5.27204e-05
1.17799e-06
-5.43104e-05
-1.51642e-06
-5.52496e-05
-4.86985e-06
-5.54229e-05
-7.89151e-06
-5.4964e-05
-9.39612e-06
-5.42928e-05
-8.73829e-06
-5.42099e-05
-5.89101e-06
-5.47464e-05
-8.74428e-06
-6.15585e-05
-1.40629e-05
-6.63108e-05
-2.20153e-05
-7.01277e-05
-3.00605e-05
-7.25383e-05
-3.74012e-05
-7.13878e-05
-4.29392e-05
-6.38567e-05
-4.6631e-05
-5.39304e-05
-4.90785e-05
-4.61987e-05
-5.08949e-05
-3.84454e-05
-5.09475e-05
-3.19319e-05
-4.91258e-05
-2.89769e-05
-4.80635e-05
-2.87291e-05
-2.3137e-05
6.22517e-07
-4.75844e-05
7.48523e-07
-5.12034e-05
-5.17929e-08
-5.19201e-05
-1.73649e-06
-5.26257e-05
-3.95082e-06
-5.30353e-05
-6.1894e-06
-5.31843e-05
-8.12741e-06
-5.3026e-05
-9.50028e-06
-5.29199e-05
-1.02147e-05
-5.34954e-05
-1.04791e-05
-5.4482e-05
-1.48077e-05
-5.72299e-05
-2.12421e-05
-5.98764e-05
-2.92379e-05
-6.21318e-05
-3.694e-05
-6.48362e-05
-4.42726e-05
-6.40553e-05
-5.01591e-05
-5.79701e-05
-5.39867e-05
-5.51735e-05
-5.35315e-05
-5.14934e-05
-5.01032e-05
-5.01358e-05
-2.2665e-07
-9.27695e-07
-2.15602e-06
-3.5999e-06
-5.04791e-06
-6.4927e-06
-7.64125e-06
-8.48488e-06
-9.63711e-06
-1.12219e-05
-1.48693e-05
-2.04276e-05
-2.67327e-05
-3.45359e-05
-4.23491e-05
)
;

boundaryField
{
    leftWall
    {
        type            calculated;
        value           uniform 0;
    }
    rightWall
    {
        type            calculated;
        value           nonuniform 0();
    }
    lowerWall
    {
        type            calculated;
        value           nonuniform List<scalar> 
22
(
-2.29484e-23
-6.84346e-23
1.36989e-22
1.10529e-22
6.64168e-23
2.02069e-23
-6.88565e-24
-1.98202e-22
3.95014e-24
1.8362e-23
-8.2025e-23
1.33845e-22
2.47141e-22
-6.47996e-23
-5.85437e-23
8.91626e-23
1.84805e-22
-5.27687e-23
-5.80942e-23
4.69064e-23
1.49817e-22
1.8857e-22
)
;
    }
    atmosphere
    {
        type            calculated;
        value           nonuniform 0();
    }
    defaultFaces
    {
        type            empty;
        value           nonuniform 0();
    }
    procBoundary0to1
    {
        type            processor;
        value           nonuniform List<scalar> 
26
(
8.73455e-06
1.15496e-05
1.22556e-05
9.68793e-06
1.37727e-05
1.49237e-05
2.03944e-05
1.83269e-05
5.00927e-05
5.053e-05
7.79088e-05
0.000142371
0.000176536
0.000166999
0.00012544
7.1617e-05
1.60747e-05
6.32634e-05
4.77591e-05
6.70678e-05
0.000137615
1.86505e-05
-4.49289e-05
-3.67209e-05
-4.8835e-05
-4.78097e-05
)
;
    }
    procBoundary0to2
    {
        type            processor;
        value           nonuniform List<scalar> 
24
(
-5.01028e-05
-4.50119e-05
-4.00874e-05
-3.397e-05
-3.0367e-05
-2.86965e-05
-2.54632e-05
-4.73577e-05
-5.05024e-05
-5.06918e-05
-5.11818e-05
-5.15872e-05
-5.17395e-05
-5.18774e-05
-5.20763e-05
-5.23432e-05
-5.28972e-05
-5.35825e-05
-5.43181e-05
-5.58267e-05
-5.70331e-05
-5.6242e-05
-4.66008e-05
-5.37185e-05
)
;
    }
}


// ************************************************************************* //
