/*--------------------------------*- C++ -*----------------------------------*\
| =========                 |                                                 |
| \\      /  F ield         | OpenFOAM: The Open Source CFD Toolbox           |
|  \\    /   O peration     | Version:  2.4.0                                 |
|   \\  /    A nd           | Web:      www.OpenFOAM.org                      |
|    \\/     M anipulation  |                                                 |
\*---------------------------------------------------------------------------*/
FoamFile
{
    version     2.0;
    format      ascii;
    class       surfaceScalarField;
    location    "0.35";
    object      phi.water;
}
// * * * * * * * * * * * * * * * * * * * * * * * * * * * * * * * * * * * * * //

dimensions      [0 3 -1 0 0 0 0];

internalField   nonuniform List<scalar> 
1101
(
3.42647e-06
-3.42625e-06
6.87807e-06
-3.45143e-06
1.02348e-05
-3.35653e-06
1.39841e-05
-3.74915e-06
1.6794e-05
-2.80965e-06
2.11453e-05
-4.35096e-06
2.43529e-05
-3.20718e-06
2.72266e-05
-2.87309e-06
3.11312e-05
-3.90345e-06
3.54842e-05
-4.35152e-06
3.9078e-05
-3.59198e-06
4.1606e-05
-2.52569e-06
4.37954e-05
-2.18625e-06
4.61067e-05
-2.30772e-06
4.88377e-05
-2.72724e-06
5.10233e-05
-2.18184e-06
5.05004e-05
5.26286e-07
4.78362e-05
2.6669e-06
4.23976e-05
5.44013e-06
3.30895e-05
9.30942e-06
2.11288e-05
1.19623e-05
1.23956e-05
3.42846e-06
-6.85328e-06
6.88378e-06
-6.90558e-06
1.02414e-05
-6.71297e-06
1.39618e-05
-7.46802e-06
1.69387e-05
-5.78506e-06
2.10631e-05
-8.47277e-06
2.42824e-05
-6.4238e-06
2.73802e-05
-5.96735e-06
3.13457e-05
-7.86327e-06
3.54933e-05
-8.49198e-06
3.89623e-05
-7.05298e-06
4.14314e-05
-4.98564e-06
4.405e-05
-4.79454e-06
4.67994e-05
-5.04849e-06
4.9729e-05
-5.64768e-06
5.17423e-05
-4.18384e-06
5.16848e-05
5.94343e-07
4.85721e-05
5.78852e-06
4.2282e-05
1.17423e-05
3.25052e-05
1.91113e-05
2.24426e-05
2.20747e-05
2.33401e-05
3.42893e-06
-1.02751e-05
6.87476e-06
-1.03454e-05
1.02478e-05
-1.00797e-05
1.39103e-05
-1.11232e-05
1.70625e-05
-8.92956e-06
2.08955e-05
-1.22958e-05
2.42188e-05
-9.73677e-06
2.76932e-05
-9.43032e-06
3.15904e-05
-1.17432e-05
3.52299e-05
-1.21014e-05
3.83341e-05
-1.00968e-05
4.15377e-05
-8.0588e-06
4.50625e-05
-7.87275e-06
4.79959e-05
-6.69829e-06
5.07038e-05
-4.23569e-06
5.23637e-05
-3.57661e-07
5.19714e-05
4.15871e-06
4.94431e-05
9.65036e-06
4.25926e-05
1.91406e-05
3.37036e-05
2.83366e-05
2.2087e-05
3.39917e-05
3.34302e-05
3.42996e-06
-1.34801e-05
6.85929e-06
-1.35214e-05
1.02614e-05
-1.31911e-05
1.38496e-05
-1.41506e-05
1.71568e-05
-1.17984e-05
2.07857e-05
-1.44534e-05
2.41743e-05
-1.14541e-05
2.78653e-05
-1.04689e-05
3.18303e-05
-8.87443e-06
3.46434e-05
-3.97923e-06
3.79561e-05
1.84501e-06
4.19743e-05
9.70708e-06
4.59731e-05
1.33122e-05
4.82694e-05
1.49842e-05
5.157e-05
1.58706e-05
5.16216e-05
2.07091e-05
5.11655e-05
2.52723e-05
4.96825e-05
2.81229e-05
4.38412e-05
3.50599e-05
3.45183e-05
3.97893e-05
2.13577e-05
4.77176e-05
4.57152e-05
3.43371e-06
4.70513e-06
6.85655e-06
5.33364e-06
1.02903e-05
6.55354e-06
1.38091e-05
6.62956e-06
1.72139e-05
9.7233e-06
2.07017e-05
6.02105e-06
2.43127e-05
8.98726e-06
2.75844e-05
8.94864e-06
3.12603e-05
6.64801e-06
3.38512e-05
9.05367e-06
3.80866e-05
1.14255e-05
4.26335e-05
1.54254e-05
4.74284e-05
1.79214e-05
5.11168e-05
1.96606e-05
5.3258e-05
2.11779e-05
5.28605e-05
2.79314e-05
5.11116e-05
3.92808e-05
4.87467e-05
5.2809e-05
4.00224e-05
6.80292e-05
3.70417e-05
6.29426e-05
2.70708e-05
6.05965e-05
5.9368e-05
3.60837e-06
1.01876e-05
7.17711e-06
1.04907e-05
1.08031e-05
1.13325e-05
1.42524e-05
1.08194e-05
1.81027e-05
1.33811e-05
2.13548e-05
1.00684e-05
2.55911e-05
1.18777e-05
2.95875e-05
1.19097e-05
3.24991e-05
1.00382e-05
3.61434e-05
1.04172e-05
4.02125e-05
9.33357e-06
4.35342e-05
9.1084e-06
4.64642e-05
7.23077e-06
4.89212e-05
8.37288e-06
5.09917e-05
6.88258e-06
5.27951e-05
9.23274e-06
5.38e-05
1.85643e-05
4.77712e-05
3.16051e-05
3.92186e-05
5.83044e-05
3.48983e-05
8.41159e-05
2.01053e-05
0.00010751
7.98621e-05
3.63544e-06
5.15792e-06
7.24338e-06
4.95787e-06
1.10053e-05
4.88586e-06
1.41512e-05
3.2125e-06
1.8481e-05
4.92869e-06
2.12052e-05
1.78749e-06
2.5607e-05
1.45216e-06
2.9206e-05
7.14285e-07
3.18404e-05
-1.55517e-06
3.45975e-05
-2.54653e-06
3.68502e-05
-4.89383e-06
3.73075e-05
-5.1783e-06
3.69876e-05
-9.24891e-06
3.53066e-05
-1.04937e-05
3.15053e-05
-1.07813e-05
2.8657e-05
-6.39495e-06
2.67819e-05
1.74709e-06
2.95032e-05
9.9155e-06
3.15373e-05
3.11762e-05
2.37875e-05
6.78292e-05
2.31977e-05
0.000100829
0.000116565
3.59048e-06
-5.54755e-06
7.16391e-06
-5.83437e-06
1.09421e-05
-6.26198e-06
1.38265e-05
-7.35943e-06
1.86e-05
-8.16499e-06
2.09163e-05
-1.04757e-05
2.34105e-05
-1.26328e-05
2.55158e-05
-1.46324e-05
2.62826e-05
-1.70659e-05
2.56235e-05
-1.80243e-05
2.28647e-05
-1.80907e-05
1.96967e-05
-1.65303e-05
1.63686e-05
-1.58971e-05
1.42051e-05
-1.35238e-05
1.49096e-05
-1.25615e-05
1.60303e-05
-7.70462e-06
1.82659e-05
-5.12642e-07
2.17116e-05
5.92742e-06
2.26429e-05
2.52141e-05
1.13358e-05
5.94984e-05
1.50575e-05
8.68517e-05
0.000116308
5.63326e-06
-2.92228e-05
1.11667e-05
-2.9339e-05
1.61172e-05
-2.90795e-05
1.99456e-05
-2.85844e-05
2.36344e-05
-2.90706e-05
2.6237e-05
-2.89278e-05
2.68612e-05
-2.72694e-05
2.95508e-05
-2.89273e-05
3.14532e-05
-2.76211e-05
3.30162e-05
-2.52388e-05
3.81963e-05
-2.62154e-05
4.77439e-05
-2.72441e-05
5.6806e-05
-2.52053e-05
6.57382e-05
-2.24848e-05
6.60687e-05
-1.28937e-05
6.20847e-05
-3.71886e-06
5.02164e-05
1.13668e-05
3.64721e-05
1.97123e-05
2.94665e-05
3.20024e-05
2.96843e-05
4.96741e-05
2.49015e-05
7.6143e-05
9.02654e-05
2.93509e-06
-3.60883e-05
6.14757e-06
-3.62995e-05
9.5346e-06
-3.58965e-05
1.35743e-05
-3.55393e-05
1.76117e-05
-3.54377e-05
2.27114e-05
-3.55369e-05
2.79366e-05
-3.33873e-05
3.4425e-05
-3.59008e-05
4.05599e-05
-3.40113e-05
4.75598e-05
-3.23638e-05
5.40949e-05
-3.28001e-05
5.87535e-05
-3.19194e-05
6.10849e-05
-2.75403e-05
5.97387e-05
-2.11387e-05
5.87085e-05
-1.18635e-05
6.22348e-05
-7.24472e-06
6.97152e-05
3.88964e-06
7.22254e-05
1.72312e-05
6.95814e-05
3.47411e-05
6.51691e-05
5.40004e-05
4.70615e-05
8.6499e-05
8.64507e-05
5.00024e-06
-4.1095e-05
9.98943e-06
-4.12944e-05
1.50509e-05
-4.09626e-05
2.015e-05
-4.06416e-05
2.48992e-05
-4.01887e-05
2.98355e-05
-4.04741e-05
3.46548e-05
-3.82069e-05
4.01243e-05
-4.13703e-05
4.50112e-05
-3.88981e-05
5.1879e-05
-3.92316e-05
5.85962e-05
-3.95173e-05
6.43097e-05
-3.76329e-05
7.00409e-05
-3.32736e-05
7.80836e-05
-2.91933e-05
8.40637e-05
-1.78617e-05
8.93896e-05
-1.25996e-05
8.978e-05
3.48801e-06
9.24137e-05
1.45953e-05
9.47907e-05
3.23977e-05
9.75747e-05
5.13323e-05
0.000100862
8.31198e-05
0.000101786
5.31849e-06
-4.64134e-05
1.0586e-05
-4.65618e-05
1.58327e-05
-4.62093e-05
2.0862e-05
-4.56709e-05
2.56957e-05
-4.50223e-05
3.00842e-05
-4.48626e-05
3.50997e-05
-4.32223e-05
3.93894e-05
-4.56599e-05
4.4495e-05
-4.40038e-05
5.27353e-05
-4.74719e-05
6.09066e-05
-4.7693e-05
6.72691e-05
-4.40282e-05
7.40209e-05
-4.01535e-05
8.02737e-05
-3.58359e-05
8.75329e-05
-2.58436e-05
9.45615e-05
-2.07584e-05
0.000104085
-7.29629e-06
0.000110377
7.26589e-06
0.000119388
2.26876e-05
0.0001246
4.5777e-05
0.000141984
6.5948e-05
9.83215e-05
5.50387e-06
-5.19174e-05
1.09739e-05
-5.2032e-05
1.62773e-05
-5.15128e-05
2.13689e-05
-5.07626e-05
2.6139e-05
-4.97925e-05
3.01936e-05
-4.89174e-05
3.4779e-05
-4.78078e-05
3.81998e-05
-4.90807e-05
4.3945e-05
-4.97501e-05
5.30807e-05
-5.66436e-05
6.17072e-05
-5.64714e-05
6.93334e-05
-5.22753e-05
7.81946e-05
-5.08943e-05
8.62646e-05
-4.76898e-05
9.59729e-05
-4.10195e-05
0.00010257
-3.41469e-05
0.000109386
-2.08678e-05
0.000117516
-8.04049e-06
0.000127695
6.6229e-06
0.000138808
3.13849e-05
0.000149612
5.3731e-05
7.06376e-05
5.80158e-06
-5.81699e-05
1.15316e-05
-5.82313e-05
1.70155e-05
-5.74819e-05
2.21816e-05
-5.64309e-05
2.679e-05
-5.49083e-05
3.05671e-05
-5.31858e-05
3.3885e-05
-5.15287e-05
3.64231e-05
-5.1844e-05
4.24587e-05
-5.58937e-05
5.16589e-05
-6.61504e-05
5.92742e-05
-6.56438e-05
6.55888e-05
-6.2601e-05
6.92808e-05
-6.18155e-05
7.04688e-05
-5.8668e-05
7.19432e-05
-5.31158e-05
7.47435e-05
-4.79066e-05
8.31595e-05
-3.98138e-05
9.44316e-05
-3.10277e-05
0.000107208
-1.63534e-05
0.000124009
6.88835e-06
0.000136976
3.65527e-05
3.76637e-05
6.35839e-06
-8.1465e-05
1.24364e-05
-8.18127e-05
1.83277e-05
-8.15191e-05
2.3754e-05
-8.08816e-05
2.83155e-05
-7.94512e-05
3.09831e-05
-7.6957e-05
3.06546e-05
-7.19217e-05
2.95028e-05
-6.55265e-05
3.33164e-05
-6.54458e-05
3.88486e-05
-7.56164e-05
3.89181e-05
-7.2786e-05
2.99929e-05
-6.22199e-05
1.32197e-05
-5.62617e-05
-3.43591e-06
-5.54748e-05
-9.05032e-06
-5.41089e-05
-6.81982e-06
-5.28992e-05
-3.38337e-07
-4.60192e-05
1.12922e-05
-3.66984e-05
4.09719e-05
-3.21064e-05
7.80546e-05
-2.41665e-05
0.000102591
7.52839e-06
2.52178e-06
6.47403e-06
-0.000157777
1.2639e-05
-0.00015844
1.8716e-05
-0.000158409
2.46951e-05
-0.000158259
3.04208e-05
-0.000157045
3.52311e-05
-0.000155113
3.53023e-05
-0.000147841
2.47788e-05
-0.000129442
1.05015e-05
-0.000116966
-3.69177e-06
-0.000115559
-1.9137e-05
-0.00010669
-3.69634e-05
-9.0501e-05
-4.13624e-05
-7.74068e-05
-3.67856e-05
-6.85515e-05
-3.11298e-05
-6.10972e-05
-2.44308e-05
-5.24282e-05
-1.62014e-05
-4.22547e-05
-5.08505e-06
-3.20435e-05
5.4972e-06
-2.31974e-05
3.02036e-05
-2.32365e-05
5.88024e-05
-1.05734e-05
-2.16722e-05
6.25811e-06
-0.000124533
1.22177e-05
-0.000127073
1.81843e-05
-0.000126386
2.40984e-05
-0.000127998
3.00692e-05
-0.000126828
3.71827e-05
-0.000120413
4.32087e-05
-0.000114942
3.40557e-05
-0.000104476
-1.04797e-05
-0.000103103
-7.1189e-05
-0.000100773
-9.23731e-05
-6.8321e-05
-7.32838e-05
-4.94013e-05
-5.80033e-05
-6.69224e-05
-4.60732e-05
-6.4888e-05
-3.6375e-05
-6.46541e-05
-2.71774e-05
-6.61278e-05
-1.73197e-05
-5.95694e-05
-1.10388e-05
-5.57314e-05
-6.93193e-07
-5.05754e-05
1.22676e-05
-4.55608e-05
2.58077e-05
-1.86646e-05
4.02023e-05
-2.44289e-05
-3.42315e-05
-1.72152e-06
-7.17719e-05
-2.33062e-05
-7.12894e-05
-2.99982e-05
-7.3819e-05
-3.16105e-05
-7.75455e-05
-2.93031e-05
-7.86643e-05
-2.0369e-05
-8.60897e-05
-6.33718e-06
-8.95932e-05
1.09927e-05
-5.63167e-05
-9.50456e-06
-2.33557e-05
-5.76405e-05
-8.97677e-06
-5.88247e-05
-6.0168e-06
-3.31723e-05
-2.40614e-06
-2.34258e-05
-1.96273e-05
-1.77163e-05
-3.63072e-05
-1.01032e-05
-5.16998e-05
-3.05284e-06
-6.21808e-05
2.57589e-06
-9.2565e-05
6.67485e-06
-0.000149389
1.12192e-05
-0.000129189
1.78976e-05
-0.000117274
2.74911e-05
-8.76282e-05
2.56685e-05
-5.56871e-05
-3.38894e-05
-9.07209e-06
-4.84335e-05
-1.67722e-05
-5.15397e-05
-2.24638e-05
-5.49008e-05
-2.51667e-05
-6.05136e-05
-2.92191e-05
-6.91025e-05
-3.50409e-05
-7.41763e-05
-4.4703e-05
-7.34615e-05
-4.66027e-05
-6.18774e-05
-3.53404e-05
-1.18237e-05
-9.75314e-06
3.54298e-05
1.8173e-05
-5.17185e-05
3.97802e-05
-8.39843e-05
6.21636e-05
-8.49769e-05
8.94173e-05
-8.13233e-05
0.000120402
-7.72345e-05
0.000136474
-6.87439e-05
0.000135805
-4.99861e-05
9.79365e-05
-2.55238e-05
6.26134e-05
-3.08626e-05
5.38007e-05
-5.89592e-05
5.41839e-05
-7.75964e-05
5.88622e-05
-0.000115207
-0.000126348
-6.95062e-06
-4.23151e-05
-1.24475e-05
-4.82045e-05
-1.58129e-05
-5.39675e-05
-1.74898e-05
-6.11733e-05
-1.84008e-05
-6.89083e-05
-1.81444e-05
-7.45303e-05
-1.67839e-05
-7.48493e-05
-1.52094e-05
-6.32119e-05
-1.40171e-05
-8.54336e-06
9.3938e-06
1.52685e-05
1.81659e-05
-5.38358e-05
2.08237e-05
-8.50875e-05
2.38694e-05
-8.747e-05
2.57163e-05
-8.26393e-05
2.78075e-05
-7.88662e-05
3.05629e-05
-7.14016e-05
4.03113e-05
-5.98719e-05
7.3744e-05
-5.67183e-05
0.000118896
-5.61469e-05
0.000160892
-6.48292e-05
0.000171302
-5.75168e-05
0.000160316
-3.51387e-05
-2.85725e-05
-9.81466e-08
-4.41028e-05
-4.87321e-07
-4.9321e-05
-1.93085e-06
-5.40591e-05
-4.90863e-06
-5.93859e-05
-1.04849e-05
-6.38375e-05
-1.87171e-05
-6.63814e-05
-2.84458e-05
-6.51419e-05
-3.35102e-05
-5.83062e-05
-3.14554e-06
-4.19706e-05
3.73719e-05
-2.93486e-05
4.71042e-05
-6.35479e-05
4.04774e-05
-7.84804e-05
3.80915e-05
-8.50817e-05
3.95416e-05
-8.40887e-05
4.12047e-05
-8.05293e-05
4.16807e-05
-7.18757e-05
3.82787e-05
-5.64633e-05
2.89589e-05
-4.73916e-05
1.64104e-05
-4.3597e-05
-6.77765e-08
-4.83508e-05
-6.64237e-06
-5.09416e-05
7.77453e-06
-4.93937e-05
-3.44566e-05
4.52008e-07
-4.24697e-05
1.07941e-06
-4.8839e-05
7.52172e-07
-5.29055e-05
-7.31724e-07
-5.71895e-05
-3.43148e-06
-6.08139e-05
-7.06177e-06
-6.26837e-05
-1.03521e-05
-6.18401e-05
-1.14656e-05
-5.71822e-05
-4.48762e-06
-4.89102e-05
1.08554e-05
-4.45002e-05
1.3155e-05
-6.57642e-05
1.04362e-05
-7.57553e-05
8.61598e-06
-8.32592e-05
1.06154e-05
-8.60879e-05
1.41718e-05
-8.4086e-05
1.74567e-05
-7.5161e-05
2.285e-05
-6.18571e-05
2.81696e-05
-5.27115e-05
2.95722e-05
-4.50001e-05
1.81992e-05
-3.69781e-05
-5.19673e-06
-2.75457e-05
-2.65239e-05
-2.80663e-05
-1.60504e-05
2.03254e-06
-4.52444e-05
3.18501e-06
-5.01453e-05
3.05493e-06
-5.28261e-05
1.53606e-06
-5.56955e-05
-1.34512e-06
-5.79448e-05
-5.25983e-06
-5.87774e-05
-9.1199e-06
-5.79872e-05
-1.05056e-05
-5.57986e-05
-5.86482e-06
-5.35528e-05
1.53072e-06
-5.18995e-05
1.76746e-07
-6.44123e-05
-3.95019e-06
-7.16298e-05
-9.12866e-06
-7.80803e-05
-1.46328e-05
-8.05835e-05
-1.99904e-05
-7.87284e-05
-2.5757e-05
-6.93943e-05
-2.99923e-05
-5.7622e-05
-3.40581e-05
-4.86461e-05
-3.87969e-05
-4.02618e-05
-4.37905e-05
-3.19847e-05
-4.41809e-05
-2.71555e-05
-4.458e-05
-2.7667e-05
-2.39088e-05
1.72793e-06
-4.69626e-05
2.66639e-06
-5.10787e-05
2.56203e-06
-5.27211e-05
1.17745e-06
-5.4311e-05
-1.51714e-06
-5.52502e-05
-4.87071e-06
-5.54234e-05
-7.89251e-06
-5.49645e-05
-9.39716e-06
-5.42932e-05
-8.73934e-06
-5.42102e-05
-5.89208e-06
-5.47466e-05
-8.74526e-06
-6.15588e-05
-1.40637e-05
-6.6311e-05
-2.2016e-05
-7.01278e-05
-3.00613e-05
-7.25381e-05
-3.74019e-05
-7.13878e-05
-4.29399e-05
-6.38566e-05
-4.66319e-05
-5.39304e-05
-4.90796e-05
-4.61988e-05
-5.0896e-05
-3.84455e-05
-5.09488e-05
-3.1932e-05
-4.91271e-05
-2.89771e-05
-4.80647e-05
-2.87294e-05
-2.31372e-05
6.22414e-07
-4.7585e-05
7.4828e-07
-5.12041e-05
-5.21727e-08
-5.19207e-05
-1.73703e-06
-5.26263e-05
-3.95149e-06
-5.30358e-05
-6.1902e-06
-5.31848e-05
-8.12831e-06
-5.30264e-05
-9.50124e-06
-5.29203e-05
-1.02157e-05
-5.34957e-05
-1.04801e-05
-5.44823e-05
-1.48086e-05
-5.72301e-05
-2.12429e-05
-5.98766e-05
-2.92387e-05
-6.21319e-05
-3.69408e-05
-6.48363e-05
-4.42733e-05
-6.40552e-05
-5.016e-05
-5.79702e-05
-5.39877e-05
-5.51746e-05
-5.35328e-05
-5.14946e-05
-5.01046e-05
-5.0137e-05
-2.26777e-07
-9.27942e-07
-2.1564e-06
-3.60042e-06
-5.04855e-06
-6.49345e-06
-7.64209e-06
-8.48578e-06
-9.63804e-06
-1.12228e-05
-1.48702e-05
-2.04285e-05
-2.67336e-05
-3.45367e-05
-4.235e-05
)
;

boundaryField
{
    leftWall
    {
        type            fixedValue;
        value           uniform 0;
    }
    rightWall
    {
        type            fixedValue;
        value           nonuniform 0();
    }
    lowerWall
    {
        type            fixedValue;
        value           uniform 0;
    }
    atmosphere
    {
        type            calculated;
        value           nonuniform 0();
    }
    defaultFaces
    {
        type            empty;
        value           nonuniform 0();
    }
    procBoundary0to1
    {
        type            processor;
        value           nonuniform List<scalar> 
26
(
8.73459e-06
1.155e-05
1.2261e-05
9.7166e-06
1.3758e-05
1.46504e-05
1.35487e-05
1.14824e-05
5.36908e-05
4.90125e-05
8.00037e-05
0.000144552
0.000176618
0.000166413
0.000128105
7.89258e-05
2.55493e-05
6.52782e-05
4.66404e-05
6.29273e-05
0.000127251
1.86505e-05
-4.49302e-05
-3.67221e-05
-4.88362e-05
-4.7811e-05
)
;
    }
    procBoundary0to2
    {
        type            processor;
        value           nonuniform List<scalar> 
24
(
-5.01029e-05
-4.50119e-05
-4.00875e-05
-3.39702e-05
-3.03673e-05
-2.86967e-05
-2.54634e-05
-4.73584e-05
-5.0503e-05
-5.06924e-05
-5.11824e-05
-5.15878e-05
-5.174e-05
-5.18779e-05
-5.20767e-05
-5.23435e-05
-5.28975e-05
-5.35827e-05
-5.43183e-05
-5.58269e-05
-5.70332e-05
-5.62422e-05
-4.66017e-05
-5.37186e-05
)
;
    }
}


// ************************************************************************* //
