/*--------------------------------*- C++ -*----------------------------------*\
| =========                 |                                                 |
| \\      /  F ield         | OpenFOAM: The Open Source CFD Toolbox           |
|  \\    /   O peration     | Version:  2.4.0                                 |
|   \\  /    A nd           | Web:      www.OpenFOAM.org                      |
|    \\/     M anipulation  |                                                 |
\*---------------------------------------------------------------------------*/
FoamFile
{
    version     2.0;
    format      ascii;
    class       surfaceScalarField;
    location    "0.35";
    object      phi.oil;
}
// * * * * * * * * * * * * * * * * * * * * * * * * * * * * * * * * * * * * * //

dimensions      [0 3 -1 0 0 0 0];

internalField   nonuniform List<scalar> 
1101
(
3.42647e-06
-3.42646e-06
6.87807e-06
-3.4516e-06
1.02348e-05
-3.35669e-06
1.39841e-05
-3.74935e-06
1.6794e-05
-2.80985e-06
2.11453e-05
-4.35135e-06
2.43529e-05
-3.20757e-06
2.72266e-05
-2.87368e-06
3.11311e-05
-3.90455e-06
3.54842e-05
-4.35305e-06
3.9078e-05
-3.59375e-06
4.1606e-05
-2.52781e-06
4.37954e-05
-2.18837e-06
4.61067e-05
-2.30849e-06
4.88377e-05
-2.72574e-06
5.10233e-05
-2.1782e-06
5.05001e-05
5.31783e-07
4.78351e-05
2.67592e-06
4.2394e-05
5.45537e-06
3.30557e-05
9.3417e-06
2.04287e-05
1.2096e-05
1.39165e-05
3.42846e-06
-6.85493e-06
6.88378e-06
-6.90692e-06
1.02414e-05
-6.71434e-06
1.39618e-05
-7.46975e-06
1.69387e-05
-5.78675e-06
2.10631e-05
-8.47575e-06
2.42823e-05
-6.42681e-06
2.73801e-05
-5.9714e-06
3.13455e-05
-7.86997e-06
3.54931e-05
-8.50064e-06
3.89622e-05
-7.06284e-06
4.14312e-05
-4.99649e-06
4.405e-05
-4.80515e-06
4.67996e-05
-5.05121e-06
4.97291e-05
-5.63593e-06
5.1742e-05
-4.14768e-06
5.16836e-05
6.38679e-07
4.85688e-05
5.84359e-06
4.22738e-05
1.18138e-05
3.24638e-05
1.92164e-05
2.18299e-05
2.22709e-05
2.49052e-05
3.42897e-06
-1.02839e-05
6.87473e-06
-1.03527e-05
1.02477e-05
-1.00873e-05
1.39102e-05
-1.11323e-05
1.70622e-05
-8.93878e-06
2.08954e-05
-1.23089e-05
2.42184e-05
-9.74988e-06
2.76925e-05
-9.44549e-06
3.15895e-05
-1.1767e-05
3.52291e-05
-1.21402e-05
3.83334e-05
-1.01672e-05
4.15369e-05
-8.19967e-06
4.50607e-05
-8.3265e-06
4.79961e-05
-7.96156e-06
5.07016e-05
-8.17682e-06
5.2361e-05
-5.29793e-06
5.19642e-05
1.59e-06
4.94284e-05
8.91505e-06
4.25632e-05
1.91917e-05
3.36461e-05
2.86209e-05
2.14803e-05
3.43408e-05
3.49973e-05
3.43012e-06
-1.37141e-05
6.85912e-06
-1.37817e-05
1.02609e-05
-1.34891e-05
1.38493e-05
-1.47207e-05
1.71565e-05
-1.2246e-05
2.07852e-05
-1.59377e-05
2.41737e-05
-1.31384e-05
2.78654e-05
-1.31373e-05
3.18297e-05
-1.57312e-05
3.46439e-05
-1.49541e-05
3.79523e-05
-1.34732e-05
4.19635e-05
-1.22003e-05
4.60356e-05
-1.23558e-05
4.93043e-05
-1.1133e-05
5.16913e-05
-1.01043e-05
5.22345e-05
-3.81418e-06
5.185e-05
4.3906e-06
4.98726e-05
1.25611e-05
4.38587e-05
2.6103e-05
3.44771e-05
3.8624e-05
2.08788e-05
4.80666e-05
4.70624e-05
3.43082e-06
-1.71348e-05
6.85148e-06
-1.71907e-05
1.0272e-05
-1.68953e-05
1.38082e-05
-1.82323e-05
1.72006e-05
-1.56144e-05
2.06405e-05
-1.93284e-05
2.42524e-05
-1.66868e-05
2.80554e-05
-1.68535e-05
3.16529e-05
-1.91887e-05
3.45155e-05
-1.76125e-05
3.8293e-05
-1.69707e-05
4.24119e-05
-1.59772e-05
4.63769e-05
-1.60446e-05
4.9692e-05
-1.48655e-05
5.16807e-05
-1.43472e-05
5.3454e-05
-7.03354e-06
5.33256e-05
8.15624e-06
5.2576e-05
2.65476e-05
4.84666e-05
3.9958e-05
4.11347e-05
4.96801e-05
2.70594e-05
6.29295e-05
6.14438e-05
3.44174e-06
-2.02637e-05
6.87153e-06
-2.03014e-05
1.03435e-05
-2.00385e-05
1.37494e-05
-2.13013e-05
1.73354e-05
-1.88615e-05
2.04957e-05
-2.22182e-05
2.45395e-05
-2.05843e-05
2.83764e-05
-2.07813e-05
3.13288e-05
-2.28588e-05
3.49291e-05
-2.29388e-05
3.89716e-05
-2.42141e-05
4.25441e-05
-2.45334e-05
4.5855e-05
-2.70016e-05
4.84147e-05
-2.86726e-05
4.91299e-05
-3.17637e-05
4.89181e-05
-2.4363e-05
5.30077e-05
5.67674e-06
4.96527e-05
2.37906e-05
4.34613e-05
5.64513e-05
3.98775e-05
7.00824e-05
2.98885e-05
7.90378e-05
7.84466e-05
3.46824e-06
-2.65792e-05
6.93144e-06
-2.67494e-05
1.04796e-05
-2.68163e-05
1.36512e-05
-2.82928e-05
1.76729e-05
-2.7054e-05
2.04201e-05
-3.039e-05
2.45445e-05
-3.13606e-05
2.81449e-05
-3.23315e-05
3.08177e-05
-3.56969e-05
3.37918e-05
-3.90089e-05
3.63071e-05
-4.24031e-05
3.7603e-05
-4.37017e-05
3.77538e-05
-4.59054e-05
3.66103e-05
-4.43864e-05
3.17764e-05
-2.85025e-05
2.16487e-05
-1.53768e-05
2.7186e-05
4.74674e-06
3.30996e-05
1.37197e-05
3.37308e-05
3.53918e-05
2.33913e-05
7.76362e-05
2.54671e-05
9.013e-05
9.13239e-05
3.41687e-06
-3.98183e-05
6.82919e-06
-4.01564e-05
1.03583e-05
-4.06782e-05
1.31798e-05
-4.20423e-05
1.73552e-05
-4.27252e-05
1.98151e-05
-4.50085e-05
2.23169e-05
-4.66781e-05
2.47314e-05
-4.73348e-05
2.59646e-05
-4.92496e-05
2.55008e-05
-4.97022e-05
2.3179e-05
-4.60034e-05
2.04189e-05
-3.7128e-05
1.70037e-05
-2.46884e-05
1.44414e-05
-1.53366e-05
1.12071e-05
-1.19369e-05
1.29804e-05
-5.70591e-06
1.62334e-05
9.7416e-06
2.16251e-05
2.20327e-05
2.14458e-05
3.97889e-05
7.70243e-06
7.36988e-05
1.33904e-05
8.4291e-05
8.58888e-05
5.69198e-06
-5.9836e-05
1.1269e-05
-5.94762e-05
1.63599e-05
-5.83127e-05
2.01066e-05
-5.60836e-05
2.4114e-05
-5.3577e-05
2.72445e-05
-4.81192e-05
2.82536e-05
-4.10603e-05
3.10753e-05
-3.8199e-05
3.29778e-05
-3.39781e-05
3.41094e-05
-2.94173e-05
3.86591e-05
-2.84325e-05
4.775e-05
-2.82496e-05
5.69963e-05
-2.54406e-05
6.47964e-05
-2.24424e-05
5.58156e-05
-1.26592e-05
4.77012e-05
-1.58254e-06
3.99794e-05
1.64434e-05
3.12473e-05
2.91835e-05
2.53807e-05
4.71525e-05
2.90912e-05
6.4333e-05
2.33827e-05
8.66836e-05
9.02521e-05
2.94962e-06
-3.65334e-05
6.16858e-06
-3.66925e-05
9.55629e-06
-3.62117e-05
1.3584e-05
-3.57551e-05
1.76154e-05
-3.55566e-05
2.27065e-05
-3.5582e-05
2.79319e-05
-3.33978e-05
3.44233e-05
-3.59003e-05
4.05594e-05
-3.40104e-05
4.75598e-05
-3.23634e-05
5.4096e-05
-3.2806e-05
5.87583e-05
-3.19486e-05
6.10475e-05
-2.75642e-05
5.89334e-05
-2.09505e-05
5.50311e-05
-1.1022e-05
5.43633e-05
-5.8155e-06
5.85432e-05
5.90256e-06
5.98341e-05
2.24733e-05
6.43496e-05
4.82664e-05
6.54094e-05
7.17267e-05
5.28487e-05
0.000104002
9.52958e-05
5.00027e-06
-4.10947e-05
9.98946e-06
-4.12941e-05
1.5051e-05
-4.09624e-05
2.01501e-05
-4.06415e-05
2.48993e-05
-4.01886e-05
2.98356e-05
-4.04741e-05
3.4655e-05
-3.8207e-05
4.01246e-05
-4.13704e-05
4.50117e-05
-3.88994e-05
5.18898e-05
-3.92438e-05
5.8619e-05
-3.95276e-05
6.42836e-05
-3.29885e-05
6.9803e-05
-1.65521e-05
7.74046e-05
-1.0048e-05
8.11957e-05
-4.19125e-06
8.7444e-05
-1.73868e-06
8.32226e-05
9.07838e-06
7.89384e-05
2.04226e-05
8.34071e-05
4.35192e-05
9.76688e-05
6.66469e-05
0.000103322
0.000102164
0.000115964
5.3185e-06
-4.64134e-05
1.0586e-05
-4.65618e-05
1.58328e-05
-4.62094e-05
2.08621e-05
-4.56709e-05
2.56957e-05
-4.50224e-05
3.00843e-05
-4.48628e-05
3.50998e-05
-4.32225e-05
3.93907e-05
-4.56602e-05
4.45015e-05
-4.40114e-05
5.27596e-05
-4.20069e-05
5.50082e-05
-2.39936e-05
4.9217e-05
-2.24334e-05
6.4623e-05
-2.51505e-05
8.00801e-05
-2.12361e-05
8.81887e-05
-1.04663e-05
9.38423e-05
-4.44399e-06
0.000103597
1.13325e-05
0.000109964
2.63577e-05
0.000119619
4.11997e-05
0.000124299
6.32172e-05
0.000140332
8.34821e-05
0.000115065
5.50387e-06
-5.19175e-05
1.09739e-05
-5.20321e-05
1.62773e-05
-5.15129e-05
2.13689e-05
-5.07627e-05
2.6139e-05
-4.97927e-05
3.01936e-05
-4.89176e-05
3.47791e-05
-4.7808e-05
3.82075e-05
-4.90598e-05
3.89458e-05
-3.00077e-05
3.69221e-05
-3.20333e-05
5.46739e-05
-4.10714e-05
6.89796e-05
-3.72472e-05
7.72508e-05
-3.39861e-05
8.43929e-05
-2.90273e-05
9.39396e-05
-2.13063e-05
0.000100745
-1.36725e-05
0.000107407
-9.88516e-07
0.000116517
1.28151e-05
0.000127134
2.57018e-05
0.000140044
4.58522e-05
0.000152555
6.53105e-05
8.07712e-05
5.80158e-06
-5.81563e-05
1.15316e-05
-5.8217e-05
1.70155e-05
-5.74671e-05
2.21816e-05
-5.64155e-05
2.679e-05
-5.48927e-05
3.05672e-05
-5.31711e-05
3.3876e-05
-5.15305e-05
2.24326e-05
-3.4601e-05
3.07454e-05
-3.91754e-05
4.90969e-05
-5.55724e-05
5.66181e-05
-4.9958e-05
6.138e-05
-4.3418e-05
6.39087e-05
-4.00089e-05
6.47602e-05
-3.52657e-05
6.62381e-05
-2.9539e-05
6.979e-05
-2.45802e-05
7.8171e-05
-1.72929e-05
9.13378e-05
-8.77476e-06
0.000103272
4.76993e-06
0.000120301
2.20239e-05
0.000135657
4.56461e-05
4.64289e-05
6.35861e-06
-8.08711e-05
1.24367e-05
-8.11967e-05
1.83279e-05
-8.08788e-05
2.37539e-05
-8.02083e-05
2.83148e-05
-7.87456e-05
3.09842e-05
-7.62834e-05
1.87699e-05
-7.34497e-05
1.65826e-05
-5.99651e-05
2.52485e-05
-6.2049e-05
3.41048e-05
-6.2264e-05
3.35078e-05
-5.45891e-05
2.36983e-05
-4.07418e-05
9.69459e-06
-3.27921e-05
-1.72041e-06
-3.00922e-05
-5.58926e-06
-3.11553e-05
-3.16243e-06
-3.13142e-05
3.11657e-06
-2.73161e-05
1.65532e-05
-2.59684e-05
3.54315e-05
-1.85625e-05
6.24209e-05
-1.10673e-05
9.11824e-05
1.20421e-05
1.17672e-05
6.4861e-06
-0.000149818
1.26551e-05
-0.000150263
1.87349e-05
-0.000150064
2.47106e-05
-0.000149749
3.04337e-05
-0.000148844
3.48866e-05
-0.00014958
8.14344e-06
-0.000132394
2.71968e-06
-0.000127461
-2.38071e-06
-0.000110624
-9.61785e-06
-9.05924e-05
-2.45024e-05
-7.5544e-05
-4.02372e-05
-6.33124e-05
-4.42468e-05
-6.17453e-05
-4.11162e-05
-5.65469e-05
-3.50951e-05
-5.36118e-05
-2.69039e-05
-4.87934e-05
-1.70393e-05
-4.12191e-05
-6.2396e-06
-3.8387e-05
3.90614e-06
-2.92929e-05
2.08736e-05
-2.86918e-05
4.47318e-05
-1.24729e-05
-1.65824e-05
4.9383e-06
-0.000106527
9.50993e-06
-0.000107236
1.40803e-05
-0.000106492
1.86674e-05
-0.000112273
2.41101e-05
-0.000125483
1.02592e-05
-0.000128241
-3.0983e-05
-0.000111696
-5.51481e-05
-0.000155207
-5.8368e-05
-0.00014816
-7.98412e-05
-0.000135267
-9.01537e-05
-0.000138207
-7.86029e-05
-0.000146892
-6.05501e-05
-0.000152162
-4.70064e-05
-0.00013824
-3.70344e-05
-0.000128828
-2.77574e-05
-0.000115429
-1.84959e-05
-0.000101552
-1.08426e-05
-8.61463e-05
-7.78707e-07
-6.28872e-05
1.1907e-05
-5.63389e-05
3.01575e-05
-3.48981e-05
4.64094e-05
-3.44287e-05
-3.36081e-05
-1.31779e-05
-5.95846e-05
-2.35565e-05
-6.14579e-05
-3.0807e-05
-6.38339e-05
-3.19945e-05
-6.7297e-05
-2.29965e-05
-7.58581e-05
-3.52304e-05
-9.21721e-05
-6.94602e-05
-0.000111304
-8.85633e-05
-9.52717e-05
-0.00010517
-9.93616e-05
-0.000113673
-7.36226e-05
-9.58881e-05
-9.85268e-05
-6.7669e-05
-0.000108667
-4.7568e-05
-0.000106037
-2.90764e-05
-9.3571e-05
-1.3531e-05
-8.96056e-05
-3.84927e-06
-8.76619e-05
3.44934e-06
-0.000106929
6.80895e-06
-0.000172301
1.14034e-05
-0.000143751
1.80753e-05
-0.000129109
2.83807e-05
-9.48463e-05
3.83467e-05
-8.29727e-05
-6.9168e-05
-9.53715e-06
-5.00464e-05
-1.70521e-05
-5.39736e-05
-2.28049e-05
-5.79911e-05
-2.57021e-05
-6.27689e-05
-2.2544e-05
-6.75641e-05
-3.47106e-05
-5.23043e-05
-4.13517e-05
-5.26994e-05
-3.40808e-05
-4.53448e-05
-1.24478e-05
-3.99304e-05
6.26313e-07
2.31524e-05
1.5854e-05
-5.90584e-05
3.97379e-05
-8.48457e-05
6.08746e-05
-8.6662e-05
8.28568e-05
-8.47886e-05
9.68672e-05
-8.13596e-05
7.86065e-05
-6.76044e-05
5.52763e-05
-4.57492e-05
3.83701e-05
-0.000103533
4.17456e-05
-0.000100948
5.25865e-05
-9.49993e-05
5.3263e-05
-8.54365e-05
5.93169e-05
-0.00012663
-0.000149884
-7.2364e-06
-4.28112e-05
-1.24598e-05
-4.87686e-05
-1.58231e-05
-5.46099e-05
-1.73493e-05
-6.11329e-05
-1.84767e-05
-6.5239e-05
-1.78066e-05
-6.75285e-05
-1.68528e-05
-7.31004e-05
-1.44825e-05
-6.21803e-05
-1.35368e-05
7.09665e-07
4.21309e-06
2.3784e-05
1.82903e-05
-5.40614e-05
2.08399e-05
-8.50725e-05
2.38817e-05
-8.87743e-05
2.56007e-05
-8.37105e-05
2.78979e-05
-7.15337e-05
3.07366e-05
-6.12808e-05
4.12659e-05
-5.5532e-05
7.52804e-05
-5.71839e-05
0.000115789
-5.87259e-05
0.000121433
-7.01258e-05
9.88723e-05
-6.24581e-05
9.20027e-05
-7.55018e-05
-0.000105407
-8.59664e-08
-4.27253e-05
-4.83396e-07
-4.83791e-05
-1.93283e-06
-5.33277e-05
-4.99819e-06
-5.88648e-05
-1.05189e-05
-6.37709e-05
-1.87228e-05
-6.6432e-05
-2.84944e-05
-6.52004e-05
-3.34149e-05
-5.85061e-05
-2.08043e-07
-4.2505e-05
3.48562e-05
-3.03854e-05
4.7109e-05
-6.44036e-05
4.01303e-05
-7.84791e-05
3.62808e-05
-8.11726e-05
3.60448e-05
-7.57596e-05
3.99016e-05
-8.21444e-05
3.95141e-05
-7.38441e-05
3.78205e-05
-5.81462e-05
2.74555e-05
-4.68055e-05
1.58014e-05
-4.05312e-05
-7.37765e-07
-4.87878e-05
-6.50446e-06
-5.49589e-05
8.3025e-06
-5.47936e-05
-4.27848e-05
4.73578e-07
-4.31989e-05
1.08336e-06
-4.89874e-05
7.51142e-07
-5.29557e-05
-7.33299e-07
-5.72118e-05
-3.43184e-06
-6.08235e-05
-7.06253e-06
-6.26904e-05
-1.03537e-05
-6.18459e-05
-1.14667e-05
-5.71808e-05
-4.48379e-06
-4.88984e-05
1.08522e-05
-4.44845e-05
1.31419e-05
-6.57642e-05
9.36897e-06
-7.58069e-05
7.2018e-06
-8.19306e-05
1.01041e-05
-8.78423e-05
1.33442e-05
-8.66553e-05
1.68689e-05
-7.79658e-05
1.8946e-05
-6.35205e-05
2.81396e-05
-5.30091e-05
2.93043e-05
-4.43765e-05
1.69806e-05
-3.54008e-05
-6.35215e-06
-2.3892e-05
-2.71822e-05
-2.37085e-05
-9.88563e-06
2.03527e-06
-4.52344e-05
3.18629e-06
-5.01387e-05
3.05483e-06
-5.28252e-05
1.53602e-06
-5.56952e-05
-1.34501e-06
-5.79445e-05
-5.25958e-06
-5.87768e-05
-9.12006e-06
-5.79861e-05
-1.05056e-05
-5.57979e-05
-5.86404e-06
-5.35527e-05
1.531e-06
-5.19001e-05
1.15525e-07
-6.44131e-05
-4.11454e-06
-7.16652e-05
-9.77918e-06
-7.90017e-05
-1.55896e-05
-8.29756e-05
-2.10327e-05
-8.1077e-05
-2.51438e-05
-6.67938e-05
-2.59587e-05
-5.24093e-05
-3.38479e-05
-4.90209e-05
-3.88857e-05
-4.04534e-05
-4.374e-05
-3.23765e-05
-4.42177e-05
-2.75586e-05
-4.45789e-05
-2.86293e-05
-2.57021e-05
1.72764e-06
-4.69623e-05
2.66654e-06
-5.10779e-05
2.56201e-06
-5.27209e-05
1.17741e-06
-5.43109e-05
-1.51716e-06
-5.52501e-05
-4.87073e-06
-5.54234e-05
-7.89259e-06
-5.49645e-05
-9.39726e-06
-5.42933e-05
-8.73884e-06
-5.42107e-05
-5.89211e-06
-5.47476e-05
-8.81507e-06
-6.15598e-05
-1.36606e-05
-6.63962e-05
-2.10028e-05
-6.86857e-05
-3.07471e-05
-6.70839e-05
-3.46836e-05
-7.20211e-05
-3.9354e-05
-6.13333e-05
-4.65564e-05
-5.41459e-05
-4.91066e-05
-4.6377e-05
-5.0946e-05
-3.86964e-05
-5.08262e-05
-3.19704e-05
-4.92138e-05
-2.83534e-05
-4.80482e-05
-2.79872e-05
-2.25113e-05
6.22409e-07
-4.75849e-05
7.48279e-07
-5.1204e-05
-5.21855e-08
-5.19207e-05
-1.73704e-06
-5.26262e-05
-3.9515e-06
-5.30358e-05
-6.19022e-06
-5.31848e-05
-8.12839e-06
-5.30265e-05
-9.50139e-06
-5.29205e-05
-1.02157e-05
-5.34963e-05
-1.04808e-05
-5.44834e-05
-1.4853e-05
-5.72317e-05
-2.13991e-05
-5.99083e-05
-2.88504e-05
-6.22405e-05
-3.66117e-05
-6.33949e-05
-3.85091e-05
-5.95473e-05
-5.00411e-05
-5.7723e-05
-5.40535e-05
-5.51294e-05
-5.35573e-05
-5.15112e-05
-5.00974e-05
-5.0147e-05
-2.26776e-07
-9.27946e-07
-2.1564e-06
-3.60042e-06
-5.04856e-06
-6.49346e-06
-7.64213e-06
-8.48587e-06
-9.63834e-06
-1.1224e-05
-1.49084e-05
-2.05407e-05
-2.68712e-05
-3.47422e-05
-4.25206e-05
)
;

boundaryField
{
    leftWall
    {
        type            fixedValue;
        value           uniform 0;
    }
    rightWall
    {
        type            fixedValue;
        value           nonuniform 0();
    }
    lowerWall
    {
        type            fixedValue;
        value           uniform 0;
    }
    atmosphere
    {
        type            calculated;
        value           nonuniform 0();
    }
    defaultFaces
    {
        type            empty;
        value           nonuniform 0();
    }
    procBoundary0to1
    {
        type            processor;
        value           nonuniform List<scalar> 
26
(
7.70116e-06
1.01628e-05
1.10358e-05
8.34629e-06
1.2286e-05
1.35096e-05
1.94784e-05
1.80966e-05
5.34731e-05
4.78753e-05
8.39688e-05
0.000147239
0.000183012
0.000172075
0.000123375
7.12057e-05
1.56235e-05
6.32164e-05
4.78169e-05
6.83062e-05
8.82919e-05
2.13191e-05
-4.36594e-05
-3.6735e-05
-4.8745e-05
-4.78333e-05
)
;
    }
    procBoundary0to2
    {
        type            processor;
        value           nonuniform List<scalar> 
24
(
-4.97352e-05
-4.51054e-05
-4.02509e-05
-3.41046e-05
-3.04539e-05
-2.87321e-05
-2.54944e-05
-4.73584e-05
-5.0503e-05
-5.06924e-05
-5.11824e-05
-5.15878e-05
-5.174e-05
-5.18779e-05
-5.20768e-05
-5.2344e-05
-5.28986e-05
-5.35853e-05
-5.43487e-05
-5.59482e-05
-5.73466e-05
-5.67066e-05
-4.66652e-05
-5.42414e-05
)
;
    }
}


// ************************************************************************* //
