/*--------------------------------*- C++ -*----------------------------------*\
| =========                 |                                                 |
| \\      /  F ield         | OpenFOAM: The Open Source CFD Toolbox           |
|  \\    /   O peration     | Version:  2.4.0                                 |
|   \\  /    A nd           | Web:      www.OpenFOAM.org                      |
|    \\/     M anipulation  |                                                 |
\*---------------------------------------------------------------------------*/
FoamFile
{
    version     2.0;
    format      ascii;
    class       surfaceScalarField;
    location    "0.35";
    object      phi.mercury;
}
// * * * * * * * * * * * * * * * * * * * * * * * * * * * * * * * * * * * * * //

dimensions      [0 3 -1 0 0 0 0];

internalField   nonuniform List<scalar> 
1101
(
3.42646e-06
-3.42646e-06
6.87806e-06
-3.4516e-06
1.02348e-05
-3.35669e-06
1.39841e-05
-3.74936e-06
1.6794e-05
-2.80985e-06
2.11453e-05
-4.35136e-06
2.43529e-05
-3.20757e-06
2.72266e-05
-2.87369e-06
3.11311e-05
-3.90456e-06
3.54842e-05
-4.35306e-06
3.9078e-05
-3.59377e-06
4.1606e-05
-2.52799e-06
4.37953e-05
-2.18934e-06
4.61067e-05
-2.31137e-06
4.88377e-05
-2.73103e-06
5.10234e-05
-2.18569e-06
5.05005e-05
5.22878e-07
4.78362e-05
2.66427e-06
4.23976e-05
5.43859e-06
3.30895e-05
9.30817e-06
2.11288e-05
1.19607e-05
1.23942e-05
3.42846e-06
-6.85492e-06
6.88378e-06
-6.90691e-06
1.02414e-05
-6.71433e-06
1.39618e-05
-7.46974e-06
1.69387e-05
-5.78674e-06
2.10631e-05
-8.47575e-06
2.42823e-05
-6.42681e-06
2.738e-05
-5.9714e-06
3.13455e-05
-7.86998e-06
3.5493e-05
-8.50065e-06
3.89621e-05
-7.06287e-06
4.14311e-05
-4.99695e-06
4.40498e-05
-4.80801e-06
4.67993e-05
-5.06093e-06
4.97291e-05
-5.66079e-06
5.17426e-05
-4.1992e-06
5.16852e-05
5.80342e-07
4.85724e-05
5.77707e-06
4.22823e-05
1.17287e-05
3.25056e-05
1.90848e-05
2.24429e-05
2.20234e-05
2.32875e-05
3.42897e-06
-1.02839e-05
6.87472e-06
-1.03527e-05
1.02477e-05
-1.00873e-05
1.39102e-05
-1.11323e-05
1.70622e-05
-8.93876e-06
2.08953e-05
-1.23089e-05
2.42184e-05
-9.74986e-06
2.76925e-05
-9.44548e-06
3.15895e-05
-1.1767e-05
3.52291e-05
-1.21402e-05
3.83334e-05
-1.01672e-05
4.15366e-05
-8.2002e-06
4.50601e-05
-8.33145e-06
4.79949e-05
-7.99572e-06
5.07041e-05
-8.37013e-06
5.23646e-05
-5.85991e-06
5.19732e-05
9.71703e-07
4.94449e-05
8.30531e-06
4.26003e-05
1.85733e-05
3.3724e-05
2.79612e-05
2.21014e-05
3.3646e-05
3.31333e-05
3.43012e-06
-1.3714e-05
6.85911e-06
-1.37817e-05
1.02609e-05
-1.34891e-05
1.38493e-05
-1.47207e-05
1.71565e-05
-1.22459e-05
2.07852e-05
-1.59376e-05
2.41737e-05
-1.31383e-05
2.78654e-05
-1.31373e-05
3.18297e-05
-1.57315e-05
3.46439e-05
-1.49554e-05
3.79523e-05
-1.34784e-05
4.19631e-05
-1.22194e-05
4.60327e-05
-1.24266e-05
4.93293e-05
-1.13532e-05
5.1817e-05
-1.1016e-05
5.22621e-05
-6.54364e-06
5.19187e-05
1.20624e-06
4.9983e-05
1.02126e-05
4.40244e-05
2.45275e-05
3.46816e-05
3.73038e-05
2.14695e-05
4.68581e-05
4.49149e-05
3.43082e-06
-1.71533e-05
6.85147e-06
-1.72118e-05
1.0272e-05
-1.69207e-05
1.38082e-05
-1.82745e-05
1.72006e-05
-1.56555e-05
2.06405e-05
-1.94137e-05
2.42524e-05
-1.67998e-05
2.80554e-05
-1.70151e-05
3.16529e-05
-1.94789e-05
3.45158e-05
-1.80992e-05
3.82932e-05
-1.77938e-05
4.24104e-05
-1.73292e-05
4.63764e-05
-1.84356e-05
4.98575e-05
-1.84558e-05
5.24537e-05
-2.02894e-05
5.3611e-05
-1.79091e-05
5.34865e-05
-1.07749e-05
5.29055e-05
-3.95727e-07
4.88212e-05
2.36216e-05
4.14746e-05
4.41996e-05
2.76806e-05
6.06517e-05
5.88227e-05
3.44144e-06
-2.13237e-05
6.87091e-06
-2.14172e-05
1.03422e-05
-2.12501e-05
1.37477e-05
-2.27842e-05
1.73315e-05
-2.04005e-05
2.04892e-05
-2.42847e-05
2.4529e-05
-2.30671e-05
2.83577e-05
-2.37783e-05
3.13006e-05
-2.6783e-05
3.48852e-05
-2.81624e-05
3.89072e-05
-3.11108e-05
4.24675e-05
-3.33956e-05
4.57871e-05
-3.91931e-05
4.84177e-05
-4.60687e-05
5.07595e-05
-5.5684e-05
5.30954e-05
-5.67806e-05
5.49243e-05
-5.26796e-05
5.35445e-05
-2.80988e-05
4.82863e-05
3.95073e-06
4.21704e-05
3.90656e-05
3.06482e-05
7.09367e-05
7.45237e-05
3.45977e-06
-3.23215e-05
6.9149e-06
-3.26163e-05
1.04485e-05
-3.29137e-05
1.36189e-05
-3.488e-05
1.76116e-05
-3.41012e-05
2.03466e-05
-3.86339e-05
2.44252e-05
-4.10866e-05
2.7993e-05
-4.37149e-05
3.06223e-05
-4.99683e-05
3.35833e-05
-5.81172e-05
3.61164e-05
-6.73723e-05
3.77511e-05
-7.57483e-05
3.8334e-05
-8.35395e-05
3.81061e-05
-8.69461e-05
3.76551e-05
-6.257e-05
3.71425e-05
-5.17716e-05
4.07045e-05
-4.71734e-05
4.78901e-05
-3.27494e-05
4.63881e-05
-1.93487e-05
3.733e-05
2.3114e-05
3.12657e-05
7.06045e-05
8.4965e-05
3.3709e-06
-5.4845e-05
6.73736e-06
-5.54879e-05
1.01861e-05
-5.6574e-05
1.29734e-05
-5.91858e-05
1.69052e-05
-6.07005e-05
1.9339e-05
-6.53308e-05
2.17447e-05
-6.94843e-05
2.42157e-05
-7.2983e-05
2.56871e-05
-8.00536e-05
2.53471e-05
-8.94413e-05
2.38118e-05
-9.8319e-05
2.31895e-05
-0.000106427
2.32811e-05
-0.000102435
1.99895e-05
-8.11748e-05
1.8141e-05
-4.11007e-05
1.72751e-05
-2.2482e-05
2.1001e-05
-1.0133e-05
3.23738e-05
-1.11988e-05
4.48555e-05
-1.92596e-05
3.33885e-05
7.10194e-06
2.62551e-05
6.16147e-05
9.05315e-05
5.75616e-06
-0.000102674
1.13846e-05
-0.000102374
1.66513e-05
-0.000101286
2.03165e-05
-9.90466e-05
2.48251e-05
-9.4697e-05
2.90519e-05
-8.59793e-05
3.14074e-05
-7.47747e-05
3.57368e-05
-6.83886e-05
3.98681e-05
-6.45008e-05
4.21739e-05
-6.24642e-05
4.4969e-05
-6.16706e-05
4.73666e-05
-6.18469e-05
5.22259e-05
-5.18409e-05
5.92047e-05
-2.75664e-05
6.58444e-05
-1.48024e-05
6.32088e-05
-6.09724e-06
5.26643e-05
9.33807e-06
5.05162e-05
1.53028e-05
6.35573e-05
9.96165e-06
6.36634e-05
1.98583e-06
4.52428e-05
3.77189e-05
7.30584e-05
3.54373e-06
-6.54062e-05
7.12944e-06
-6.46895e-05
1.07513e-05
-6.27876e-05
1.42871e-05
-5.96258e-05
1.80073e-05
-5.51599e-05
2.16706e-05
-4.88155e-05
2.56568e-05
-3.9965e-05
3.19559e-05
-3.47905e-05
3.82421e-05
-2.96211e-05
4.47617e-05
-2.67408e-05
5.18773e-05
-2.54756e-05
5.53553e-05
-2.49938e-05
6.13808e-05
-2.34193e-05
6.02504e-05
-1.85414e-05
5.9266e-05
-1.24706e-05
6.09493e-05
-9.69813e-06
6.93247e-05
-1.83944e-06
7.31274e-05
6.95578e-06
6.02611e-05
1.97561e-05
5.95688e-05
2.12271e-05
5.28278e-05
2.27494e-05
5.1687e-05
4.95851e-06
-3.0255e-05
9.90754e-06
-3.05344e-05
1.49223e-05
-3.05464e-05
1.99882e-05
-3.07306e-05
2.47202e-05
-3.09026e-05
2.97334e-05
-3.17328e-05
3.44732e-05
-3.0441e-05
3.99345e-05
-3.3664e-05
4.49298e-05
-3.2568e-05
5.15907e-05
-3.30491e-05
5.85187e-05
-3.42236e-05
6.40956e-05
-3.31286e-05
6.97685e-05
-3.03102e-05
7.80644e-05
-2.71193e-05
8.40459e-05
-1.59826e-05
8.94638e-05
-1.05072e-05
8.96328e-05
5.08485e-06
9.21325e-05
1.47607e-05
7.59005e-05
3.0119e-05
6.32608e-05
3.4261e-05
8.12715e-05
3.0768e-05
4.29879e-05
5.30894e-06
-4.4496e-05
1.05746e-05
-4.47334e-05
1.58147e-05
-4.45138e-05
2.08397e-05
-4.41802e-05
2.56699e-05
-4.37775e-05
3.00713e-05
-4.39135e-05
3.50576e-05
-4.23904e-05
3.93507e-05
-4.51346e-05
4.44678e-05
-4.35523e-05
5.26548e-05
-4.70223e-05
6.08591e-05
-4.73881e-05
6.72327e-05
-4.38298e-05
7.39948e-05
-3.9845e-05
8.02724e-05
-3.52393e-05
8.75335e-05
-2.48094e-05
9.45623e-05
-1.92554e-05
0.000104092
-5.5972e-06
0.000110407
8.7714e-06
0.00011765
2.39687e-05
8.36065e-05
4.66848e-05
0.000108626
4.35577e-05
3.49292e-05
5.50364e-06
-5.19166e-05
1.09735e-05
-5.20313e-05
1.6277e-05
-5.15123e-05
2.13688e-05
-5.07624e-05
2.61388e-05
-4.97925e-05
3.01936e-05
-4.89177e-05
3.47789e-05
-4.78081e-05
3.81995e-05
-4.90812e-05
4.39446e-05
-4.97483e-05
5.30763e-05
-5.65824e-05
6.16863e-05
-5.62166e-05
6.93275e-05
-5.13784e-05
7.81472e-05
-4.85265e-05
8.60951e-05
-4.34756e-05
9.57116e-05
-3.53362e-05
0.000102306
-2.73529e-05
0.000109124
-1.40811e-05
0.000117409
-1.07575e-06
0.000128124
1.24345e-05
7.90977e-05
3.52104e-05
0.000117771
4.2508e-05
2.52065e-05
5.80158e-06
-5.81563e-05
1.15316e-05
-5.8217e-05
1.70155e-05
-5.74671e-05
2.21816e-05
-5.64155e-05
2.679e-05
-5.48926e-05
3.05672e-05
-5.31705e-05
3.3885e-05
-5.15162e-05
3.64225e-05
-5.18367e-05
4.24299e-05
-5.58205e-05
5.16112e-05
-6.57072e-05
5.90914e-05
-6.35689e-05
6.49184e-05
-5.77752e-05
6.78273e-05
-5.34191e-05
6.83478e-05
-4.71373e-05
6.93855e-05
-3.99148e-05
7.22986e-05
-3.37629e-05
8.06482e-05
-2.57894e-05
9.2947e-05
-1.73646e-05
0.000105669
-3.98225e-06
0.000101397
1.47516e-05
0.000100726
3.89839e-05
1.98777e-05
6.35861e-06
-8.08711e-05
1.24367e-05
-8.11967e-05
1.83279e-05
-8.08786e-05
2.37539e-05
-8.0207e-05
2.83146e-05
-7.87393e-05
3.09807e-05
-7.62003e-05
3.06503e-05
-7.11842e-05
2.94441e-05
-6.5007e-05
3.29652e-05
-6.51313e-05
3.81618e-05
-7.34248e-05
3.73776e-05
-6.69756e-05
2.71628e-05
-5.16646e-05
1.10435e-05
-4.10691e-05
-2.14012e-06
-3.56417e-05
-6.14005e-06
-3.42403e-05
-3.56871e-06
-3.31798e-05
2.83685e-06
-2.84566e-05
1.61817e-05
-2.63969e-05
3.62876e-05
-1.91973e-05
6.58901e-05
-1.29293e-05
6.56265e-05
1.29424e-05
4.16943e-06
6.4861e-06
-0.000149818
1.26551e-05
-0.000150263
1.87348e-05
-0.000150051
2.47102e-05
-0.000149642
3.04279e-05
-0.000148209
3.52139e-05
-0.000145917
3.51748e-05
-0.000138379
2.37693e-05
-0.000121211
8.44237e-06
-0.000112766
-5.64182e-06
-0.000105666
-2.20238e-05
-8.93828e-05
-3.94438e-05
-6.90985e-05
-4.40201e-05
-6.14505e-05
-4.09896e-05
-5.55971e-05
-3.504e-05
-5.27512e-05
-2.68879e-05
-4.82564e-05
-1.70367e-05
-4.09761e-05
-6.23664e-06
-3.82805e-05
3.91126e-06
-2.92555e-05
2.17628e-05
-2.86713e-05
3.08074e-05
-1.19838e-05
-1.18116e-05
4.93829e-06
-0.000106526
9.50968e-06
-0.000107221
1.40797e-05
-0.000105763
1.86671e-05
-0.000105213
2.4187e-05
-0.000103403
3.21918e-05
-9.81412e-05
3.76628e-05
-9.03013e-05
8.33342e-06
-8.03036e-05
-3.28202e-05
-0.00010697
-7.67447e-05
-0.000113198
-9.05833e-05
-0.00011681
-7.87347e-05
-0.00013289
-6.07016e-05
-0.000138346
-4.71287e-05
-0.000125661
-3.71826e-05
-0.000117725
-2.78508e-05
-0.000107868
-1.85325e-05
-9.65681e-05
-1.08574e-05
-8.29932e-05
-7.85268e-07
-6.13549e-05
1.19037e-05
-5.54254e-05
3.03708e-05
-3.46496e-05
3.25576e-05
-3.01996e-05
-2.05208e-05
-1.31772e-05
-5.95842e-05
-2.35284e-05
-6.14597e-05
-3.07627e-05
-6.39167e-05
-3.32633e-05
-6.74694e-05
-3.04699e-05
-7.28641e-05
-2.03475e-05
-7.9582e-05
-6.82557e-06
-8.32861e-05
2.20488e-05
-6.96054e-05
2.23381e-05
-1.29678e-05
-3.34907e-05
5.02003e-05
-4.36039e-05
-2.18529e-05
-2.60577e-05
-6.38755e-05
-2.06747e-05
-6.89457e-05
-1.6414e-05
-6.84706e-05
-1.02792e-05
-7.07342e-05
-3.05939e-06
-7.84691e-05
3.27322e-06
-9.72806e-05
6.61854e-06
-0.000155947
1.12399e-05
-0.000129899
1.78573e-05
-0.000117516
2.83355e-05
-8.96672e-05
3.84048e-05
-7.976e-05
-6.45902e-05
-9.53597e-06
-5.00465e-05
-1.70177e-05
-5.39771e-05
-2.28594e-05
-5.80743e-05
-2.67894e-05
-6.3539e-05
-2.96914e-05
-6.99607e-05
-3.50533e-05
-7.42139e-05
-4.46081e-05
-7.34806e-05
-4.7481e-05
-6.18063e-05
-3.57364e-05
-1.07189e-05
-1.00059e-05
3.65673e-05
1.92271e-05
-4.64231e-05
3.98953e-05
-8.24133e-05
6.2139e-05
-8.44203e-05
8.93781e-05
-8.07907e-05
0.000120434
-7.67767e-05
0.000136526
-6.86455e-05
0.000135705
-5.01149e-05
9.79251e-05
-2.55762e-05
6.26088e-05
-3.09039e-05
5.37961e-05
-5.89887e-05
5.41932e-05
-7.76075e-05
5.92623e-05
-0.000115356
-0.000137234
-7.23503e-06
-4.28112e-05
-1.24384e-05
-4.87736e-05
-1.57855e-05
-5.47272e-05
-1.75666e-05
-6.17579e-05
-1.84315e-05
-6.9096e-05
-1.81437e-05
-7.45059e-05
-1.67881e-05
-7.48496e-05
-1.52379e-05
-6.33594e-05
-1.40416e-05
-1.19073e-05
1.06368e-05
1.18904e-05
1.8145e-05
-5.39309e-05
2.08251e-05
-8.5093e-05
2.38695e-05
-8.74642e-05
2.57166e-05
-8.26373e-05
2.78075e-05
-7.88668e-05
3.05628e-05
-7.14001e-05
4.03115e-05
-5.98654e-05
7.37464e-05
-5.67113e-05
0.000118897
-5.61452e-05
0.000160892
-6.48288e-05
0.000171302
-5.75169e-05
0.000160315
-3.51388e-05
-2.85759e-05
-8.59577e-08
-4.27253e-05
-4.82066e-07
-4.83775e-05
-1.92121e-06
-5.32882e-05
-4.98126e-06
-5.86979e-05
-1.05534e-05
-6.3524e-05
-1.87382e-05
-6.63213e-05
-2.84513e-05
-6.51366e-05
-3.35155e-05
-5.82953e-05
-3.48888e-06
-4.19342e-05
3.75606e-05
-2.91593e-05
4.70951e-05
-6.34654e-05
4.04773e-05
-7.8475e-05
3.80917e-05
-8.50784e-05
3.9542e-05
-8.40872e-05
4.12049e-05
-8.05295e-05
4.16807e-05
-7.18759e-05
3.82787e-05
-5.64634e-05
2.89589e-05
-4.73916e-05
1.64104e-05
-4.3597e-05
-6.77752e-08
-4.83508e-05
-6.64237e-06
-5.09416e-05
7.77454e-06
-4.93936e-05
-3.44566e-05
4.73576e-07
-4.31989e-05
1.08334e-06
-4.89875e-05
7.51327e-07
-5.29563e-05
-7.33156e-07
-5.72137e-05
-3.4322e-06
-6.08252e-05
-7.06272e-06
-6.2691e-05
-1.03533e-05
-6.18462e-05
-1.14656e-05
-5.71831e-05
-4.48887e-06
-4.89111e-05
1.08552e-05
-4.45035e-05
1.31552e-05
-6.57655e-05
1.04362e-05
-7.57561e-05
8.61625e-06
-8.32585e-05
1.06157e-05
-8.6087e-05
1.41718e-05
-8.40858e-05
1.74567e-05
-7.51609e-05
2.285e-05
-6.1857e-05
2.81696e-05
-5.27115e-05
2.95722e-05
-4.50001e-05
1.81992e-05
-3.69781e-05
-5.19673e-06
-2.75457e-05
-2.6524e-05
-2.80663e-05
-1.60504e-05
2.03527e-06
-4.52344e-05
3.18629e-06
-5.01387e-05
3.05484e-06
-5.28252e-05
1.53604e-06
-5.56952e-05
-1.34498e-06
-5.79444e-05
-5.25955e-06
-5.87767e-05
-9.11997e-06
-5.7986e-05
-1.05056e-05
-5.57976e-05
-5.86472e-06
-5.35522e-05
1.53068e-06
-5.18991e-05
1.76745e-07
-6.44117e-05
-3.95025e-06
-7.16292e-05
-9.12903e-06
-7.80799e-05
-1.46328e-05
-8.05834e-05
-1.99904e-05
-7.87284e-05
-2.5757e-05
-6.93943e-05
-2.99923e-05
-5.7622e-05
-3.40581e-05
-4.86461e-05
-3.87969e-05
-4.02618e-05
-4.37905e-05
-3.19846e-05
-4.41809e-05
-2.71555e-05
-4.458e-05
-2.7667e-05
-2.39088e-05
1.72764e-06
-4.69623e-05
2.66654e-06
-5.10779e-05
2.56201e-06
-5.27209e-05
1.17743e-06
-5.43108e-05
-1.51714e-06
-5.525e-05
-4.8707e-06
-5.54233e-05
-7.89247e-06
-5.49644e-05
-9.39714e-06
-5.42931e-05
-8.73935e-06
-5.42101e-05
-5.89206e-06
-5.47465e-05
-8.7453e-06
-6.15586e-05
-1.40638e-05
-6.63108e-05
-2.20161e-05
-7.01276e-05
-3.00613e-05
-7.25381e-05
-3.74019e-05
-7.13878e-05
-4.29399e-05
-6.38566e-05
-4.66319e-05
-5.39304e-05
-4.90796e-05
-4.61988e-05
-5.0896e-05
-3.84455e-05
-5.09488e-05
-3.1932e-05
-4.91271e-05
-2.89771e-05
-4.80647e-05
-2.87294e-05
-2.31372e-05
6.22409e-07
-4.75849e-05
7.48279e-07
-5.1204e-05
-5.21821e-08
-5.19207e-05
-1.73703e-06
-5.26262e-05
-3.95149e-06
-5.30358e-05
-6.1902e-06
-5.31848e-05
-8.1283e-06
-5.30264e-05
-9.50124e-06
-5.29203e-05
-1.02157e-05
-5.34957e-05
-1.04801e-05
-5.44823e-05
-1.48086e-05
-5.72301e-05
-2.1243e-05
-5.98765e-05
-2.92388e-05
-6.21319e-05
-3.69408e-05
-6.48363e-05
-4.42733e-05
-6.40552e-05
-5.016e-05
-5.79702e-05
-5.39877e-05
-5.51746e-05
-5.35328e-05
-5.14946e-05
-5.01046e-05
-5.0137e-05
-2.26776e-07
-9.27946e-07
-2.1564e-06
-3.60042e-06
-5.04855e-06
-6.49345e-06
-7.64209e-06
-8.48578e-06
-9.63803e-06
-1.12228e-05
-1.48702e-05
-2.04285e-05
-2.67336e-05
-3.45367e-05
-4.235e-05
)
;

boundaryField
{
    leftWall
    {
        type            fixedValue;
        value           uniform 0;
    }
    rightWall
    {
        type            fixedValue;
        value           nonuniform 0();
    }
    lowerWall
    {
        type            fixedValue;
        value           uniform 0;
    }
    atmosphere
    {
        type            calculated;
        value           nonuniform 0();
    }
    defaultFaces
    {
        type            empty;
        value           nonuniform 0();
    }
    procBoundary0to1
    {
        type            processor;
        value           nonuniform List<scalar> 
26
(
8.73458e-06
1.15497e-05
1.22556e-05
9.68798e-06
1.37728e-05
1.49238e-05
2.04003e-05
1.83659e-05
4.98428e-05
5.13064e-05
7.25173e-05
0.000111177
0.000142247
0.000140115
0.000111221
5.92461e-05
1.8538e-05
5.66867e-05
4.7629e-05
6.82175e-05
0.000127252
1.86505e-05
-4.49302e-05
-3.67221e-05
-4.88362e-05
-4.7811e-05
)
;
    }
    procBoundary0to2
    {
        type            processor;
        value           nonuniform List<scalar> 
24
(
-5.01029e-05
-4.50119e-05
-4.00875e-05
-3.39702e-05
-3.03673e-05
-2.86967e-05
-2.54634e-05
-4.73584e-05
-5.0503e-05
-5.06924e-05
-5.11824e-05
-5.15878e-05
-5.174e-05
-5.18779e-05
-5.20767e-05
-5.23435e-05
-5.28975e-05
-5.35827e-05
-5.43183e-05
-5.58269e-05
-5.70332e-05
-5.62422e-05
-4.66017e-05
-5.37186e-05
)
;
    }
}


// ************************************************************************* //
