/*--------------------------------*- C++ -*----------------------------------*\
| =========                 |                                                 |
| \\      /  F ield         | OpenFOAM: The Open Source CFD Toolbox           |
|  \\    /   O peration     | Version:  2.4.0                                 |
|   \\  /    A nd           | Web:      www.OpenFOAM.org                      |
|    \\/     M anipulation  |                                                 |
\*---------------------------------------------------------------------------*/
FoamFile
{
    version     2.0;
    format      ascii;
    class       surfaceScalarField;
    location    "0.35";
    object      phi.air;
}
// * * * * * * * * * * * * * * * * * * * * * * * * * * * * * * * * * * * * * //

dimensions      [0 3 -1 0 0 0 0];

internalField   nonuniform List<scalar> 
1101
(
3.42647e-06
-3.42646e-06
6.87807e-06
-3.4516e-06
1.02348e-05
-3.35669e-06
1.39841e-05
-3.74935e-06
1.6794e-05
-2.80985e-06
2.11453e-05
-4.35135e-06
2.43529e-05
-3.20757e-06
2.72266e-05
-2.87368e-06
3.11311e-05
-3.90455e-06
3.54842e-05
-4.35305e-06
3.9078e-05
-3.59377e-06
4.1606e-05
-2.52799e-06
4.37953e-05
-2.18935e-06
4.61067e-05
-2.31137e-06
4.88377e-05
-2.73103e-06
5.10234e-05
-2.1857e-06
5.05005e-05
5.22865e-07
4.78363e-05
2.66426e-06
4.23977e-05
5.43857e-06
3.30895e-05
9.30816e-06
2.11288e-05
1.19607e-05
1.23942e-05
3.42846e-06
-6.85493e-06
6.88378e-06
-6.90692e-06
1.02414e-05
-6.71434e-06
1.39618e-05
-7.46975e-06
1.69387e-05
-5.78675e-06
2.10631e-05
-8.47575e-06
2.42823e-05
-6.42681e-06
2.73801e-05
-5.9714e-06
3.13455e-05
-7.86997e-06
3.54931e-05
-8.50064e-06
3.89622e-05
-7.06288e-06
4.14311e-05
-4.99697e-06
4.40498e-05
-4.80803e-06
4.67994e-05
-5.06095e-06
4.97291e-05
-5.66081e-06
5.17426e-05
-4.19922e-06
5.16852e-05
5.80319e-07
4.85724e-05
5.77704e-06
4.22823e-05
1.17286e-05
3.25057e-05
1.90848e-05
2.24429e-05
2.20234e-05
2.32875e-05
3.42897e-06
-1.02839e-05
6.87473e-06
-1.03527e-05
1.02477e-05
-1.00873e-05
1.39102e-05
-1.11323e-05
1.70622e-05
-8.93878e-06
2.08954e-05
-1.23089e-05
2.42184e-05
-9.74988e-06
2.76925e-05
-9.44549e-06
3.15895e-05
-1.1767e-05
3.52291e-05
-1.21402e-05
3.83334e-05
-1.01672e-05
4.15366e-05
-8.20022e-06
4.50601e-05
-8.33148e-06
4.79949e-05
-7.99574e-06
5.07041e-05
-8.37002e-06
5.23646e-05
-5.85963e-06
5.19732e-05
9.71766e-07
4.9445e-05
8.3053e-06
4.26004e-05
1.85732e-05
3.3724e-05
2.79611e-05
2.21015e-05
3.3646e-05
3.31333e-05
3.43012e-06
-1.37141e-05
6.85912e-06
-1.37817e-05
1.02609e-05
-1.34891e-05
1.38493e-05
-1.47207e-05
1.71565e-05
-1.2246e-05
2.07852e-05
-1.59377e-05
2.41737e-05
-1.31384e-05
2.78654e-05
-1.31373e-05
3.18297e-05
-1.57311e-05
3.46439e-05
-1.49537e-05
3.79523e-05
-1.34716e-05
4.19631e-05
-1.21948e-05
4.60327e-05
-1.2345e-05
4.93293e-05
-1.1184e-05
5.1817e-05
-1.06523e-05
5.22621e-05
-6.0411e-06
5.19187e-05
1.47699e-06
4.9983e-05
1.03019e-05
4.40245e-05
2.45427e-05
3.46816e-05
3.73041e-05
2.14696e-05
4.6858e-05
4.49148e-05
3.43082e-06
-1.71287e-05
6.85148e-06
-1.71838e-05
1.0272e-05
-1.68868e-05
1.38082e-05
-1.82182e-05
1.72006e-05
-1.56005e-05
2.06405e-05
-1.93054e-05
2.42524e-05
-1.66584e-05
2.80554e-05
-1.68171e-05
3.16529e-05
-1.91356e-05
3.45154e-05
-1.75398e-05
3.82929e-05
-1.68727e-05
4.24114e-05
-1.58489e-05
4.63859e-05
-1.59033e-05
4.98785e-05
-1.47759e-05
5.24729e-05
-1.46656e-05
5.35941e-05
-1.0286e-05
5.34538e-05
-1.62758e-06
5.28797e-05
8.73861e-06
4.88069e-05
2.87367e-05
4.14737e-05
4.49302e-05
2.76806e-05
6.06513e-05
5.88227e-05
3.44184e-06
-2.01483e-05
6.87174e-06
-2.01826e-05
1.03439e-05
-1.9914e-05
1.37499e-05
-2.11642e-05
1.73364e-05
-1.87223e-05
2.0497e-05
-2.21062e-05
2.45412e-05
-2.04768e-05
2.83787e-05
-2.0684e-05
3.13311e-05
-2.27867e-05
3.49314e-05
-2.28967e-05
3.89737e-05
-2.44184e-05
4.25456e-05
-2.50198e-05
4.58576e-05
-2.79053e-05
4.84923e-05
-2.96167e-05
5.08044e-05
-3.23487e-05
5.30304e-05
-3.14012e-05
5.46872e-05
-2.89148e-05
5.25609e-05
-5.72074e-06
4.73557e-05
2.0016e-05
4.18893e-05
4.59982e-05
3.05914e-05
7.24816e-05
7.4539e-05
3.46852e-06
-2.66583e-05
6.93195e-06
-2.68505e-05
1.04804e-05
-2.69439e-05
1.36518e-05
-2.85011e-05
1.76738e-05
-2.73144e-05
2.04206e-05
-3.08275e-05
2.45446e-05
-3.19936e-05
2.8144e-05
-3.31562e-05
3.08153e-05
-3.66456e-05
3.37835e-05
-4.00333e-05
3.62916e-05
-4.39315e-05
3.76203e-05
-4.60357e-05
3.78273e-05
-5.00564e-05
3.67157e-05
-4.92591e-05
3.35969e-05
-3.06213e-05
3.00792e-05
-1.51056e-05
3.05633e-05
-9.39819e-07
3.88755e-05
-3.33732e-06
4.18284e-05
4.27584e-06
3.52324e-05
3.74677e-05
3.09126e-05
7.38255e-05
8.54382e-05
3.415e-06
-4.05543e-05
6.82501e-06
-4.09463e-05
1.03487e-05
-4.15383e-05
1.3166e-05
-4.31261e-05
1.73176e-05
-4.39368e-05
1.97645e-05
-4.67398e-05
2.22454e-05
-4.90118e-05
2.46636e-05
-5.03505e-05
2.59306e-05
-5.28538e-05
2.54845e-05
-5.39378e-05
2.32326e-05
-5.07388e-05
2.05853e-05
-4.18287e-05
1.72007e-05
-2.77571e-05
1.44271e-05
-1.64579e-05
1.49247e-05
-1.27193e-05
1.60304e-05
-7.72418e-06
1.8265e-05
-5.10334e-07
2.27709e-05
5.9677e-06
3.35283e-05
2.04144e-05
2.64005e-05
3.28792e-05
2.50247e-05
6.66346e-05
9.19047e-05
5.69921e-06
-6.46745e-05
1.12818e-05
-6.43148e-05
1.63915e-05
-6.3142e-05
2.01286e-05
-6.08592e-05
2.41845e-05
-5.81138e-05
2.74099e-05
-5.21382e-05
2.85138e-05
-4.45041e-05
3.14075e-05
-4.09662e-05
3.3376e-05
-3.62695e-05
3.44607e-05
-3.12787e-05
3.8847e-05
-2.96832e-05
4.77253e-05
-2.89705e-05
5.67146e-05
-2.56878e-05
6.57158e-05
-2.24974e-05
6.60687e-05
-1.28949e-05
6.20815e-05
-3.72041e-06
5.0191e-05
1.13668e-05
3.64905e-05
1.97373e-05
3.65565e-05
3.21323e-05
4.87998e-05
3.98132e-05
4.06507e-05
5.36551e-05
7.62124e-05
2.95825e-06
-3.69149e-05
6.18167e-06
-3.70381e-05
9.57093e-06
-3.65015e-05
1.35914e-05
-3.59678e-05
1.76187e-05
-3.56851e-05
2.27003e-05
-3.56351e-05
2.79246e-05
-3.34088e-05
3.44204e-05
-3.58945e-05
4.05585e-05
-3.4004e-05
4.75593e-05
-3.23571e-05
5.40948e-05
-3.2793e-05
5.87528e-05
-3.19116e-05
6.10836e-05
-2.75309e-05
5.97369e-05
-2.11275e-05
5.87074e-05
-1.18512e-05
6.22341e-05
-7.23558e-06
6.97093e-05
3.89461e-06
7.21503e-05
1.7236e-05
6.9349e-05
3.48244e-05
6.32399e-05
5.41459e-05
5.05406e-05
6.77301e-05
6.46994e-05
5.00025e-06
-4.10845e-05
9.98943e-06
-4.12839e-05
1.50509e-05
-4.09524e-05
2.015e-05
-4.06319e-05
2.48991e-05
-4.01792e-05
2.98353e-05
-4.04646e-05
3.46546e-05
-3.81972e-05
4.01241e-05
-4.13588e-05
4.5011e-05
-3.88844e-05
5.18788e-05
-3.92186e-05
5.85958e-05
-3.95048e-05
6.43095e-05
-3.7622e-05
7.00406e-05
-3.32608e-05
7.80844e-05
-2.91538e-05
8.40636e-05
-1.78066e-05
8.9389e-05
-1.25148e-05
8.9779e-05
3.52462e-06
9.24044e-05
1.46181e-05
9.47261e-05
3.24303e-05
9.50407e-05
5.14564e-05
9.23745e-05
7.97924e-05
7.71131e-05
5.31842e-06
-4.63947e-05
1.05858e-05
-4.65439e-05
1.58325e-05
-4.61926e-05
2.08617e-05
-4.5655e-05
2.56952e-05
-4.50068e-05
3.00835e-05
-4.48469e-05
3.50989e-05
-4.32048e-05
3.93883e-05
-4.56343e-05
4.44945e-05
-4.39808e-05
5.27354e-05
-4.74516e-05
6.09069e-05
-4.7671e-05
6.72653e-05
-4.39259e-05
7.40038e-05
-3.98319e-05
8.02726e-05
-3.50323e-05
8.75401e-05
-2.45016e-05
9.45519e-05
-1.88309e-05
0.00010408
-5.13951e-06
0.000110374
9.15221e-06
0.00011939
2.40843e-05
0.000124493
4.66368e-05
0.000135357
6.64814e-05
8.67916e-05
5.5038e-06
-4.83209e-05
1.09738e-05
-4.82029e-05
1.6277e-05
-4.75095e-05
2.13685e-05
-4.65612e-05
2.61384e-05
-4.55089e-05
3.01925e-05
-4.47179e-05
3.47775e-05
-4.43165e-05
3.81977e-05
-4.71721e-05
4.39443e-05
-4.88928e-05
5.30762e-05
-5.63417e-05
6.16754e-05
-5.62627e-05
6.93252e-05
-5.15845e-05
7.81347e-05
-4.85291e-05
8.60659e-05
-4.36209e-05
9.56786e-05
-3.54866e-05
0.000102278
-2.72416e-05
0.000109092
-1.38095e-05
0.000117392
-7.67759e-07
0.000127643
1.27692e-05
0.000138879
3.51541e-05
0.000148591
5.57678e-05
7.01565e-05
5.80541e-06
-1.21515e-06
1.15261e-05
-1.20575e-06
1.698e-05
-3.71543e-07
2.20778e-05
6.89166e-07
2.65848e-05
1.99371e-06
3.02277e-05
2.87324e-06
3.3555e-05
2.39704e-06
3.62207e-05
-1.90617e-06
4.24396e-05
-1.27849e-05
5.16807e-05
-2.92093e-05
5.92357e-05
-3.62633e-05
6.51581e-05
-4.53411e-05
6.80487e-05
-4.81407e-05
6.8596e-05
-3.89657e-05
6.95525e-05
-3.17475e-05
7.23441e-05
-2.94943e-05
8.06589e-05
-2.42261e-05
9.29477e-05
-1.5921e-05
0.000105584
-3.22207e-06
0.000122857
1.45094e-05
0.00013659
4.02706e-05
4.05404e-05
6.80105e-06
1.79555e-06
1.29477e-05
2.64936e-06
1.86632e-05
4.3795e-06
2.34163e-05
7.13412e-06
2.67023e-05
1.13258e-05
2.637e-05
1.79026e-05
2.02812e-05
2.62744e-05
1.05249e-05
2.57029e-05
3.19913e-05
3.17136e-06
5.10924e-05
-3.65356e-06
4.23292e-05
3.18276e-05
2.71997e-05
4.25549e-05
1.17287e-05
3.8129e-05
-2.24953e-06
2.83734e-05
-6.53208e-06
1.69966e-05
-3.87621e-06
7.78218e-06
2.76831e-06
-8.00954e-07
1.6236e-05
-8.07687e-06
3.63194e-05
-4.62004e-06
6.77014e-05
-2.93809e-06
9.64399e-05
1.27381e-05
9.73058e-06
7.24441e-06
-3.26188e-05
1.36434e-05
-3.19988e-05
1.98524e-05
-3.12721e-05
2.5577e-05
-2.97617e-05
3.08305e-05
-2.71815e-05
3.42122e-05
-2.1562e-05
2.94193e-05
-7.6305e-06
6.06953e-06
1.22244e-05
4.91675e-06
1.60075e-05
3.93554e-06
3.46959e-05
-1.58351e-05
3.87908e-05
-4.60183e-05
4.85959e-05
-5.45913e-05
4.67654e-05
-5.37623e-05
4.77127e-05
-5.04411e-05
4.73102e-05
-4.18443e-05
4.07283e-05
-2.25405e-05
3.34938e-05
-7.37247e-06
2.64745e-05
2.4438e-06
3.02754e-05
1.8962e-05
2.62083e-05
4.5279e-05
2.3887e-05
1.25899e-05
1.83508e-06
-7.24232e-05
3.48938e-06
-7.14753e-05
5.58372e-06
-7.08486e-05
8.31739e-06
-6.96919e-05
1.39393e-05
-6.98335e-05
2.3793e-05
-6.91558e-05
3.21941e-05
-5.72279e-05
1.4868e-05
-1.7434e-05
-2.67004e-05
5.00788e-06
-8.06037e-05
1.97489e-05
-9.43131e-05
-5.28785e-06
-8.22926e-05
-1.54241e-05
-6.52006e-05
-1.8791e-05
-5.22769e-05
-1.06013e-05
-4.64573e-05
-2.64134e-06
-3.77785e-05
-1.00497e-06
-2.61e-05
1.16136e-05
-1.79703e-05
2.56984e-05
-9.75548e-06
3.43812e-05
-4.15219e-06
3.22125e-05
2.59974e-05
3.10767e-05
5.55756e-05
1.83063e-05
9.16508e-06
-1.3179e-05
-5.9582e-05
-2.35282e-05
-6.14583e-05
-3.07622e-05
-6.39154e-05
-3.32628e-05
-6.74683e-05
-3.04698e-05
-7.28635e-05
-2.02293e-05
-7.95783e-05
5.43116e-06
-8.30494e-05
5.18715e-05
-6.46628e-05
4.72134e-05
1.06857e-06
-2.3525e-05
6.23281e-05
-3.9e-05
-1.71823e-05
-1.8254e-05
-6.17429e-05
-5.30604e-06
-6.21594e-05
8.50046e-08
-5.34595e-05
-1.25466e-06
-4.53749e-05
1.38462e-06
-5.15404e-05
1.37347e-06
-4.3896e-05
2.71959e-06
-2.4605e-05
5.28386e-06
-7.69975e-06
2.51076e-06
-4.77163e-06
1.98288e-05
4.61969e-06
3.61975e-05
1.45688e-05
1.59692e-05
-9.53597e-06
-5.0046e-05
-1.70176e-05
-5.39766e-05
-2.28591e-05
-5.80739e-05
-2.67889e-05
-6.35386e-05
-2.96921e-05
-6.99604e-05
-3.50527e-05
-7.42177e-05
-4.46096e-05
-7.34934e-05
-4.74852e-05
-6.18087e-05
-3.57428e-05
-1.07108e-05
-1.00049e-05
3.65683e-05
1.92284e-05
-4.64235e-05
3.9896e-05
-8.24139e-05
6.21393e-05
-8.44209e-05
8.93785e-05
-8.07912e-05
0.000120436
-7.67768e-05
0.000136564
-6.86453e-05
0.00013812
-5.01173e-05
0.000114051
-2.32749e-05
8.17282e-05
-1.09283e-05
5.7821e-05
-2.24562e-05
6.20138e-05
-4.47942e-05
5.84028e-05
-2.96288e-05
-2.57927e-05
-7.23498e-06
-4.2811e-05
-1.24382e-05
-4.87734e-05
-1.57851e-05
-5.4727e-05
-1.7566e-05
-6.17576e-05
-1.84307e-05
-6.90957e-05
-1.81427e-05
-7.45056e-05
-1.67868e-05
-7.48493e-05
-1.52362e-05
-6.33593e-05
-1.40396e-05
-1.19075e-05
1.06389e-05
1.18899e-05
1.81468e-05
-5.39314e-05
2.08265e-05
-8.50936e-05
2.38705e-05
-8.74649e-05
2.57173e-05
-8.2638e-05
2.78079e-05
-7.88675e-05
3.05634e-05
-7.14008e-05
4.03122e-05
-5.98662e-05
7.37464e-05
-5.67123e-05
0.000118896
-5.61462e-05
0.000160899
-6.48288e-05
0.000171603
-5.75148e-05
0.000164856
-3.49763e-05
-2.35721e-05
-8.58968e-08
-4.27252e-05
-4.81899e-07
-4.83774e-05
-1.92091e-06
-5.3288e-05
-4.98076e-06
-5.86978e-05
-1.05527e-05
-6.35238e-05
-1.87372e-05
-6.63211e-05
-2.84501e-05
-6.51364e-05
-3.35142e-05
-5.82952e-05
-3.48742e-06
-4.19343e-05
3.7562e-05
-2.91596e-05
4.70965e-05
-6.34659e-05
4.04785e-05
-7.84756e-05
3.80927e-05
-8.50791e-05
3.95429e-05
-8.40882e-05
4.12056e-05
-8.05302e-05
4.16814e-05
-7.18766e-05
3.82794e-05
-5.64642e-05
2.89594e-05
-4.73924e-05
1.64107e-05
-4.35975e-05
-6.73918e-08
-4.83507e-05
-6.64111e-06
-5.09411e-05
7.77557e-06
-4.93933e-05
-3.44565e-05
4.7365e-07
-4.31988e-05
1.08352e-06
-4.89873e-05
7.5166e-07
-5.29562e-05
-7.32636e-07
-5.72135e-05
-3.43149e-06
-6.08249e-05
-7.06181e-06
-6.26908e-05
-1.03522e-05
-6.1846e-05
-1.14644e-05
-5.7183e-05
-4.48757e-06
-4.89111e-05
1.08565e-05
-4.45037e-05
1.31564e-05
-6.57658e-05
1.04373e-05
-7.57565e-05
8.61719e-06
-8.3259e-05
1.06165e-05
-8.60875e-05
1.41725e-05
-8.40862e-05
1.74573e-05
-7.51614e-05
2.28506e-05
-6.18575e-05
2.81701e-05
-5.27119e-05
2.95729e-05
-4.50003e-05
1.82001e-05
-3.6978e-05
-5.19549e-06
-2.75455e-05
-2.65227e-05
-2.8066e-05
-1.60504e-05
2.03538e-06
-4.52342e-05
3.18651e-06
-5.01384e-05
3.05522e-06
-5.28249e-05
1.53659e-06
-5.56948e-05
-1.34427e-06
-5.79441e-05
-5.25868e-06
-5.87764e-05
-9.11897e-06
-5.79857e-05
-1.05046e-05
-5.57974e-05
-5.86356e-06
-5.35521e-05
1.53187e-06
-5.18991e-05
1.77887e-07
-6.44118e-05
-3.94922e-06
-7.16294e-05
-9.12814e-06
-7.80801e-05
-1.4632e-05
-8.05836e-05
-1.99897e-05
-7.87286e-05
-2.57564e-05
-6.93947e-05
-2.99917e-05
-5.76223e-05
-3.40574e-05
-4.86462e-05
-3.87959e-05
-4.02618e-05
-4.37894e-05
-3.19845e-05
-4.41797e-05
-2.71552e-05
-4.4579e-05
-2.76668e-05
-2.39085e-05
1.72775e-06
-4.69619e-05
2.66678e-06
-5.10775e-05
2.56241e-06
-5.27205e-05
1.17799e-06
-5.43104e-05
-1.51643e-06
-5.52496e-05
-4.86985e-06
-5.54229e-05
-7.89152e-06
-5.4964e-05
-9.39612e-06
-5.42928e-05
-8.7383e-06
-5.42099e-05
-5.89101e-06
-5.47464e-05
-8.74428e-06
-6.15585e-05
-1.40629e-05
-6.63108e-05
-2.20153e-05
-7.01277e-05
-3.00605e-05
-7.25383e-05
-3.74012e-05
-7.13879e-05
-4.29392e-05
-6.38567e-05
-4.6631e-05
-5.39304e-05
-4.90785e-05
-4.61987e-05
-5.08949e-05
-3.84454e-05
-5.09476e-05
-3.19319e-05
-4.91258e-05
-2.89769e-05
-4.80635e-05
-2.87291e-05
-2.3137e-05
6.22518e-07
-4.75844e-05
7.48524e-07
-5.12035e-05
-5.17929e-08
-5.19201e-05
-1.7365e-06
-5.26257e-05
-3.95082e-06
-5.30353e-05
-6.1894e-06
-5.31843e-05
-8.12741e-06
-5.3026e-05
-9.50028e-06
-5.29199e-05
-1.02147e-05
-5.34954e-05
-1.04791e-05
-5.4482e-05
-1.48077e-05
-5.72299e-05
-2.12421e-05
-5.98764e-05
-2.92379e-05
-6.21318e-05
-3.694e-05
-6.48362e-05
-4.42726e-05
-6.40553e-05
-5.01591e-05
-5.79701e-05
-5.39867e-05
-5.51736e-05
-5.35316e-05
-5.14934e-05
-5.01033e-05
-5.01359e-05
-2.2665e-07
-9.27696e-07
-2.15602e-06
-3.5999e-06
-5.04791e-06
-6.4927e-06
-7.64126e-06
-8.48488e-06
-9.63711e-06
-1.12219e-05
-1.48693e-05
-2.04276e-05
-2.67327e-05
-3.45359e-05
-4.23491e-05
)
;

boundaryField
{
    leftWall
    {
        type            fixedValue;
        value           uniform 0;
    }
    rightWall
    {
        type            fixedValue;
        value           nonuniform 0();
    }
    lowerWall
    {
        type            fixedValue;
        value           uniform 0;
    }
    atmosphere
    {
        type            calculated;
        value           nonuniform 0();
    }
    defaultFaces
    {
        type            empty;
        value           nonuniform 0();
    }
    procBoundary0to1
    {
        type            processor;
        value           nonuniform List<scalar> 
26
(
8.73459e-06
1.15497e-05
1.22556e-05
9.68797e-06
1.37728e-05
1.49238e-05
2.0381e-05
1.82753e-05
4.98608e-05
5.10283e-05
7.53587e-05
0.000129521
0.000169577
0.000164429
0.000125882
7.24532e-05
-8.10392e-06
8.3912e-05
4.50909e-05
6.58586e-05
0.000137658
1.86505e-05
-4.49289e-05
-3.67209e-05
-4.8835e-05
-4.78097e-05
)
;
    }
    procBoundary0to2
    {
        type            processor;
        value           nonuniform List<scalar> 
24
(
-5.01028e-05
-4.50119e-05
-4.00874e-05
-3.39701e-05
-3.03671e-05
-2.86966e-05
-2.54632e-05
-4.73578e-05
-5.05024e-05
-5.06918e-05
-5.11818e-05
-5.15873e-05
-5.17395e-05
-5.18774e-05
-5.20763e-05
-5.23432e-05
-5.28972e-05
-5.35825e-05
-5.43181e-05
-5.58267e-05
-5.70331e-05
-5.6242e-05
-4.66008e-05
-5.37184e-05
)
;
    }
}


// ************************************************************************* //
