/*--------------------------------*- C++ -*----------------------------------*\
| =========                 |                                                 |
| \\      /  F ield         | OpenFOAM: The Open Source CFD Toolbox           |
|  \\    /   O peration     | Version:  2.4.0                                 |
|   \\  /    A nd           | Web:      www.OpenFOAM.org                      |
|    \\/     M anipulation  |                                                 |
\*---------------------------------------------------------------------------*/
FoamFile
{
    version     2.0;
    format      ascii;
    class       volScalarField;
    location    "0.35";
    object      rho;
}
// * * * * * * * * * * * * * * * * * * * * * * * * * * * * * * * * * * * * * //

dimensions      [1 -3 0 0 0 0 0];

internalField   nonuniform List<scalar> 
575
(
13529
13529
13529
13529
13529
13529
13529
13529
13529
13529
13529
13529
13529
13529
13529
13529
13529
13529
13529
13529
13529
13528.9
13529
13529
13529
13529
13529
13529
13529
13529
13529
13529
13529
13529
13529
13529
13529
13529
13529
13529
13529
13529
13529
13528.9
13529
13529
13529
13529
13529
13529
13529
13529
13529
13529
13529
13529
13529
13529
13529
13529
13529
13529
13529
13529
13529
13528.9
13529
13529
13529
13529
13529
13529
13529
13529
13529
13529
13529
13529
13529
13528.9
13528.4
13528.1
13528.5
13528.8
13528.9
13528.9
13528.9
13528.9
13529
13529
13529
13529
13529
13528.9
13528.8
13528.7
13528
13526.9
13524.3
13519.4
13504.2
13471.2
13382
13310
13415.7
13489.1
13518.5
13526.7
13528.5
13528.7
13519.3
13518.5
13517.2
13511.3
13512
13493.5
13480.9
13457.1
13385.9
13270.9
13069.9
12773.1
12130.2
11170.5
9546.14
8024.27
7522.17
8283.95
10720.2
12932.4
13485.3
13527.5
12952.4
12922.8
12872.5
12710.3
12672.6
12289.3
11945.7
11491.8
10607.9
9406.93
7911.03
6338.9
4405.86
2708.96
1521.12
1104.1
1011.46
1290.32
2828.18
8192.72
12835.7
13507.7
8578.39
8452.63
8230.68
7740.39
7420.54
6500.03
5603.71
4679.1
3533.03
2461.46
1678.09
1239.37
1051.7
1007.34
1000.96
1000.44
1000.06
999.643
1038.34
2402.26
10530.1
13385.3
2337.5
2282.89
2187.7
2034.66
1887.96
1661.85
1470.05
1307.32
1173.02
1083.91
1034.88
1012.01
1003.3
1000.88
1000.34
1000.23
1000.14
999.399
996.385
1121.05
5086.97
11974.1
1005.45
1004.95
1004.18
1003.25
1002.33
1001.54
1001
1000.62
1000.38
1000.23
1000.13
1000.07
1000.03
1000.03
1000.03
1000.03
1000.02
999.874
998.453
995.262
1455.97
6819.77
1000.05
1000.05
1000.04
1000.04
1000.03
1000.02
1000.02
1000.02
1000.01
1000.01
1000.01
1000.01
1000.01
1000
1000
999.991
999.982
999.947
999.764
998.278
1008.65
2250.52
1000
1000
1000
1000
1000
1000
1000
1000
1000
1000
1000
999.99
999.873
999.384
998.681
997.344
997.92
998.811
999.262
998.998
997.148
1111.77
1000
1000
1000
1000
1000
1000
1000
1000
1000
999.989
999.813
998.378
991.152
973.554
953.342
931.231
933.855
946.495
962.488
978.659
990.161
998.955
999.954
999.951
999.949
999.946
999.945
999.947
999.957
999.978
999.935
998.414
989.412
958.56
887.969
796.974
726.907
679.595
662.858
666.335
694.911
772.695
867.972
927.864
984.222
983.603
983.072
982.483
982.232
982.541
985.106
990.967
993.499
968.559
893.873
772.015
638.733
557.805
526.84
514.489
509.632
505.924
507.127
531.592
604.459
672.842
598.695
591.273
583.5
573.987
566.31
561.637
584.056
677.97
811.687
808.496
671.576
551.234
501.822
497.6
498.316
499.324
499.891
499.933
500.029
500.133
503.221
509.641
13.9508
12.9359
11.8228
10.4906
9.30692
8.10955
8.42551
17.6631
103.236
246.019
221.499
195.818
229.261
293.939
345.671
401.198
449.061
476.303
492.011
496.331
499.582
499.736
502.228
1.00056
1.00053
1.00046
1.00044
1.00042
1.00078
1.02966
1.70176
1.36973
1.16534
1.09951
1.07514
1.41533
3.3046
8.76783
28.0037
74.9156
155.016
262.807
333.135
437.884
470.811
484.727
1.00026
1.00017
1.00015
1.00013
1.00014
1.00107
1.00234
1.00094
1.00126
1.00059
1.00015
1.00002
1.00001
1.00003
1.00009
1.00029
1.00182
1.0397
1.75355
6.09349
50.5153
125.519
202.119
1.00006
1.00003
1.00003
1.00004
1.00006
1.00008
1.00002
1.00002
1.00011
1.00019
1.00001
1
1
1.00001
1.00003
1.00005
1.00005
1.00009
1.00015
1.00019
1.00071
1.00753
1.11484
1.00005
1.00002
1.00002
1.00002
1.00001
1
1
1
1.00001
1.00006
1.00002
1
1.00002
1.00008
1.00024
1.00022
1.00011
1.00009
1.00017
1.00018
1.00022
1.00023
1.00025
1.00002
1
1
1
0.999999
0.999999
0.999999
0.999999
1
1
1
1
1.00007
1.00034
1.00039
1.00041
1.00034
1.00008
1.00007
1.00008
1.00012
1.00015
1.00015
1
0.999999
0.999999
0.999999
0.999999
0.999999
0.999999
0.999999
1
1
1
1
1.00014
1.00039
1.00041
1.00041
1.00021
1.00004
1.00002
1.00003
1.00004
1.00006
1.00006
0.999999
0.999999
0.999999
0.999999
0.999999
0.999999
0.999999
1
1
1
1
1.00001
1.00012
1.00041
1.00041
1.00016
1.00004
1.00002
1.00002
1.00002
1.00004
1.00004
1.00003
0.999999
0.999999
0.999999
0.999999
0.999999
0.999999
0.999999
1
1
1
1
1
1.00004
1.00012
1.00025
1.00006
1.00004
1.00004
1.00003
1.00002
1.00001
1.00001
1.00001
0.999999
0.999999
0.999999
0.999999
0.999999
0.999999
1
1
1
1
1
1
1.00002
1.00004
1.00007
1.0001
)
;

boundaryField
{
    leftWall
    {
        type            calculated;
        value           nonuniform List<scalar> 
26
(
13529
13529
13529
13529
13529
13519.3
12952.4
8578.39
2337.5
1005.45
1000.05
1000
1000
999.954
984.222
598.695
13.9508
1.00056
1.00026
1.00006
1.00005
1.00002
1
0.999999
0.999999
0.999999
)
;
    }
    rightWall
    {
        type            calculated;
        value           nonuniform 0();
    }
    lowerWall
    {
        type            calculated;
        value           nonuniform List<scalar> 
22
(
13529
13529
13529
13529
13529
13529
13529
13529
13529
13529
13529
13529
13529
13529
13529
13529
13529
13529
13529
13529
13529
13528.9
)
;
    }
    atmosphere
    {
        type            calculated;
        value           nonuniform 0();
    }
    defaultFaces
    {
        type            empty;
    }
    procBoundary0to1
    {
        type            processor;
        value           nonuniform List<scalar> 
26
(
13528.4
13528.3
13528.3
13528.1
13528.1
13528
13527.6
13527.4
13448.1
12031.7
7183.72
2552.68
1153.23
1016.75
773.713
544.609
544.609
509.027
492.015
268.987
1.58582
1.00023
1.00007
1.00003
1.00001
1
)
;
    }
    procBoundary0to2
    {
        type            processor;
        value           nonuniform List<scalar> 
24
(
1.00008
1.00007
1.00004
1.00003
1.00001
1
1
0.999999
0.999999
0.999999
0.999999
0.999999
1
1
1
1
1
1
1
1.00001
1.00003
1.00005
1.00008
1.0001
)
;
    }
}


// ************************************************************************* //
