/*--------------------------------*- C++ -*----------------------------------*\
| =========                 |                                                 |
| \\      /  F ield         | OpenFOAM: The Open Source CFD Toolbox           |
|  \\    /   O peration     | Version:  2.4.0                                 |
|   \\  /    A nd           | Web:      www.OpenFOAM.org                      |
|    \\/     M anipulation  |                                                 |
\*---------------------------------------------------------------------------*/
FoamFile
{
    version     2.0;
    format      ascii;
    class       volVectorField;
    location    "0.35";
    object      U;
}
// * * * * * * * * * * * * * * * * * * * * * * * * * * * * * * * * * * * * * //

dimensions      [0 1 -1 0 0 0 0];

internalField   nonuniform List<vector> 
575
(
(0.0198054 -0.00925069 0)
(0.0581024 -0.00930688 0)
(0.0996207 -0.00910139 0)
(0.134496 -0.00996779 0)
(0.181284 -0.00786919 0)
(0.208714 -0.0115016 0)
(0.266553 -0.0086585 0)
(0.294546 -0.00812218 0)
(0.326764 -0.010264 0)
(0.378192 -0.0120738 0)
(0.433328 -0.00858977 0)
(0.45941 -0.00774074 0)
(0.483659 -0.00610485 0)
(0.5125 -0.00560687 0)
(0.533079 -0.00646775 0)
(0.573608 -0.00727198 0)
(0.580649 0.0028878 0)
(0.567117 0.00713414 0)
(0.529145 0.0155816 0)
(0.4502 0.020888 0)
(0.322781 0.0245121 0)
(0.171305 0.0369745 0)
(0.0198087 -0.0277604 0)
(0.0581326 -0.0279837 0)
(0.0997848 -0.0271361 0)
(0.134157 -0.0305957 0)
(0.181811 -0.0223505 0)
(0.210804 -0.0359083 0)
(0.263377 -0.0256421 0)
(0.295612 -0.0231881 0)
(0.329187 -0.031831 0)
(0.380711 -0.0354081 0)
(0.431877 -0.0300726 0)
(0.456569 -0.0198951 0)
(0.483519 -0.0170469 0)
(0.516774 -0.019844 0)
(0.545653 -0.0226455 0)
(0.578883 -0.0170438 0)
(0.592229 0.0035693 0)
(0.577827 0.0227289 0)
(0.529129 0.045391 0)
(0.450727 0.0830681 0)
(0.305919 0.10202 0)
(0.221271 0.100402 0)
(0.0197803 -0.0462505 0)
(0.0581656 -0.0465959 0)
(0.0996224 -0.0453407 0)
(0.134021 -0.0501485 0)
(0.181994 -0.0398969 0)
(0.212161 -0.0561819 0)
(0.259563 -0.0433875 0)
(0.297277 -0.0415388 0)
(0.334123 -0.0534892 0)
(0.382366 -0.0566775 0)
(0.42478 -0.0464201 0)
(0.448343 -0.0337505 0)
(0.494946 -0.0358694 0)
(0.528916 -0.0349344 0)
(0.560233 -0.0396412 0)
(0.587971 -0.0290109 0)
(0.594421 0.00179782 0)
(0.58463 0.0378728 0)
(0.533531 0.0767281 0)
(0.454982 0.118915 0)
(0.330143 0.139485 0)
(0.190205 0.148294 0)
(0.0197423 -0.0649541 0)
(0.0582429 -0.0653492 0)
(0.0992323 -0.0637597 0)
(0.134401 -0.0701988 0)
(0.181447 -0.0569105 0)
(0.213222 -0.0770069 0)
(0.258089 -0.061713 0)
(0.296647 -0.0608282 0)
(0.338296 -0.0741301 0)
(0.385875 -0.07461 0)
(0.408324 -0.062322 0)
(0.454333 -0.0550749 0)
(0.50253 -0.0527814 0)
(0.540931 -0.0536384 0)
(0.580109 -0.0505025 0)
(0.591764 -0.0317647 0)
(0.594822 0.00989726 0)
(0.583448 0.0554531 0)
(0.544148 0.129804 0)
(0.475055 0.185032 0)
(0.332965 0.223305 0)
(0.174674 0.206518 0)
(0.0197288 -0.0830834 0)
(0.0582973 -0.0833836 0)
(0.0990302 -0.0817333 0)
(0.134566 -0.0884375 0)
(0.181424 -0.0749713 0)
(0.212429 -0.0940307 0)
(0.258707 -0.0789452 0)
(0.296515 -0.079858 0)
(0.342958 -0.0937428 0)
(0.380749 -0.0835926 0)
(0.4077 -0.0799461 0)
(0.46301 -0.0719525 0)
(0.506432 -0.0744102 0)
(0.547954 -0.0610795 0)
(0.589021 -0.0623338 0)
(0.606313 -0.039432 0)
(0.607522 0.00368449 0)
(0.605563 0.0556805 0)
(0.590188 0.143364 0)
(0.535057 0.232939 0)
(0.426741 0.292695 0)
(0.228421 0.282095 0)
(0.0198079 -0.0991441 0)
(0.0585045 -0.0993615 0)
(0.099295 -0.097707 0)
(0.135572 -0.105202 0)
(0.180208 -0.0901099 0)
(0.214655 -0.110595 0)
(0.255612 -0.0979478 0)
(0.304999 -0.0989373 0)
(0.342194 -0.112442 0)
(0.375801 -0.109578 0)
(0.421169 -0.113174 0)
(0.469465 -0.116715 0)
(0.503638 -0.121034 0)
(0.549119 -0.121131 0)
(0.579256 -0.110327 0)
(0.599319 -0.0696087 0)
(0.624416 -0.0127542 0)
(0.603368 0.0454084 0)
(0.586323 0.136969 0)
(0.526336 0.233107 0)
(0.457646 0.350982 0)
(0.269323 0.356223 0)
(0.0200231 -0.132743 0)
(0.058957 -0.133448 0)
(0.100376 -0.13314 0)
(0.137367 -0.141126 0)
(0.177677 -0.130166 0)
(0.223064 -0.147571 0)
(0.248959 -0.141135 0)
(0.311213 -0.1419 0)
(0.337304 -0.147487 0)
(0.376504 -0.143103 0)
(0.410323 -0.136038 0)
(0.436629 -0.111713 0)
(0.439335 -0.0857343 0)
(0.433991 -0.0276469 0)
(0.388103 0.0398646 0)
(0.353741 0.076966 0)
(0.314623 0.149266 0)
(0.283033 0.219743 0)
(0.390283 0.323376 0)
(0.423127 0.312145 0)
(0.422215 0.396566 0)
(0.31979 0.42561 0)
(0.0199996 -0.141736 0)
(0.0588251 -0.141185 0)
(0.100224 -0.139368 0)
(0.137726 -0.138922 0)
(0.173014 -0.133731 0)
(0.22707 -0.133004 0)
(0.241422 -0.13124 0)
(0.276427 -0.117157 0)
(0.300618 -0.102647 0)
(0.304443 -0.0798852 0)
(0.283506 -0.0486492 0)
(0.247854 -0.0277456 0)
(0.215633 -0.0486898 0)
(0.170974 -0.0846335 0)
(0.159224 -0.126717 0)
(0.170428 -0.117179 0)
(0.196021 -0.113929 0)
(0.207974 -0.0815867 0)
(0.315107 0.0414333 0)
(0.157971 0.357948 0)
(0.317281 0.43235 0)
(0.287007 0.490328 0)
(0.0151593 -0.0759179 0)
(0.0446818 -0.0746224 0)
(0.0729472 -0.0725024 0)
(0.0991963 -0.0682681 0)
(0.111391 -0.0705473 0)
(0.139398 -0.0697701 0)
(0.141771 -0.0697422 0)
(0.14802 -0.088046 0)
(0.168527 -0.112277 0)
(0.175222 -0.135784 0)
(0.188405 -0.169247 0)
(0.224315 -0.185101 0)
(0.284821 -0.168039 0)
(0.325704 -0.107672 0)
(0.358226 -0.0122121 0)
(0.359281 0.0658036 0)
(0.305776 0.212603 0)
(0.237514 0.231478 0)
(0.171546 0.269249 0)
(0.154484 0.308822 0)
(0.147757 0.419329 0)
(0.286591 0.490745 0)
(0.00779791 -0.211943 0)
(0.0238914 -0.214236 0)
(0.0415301 -0.213895 0)
(0.0620446 -0.213785 0)
(0.0822221 -0.21733 0)
(0.109117 -0.218696 0)
(0.135276 -0.206729 0)
(0.165253 -0.215027 0)
(0.204249 -0.197338 0)
(0.232576 -0.17229 0)
(0.271164 -0.152896 0)
(0.304811 -0.141457 0)
(0.319288 -0.117252 0)
(0.331265 -0.103818 0)
(0.315876 -0.0924164 0)
(0.32593 -0.0858663 0)
(0.34193 -0.0552504 0)
(0.409455 0.0224755 0)
(0.353971 0.114059 0)
(0.419328 0.245434 0)
(0.254396 0.426981 0)
(0.288876 0.442572 0)
(0.0135185 -0.214848 0)
(0.0399984 -0.215018 0)
(0.0670224 -0.210947 0)
(0.0946203 -0.206662 0)
(0.120841 -0.20089 0)
(0.146605 -0.198267 0)
(0.174182 -0.182089 0)
(0.19771 -0.195688 0)
(0.232571 -0.185069 0)
(0.253532 -0.180584 0)
(0.297918 -0.185248 0)
(0.330175 -0.182235 0)
(0.361731 -0.167292 0)
(0.400549 -0.138419 0)
(0.427484 -0.0590029 0)
(0.472501 -0.0143503 0)
(0.480872 0.0813254 0)
(0.499788 0.133851 0)
(0.507714 0.231193 0)
(0.522121 0.307947 0)
(0.560066 0.506959 0)
(0.478446 0.494896 0)
(0.0142886 -0.220372 0)
(0.0427218 -0.221568 0)
(0.0708663 -0.220637 0)
(0.0985813 -0.219325 0)
(0.125249 -0.21802 0)
(0.149002 -0.22162 0)
(0.176602 -0.212522 0)
(0.19802 -0.233612 0)
(0.228575 -0.219542 0)
(0.253748 -0.230235 0)
(0.306993 -0.232157 0)
(0.343291 -0.22067 0)
(0.38259 -0.19057 0)
(0.408528 -0.166506 0)
(0.449583 -0.113247 0)
(0.494514 -0.0994721 0)
(0.536124 -0.0320867 0)
(0.574975 0.0425564 0)
(0.623026 0.138916 0)
(0.67412 0.26663 0)
(0.701539 0.383011 0)
(0.803829 0.59184 0)
(0.014571 -0.274554 0)
(0.0444435 -0.275115 0)
(0.0731726 -0.272665 0)
(0.100821 -0.268776 0)
(0.1285 -0.264153 0)
(0.150106 -0.260331 0)
(0.177502 -0.254505 0)
(0.192564 -0.264139 0)
(0.223974 -0.262283 0)
(0.252485 -0.29003 0)
(0.310656 -0.289734 0)
(0.351819 -0.259801 0)
(0.397777 -0.247868 0)
(0.433886 -0.227426 0)
(0.495916 -0.176751 0)
(0.534505 -0.133275 0)
(0.566293 -0.0471809 0)
(0.620659 0.0361189 0)
(0.648023 0.0970391 0)
(0.742448 0.21271 0)
(0.761695 0.305414 0)
(0.871424 0.454147 0)
(0.0157584 -0.288025 0)
(0.0465224 -0.2884 0)
(0.0768523 -0.284715 0)
(0.105001 -0.279903 0)
(0.132597 -0.273317 0)
(0.153845 -0.266841 0)
(0.176949 -0.261817 0)
(0.185241 -0.269845 0)
(0.214654 -0.286541 0)
(0.245239 -0.334257 0)
(0.300123 -0.332395 0)
(0.339297 -0.315548 0)
(0.366608 -0.308805 0)
(0.369104 -0.274511 0)
(0.37939 -0.224055 0)
(0.372954 -0.165695 0)
(0.397379 -0.0968802 0)
(0.473629 -0.0405222 0)
(0.507108 0.0445708 0)
(0.650055 0.161153 0)
(0.700132 0.292491 0)
(0.799789 0.310158 0)
(0.0173373 -0.33327 0)
(0.0504119 -0.334135 0)
(0.0827043 -0.330617 0)
(0.112988 -0.325045 0)
(0.140358 -0.315752 0)
(0.159231 -0.302736 0)
(0.169256 -0.284842 0)
(0.163698 -0.271789 0)
(0.168862 -0.287869 0)
(0.183842 -0.354043 0)
(0.21157 -0.366499 0)
(0.195132 -0.328856 0)
(0.106923 -0.26573 0)
(0.0121429 -0.206327 0)
(-0.0307158 -0.16763 0)
(-0.0330941 -0.155222 0)
(-0.000426443 -0.118418 0)
(0.0382377 -0.081879 0)
(0.128567 -0.0279608 0)
(0.265673 0.0457932 0)
(0.453558 0.184487 0)
(0.588666 0.164377 0)
(0.018542 -0.428758 0)
(0.0533625 -0.428714 0)
(0.0863961 -0.426113 0)
(0.11872 -0.420777 0)
(0.149311 -0.410694 0)
(0.175342 -0.392884 0)
(0.188413 -0.364962 0)
(0.153037 -0.349147 0)
(0.0901023 -0.381248 0)
(0.00338319 -0.444856 0)
(-0.068178 -0.355067 0)
(-0.174881 -0.215944 0)
(-0.242347 -0.154439 0)
(-0.227555 -0.148659 0)
(-0.206806 -0.154936 0)
(-0.168365 -0.155339 0)
(-0.119064 -0.147607 0)
(-0.0674001 -0.173028 0)
(-0.00376348 -0.151513 0)
(0.0475008 -0.152206 0)
(0.187732 -0.0449931 0)
(0.303531 -0.0415996 0)
(0.00632206 0.351154 0)
(0.0131964 0.373273 0)
(0.0249597 0.39552 0)
(0.0356603 0.428155 0)
(0.058055 0.463918 0)
(0.0930493 0.525056 0)
(0.168573 0.632392 0)
(0.1361 0.641032 0)
(-0.00597535 -0.0405331 0)
(-0.335842 -0.296035 0)
(-0.505785 -0.209256 0)
(-0.479144 -0.191163 0)
(-0.384019 -0.309566 0)
(-0.288992 -0.339284 0)
(-0.235553 -0.349484 0)
(-0.18615 -0.339531 0)
(-0.12855 -0.296906 0)
(-0.0772448 -0.259299 0)
(-0.038804 -0.187376 0)
(0.0283368 -0.178101 0)
(0.109222 -0.0983203 0)
(0.210481 -0.143147 0)
(0.281823 -0.160084 0)
(-0.0365283 -0.720782 0)
(-0.102326 -0.738841 0)
(-0.149087 -0.762442 0)
(-0.176544 -0.793552 0)
(-0.177249 -0.837925 0)
(-0.136999 -0.898259 0)
(-0.0701129 -0.912805 0)
(0.135403 -0.63861 0)
(0.416336 0.285852 0)
(0.0461416 0.763144 0)
(-0.275837 0.513018 0)
(-0.122453 0.360019 0)
(-0.0538788 0.417099 0)
(0.00459564 0.47119 0)
(-0.0137018 0.442344 0)
(0.0102295 0.146625 0)
(-0.00138471 -0.202079 0)
(0.0305159 -0.359452 0)
(0.0166198 -0.352111 0)
(0.0681055 -0.353057 0)
(0.106997 -0.26105 0)
(0.181635 -0.224067 0)
(0.225775 -0.191252 0)
(-0.0279968 -0.211712 0)
(-0.0760534 -0.215078 0)
(-0.110327 -0.217779 0)
(-0.137162 -0.225876 0)
(-0.15306 -0.242797 0)
(-0.167603 -0.261194 0)
(-0.216526 -0.28261 0)
(-0.294973 -0.312385 0)
(-0.197505 -0.335175 0)
(-0.142712 -0.0863534 0)
(0.0184606 -0.640828 0)
(0.182473 -0.851308 0)
(0.268091 -0.876674 0)
(0.397434 -0.82758 0)
(0.557813 -0.716625 0)
(0.696713 -0.490552 0)
(0.759887 -0.0965974 0)
(0.702287 0.398532 0)
(0.508155 0.560659 0)
(0.349782 0.46788 0)
(0.317495 -0.0733177 0)
(0.295789 -0.339636 0)
(0.349922 -0.383247 0)
(-0.0219562 -0.152021 0)
(-0.0561944 -0.187751 0)
(-0.0775836 -0.22794 0)
(-0.090448 -0.276714 0)
(-0.0956184 -0.328458 0)
(-0.096315 -0.359103 0)
(-0.0966284 -0.342967 0)
(-0.0843916 -0.215464 0)
(-0.0835141 0.263464 0)
(-0.0472505 0.416957 0)
(0.136817 0.022424 0)
(0.0867343 -0.213999 0)
(0.123121 -0.232431 0)
(0.128917 -0.250202 0)
(0.141643 -0.312453 0)
(0.146907 -0.403538 0)
(0.181135 -0.50623 0)
(0.283519 -0.59675 0)
(0.530334 -0.60823 0)
(0.735043 -0.589678 0)
(0.905061 -0.261347 0)
(0.943963 0.171925 0)
(0.831149 0.350673 0)
(-0.000598387 -0.334832 0)
(-0.000672708 -0.361562 0)
(-0.00506517 -0.384732 0)
(-0.0166098 -0.410577 0)
(-0.0388861 -0.435189 0)
(-0.0754031 -0.454516 0)
(-0.130106 -0.457294 0)
(-0.189115 -0.438775 0)
(-0.144359 -0.365633 0)
(0.109463 -0.248022 0)
(0.270689 -0.490019 0)
(0.23819 -0.567287 0)
(0.206603 -0.568405 0)
(0.206551 -0.501908 0)
(0.213363 -0.414288 0)
(0.223435 -0.306289 0)
(0.225742 -0.181513 0)
(0.172209 -0.113703 0)
(0.14336 -0.131599 0)
(0.035015 -0.26294 0)
(-0.038518 -0.454191 0)
(-0.0210475 -0.555292 0)
(0.0836456 -0.558083 0)
(0.000739805 -0.166431 0)
(0.00469033 -0.201584 0)
(0.00667772 -0.230957 0)
(0.00169393 -0.26239 0)
(-0.00920767 -0.288739 0)
(-0.0266224 -0.300769 0)
(-0.0486492 -0.289681 0)
(-0.0598168 -0.243402 0)
(-0.0722128 -0.152938 0)
(0.0308144 -0.124903 0)
(0.0794565 -0.284307 0)
(0.0664518 -0.365538 0)
(0.0430328 -0.433184 0)
(0.0477621 -0.477756 0)
(0.0637766 -0.488087 0)
(0.083183 -0.452482 0)
(0.11301 -0.380951 0)
(0.140451 -0.326156 0)
(0.157055 -0.255033 0)
(0.148282 -0.173534 0)
(0.0481535 -0.06267 0)
(-0.100322 -0.0301538 0)
(-0.203657 0.117099 0)
(0.00570859 -0.260976 0)
(0.0151722 -0.287559 0)
(0.0184483 -0.302174 0)
(0.0139446 -0.318399 0)
(0.00231694 -0.332648 0)
(-0.0170495 -0.340838 0)
(-0.0396747 -0.3402 0)
(-0.0566839 -0.330349 0)
(-0.0545968 -0.320457 0)
(-0.00257355 -0.302277 0)
(0.0161085 -0.368653 0)
(-0.0137061 -0.402512 0)
(-0.0308949 -0.431148 0)
(-0.0674136 -0.446177 0)
(-0.0938073 -0.436992 0)
(-0.12715 -0.390058 0)
(-0.150795 -0.328857 0)
(-0.168427 -0.291989 0)
(-0.198897 -0.272507 0)
(-0.230195 -0.235613 0)
(-0.226407 -0.21437 0)
(-0.255454 -0.229263 0)
(-0.222861 -0.245207 0)
(0.00511109 -0.252531 0)
(0.0130003 -0.278226 0)
(0.0154739 -0.290059 0)
(0.01169 -0.302026 0)
(0.000757588 -0.309985 0)
(-0.0168387 -0.310492 0)
(-0.0346906 -0.305663 0)
(-0.0489995 -0.29827 0)
(-0.0536966 -0.291625 0)
(-0.0351099 -0.292333 0)
(-0.0312877 -0.351129 0)
(-0.0595617 -0.385286 0)
(-0.0937551 -0.409453 0)
(-0.140249 -0.410768 0)
(-0.18663 -0.393688 0)
(-0.222177 -0.3427 0)
(-0.241787 -0.278264 0)
(-0.254041 -0.225474 0)
(-0.276284 -0.168865 0)
(-0.275625 -0.126962 0)
(-0.26821 -0.107909 0)
(-0.26128 -0.110235 0)
(-0.255918 -0.0611992 0)
(0.00231339 -0.255277 0)
(0.00434738 -0.276045 0)
(0.00347292 -0.282522 0)
(-0.00402221 -0.287293 0)
(-0.0148931 -0.288799 0)
(-0.0270844 -0.289185 0)
(-0.0383392 -0.288354 0)
(-0.048432 -0.28693 0)
(-0.0540419 -0.288958 0)
(-0.0515702 -0.294175 0)
(-0.063793 -0.317174 0)
(-0.0946323 -0.336328 0)
(-0.13459 -0.350302 0)
(-0.17836 -0.369497 0)
(-0.220904 -0.368244 0)
(-0.259922 -0.333097 0)
(-0.283192 -0.286801 0)
(-0.294591 -0.254016 0)
(-0.294962 -0.224779 0)
(-0.277121 -0.194005 0)
(-0.268111 -0.176097 0)
(-0.274548 -0.164897 0)
(-0.26892 -0.152438 0)
(0.000308483 -0.257374 0)
(-0.00259974 -0.276135 0)
(-0.00761692 -0.277689 0)
(-0.0155761 -0.28028 0)
(-0.0229448 -0.282257 0)
(-0.0308132 -0.283549 0)
(-0.0383201 -0.283762 0)
(-0.0431596 -0.283598 0)
(-0.0467946 -0.285892 0)
(-0.0541718 -0.289933 0)
(-0.0661884 -0.294465 0)
(-0.0949581 -0.302644 0)
(-0.125591 -0.316273 0)
(-0.163108 -0.330371 0)
(-0.209522 -0.329472 0)
(-0.248353 -0.305041 0)
)
;

boundaryField
{
    leftWall
    {
        type            calculated;
        value           uniform (0 0 0);
    }
    rightWall
    {
        type            calculated;
        value           nonuniform 0();
    }
    lowerWall
    {
        type            calculated;
        value           uniform (0 0 0);
    }
    atmosphere
    {
        type            calculated;
        value           nonuniform 0();
    }
    defaultFaces
    {
        type            empty;
    }
    procBoundary0to1
    {
        type            processor;
        value           nonuniform List<vector> 
26
(
(0.0282695 0.0136153 0)
(0.0361571 0.0804765 0)
(0.0847985 0.143436 0)
(0.0435094 0.208067 0)
(0.0803966 0.257181 0)
(0.0575895 0.350287 0)
(0.127622 0.414424 0)
(0.113526 0.558641 0)
(0.263049 0.595143 0)
(0.293759 0.511035 0)
(0.415706 0.444183 0)
(0.72878 0.56421 0)
(0.991544 0.549902 0)
(0.974673 0.437849 0)
(0.785757 0.24673 0)
(0.477147 -0.0120229 0)
(0.477147 -0.0120229 0)
(0.364817 -0.169729 0)
(0.268659 -0.17458 0)
(0.367895 -0.389153 0)
(0.680326 0.472968 0)
(0.132761 -0.484968 0)
(-0.254846 0.14676 0)
(-0.179033 -0.242855 0)
(-0.264843 -0.0299926 0)
(-0.247271 -0.126864 0)
)
;
    }
    procBoundary0to2
    {
        type            processor;
        value           nonuniform List<vector> 
24
(
(-0.256893 -0.269956 0)
(-0.253862 -0.249017 0)
(-0.248909 -0.22663 0)
(-0.235238 -0.193105 0)
(-0.228656 -0.174508 0)
(-0.225203 -0.169741 0)
(-0.221217 -0.147298 0)
(-0.00149812 -0.254364 0)
(-0.00583045 -0.269991 0)
(-0.0113133 -0.270442 0)
(-0.0158912 -0.272478 0)
(-0.0218771 -0.275469 0)
(-0.0272265 -0.277004 0)
(-0.0323259 -0.278319 0)
(-0.0375197 -0.280019 0)
(-0.0422671 -0.280154 0)
(-0.049423 -0.279208 0)
(-0.0630541 -0.282753 0)
(-0.0773732 -0.283633 0)
(-0.0921316 -0.287958 0)
(-0.117008 -0.28477 0)
(-0.149133 -0.277623 0)
(-0.256893 -0.269956 0)
(-0.170765 -0.270885 0)
)
;
    }
}


// ************************************************************************* //
