/*--------------------------------*- C++ -*----------------------------------*\
| =========                 |                                                 |
| \\      /  F ield         | OpenFOAM: The Open Source CFD Toolbox           |
|  \\    /   O peration     | Version:  2.4.0                                 |
|   \\  /    A nd           | Web:      www.OpenFOAM.org                      |
|    \\/     M anipulation  |                                                 |
\*---------------------------------------------------------------------------*/
FoamFile
{
    version     2.0;
    format      ascii;
    class       volVectorField;
    location    "0.35";
    object      U.air;
}
// * * * * * * * * * * * * * * * * * * * * * * * * * * * * * * * * * * * * * //

dimensions      [0 1 -1 0 0 0 0];

internalField   nonuniform List<vector> 
575
(
(0.0198054 -0.00925069 0)
(0.0581025 -0.00930687 0)
(0.0996208 -0.00910139 0)
(0.134496 -0.00996778 0)
(0.181284 -0.00786918 0)
(0.208714 -0.0115016 0)
(0.266553 -0.00865848 0)
(0.294546 -0.00812216 0)
(0.326764 -0.010264 0)
(0.378192 -0.0120738 0)
(0.433329 -0.00858976 0)
(0.45941 -0.00774074 0)
(0.48366 -0.00610486 0)
(0.5125 -0.00560689 0)
(0.533079 -0.00646775 0)
(0.573608 -0.007272 0)
(0.580649 0.00288776 0)
(0.567117 0.00713409 0)
(0.529145 0.0155815 0)
(0.4502 0.020888 0)
(0.322781 0.0245121 0)
(0.171305 0.0369745 0)
(0.0198087 -0.0277604 0)
(0.0581327 -0.0279837 0)
(0.0997849 -0.0271361 0)
(0.134157 -0.0305957 0)
(0.181811 -0.0223505 0)
(0.210804 -0.0359083 0)
(0.263377 -0.0256421 0)
(0.295612 -0.023188 0)
(0.329187 -0.031831 0)
(0.380711 -0.0354081 0)
(0.431878 -0.0300726 0)
(0.45657 -0.0198951 0)
(0.483519 -0.0170469 0)
(0.516774 -0.0198441 0)
(0.545653 -0.0226455 0)
(0.578883 -0.0170439 0)
(0.592229 0.0035692 0)
(0.577828 0.0227288 0)
(0.52913 0.0453908 0)
(0.450727 0.083068 0)
(0.305919 0.10202 0)
(0.221271 0.100402 0)
(0.0197803 -0.0462506 0)
(0.0581657 -0.046596 0)
(0.0996225 -0.0453408 0)
(0.134021 -0.0501486 0)
(0.181994 -0.0398969 0)
(0.212161 -0.056182 0)
(0.259563 -0.0433876 0)
(0.297277 -0.0415388 0)
(0.334123 -0.0534892 0)
(0.382366 -0.0566775 0)
(0.42478 -0.0464201 0)
(0.448343 -0.0337506 0)
(0.494946 -0.0358695 0)
(0.528916 -0.0349345 0)
(0.560233 -0.0396412 0)
(0.587972 -0.029011 0)
(0.594421 0.00179768 0)
(0.58463 0.0378726 0)
(0.533531 0.0767279 0)
(0.454982 0.118914 0)
(0.330143 0.139485 0)
(0.190206 0.148294 0)
(0.0197424 -0.0649542 0)
(0.0582429 -0.0653494 0)
(0.0992323 -0.0637599 0)
(0.134401 -0.0701991 0)
(0.181447 -0.0569107 0)
(0.213222 -0.0770071 0)
(0.258089 -0.0617132 0)
(0.296647 -0.0608283 0)
(0.338297 -0.0741302 0)
(0.385876 -0.0746101 0)
(0.408324 -0.0623222 0)
(0.454333 -0.0550751 0)
(0.502531 -0.0527816 0)
(0.540932 -0.0536386 0)
(0.580109 -0.0505019 0)
(0.591764 -0.0317629 0)
(0.594823 0.00989767 0)
(0.583448 0.0554529 0)
(0.544149 0.129803 0)
(0.475055 0.185031 0)
(0.332965 0.223305 0)
(0.174674 0.206517 0)
(0.0197288 -0.0830836 0)
(0.0582973 -0.083384 0)
(0.0990302 -0.0817336 0)
(0.134566 -0.0884378 0)
(0.181424 -0.0749717 0)
(0.212429 -0.094031 0)
(0.258707 -0.0789454 0)
(0.296515 -0.0798581 0)
(0.342959 -0.0937411 0)
(0.38075 -0.0835823 0)
(0.407705 -0.0798904 0)
(0.463027 -0.0717305 0)
(0.506482 -0.0736641 0)
(0.548036 -0.0599171 0)
(0.589113 -0.0606934 0)
(0.606318 -0.0376626 0)
(0.607404 0.00535941 0)
(0.6054 0.0568499 0)
(0.590097 0.143761 0)
(0.535052 0.232956 0)
(0.426741 0.292695 0)
(0.228421 0.282095 0)
(0.0198091 -0.0989263 0)
(0.0585083 -0.0991091 0)
(0.0993031 -0.0973934 0)
(0.13559 -0.104673 0)
(0.180229 -0.0896043 0)
(0.214704 -0.109707 0)
(0.255676 -0.0969122 0)
(0.305093 -0.097692 0)
(0.342317 -0.110884 0)
(0.375932 -0.107982 0)
(0.421259 -0.112125 0)
(0.469428 -0.117142 0)
(0.50326 -0.125935 0)
(0.548164 -0.134394 0)
(0.577431 -0.141152 0)
(0.598807 -0.123112 0)
(0.626009 -0.0788292 0)
(0.61041 -0.0113325 0)
(0.592375 0.116022 0)
(0.52617 0.233585 0)
(0.457159 0.352073 0)
(0.269322 0.356227 0)
(0.0200261 -0.13221 0)
(0.0589633 -0.133058 0)
(0.10038 -0.133004 0)
(0.13734 -0.1419 0)
(0.177633 -0.131171 0)
(0.22286 -0.151234 0)
(0.248566 -0.14752 0)
(0.310447 -0.15219 0)
(0.335775 -0.16627 0)
(0.37413 -0.175055 0)
(0.406821 -0.189196 0)
(0.43432 -0.189435 0)
(0.441981 -0.202504 0)
(0.439336 -0.188881 0)
(0.401838 -0.129283 0)
(0.369695 -0.0242051 0)
(0.321756 0.112037 0)
(0.350418 0.0813598 0)
(0.480544 0.135639 0)
(0.448567 0.253246 0)
(0.422287 0.396438 0)
(0.319546 0.426286 0)
(0.0197753 -0.183259 0)
(0.0581307 -0.184413 0)
(0.0988953 -0.185479 0)
(0.135639 -0.192228 0)
(0.169629 -0.191633 0)
(0.221207 -0.207473 0)
(0.235178 -0.224008 0)
(0.270049 -0.227997 0)
(0.295549 -0.241446 0)
(0.301716 -0.249664 0)
(0.282285 -0.227565 0)
(0.252123 -0.178309 0)
(0.223248 -0.1256 0)
(0.175758 -0.107253 0)
(0.159674 -0.127983 0)
(0.170475 -0.117294 0)
(0.196026 -0.113928 0)
(0.208181 -0.0816454 0)
(0.342059 0.0181261 0)
(0.294019 0.214721 0)
(0.32989 0.414698 0)
(0.286405 0.491874 0)
(0.0153541 -0.246825 0)
(0.0452225 -0.246712 0)
(0.074032 -0.246704 0)
(0.100731 -0.245611 0)
(0.112516 -0.247113 0)
(0.143912 -0.237776 0)
(0.148607 -0.22019 0)
(0.156638 -0.215269 0)
(0.178022 -0.212895 0)
(0.18359 -0.209261 0)
(0.193456 -0.216649 0)
(0.226021 -0.212711 0)
(0.284737 -0.17824 0)
(0.325674 -0.108506 0)
(0.358226 -0.0123109 0)
(0.359286 0.0657631 0)
(0.305784 0.212563 0)
(0.237431 0.231643 0)
(0.173187 0.267749 0)
(0.215434 0.233845 0)
(0.191865 0.337571 0)
(0.287349 0.48502 0)
(0.00788307 -0.228493 0)
(0.0240476 -0.229442 0)
(0.0417543 -0.226904 0)
(0.0622017 -0.223771 0)
(0.0823098 -0.223937 0)
(0.109141 -0.222149 0)
(0.135214 -0.208071 0)
(0.165225 -0.215313 0)
(0.204242 -0.19739 0)
(0.232576 -0.172298 0)
(0.271165 -0.152885 0)
(0.30481 -0.141436 0)
(0.319284 -0.11722 0)
(0.331257 -0.103782 0)
(0.315868 -0.0923834 0)
(0.325926 -0.0858441 0)
(0.34193 -0.0552396 0)
(0.409448 0.0225085 0)
(0.353629 0.114864 0)
(0.419867 0.244439 0)
(0.255827 0.324702 0)
(0.292491 0.397701 0)
(0.0135186 -0.214814 0)
(0.0399984 -0.214983 0)
(0.0670223 -0.210912 0)
(0.0946202 -0.206627 0)
(0.120841 -0.200855 0)
(0.146604 -0.19823 0)
(0.174181 -0.182051 0)
(0.197709 -0.195645 0)
(0.23257 -0.185019 0)
(0.253531 -0.180535 0)
(0.297917 -0.185197 0)
(0.330173 -0.182186 0)
(0.36173 -0.167241 0)
(0.40055 -0.138367 0)
(0.427486 -0.0589539 0)
(0.4725 -0.0143171 0)
(0.48087 0.0813439 0)
(0.499787 0.133863 0)
(0.507702 0.231238 0)
(0.522016 0.308451 0)
(0.546337 0.471348 0)
(0.456548 0.370403 0)
(0.0142884 -0.220294 0)
(0.0427213 -0.221492 0)
(0.0708653 -0.220565 0)
(0.0985797 -0.219256 0)
(0.125247 -0.217953 0)
(0.148999 -0.221552 0)
(0.176598 -0.212449 0)
(0.198015 -0.233512 0)
(0.228571 -0.219443 0)
(0.253747 -0.230146 0)
(0.306994 -0.232085 0)
(0.343292 -0.220617 0)
(0.382591 -0.190527 0)
(0.408529 -0.16633 0)
(0.449595 -0.112885 0)
(0.494518 -0.0986783 0)
(0.536096 -0.0313598 0)
(0.574961 0.0429885 0)
(0.62303 0.139197 0)
(0.674129 0.267029 0)
(0.701271 0.384147 0)
(0.763051 0.509686 0)
(0.0145708 -0.265117 0)
(0.044443 -0.265073 0)
(0.0731716 -0.262171 0)
(0.10082 -0.257763 0)
(0.128497 -0.252923 0)
(0.150101 -0.249318 0)
(0.177495 -0.245329 0)
(0.192554 -0.25908 0)
(0.223967 -0.259976 0)
(0.252486 -0.289236 0)
(0.31066 -0.289298 0)
(0.351814 -0.259057 0)
(0.397715 -0.246093 0)
(0.433627 -0.224579 0)
(0.495586 -0.173775 0)
(0.534254 -0.130821 0)
(0.566037 -0.0444863 0)
(0.620472 0.0393259 0)
(0.647977 0.100539 0)
(0.742441 0.215743 0)
(0.761947 0.307357 0)
(0.867674 0.438271 0)
(0.0157683 -0.132882 0)
(0.0465158 -0.132382 0)
(0.0767409 -0.127892 0)
(0.104627 -0.122384 0)
(0.131768 -0.116026 0)
(0.152388 -0.111944 0)
(0.175159 -0.114639 0)
(0.183826 -0.138138 0)
(0.214093 -0.176836 0)
(0.245334 -0.241773 0)
(0.300489 -0.261626 0)
(0.339855 -0.282748 0)
(0.367607 -0.297869 0)
(0.372626 -0.268038 0)
(0.38423 -0.22664 0)
(0.378127 -0.180402 0)
(0.401712 -0.117144 0)
(0.478041 -0.0606033 0)
(0.508352 0.0275023 0)
(0.651566 0.151871 0)
(0.700211 0.291066 0)
(0.80054 0.310878 0)
(0.0185048 0.0280195 0)
(0.0529359 0.0299086 0)
(0.0849412 0.0369641 0)
(0.112985 0.0476343 0)
(0.135216 0.0634399 0)
(0.142825 0.0852173 0)
(0.12969 0.108883 0)
(0.0847157 0.0991408 0)
(0.113279 0.0102159 0)
(0.215493 -0.0654915 0)
(0.259319 -0.0514984 0)
(0.209896 -0.10209 0)
(0.115456 -0.106814 0)
(0.0131429 -0.0656836 0)
(-0.0344642 -0.043951 0)
(-0.0366091 -0.0622691 0)
(-0.00294578 -0.0602366 0)
(0.0371184 -0.0408686 0)
(0.126765 0.00172165 0)
(0.281808 0.0544545 0)
(0.46821 0.179571 0)
(0.594746 0.15532 0)
(0.0197711 -0.210702 0)
(0.0561519 -0.213273 0)
(0.0897231 -0.213757 0)
(0.121801 -0.211379 0)
(0.151254 -0.202187 0)
(0.174411 -0.181378 0)
(0.17739 -0.140069 0)
(0.106532 -0.0867945 0)
(0.0393672 0.00113919 0)
(0.0197624 0.0310414 0)
(-0.0242942 0.147572 0)
(-0.175272 0.263741 0)
(-0.285556 0.292309 0)
(-0.288541 0.269203 0)
(-0.281084 0.236296 0)
(-0.249763 0.188989 0)
(-0.173697 0.125022 0)
(-0.0844625 0.0448825 0)
(-0.0104986 0.0408489 0)
(0.0390481 0.0124268 0)
(0.184554 0.0503716 0)
(0.306393 0.0313857 0)
(0.00616004 0.370215 0)
(0.0127703 0.39113 0)
(0.0243277 0.411915 0)
(0.0349238 0.442803 0)
(0.0573161 0.476942 0)
(0.0924512 0.536551 0)
(0.16817 0.644881 0)
(0.135239 0.668471 0)
(0.00136974 0.0725919 0)
(-0.340778 -0.0929601 0)
(-0.513257 -0.0324366 0)
(-0.486741 -0.0326662 0)
(-0.39283 -0.128044 0)
(-0.303399 -0.119985 0)
(-0.262757 -0.0895416 0)
(-0.22786 -0.02486 0)
(-0.170863 0.0864044 0)
(-0.114728 0.154601 0)
(-0.081289 0.209693 0)
(-0.0399597 0.195668 0)
(0.0531001 0.177498 0)
(0.223826 0.0795669 0)
(0.360501 0.0225404 0)
(-0.0365284 -0.720782 0)
(-0.102326 -0.738842 0)
(-0.149088 -0.762443 0)
(-0.176544 -0.793553 0)
(-0.177249 -0.837925 0)
(-0.136999 -0.89826 0)
(-0.0700973 -0.912812 0)
(0.136207 -0.638361 0)
(0.41702 0.286636 0)
(0.0463555 0.763653 0)
(-0.275773 0.51331 0)
(-0.122408 0.360233 0)
(-0.0536704 0.418327 0)
(0.0055667 0.477756 0)
(-0.0122334 0.463223 0)
(0.0129175 0.201065 0)
(-0.00071921 -0.103928 0)
(0.0247693 -0.217863 0)
(0.00276155 -0.172 0)
(0.0277684 -0.139456 0)
(0.0503734 0.0363455 0)
(0.155059 0.114418 0)
(0.212681 0.117966 0)
(-0.0279969 -0.211713 0)
(-0.0760535 -0.215078 0)
(-0.110327 -0.217779 0)
(-0.137163 -0.225876 0)
(-0.15306 -0.242797 0)
(-0.167603 -0.261194 0)
(-0.216527 -0.282609 0)
(-0.294973 -0.312385 0)
(-0.197505 -0.335175 0)
(-0.142712 -0.0863534 0)
(0.0184606 -0.640828 0)
(0.182474 -0.851309 0)
(0.268091 -0.876674 0)
(0.397435 -0.82758 0)
(0.557813 -0.716625 0)
(0.696713 -0.490552 0)
(0.759888 -0.0965966 0)
(0.702321 0.398651 0)
(0.508672 0.563006 0)
(0.350511 0.48199 0)
(0.321412 -0.00102169 0)
(0.299105 -0.2268 0)
(0.346686 -0.251585 0)
(-0.0219562 -0.152021 0)
(-0.0561945 -0.187752 0)
(-0.0775837 -0.227941 0)
(-0.0904482 -0.276714 0)
(-0.0956185 -0.328458 0)
(-0.0963151 -0.359104 0)
(-0.0966285 -0.342967 0)
(-0.0843917 -0.215464 0)
(-0.0835141 0.263464 0)
(-0.0472505 0.416958 0)
(0.136817 0.022424 0)
(0.0867344 -0.213999 0)
(0.123121 -0.232432 0)
(0.128917 -0.250203 0)
(0.141643 -0.312453 0)
(0.146907 -0.403538 0)
(0.181135 -0.50623 0)
(0.283519 -0.59675 0)
(0.530334 -0.60823 0)
(0.735042 -0.589677 0)
(0.905061 -0.261347 0)
(0.943968 0.171936 0)
(0.831226 0.350981 0)
(-0.000598388 -0.334833 0)
(-0.000672709 -0.361563 0)
(-0.00506517 -0.384733 0)
(-0.0166098 -0.410578 0)
(-0.0388862 -0.43519 0)
(-0.0754032 -0.454517 0)
(-0.130106 -0.457295 0)
(-0.189115 -0.438775 0)
(-0.144359 -0.365633 0)
(0.109463 -0.248023 0)
(0.270689 -0.490019 0)
(0.23819 -0.567287 0)
(0.206603 -0.568405 0)
(0.206551 -0.501908 0)
(0.213363 -0.414288 0)
(0.223435 -0.306289 0)
(0.225742 -0.181513 0)
(0.172209 -0.113703 0)
(0.14336 -0.131599 0)
(0.035015 -0.26294 0)
(-0.038518 -0.454191 0)
(-0.0210475 -0.555292 0)
(0.0836455 -0.558082 0)
(0.000739806 -0.166431 0)
(0.00469033 -0.201585 0)
(0.00667773 -0.230957 0)
(0.00169394 -0.262391 0)
(-0.00920768 -0.288739 0)
(-0.0266224 -0.30077 0)
(-0.0486493 -0.289682 0)
(-0.0598169 -0.243402 0)
(-0.0722128 -0.152938 0)
(0.0308144 -0.124904 0)
(0.0794566 -0.284307 0)
(0.0664518 -0.365539 0)
(0.0430328 -0.433185 0)
(0.0477621 -0.477756 0)
(0.0637766 -0.488087 0)
(0.083183 -0.452482 0)
(0.11301 -0.380951 0)
(0.140451 -0.326156 0)
(0.157055 -0.255033 0)
(0.148282 -0.173534 0)
(0.0481535 -0.06267 0)
(-0.100322 -0.0301538 0)
(-0.203657 0.117099 0)
(0.0057086 -0.260976 0)
(0.0151723 -0.28756 0)
(0.0184483 -0.302175 0)
(0.0139447 -0.318399 0)
(0.00231694 -0.332649 0)
(-0.0170495 -0.340839 0)
(-0.0396747 -0.3402 0)
(-0.0566839 -0.330349 0)
(-0.0545968 -0.320457 0)
(-0.00257355 -0.302277 0)
(0.0161085 -0.368653 0)
(-0.0137061 -0.402512 0)
(-0.0308949 -0.431148 0)
(-0.0674137 -0.446177 0)
(-0.0938074 -0.436992 0)
(-0.12715 -0.390058 0)
(-0.150795 -0.328857 0)
(-0.168427 -0.29199 0)
(-0.198897 -0.272507 0)
(-0.230195 -0.235613 0)
(-0.226407 -0.21437 0)
(-0.255455 -0.229263 0)
(-0.222861 -0.245207 0)
(0.0051111 -0.252531 0)
(0.0130003 -0.278227 0)
(0.015474 -0.29006 0)
(0.01169 -0.302027 0)
(0.000757589 -0.309985 0)
(-0.0168388 -0.310492 0)
(-0.0346906 -0.305663 0)
(-0.0489995 -0.29827 0)
(-0.0536966 -0.291625 0)
(-0.0351099 -0.292333 0)
(-0.0312877 -0.35113 0)
(-0.0595617 -0.385287 0)
(-0.0937552 -0.409453 0)
(-0.140249 -0.410768 0)
(-0.18663 -0.393688 0)
(-0.222177 -0.3427 0)
(-0.241787 -0.278264 0)
(-0.254041 -0.225474 0)
(-0.276284 -0.168865 0)
(-0.275625 -0.126962 0)
(-0.26821 -0.10791 0)
(-0.26128 -0.110235 0)
(-0.255918 -0.0611992 0)
(0.0023134 -0.255277 0)
(0.00434739 -0.276046 0)
(0.00347293 -0.282522 0)
(-0.00402221 -0.287293 0)
(-0.0148931 -0.2888 0)
(-0.0270844 -0.289186 0)
(-0.0383392 -0.288354 0)
(-0.048432 -0.28693 0)
(-0.0540419 -0.288958 0)
(-0.0515702 -0.294175 0)
(-0.0637931 -0.317174 0)
(-0.0946323 -0.336328 0)
(-0.13459 -0.350302 0)
(-0.17836 -0.369497 0)
(-0.220904 -0.368244 0)
(-0.259922 -0.333097 0)
(-0.283192 -0.286801 0)
(-0.294591 -0.254016 0)
(-0.294962 -0.224779 0)
(-0.277121 -0.194005 0)
(-0.268112 -0.176097 0)
(-0.274549 -0.164897 0)
(-0.268921 -0.152439 0)
(0.000308484 -0.257374 0)
(-0.00259975 -0.276135 0)
(-0.00761692 -0.277689 0)
(-0.0155761 -0.280281 0)
(-0.0229448 -0.282257 0)
(-0.0308132 -0.283549 0)
(-0.0383202 -0.283762 0)
(-0.0431596 -0.283598 0)
(-0.0467946 -0.285892 0)
(-0.0541718 -0.289933 0)
(-0.0661884 -0.294465 0)
(-0.0949581 -0.302645 0)
(-0.125591 -0.316273 0)
(-0.163108 -0.330371 0)
(-0.209522 -0.329472 0)
(-0.248353 -0.305041 0)
)
;

boundaryField
{
    leftWall
    {
        type            fixedValue;
        value           uniform (0 0 0);
    }
    rightWall
    {
        type            fixedValue;
        value           nonuniform 0();
    }
    lowerWall
    {
        type            fixedValue;
        value           uniform (0 0 0);
    }
    atmosphere
    {
        type            fluxCorrectedVelocity;
        value           nonuniform 0();
    }
    defaultFaces
    {
        type            empty;
    }
    procBoundary0to1
    {
        type            processor;
        value           nonuniform List<vector> 
26
(
(0.0282697 0.0136148 0)
(0.0361573 0.0804759 0)
(0.0847987 0.143435 0)
(0.0435096 0.208066 0)
(0.0803969 0.25718 0)
(0.0575897 0.350286 0)
(0.127622 0.414423 0)
(0.113527 0.558642 0)
(0.433437 0.594375 0)
(0.323681 0.505428 0)
(0.397163 0.414968 0)
(0.638177 0.469431 0)
(0.919125 0.498162 0)
(0.947704 0.409992 0)
(0.784534 0.239963 0)
(0.481642 0.0430056 0)
(0.481642 0.0430056 0)
(0.476731 -0.0178899 0)
(0.248894 0.0831176 0)
(0.358781 -0.249707 0)
(0.680577 0.474618 0)
(0.132761 -0.484968 0)
(-0.254846 0.14676 0)
(-0.179033 -0.242855 0)
(-0.264844 -0.0299926 0)
(-0.247271 -0.126865 0)
)
;
    }
    procBoundary0to2
    {
        type            processor;
        value           nonuniform List<vector> 
24
(
(-0.256893 -0.269956 0)
(-0.253862 -0.249017 0)
(-0.248909 -0.22663 0)
(-0.235238 -0.193105 0)
(-0.228656 -0.174509 0)
(-0.225203 -0.169742 0)
(-0.221218 -0.147298 0)
(-0.00149812 -0.254364 0)
(-0.00583045 -0.269991 0)
(-0.0113133 -0.270442 0)
(-0.0158912 -0.272478 0)
(-0.0218771 -0.275469 0)
(-0.0272265 -0.277004 0)
(-0.0323259 -0.278319 0)
(-0.0375197 -0.280019 0)
(-0.0422671 -0.280154 0)
(-0.049423 -0.279208 0)
(-0.0630541 -0.282753 0)
(-0.0773732 -0.283633 0)
(-0.0921316 -0.287958 0)
(-0.117008 -0.28477 0)
(-0.149133 -0.277623 0)
(-0.256893 -0.269956 0)
(-0.170765 -0.270885 0)
)
;
    }
}


// ************************************************************************* //
