/*--------------------------------*- C++ -*----------------------------------*\
| =========                 |                                                 |
| \\      /  F ield         | OpenFOAM: The Open Source CFD Toolbox           |
|  \\    /   O peration     | Version:  2.4.0                                 |
|   \\  /    A nd           | Web:      www.OpenFOAM.org                      |
|    \\/     M anipulation  |                                                 |
\*---------------------------------------------------------------------------*/
FoamFile
{
    version     2.0;
    format      ascii;
    class       volVectorField;
    location    "0.35";
    object      U.mercury;
}
// * * * * * * * * * * * * * * * * * * * * * * * * * * * * * * * * * * * * * //

dimensions      [0 1 -1 0 0 0 0];

internalField   nonuniform List<vector> 
575
(
(0.0198054 -0.00925069 0)
(0.0581025 -0.00930688 0)
(0.0996207 -0.00910139 0)
(0.134496 -0.00996779 0)
(0.181284 -0.00786919 0)
(0.208714 -0.0115016 0)
(0.266553 -0.0086585 0)
(0.294546 -0.00812218 0)
(0.326764 -0.010264 0)
(0.378192 -0.0120738 0)
(0.433329 -0.00858977 0)
(0.45941 -0.00774074 0)
(0.483659 -0.00610485 0)
(0.5125 -0.00560687 0)
(0.533079 -0.00646775 0)
(0.573608 -0.00727198 0)
(0.580649 0.0028878 0)
(0.567117 0.00713414 0)
(0.529145 0.0155816 0)
(0.4502 0.020888 0)
(0.322781 0.0245121 0)
(0.171305 0.0369744 0)
(0.0198087 -0.0277604 0)
(0.0581326 -0.0279837 0)
(0.0997848 -0.0271361 0)
(0.134157 -0.0305957 0)
(0.181811 -0.0223505 0)
(0.210804 -0.0359083 0)
(0.263377 -0.0256421 0)
(0.295612 -0.0231881 0)
(0.329187 -0.031831 0)
(0.380711 -0.0354081 0)
(0.431878 -0.0300726 0)
(0.456569 -0.0198951 0)
(0.483519 -0.0170469 0)
(0.516774 -0.0198441 0)
(0.545653 -0.0226455 0)
(0.578883 -0.0170438 0)
(0.592229 0.0035693 0)
(0.577828 0.0227289 0)
(0.529129 0.045391 0)
(0.450727 0.0830681 0)
(0.305919 0.102021 0)
(0.221271 0.100402 0)
(0.0197803 -0.0462505 0)
(0.0581656 -0.0465959 0)
(0.0996224 -0.0453407 0)
(0.134021 -0.0501485 0)
(0.181994 -0.0398969 0)
(0.212161 -0.0561819 0)
(0.259563 -0.0433875 0)
(0.297277 -0.0415388 0)
(0.334123 -0.0534892 0)
(0.382366 -0.0566775 0)
(0.42478 -0.0464201 0)
(0.448343 -0.0337505 0)
(0.494946 -0.0358694 0)
(0.528916 -0.0349344 0)
(0.560233 -0.0396412 0)
(0.587971 -0.0290109 0)
(0.594421 0.00179782 0)
(0.58463 0.0378728 0)
(0.533531 0.0767281 0)
(0.454982 0.118915 0)
(0.330143 0.139485 0)
(0.190205 0.148294 0)
(0.0197423 -0.0649541 0)
(0.0582429 -0.0653492 0)
(0.0992323 -0.0637597 0)
(0.134401 -0.0701988 0)
(0.181447 -0.0569105 0)
(0.213222 -0.0770069 0)
(0.258089 -0.061713 0)
(0.296647 -0.0608282 0)
(0.338296 -0.0741301 0)
(0.385875 -0.07461 0)
(0.408324 -0.0623221 0)
(0.454333 -0.0550749 0)
(0.50253 -0.0527815 0)
(0.540931 -0.0536387 0)
(0.580109 -0.0505043 0)
(0.591764 -0.0317683 0)
(0.594822 0.00989561 0)
(0.583448 0.0554525 0)
(0.544148 0.129803 0)
(0.475055 0.185032 0)
(0.332965 0.223305 0)
(0.174674 0.206518 0)
(0.0197288 -0.0830834 0)
(0.0582973 -0.0833837 0)
(0.0990302 -0.0817333 0)
(0.134566 -0.0884375 0)
(0.181424 -0.0749714 0)
(0.212429 -0.094031 0)
(0.258707 -0.0789456 0)
(0.296515 -0.0798588 0)
(0.342958 -0.0937466 0)
(0.380748 -0.0836048 0)
(0.407697 -0.0799863 0)
(0.463002 -0.0720669 0)
(0.506408 -0.0747579 0)
(0.547896 -0.0619011 0)
(0.588901 -0.0645013 0)
(0.606304 -0.0428097 0)
(0.60765 0.00188975 0)
(0.605655 0.0550173 0)
(0.590224 0.143206 0)
(0.535062 0.232924 0)
(0.426742 0.292693 0)
(0.228421 0.282095 0)
(0.0198073 -0.0992589 0)
(0.0585025 -0.0994901 0)
(0.099291 -0.0978591 0)
(0.135564 -0.105443 0)
(0.180199 -0.0903408 0)
(0.214628 -0.111082 0)
(0.25557 -0.09861 0)
(0.304923 -0.0999355 0)
(0.342036 -0.114455 0)
(0.375501 -0.11325 0)
(0.420603 -0.11977 0)
(0.468497 -0.127679 0)
(0.502033 -0.1418 0)
(0.546501 -0.157453 0)
(0.575282 -0.177406 0)
(0.598332 -0.172505 0)
(0.62738 -0.135811 0)
(0.616849 -0.0632458 0)
(0.601308 0.0850956 0)
(0.529906 0.222823 0)
(0.457938 0.350328 0)
(0.269326 0.356216 0)
(0.0199777 -0.140887 0)
(0.0588196 -0.142022 0)
(0.100114 -0.142446 0)
(0.136959 -0.152856 0)
(0.17714 -0.142455 0)
(0.222046 -0.165883 0)
(0.247493 -0.164931 0)
(0.308896 -0.172975 0)
(0.333546 -0.193633 0)
(0.371379 -0.212068 0)
(0.403582 -0.238315 0)
(0.432401 -0.253891 0)
(0.444155 -0.298596 0)
(0.444539 -0.34595 0)
(0.423944 -0.401575 0)
(0.430557 -0.410207 0)
(0.420006 -0.401035 0)
(0.494446 -0.214357 0)
(0.561277 -0.0321931 0)
(0.470967 0.201395 0)
(0.427989 0.386095 0)
(0.319897 0.425316 0)
(0.0195472 -0.225475 0)
(0.0574378 -0.227532 0)
(0.0976023 -0.230325 0)
(0.13372 -0.241246 0)
(0.166602 -0.243396 0)
(0.216298 -0.269793 0)
(0.230113 -0.299235 0)
(0.264836 -0.318542 0)
(0.291132 -0.362335 0)
(0.298908 -0.424334 0)
(0.280548 -0.481395 0)
(0.262276 -0.536716 0)
(0.266648 -0.564084 0)
(0.269301 -0.549778 0)
(0.220073 -0.299201 0)
(0.198032 -0.18832 0)
(0.202845 -0.147307 0)
(0.276119 -0.161403 0)
(0.539636 -0.151907 0)
(0.429875 0.0718234 0)
(0.347494 0.390049 0)
(0.287797 0.488306 0)
(0.0155614 -0.428832 0)
(0.0458072 -0.432921 0)
(0.0752408 -0.440921 0)
(0.102538 -0.454569 0)
(0.113933 -0.469578 0)
(0.150452 -0.481281 0)
(0.160438 -0.480628 0)
(0.175425 -0.492681 0)
(0.20651 -0.51485 0)
(0.221557 -0.542723 0)
(0.232125 -0.579737 0)
(0.251034 -0.618391 0)
(0.281559 -0.547809 0)
(0.319877 -0.25371 0)
(0.355309 -0.0929827 0)
(0.364073 0.0069471 0)
(0.316673 0.151537 0)
(0.254823 0.175187 0)
(0.32749 0.0536027 0)
(0.421541 -0.0187061 0)
(0.22781 0.271151 0)
(0.289336 0.470145 0)
(0.00998773 -0.638149 0)
(0.0281869 -0.633218 0)
(0.0484896 -0.618622 0)
(0.0679541 -0.590903 0)
(0.0865707 -0.548364 0)
(0.110868 -0.480308 0)
(0.127004 -0.385675 0)
(0.155135 -0.318047 0)
(0.19556 -0.259479 0)
(0.229194 -0.219642 0)
(0.270196 -0.188712 0)
(0.306109 -0.165292 0)
(0.321016 -0.130404 0)
(0.333734 -0.114633 0)
(0.318922 -0.103046 0)
(0.32847 -0.0971671 0)
(0.343586 -0.0660651 0)
(0.41067 0.00096091 0)
(0.36232 0.0870967 0)
(0.445017 0.0486505 0)
(0.258513 0.139289 0)
(0.295821 0.356557 0)
(0.0135624 -0.232476 0)
(0.0400176 -0.23195 0)
(0.0670653 -0.226863 0)
(0.0947285 -0.221085 0)
(0.12104 -0.213514 0)
(0.146913 -0.208908 0)
(0.17457 -0.19133 0)
(0.198097 -0.20327 0)
(0.232894 -0.191503 0)
(0.253714 -0.186041 0)
(0.298061 -0.189761 0)
(0.330385 -0.186412 0)
(0.361895 -0.170925 0)
(0.400558 -0.141743 0)
(0.427476 -0.0626045 0)
(0.472724 -0.0180983 0)
(0.481369 0.0772653 0)
(0.499949 0.128128 0)
(0.508419 0.225041 0)
(0.524242 0.285061 0)
(0.409189 0.113651 0)
(0.431932 0.229992 0)
(0.0142913 -0.222581 0)
(0.0427273 -0.22372 0)
(0.0708794 -0.222706 0)
(0.098607 -0.221274 0)
(0.125292 -0.219831 0)
(0.149057 -0.22327 0)
(0.176662 -0.21405 0)
(0.198074 -0.234946 0)
(0.228608 -0.220708 0)
(0.253766 -0.231287 0)
(0.306993 -0.23307 0)
(0.343294 -0.221492 0)
(0.382596 -0.19127 0)
(0.408538 -0.167035 0)
(0.449602 -0.113698 0)
(0.49453 -0.0996976 0)
(0.536121 -0.0323607 0)
(0.574961 0.042037 0)
(0.622969 0.138128 0)
(0.674298 0.264467 0)
(0.68727 0.27105 0)
(0.617976 0.21844 0)
(0.014571 -0.274856 0)
(0.0444435 -0.275409 0)
(0.0731728 -0.272949 0)
(0.100822 -0.269043 0)
(0.1285 -0.264401 0)
(0.150107 -0.260552 0)
(0.177503 -0.254709 0)
(0.192565 -0.264306 0)
(0.223975 -0.262424 0)
(0.252486 -0.290149 0)
(0.310657 -0.289824 0)
(0.351817 -0.259711 0)
(0.397745 -0.247133 0)
(0.433746 -0.226007 0)
(0.495752 -0.175343 0)
(0.534417 -0.132438 0)
(0.566191 -0.0461337 0)
(0.620567 0.0376722 0)
(0.647998 0.0989338 0)
(0.742534 0.214083 0)
(0.768536 0.280472 0)
(0.798587 0.148478 0)
(0.0157584 -0.288036 0)
(0.0465223 -0.288411 0)
(0.0768523 -0.284726 0)
(0.105001 -0.279914 0)
(0.132597 -0.273329 0)
(0.153846 -0.266853 0)
(0.176949 -0.261827 0)
(0.185242 -0.269851 0)
(0.214655 -0.286545 0)
(0.245206 -0.334164 0)
(0.299981 -0.331705 0)
(0.33911 -0.314337 0)
(0.366923 -0.310326 0)
(0.371363 -0.282861 0)
(0.383061 -0.239119 0)
(0.377654 -0.185182 0)
(0.401659 -0.117612 0)
(0.477984 -0.0611774 0)
(0.508366 0.0270822 0)
(0.651706 0.150901 0)
(0.703556 0.28552 0)
(0.853162 0.147641 0)
(0.0173191 -0.338889 0)
(0.0503711 -0.340022 0)
(0.0826669 -0.336756 0)
(0.112988 -0.331489 0)
(0.140448 -0.322402 0)
(0.159514 -0.309418 0)
(0.169835 -0.290611 0)
(0.164394 -0.275054 0)
(0.168909 -0.288902 0)
(0.18345 -0.353788 0)
(0.211872 -0.367843 0)
(0.197562 -0.339272 0)
(0.112917 -0.28881 0)
(0.0123021 -0.231362 0)
(-0.033282 -0.185884 0)
(-0.0347808 -0.167865 0)
(-0.00203494 -0.127383 0)
(0.0371606 -0.087924 0)
(0.126574 -0.034761 0)
(0.278027 0.0344982 0)
(0.467321 0.174641 0)
(0.630564 0.0936595 0)
(0.0177485 -0.569522 0)
(0.051506 -0.572106 0)
(0.0841102 -0.572024 0)
(0.11652 -0.570334 0)
(0.147879 -0.564308 0)
(0.176041 -0.551655 0)
(0.195968 -0.519099 0)
(0.174064 -0.469177 0)
(0.0983815 -0.456364 0)
(0.00336939 -0.483812 0)
(-0.0674003 -0.401371 0)
(-0.171161 -0.252749 0)
(-0.240858 -0.173123 0)
(-0.226259 -0.156806 0)
(-0.205977 -0.158991 0)
(-0.168015 -0.157034 0)
(-0.119004 -0.148174 0)
(-0.0673865 -0.173198 0)
(-0.00374289 -0.151714 0)
(0.0475242 -0.152451 0)
(0.191084 -0.0461222 0)
(0.304365 -0.0620383 0)
(0.0149946 -0.669061 0)
(0.0375996 -0.649344 0)
(0.0641684 -0.6217 0)
(0.0864747 -0.582481 0)
(0.114741 -0.535094 0)
(0.144884 -0.471086 0)
(0.202517 -0.415044 0)
(0.18494 -0.49615 0)
(-0.0144994 -0.737101 0)
(-0.30453 -0.647334 0)
(-0.501497 -0.473545 0)
(-0.46825 -0.420393 0)
(-0.374277 -0.509178 0)
(-0.279526 -0.483445 0)
(-0.224134 -0.458616 0)
(-0.176483 -0.412462 0)
(-0.124043 -0.337731 0)
(-0.0754989 -0.278574 0)
(-0.0381565 -0.193426 0)
(0.0288124 -0.180703 0)
(0.109268 -0.0987027 0)
(0.210681 -0.146403 0)
(0.276605 -0.180603 0)
(-0.0365038 -0.720773 0)
(-0.102327 -0.738833 0)
(-0.14909 -0.762436 0)
(-0.176547 -0.793549 0)
(-0.177252 -0.837922 0)
(-0.137005 -0.898246 0)
(-0.0740726 -0.911156 0)
(0.00177665 -0.680025 0)
(0.237163 0.0802125 0)
(-0.0388948 0.560993 0)
(-0.304948 0.380546 0)
(-0.14423 0.256008 0)
(-0.106333 0.107952 0)
(-0.0880173 -0.155013 0)
(-0.0722599 -0.390302 0)
(-0.0265908 -0.599084 0)
(-0.00470446 -0.691712 0)
(0.0422172 -0.647744 0)
(0.0283053 -0.503952 0)
(0.0870998 -0.453634 0)
(0.114562 -0.300785 0)
(0.183181 -0.244228 0)
(0.226159 -0.202071 0)
(-0.027997 -0.211724 0)
(-0.0760539 -0.215088 0)
(-0.110328 -0.217789 0)
(-0.137165 -0.225884 0)
(-0.153063 -0.242804 0)
(-0.167609 -0.261248 0)
(-0.216543 -0.282957 0)
(-0.294973 -0.312436 0)
(-0.197459 -0.33526 0)
(-0.142703 -0.0863535 0)
(0.0184525 -0.640827 0)
(0.182468 -0.851308 0)
(0.268089 -0.876674 0)
(0.397433 -0.827579 0)
(0.557808 -0.716624 0)
(0.696694 -0.490559 0)
(0.759571 -0.0968858 0)
(0.681905 0.327371 0)
(0.411507 0.121507 0)
(0.309766 -0.307015 0)
(0.28773 -0.622691 0)
(0.286834 -0.644419 0)
(0.354338 -0.562951 0)
(-0.0219563 -0.152018 0)
(-0.0561951 -0.187749 0)
(-0.0775852 -0.227938 0)
(-0.090451 -0.276712 0)
(-0.0956222 -0.328457 0)
(-0.0963198 -0.359102 0)
(-0.0966343 -0.342965 0)
(-0.0843994 -0.215462 0)
(-0.0835235 0.263466 0)
(-0.047262 0.41696 0)
(0.136807 0.0224276 0)
(0.0867259 -0.213995 0)
(0.123115 -0.232429 0)
(0.128913 -0.250201 0)
(0.14164 -0.312454 0)
(0.146905 -0.403539 0)
(0.181132 -0.506229 0)
(0.283518 -0.596747 0)
(0.530335 -0.608227 0)
(0.735041 -0.589674 0)
(0.905007 -0.261384 0)
(0.941463 0.166099 0)
(0.799468 0.224503 0)
(-0.00059856 -0.334834 0)
(-0.000673339 -0.361564 0)
(-0.00506646 -0.384734 0)
(-0.016612 -0.41058 0)
(-0.0388894 -0.435192 0)
(-0.0754076 -0.454519 0)
(-0.130111 -0.457297 0)
(-0.189122 -0.438777 0)
(-0.144366 -0.365633 0)
(0.109455 -0.248021 0)
(0.270682 -0.490017 0)
(0.238183 -0.567283 0)
(0.206597 -0.5684 0)
(0.206546 -0.501903 0)
(0.213359 -0.414284 0)
(0.223431 -0.306285 0)
(0.225739 -0.181508 0)
(0.172205 -0.113698 0)
(0.143358 -0.131596 0)
(0.035013 -0.262941 0)
(-0.0385225 -0.454196 0)
(-0.021054 -0.555296 0)
(0.0836429 -0.558087 0)
(0.000739608 -0.166432 0)
(0.00468964 -0.201585 0)
(0.00667634 -0.230958 0)
(0.00169165 -0.262392 0)
(-0.00921096 -0.28874 0)
(-0.0266267 -0.300771 0)
(-0.0486546 -0.289682 0)
(-0.0598232 -0.243403 0)
(-0.0722197 -0.152938 0)
(0.0308074 -0.124902 0)
(0.0794496 -0.284305 0)
(0.0664455 -0.365536 0)
(0.0430275 -0.433182 0)
(0.0477576 -0.477754 0)
(0.0637727 -0.488084 0)
(0.0831797 -0.452479 0)
(0.113007 -0.380948 0)
(0.140448 -0.326153 0)
(0.157052 -0.25503 0)
(0.148277 -0.173533 0)
(0.0481478 -0.0626708 0)
(-0.100328 -0.0301545 0)
(-0.203664 0.1171 0)
(0.00570833 -0.260977 0)
(0.0151714 -0.287561 0)
(0.0184467 -0.302176 0)
(0.0139422 -0.3184 0)
(0.00231356 -0.33265 0)
(-0.0170537 -0.34084 0)
(-0.0396797 -0.340201 0)
(-0.0566895 -0.33035 0)
(-0.0546028 -0.320457 0)
(-0.00257987 -0.302277 0)
(0.0161022 -0.368652 0)
(-0.0137119 -0.40251 0)
(-0.0309 -0.431146 0)
(-0.0674182 -0.446175 0)
(-0.0938115 -0.436991 0)
(-0.127154 -0.390056 0)
(-0.150799 -0.328856 0)
(-0.168431 -0.291989 0)
(-0.198902 -0.272508 0)
(-0.230201 -0.235614 0)
(-0.226413 -0.214371 0)
(-0.255461 -0.229265 0)
(-0.222867 -0.245208 0)
(0.0051108 -0.252533 0)
(0.0129994 -0.278229 0)
(0.0154723 -0.290062 0)
(0.0116875 -0.302029 0)
(0.000754184 -0.309987 0)
(-0.0168429 -0.310494 0)
(-0.0346955 -0.305665 0)
(-0.0490048 -0.298272 0)
(-0.0537022 -0.291626 0)
(-0.0351155 -0.292333 0)
(-0.0312932 -0.35113 0)
(-0.0595669 -0.385286 0)
(-0.0937599 -0.409452 0)
(-0.140254 -0.410767 0)
(-0.186634 -0.393688 0)
(-0.222181 -0.342699 0)
(-0.241791 -0.278264 0)
(-0.254046 -0.225474 0)
(-0.27629 -0.168865 0)
(-0.275632 -0.126963 0)
(-0.268217 -0.107911 0)
(-0.261287 -0.110237 0)
(-0.255925 -0.0612008 0)
(0.00231311 -0.25528 0)
(0.00434644 -0.276048 0)
(0.00347122 -0.282525 0)
(-0.00402469 -0.287295 0)
(-0.0148963 -0.288802 0)
(-0.0270883 -0.289188 0)
(-0.0383437 -0.288356 0)
(-0.048437 -0.286931 0)
(-0.0540471 -0.288959 0)
(-0.0515755 -0.294176 0)
(-0.0637983 -0.317175 0)
(-0.0946373 -0.336329 0)
(-0.134594 -0.350302 0)
(-0.178364 -0.369497 0)
(-0.220908 -0.368245 0)
(-0.259927 -0.333097 0)
(-0.283197 -0.286801 0)
(-0.294597 -0.254016 0)
(-0.294968 -0.22478 0)
(-0.277128 -0.194006 0)
(-0.268119 -0.176098 0)
(-0.274555 -0.164898 0)
(-0.268927 -0.15244 0)
(0.000308147 -0.257377 0)
(-0.00260075 -0.276138 0)
(-0.00761862 -0.277692 0)
(-0.0155785 -0.280283 0)
(-0.0229479 -0.28226 0)
(-0.0308169 -0.283552 0)
(-0.0383244 -0.283765 0)
(-0.0431643 -0.2836 0)
(-0.0467995 -0.285893 0)
(-0.0541768 -0.289934 0)
(-0.0661934 -0.294466 0)
(-0.0949629 -0.302645 0)
(-0.125596 -0.316273 0)
(-0.163112 -0.330371 0)
(-0.209526 -0.329472 0)
(-0.248357 -0.305041 0)
)
;

boundaryField
{
    leftWall
    {
        type            fixedValue;
        value           uniform (0 0 0);
    }
    rightWall
    {
        type            fixedValue;
        value           nonuniform 0();
    }
    lowerWall
    {
        type            fixedValue;
        value           uniform (0 0 0);
    }
    atmosphere
    {
        type            fluxCorrectedVelocity;
        value           nonuniform 0();
    }
    defaultFaces
    {
        type            empty;
    }
    procBoundary0to1
    {
        type            processor;
        value           nonuniform List<vector> 
26
(
(0.0282696 0.0136141 0)
(0.0361572 0.0804751 0)
(0.0847987 0.143434 0)
(0.0435096 0.208064 0)
(0.0803969 0.257179 0)
(0.0575897 0.350284 0)
(0.127622 0.41442 0)
(0.113526 0.558633 0)
(0.262309 0.594329 0)
(0.286499 0.503931 0)
(0.377649 0.387388 0)
(0.544482 0.371943 0)
(0.69636 0.339983 0)
(0.78586 0.2436 0)
(0.742619 0.124634 0)
(0.478418 -0.0786884 0)
(0.478418 -0.0786884 0)
(0.357892 -0.190578 0)
(0.26899 -0.180565 0)
(0.375217 -0.501516 0)
(0.628401 0.131492 0)
(0.132762 -0.484973 0)
(-0.254852 0.146759 0)
(-0.179038 -0.242856 0)
(-0.264849 -0.0299941 0)
(-0.247277 -0.126865 0)
)
;
    }
    procBoundary0to2
    {
        type            processor;
        value           nonuniform List<vector> 
24
(
(-0.256898 -0.269957 0)
(-0.253868 -0.249017 0)
(-0.248915 -0.226631 0)
(-0.235245 -0.193106 0)
(-0.228663 -0.17451 0)
(-0.22521 -0.169743 0)
(-0.221224 -0.147299 0)
(-0.0014984 -0.254367 0)
(-0.00583136 -0.269994 0)
(-0.0113149 -0.270446 0)
(-0.0158935 -0.272481 0)
(-0.02188 -0.275472 0)
(-0.02723 -0.277007 0)
(-0.0323298 -0.278322 0)
(-0.037524 -0.280021 0)
(-0.0422716 -0.280156 0)
(-0.0494277 -0.27921 0)
(-0.0630588 -0.282755 0)
(-0.0773778 -0.283634 0)
(-0.0921361 -0.287959 0)
(-0.117013 -0.284771 0)
(-0.149138 -0.277623 0)
(-0.256898 -0.269957 0)
(-0.170769 -0.270886 0)
)
;
    }
}


// ************************************************************************* //
