/*--------------------------------*- C++ -*----------------------------------*\
| =========                 |                                                 |
| \\      /  F ield         | OpenFOAM: The Open Source CFD Toolbox           |
|  \\    /   O peration     | Version:  2.4.0                                 |
|   \\  /    A nd           | Web:      www.OpenFOAM.org                      |
|    \\/     M anipulation  |                                                 |
\*---------------------------------------------------------------------------*/
FoamFile
{
    version     2.0;
    format      ascii;
    class       volScalarField;
    location    "0.5";
    object      alphas;
}
// * * * * * * * * * * * * * * * * * * * * * * * * * * * * * * * * * * * * * //

dimensions      [0 0 0 0 0 0 0];

internalField   nonuniform List<scalar> 
575
(
2
2
2
2
2
2
2
2
2
2
2
2
2
2
2
2
2
2
2
2
2
2
2
2
2
2
2
2
2
2
2
2
2
2
2
2
2
2
2
2
2
2
2
2
2
2
2
2
2
2
1.99999
1.99999
1.99999
1.99999
1.99999
1.99999
1.99999
2
2
2
2
2
2
2
2
2
1.99785
1.99755
1.99804
1.99641
1.99736
1.99665
1.99424
1.99447
1.99367
1.9933
1.99049
1.99129
1.99291
1.99656
1.9993
1.99989
1.99998
2
2
2
2
2
1.79556
1.78304
1.79577
1.74486
1.76145
1.72924
1.6639
1.65035
1.61097
1.58059
1.51782
1.5064
1.51567
1.59335
1.7709
1.94074
1.99473
1.99976
1.99998
2
2
2
0.445394
0.423457
0.432855
0.363821
0.370792
0.32517
0.25225
0.222831
0.184929
0.153521
0.114088
0.0906016
0.0733991
0.0813716
0.1223
0.424935
1.13664
1.85375
1.99205
1.99978
1.99999
2
0.000388214
0.000342367
0.000330928
0.000232064
0.000212837
0.000160544
0.000107649
8.15674e-05
6.22445e-05
4.72009e-05
3.61457e-05
2.84248e-05
2.3227e-05
1.98477e-05
6.89366e-05
0.00425318
0.0916204
0.873892
1.8725
1.99581
1.99992
1.99999
2.60672e-05
2.54728e-05
2.4501e-05
2.4014e-05
2.24133e-05
2.03071e-05
2.0117e-05
1.87063e-05
1.6834e-05
1.66163e-05
1.69499e-05
1.70827e-05
1.72073e-05
1.7327e-05
1.78961e-05
2.22083e-05
0.000838525
0.110113
1.32348
1.97562
1.99959
1.99999
2.23398e-05
2.20091e-05
2.12622e-05
2.18043e-05
2.04943e-05
1.80259e-05
1.81778e-05
1.62929e-05
1.51852e-05
1.52951e-05
1.61459e-05
1.6446e-05
1.71127e-05
1.71726e-05
1.88414e-05
2.23538e-05
4.55718e-05
0.00588424
0.278816
1.51738
1.97986
1.99833
2.8648e-06
2.78414e-06
2.63279e-06
2.59515e-06
2.50103e-06
2.35252e-06
2.49608e-06
3.2161e-06
1.16337e-05
4.66058e-05
5.79721e-05
4.01795e-05
1.29017e-05
5.07195e-06
4.7598e-06
6.1323e-06
1.74119e-05
0.00011746
0.0113442
0.312818
1.2524
1.81607
3.4565e-06
2.85365e-06
1.64231e-06
9.64175e-07
1.00554e-06
9.9204e-07
6.48886e-06
0.000475211
0.0031823
0.00858846
0.00973511
0.00758014
0.00342487
0.00133183
0.000363346
0.000111702
4.12135e-05
6.55963e-05
0.000398074
0.0194635
0.176483
0.457681
0.00553171
0.00458818
0.00229393
0.000503736
9.88733e-05
0.000161523
0.00145863
0.0269552
0.0949752
0.168235
0.180294
0.158087
0.108661
0.0693234
0.0313358
0.0109681
0.00339203
0.00120225
0.000530316
0.00102848
0.00698417
0.022594
0.631604
0.564894
0.38313
0.146024
0.0492126
0.0584985
0.0710919
0.245384
0.508852
0.649543
0.669258
0.652244
0.602638
0.537802
0.446277
0.302497
0.170934
0.0905621
0.0428546
0.0250637
0.0131221
0.0157153
2.94084
2.92432
2.86257
2.673
2.25795
1.7718
1.40648
1.50535
1.40242
1.21984
1.04878
0.985224
0.97171
0.967618
0.963542
0.942477
0.831517
0.682165
0.481968
0.432678
0.332949
0.370108
3
3
3
3
3
2.99982
2.99682
2.98481
2.92853
2.74301
2.32815
1.82997
1.44443
1.20268
1.09467
1.04557
1.02845
1.01369
0.983739
1.0151
0.983736
0.980394
3
3
3
3
3
2.99999
2.99998
2.99995
2.99997
2.99998
2.99962
2.99257
2.93621
2.76637
2.5314
2.28368
2.06829
1.81798
1.6716
1.74719
1.65517
1.89371
3
3
3
3
3
3
3
3
3
3
3
3
3
3
3
2.99999
2.99993
2.99893
2.99519
2.99414
2.98455
2.9946
2.99679
3
3
3
3
3
3
3
3
3
3
3
3
3
3
3
3
3
3
3
3
3
3
3
3
3
3
3
3
3
3
3
3
3
3
3
3
3
3
3
3
3
3
3
3
3
3
3
3
3
3
3
3
3
3
3
3
3
3
3
3
3
3
3
3
3
3
3
3
3
3
3
3
3
3
3
3
3
3
3
3
3
3
3
3
3
3
3
3
3
3
3
3
3
3
3
3
3
3
3
3
3
3
3
3
3
3
3
3
3
3
3
3
3
3
3
3
3
3
3
3
3
3
3
3
3
3
3
3
3
3
3
3
3
3
3
3
3
3
3
3
3
3
3
3
3
3
3
3
3
3
3
3
3
3
3
3
3
3
3
3
3
3
3
3
3
3
3
3
3
3
3
3
3
3
3
3
3
3
3
3
3
3
3
3
3
3
3
3
3
3
3
3
3
3
3
3
3
3
3
3
)
;

boundaryField
{
    leftWall
    {
        type            zeroGradient;
    }
    rightWall
    {
        type            zeroGradient;
    }
    lowerWall
    {
        type            zeroGradient;
    }
    atmosphere
    {
        type            zeroGradient;
    }
    defaultFaces
    {
        type            empty;
    }
    procBoundary0to1
    {
        type            processor;
        value           nonuniform List<scalar> 
26
(
1.99999
1.99998
1.99998
1.99998
1.99998
1.99998
1.99998
1.99998
1.99983
1.96543
0.817299
0.0304547
0.0226197
0.409316
0.981429
2.00885
2.00885
2.99761
3
3
3
3
3
3
3
3
)
;
    }
    procBoundary0to2
    {
        type            processor;
        value           nonuniform List<scalar> 
24
(
3
3
3
3
3
3
3
3
3
3
3
3
3
3
3
3
3
3
3
3
3
3
3
3
)
;
    }
}


// ************************************************************************* //
