/*--------------------------------*- C++ -*----------------------------------*\
| =========                 |                                                 |
| \\      /  F ield         | OpenFOAM: The Open Source CFD Toolbox           |
|  \\    /   O peration     | Version:  2.4.0                                 |
|   \\  /    A nd           | Web:      www.OpenFOAM.org                      |
|    \\/     M anipulation  |                                                 |
\*---------------------------------------------------------------------------*/
FoamFile
{
    version     2.0;
    format      ascii;
    class       volScalarField;
    location    "0.5";
    object      alpha.air;
}
// * * * * * * * * * * * * * * * * * * * * * * * * * * * * * * * * * * * * * //

dimensions      [0 0 0 0 0 0 0];

internalField   nonuniform List<scalar> 
575
(
5.26731e-14
5.77871e-14
4.14856e-14
8.66509e-14
5.1056e-14
5.08722e-14
7.36463e-14
6.83125e-14
5.4051e-14
3.88557e-14
4.27483e-14
5.41897e-14
5.59921e-14
4.55706e-14
2.96232e-14
1.85837e-14
1.17576e-14
7.97211e-15
5.96143e-15
4.53985e-15
3.08489e-15
1.57402e-15
6.66238e-13
7.34511e-13
5.63574e-13
1.03721e-12
6.64138e-13
6.77194e-13
8.48331e-13
7.24272e-13
5.49982e-13
4.03157e-13
4.09738e-13
4.42264e-13
4.27104e-13
3.56219e-13
2.54089e-13
1.75359e-13
1.17683e-13
8.01096e-14
5.63331e-14
4.01034e-14
2.44569e-14
1.06004e-14
4.99106e-12
5.44621e-12
4.67256e-12
6.96167e-12
5.21264e-12
5.30997e-12
5.59174e-12
4.41156e-12
3.11935e-12
2.18025e-12
1.90593e-12
1.74993e-12
1.60287e-12
1.38342e-12
1.08953e-12
8.07678e-13
5.72533e-13
3.941e-13
2.72396e-13
1.8241e-13
1.04851e-13
4.44592e-14
2.47022e-11
2.60691e-11
2.54858e-11
2.96127e-11
2.63143e-11
2.62508e-11
2.62508e-11
2.02565e-11
1.25644e-11
8.16243e-12
6.01018e-12
4.77807e-12
4.11738e-12
3.55474e-12
2.96228e-12
2.34185e-12
1.74287e-12
1.22605e-12
8.50048e-13
5.57198e-13
2.96392e-13
1.12143e-13
1.34705e-10
1.41364e-10
1.36859e-10
1.58573e-10
1.49004e-10
1.58214e-10
1.60261e-10
1.23151e-10
6.16815e-11
2.08864e-11
1.48088e-11
1.16525e-11
9.78789e-12
8.46282e-12
6.79777e-12
5.32059e-12
3.87301e-12
2.69515e-12
1.82619e-12
1.16732e-12
6.13409e-13
2.15688e-13
2.81738e-10
2.81681e-10
2.81592e-10
2.81513e-10
2.81455e-10
2.78195e-10
2.18326e-10
1.494e-10
8.29196e-11
3.57032e-11
3.49205e-11
3.28207e-11
2.94969e-11
2.58395e-11
1.82233e-11
1.24327e-11
8.12193e-12
5.02652e-12
3.10408e-12
1.88461e-12
1.00112e-12
3.6263e-13
1.25487e-10
1.47677e-10
1.68092e-10
1.78962e-10
1.63467e-10
7.69389e-11
3.83098e-11
3.8265e-11
3.88166e-11
8.31885e-11
1.34012e-10
1.60539e-10
1.22669e-10
1.07654e-10
7.02134e-11
3.7646e-11
1.84701e-11
9.109e-12
4.42423e-12
2.4812e-12
1.33894e-12
5.39618e-13
1.13278e-10
1.12565e-10
1.11852e-10
1.11124e-10
1.01864e-10
3.87608e-11
3.85387e-11
3.8508e-11
2.87799e-10
7.35624e-10
1.13425e-09
1.5745e-09
1.47003e-09
1.46361e-09
9.57127e-10
3.433e-10
4.63263e-11
4.6108e-12
4.45956e-12
2.55992e-12
1.4629e-12
6.89144e-13
5.99985e-10
5.70315e-10
4.69341e-10
4.30036e-10
4.70142e-10
7.87665e-10
1.2629e-09
1.26794e-09
1.86206e-09
2.15474e-09
2.7963e-09
4.00771e-09
4.97269e-09
6.78875e-09
6.61436e-09
5.64091e-09
2.65953e-09
4.05212e-10
3.30019e-11
1.00639e-11
2.03448e-12
1.28812e-12
7.53236e-08
6.17565e-08
2.98243e-08
1.03853e-08
1.26571e-08
3.14566e-08
2.34045e-08
7.10046e-09
3.13489e-09
2.54194e-09
3.04082e-09
4.15522e-09
6.17916e-09
1.08426e-08
1.27322e-08
1.27314e-08
1.06738e-08
3.80885e-09
5.9404e-10
2.52275e-10
8.04221e-11
1.06841e-11
1.04158e-06
8.45129e-07
4.42335e-07
2.1799e-07
2.3672e-07
2.38182e-07
9.31126e-08
4.24047e-08
1.75728e-08
8.08934e-09
6.02588e-09
5.48741e-09
5.49339e-09
5.49833e-09
5.71821e-09
9.01967e-09
1.08078e-08
1.07132e-08
6.20119e-09
2.12546e-09
7.74637e-10
3.21909e-10
0.0018439
0.00152939
0.000764639
0.000167908
3.29478e-05
4.66726e-05
4.91277e-05
5.29014e-05
4.3229e-05
1.54906e-05
1.11555e-06
3.44922e-07
9.52191e-08
2.24586e-08
5.07896e-09
4.72672e-09
4.73201e-09
5.2973e-09
5.33162e-09
3.53266e-09
1.85676e-09
9.14432e-10
0.210535
0.188298
0.12771
0.0486746
0.016404
0.0193373
0.0158561
0.0152797
0.013324
0.00665257
0.000345441
8.25222e-05
4.2217e-05
2.11477e-05
6.87536e-06
4.24243e-07
1.69202e-08
6.49237e-09
4.49837e-09
4.00441e-09
2.59092e-09
3.26224e-09
0.980281
0.974773
0.954189
0.891001
0.752649
0.59033
0.449036
0.381843
0.240593
0.133539
0.0489202
0.0177356
0.00845762
0.00478051
0.0032051
0.00104516
0.000384961
8.48469e-06
3.84577e-08
1.22407e-05
3.52659e-06
1.5022e-05
0.999999
0.999999
0.999999
0.999999
0.999999
0.999918
0.998514
0.99255
0.964345
0.871617
0.664234
0.415126
0.222339
0.101466
0.0474708
0.0229812
0.0149495
0.00997691
0.0050015
0.0154507
0.00710316
0.0132031
0.999999
0.999999
0.999999
0.999999
0.999998
0.999993
0.999992
0.999977
0.999983
0.999989
0.99981
0.996288
0.968106
0.883189
0.765704
0.641845
0.53415
0.408999
0.335819
0.37365
0.327737
0.447033
0.999999
0.999999
0.999999
0.999998
0.999998
0.999999
0.999999
0.999999
1
1
1
1
1
0.999999
0.999999
0.999996
0.999966
0.999464
0.997596
0.99707
0.992276
0.9973
0.998393
0.999999
0.999999
0.999999
0.999999
0.999999
0.999999
0.999999
1
1
1
1
1
0.999999
0.999999
0.999999
0.999999
0.999999
0.999999
0.999999
0.999999
0.999999
0.999999
1
0.999999
0.999999
0.999999
0.999999
0.999999
0.999999
0.999999
0.999999
1
1
1
1
0.999999
0.999999
0.999999
0.999999
0.999999
0.999999
0.999999
0.999999
1
1
1
0.999999
0.999999
0.999999
0.999999
0.999999
0.999999
0.999999
0.999999
0.999999
1
1
1
0.999999
0.999999
0.999999
0.999999
0.999999
0.999999
0.999999
0.999999
1
1
1
0.999998
0.999999
0.999999
0.999999
0.999999
0.999999
0.999999
0.999999
0.999999
1
1
1
0.999999
0.999999
0.999999
0.999999
0.999999
0.999999
0.999999
1
1
0.999999
1
0.999999
0.999999
0.999999
0.999999
0.999999
0.999999
0.999999
1
1
1
1
1
0.999999
0.999999
1
1
1
1
1
1
1
0.999999
0.999999
0.999999
0.999999
0.999999
0.999999
0.999999
0.999999
1
1
1
1
1
1
1
1
1
1
1
1
1
1
0.999999
0.999999
0.999999
0.999999
0.999999
0.999999
0.999999
0.999999
1
1
1
1
1
1
1
1
1
1
1
1
1
1
1
1
0.999999
1
0.999999
0.999999
0.999999
0.999999
1
1
1
1
1
1
1
1
0.999999
0.999999
1
1
1
1
1
1
1
1
0.999999
0.999999
0.999999
0.999999
0.999999
1
1
1
1
1
1
1
1
0.999999
0.999999
1
1
)
;

boundaryField
{
    leftWall
    {
        type            alphaContactAngle;
        thetaProperties 
6
(

(
water
mercury
)
 90 0 0 0

(
water
air
)
 90 0 0 0

(
water
oil
)
 90 0 0 0

(
mercury
air
)
 90 0 0 0

(
oil
mercury
)
 90 0 0 0

(
oil
air
)
 90 0 0 0
);
        value           nonuniform List<scalar> 
26
(
5.26731e-14
6.66238e-13
4.99106e-12
2.47022e-11
1.34705e-10
2.81738e-10
1.25487e-10
1.13278e-10
5.99985e-10
7.53236e-08
1.04158e-06
0.0018439
0.210535
0.980281
0.999999
0.999999
0.999999
0.999999
0.999999
0.999999
0.999998
0.999999
0.999999
0.999999
0.999999
0.999999
)
;
    }
    rightWall
    {
        type            alphaContactAngle;
        thetaProperties 
6
(

(
water
mercury
)
 90 0 0 0

(
water
air
)
 90 0 0 0

(
water
oil
)
 90 0 0 0

(
mercury
air
)
 90 0 0 0

(
oil
mercury
)
 90 0 0 0

(
oil
air
)
 90 0 0 0
);
        value           nonuniform 0();
    }
    lowerWall
    {
        type            alphaContactAngle;
        thetaProperties 
6
(

(
water
mercury
)
 90 0 0 0

(
water
air
)
 90 0 0 0

(
water
oil
)
 90 0 0 0

(
mercury
air
)
 90 0 0 0

(
oil
mercury
)
 90 0 0 0

(
oil
air
)
 90 0 0 0
);
        value           nonuniform List<scalar> 
22
(
5.26731e-14
5.77871e-14
4.14856e-14
8.66509e-14
5.1056e-14
5.08722e-14
7.36463e-14
6.83125e-14
5.4051e-14
3.88557e-14
4.27483e-14
5.41897e-14
5.59921e-14
4.55706e-14
2.96232e-14
1.85837e-14
1.17576e-14
7.97211e-15
5.96143e-15
4.53985e-15
3.08489e-15
1.57402e-15
)
;
    }
    atmosphere
    {
        type            inletOutlet;
        inletValue      nonuniform 0();
        value           nonuniform 0();
    }
    defaultFaces
    {
        type            empty;
    }
    procBoundary0to1
    {
        type            processor;
        value           nonuniform List<scalar> 
26
(
3.64047e-16
2.6089e-15
1.35969e-14
2.78603e-14
5.08249e-14
7.63166e-14
1.26037e-13
2.0556e-13
5.68265e-13
3.73344e-12
8.63534e-11
4.3489e-10
8.57532e-09
5.32706e-05
0.0220876
0.504643
0.504643
0.998806
1
1
1
1
1
1
1
1
)
;
    }
    procBoundary0to2
    {
        type            processor;
        value           nonuniform List<scalar> 
24
(
1
1
1
1
1
1
1
0.999999
0.999999
0.999999
1
1
1
1
1
1
1
1
1
0.999999
0.999999
0.999999
1
1
)
;
    }
}


// ************************************************************************* //
