/*--------------------------------*- C++ -*----------------------------------*\
| =========                 |                                                 |
| \\      /  F ield         | OpenFOAM: The Open Source CFD Toolbox           |
|  \\    /   O peration     | Version:  2.4.0                                 |
|   \\  /    A nd           | Web:      www.OpenFOAM.org                      |
|    \\/     M anipulation  |                                                 |
\*---------------------------------------------------------------------------*/
FoamFile
{
    version     2.0;
    format      ascii;
    class       volScalarField;
    location    "0.5";
    object      alpha.oil;
}
// * * * * * * * * * * * * * * * * * * * * * * * * * * * * * * * * * * * * * //

dimensions      [0 0 0 0 0 0 0];

internalField   nonuniform List<scalar> 
575
(
3.51584e-20
2.12559e-19
4.95423e-19
4.02021e-18
2.72659e-18
5.48804e-18
1.5959e-17
2.66388e-17
6.49078e-17
3.04772e-15
4.30468e-13
4.65579e-12
2.39947e-11
7.07644e-11
1.79597e-10
4.52418e-10
9.57285e-10
1.75695e-09
2.98505e-09
4.9452e-09
1.10019e-08
6.8734e-07
7.69649e-19
4.45112e-18
1.21654e-17
6.24713e-17
5.28879e-17
1.00494e-16
2.55286e-16
4.75358e-16
1.10611e-15
1.1976e-14
9.08177e-13
9.56648e-12
5.66451e-11
1.24108e-10
3.99877e-10
1.37064e-09
3.66751e-09
6.63131e-09
9.50094e-09
1.19197e-08
1.75243e-08
7.40247e-07
8.23097e-18
4.59301e-17
1.46549e-16
4.89064e-16
5.15804e-16
9.16308e-16
2.167e-15
4.41763e-15
9.8938e-15
3.52144e-14
7.28352e-13
6.42738e-12
3.52419e-11
1.25728e-10
4.81637e-10
1.58053e-09
4.76904e-09
1.31157e-08
2.76191e-08
3.51819e-08
3.7803e-08
6.39711e-07
5.71805e-17
3.14004e-16
1.13484e-15
2.6023e-15
3.29107e-15
5.52583e-15
1.33318e-14
2.79317e-14
5.75853e-14
1.2586e-13
5.45238e-13
3.98216e-12
2.29297e-11
6.87692e-11
3.02886e-10
1.5841e-09
6.69777e-09
2.66503e-08
8.52876e-08
1.32069e-07
1.09161e-07
6.92466e-07
2.89562e-16
1.60589e-15
6.24794e-15
1.07371e-14
1.51837e-14
2.53394e-14
6.70594e-14
1.29063e-13
2.26213e-13
3.95432e-13
9.0162e-13
3.64581e-12
3.91315e-11
5.22194e-10
3.91644e-09
2.01765e-08
3.36199e-08
8.00458e-08
2.15312e-07
3.23379e-07
2.68183e-07
8.56411e-07
1.1375e-15
6.57254e-15
2.57841e-14
3.73407e-14
5.30715e-14
9.72181e-14
2.9559e-13
4.1936e-13
6.02822e-13
8.97091e-13
1.67127e-12
7.32745e-12
4.39358e-11
7.47126e-10
1.49515e-08
2.34531e-07
1.60483e-06
5.48196e-06
3.96833e-06
2.17192e-06
7.42958e-07
1.22063e-06
3.66818e-15
2.26341e-14
8.41515e-14
1.13556e-13
1.52961e-13
3.49532e-13
9.77577e-13
8.92904e-13
1.0849e-12
1.41217e-12
2.33996e-12
5.75875e-12
1.67557e-11
8.60151e-10
4.08914e-08
2.00301e-07
2.87077e-06
2.67327e-05
2.13663e-05
1.29253e-05
3.73847e-06
2.028e-06
1.06873e-14
6.89987e-14
2.41937e-13
2.9914e-13
3.96255e-13
1.23378e-12
1.17945e-12
1.08353e-12
1.28986e-12
1.48764e-12
1.68498e-12
1.88466e-12
2.09238e-12
2.2448e-09
1.79908e-07
4.45726e-06
7.82554e-06
2.74727e-05
0.00013912
3.54984e-05
7.30084e-06
2.72286e-06
2.86857e-14
1.93803e-13
6.44943e-13
7.33951e-13
9.50381e-13
3.89354e-12
5.03529e-10
3.16192e-09
5.8796e-07
1.3129e-06
1.52937e-06
1.36311e-06
7.0097e-07
1.75001e-07
1.34548e-07
8.95697e-07
1.3529e-05
4.24206e-05
0.000296824
0.000640302
0.00039941
4.6038e-05
1.16509e-13
8.41518e-13
2.67932e-12
2.91234e-12
3.94024e-12
1.11876e-09
1.58954e-07
1.08518e-06
9.80731e-06
4.48461e-05
5.61606e-05
3.83173e-05
1.08491e-05
2.83891e-06
2.04854e-06
1.73705e-06
1.11079e-05
6.73369e-05
0.000253924
0.0015572
0.00212902
0.00112641
4.0829e-13
3.40189e-12
9.32449e-12
1.24779e-11
3.82632e-11
5.2679e-08
6.01175e-06
0.000474946
0.00318214
0.00858835
0.009735
0.00758003
0.00342474
0.00133166
0.000363123
0.000111264
3.92973e-05
6.35184e-05
0.000203495
0.000910416
0.00193391
0.00395042
1.21203e-12
1.48205e-11
1.88177e-10
6.38798e-11
1.79043e-08
2.14956e-05
0.00131124
0.0267965
0.0948455
0.168188
0.180291
0.158086
0.108661
0.0693234
0.0313358
0.0109681
0.0033919
0.00120197
0.00050843
0.000686816
0.00111397
0.00211981
3.06169e-12
1.03985e-10
1.56374e-09
1.06092e-09
4.58064e-07
0.000486504
0.0235235
0.199545
0.46888
0.629586
0.668221
0.651996
0.602511
0.537739
0.446256
0.302496
0.170934
0.0905621
0.0428542
0.0250276
0.0123567
0.0132797
6.40354e-12
1.51512e-10
2.30189e-09
3.98437e-09
1.51834e-07
0.000808205
0.0593669
0.359823
0.680643
0.819222
0.902021
0.932018
0.946337
0.953276
0.953926
0.939342
0.830362
0.68214
0.481968
0.432641
0.33293
0.37005
1.29912e-11
4.69723e-10
7.88566e-09
2.17996e-08
8.36377e-08
6.732e-05
0.00127466
0.0071574
0.0354973
0.128156
0.335446
0.584592
0.777412
0.898279
0.952255
0.976622
0.983606
0.983762
0.968734
0.968748
0.962426
0.940784
2.5396e-11
2.9546e-09
6.52019e-08
2.9896e-07
1.19966e-06
6.12594e-06
7.71381e-06
2.20312e-05
1.55537e-05
1.01484e-05
0.000188951
0.00371032
0.0318902
0.116804
0.234288
0.358146
0.46584
0.590984
0.664141
0.626243
0.671962
0.552608
2.08686e-11
2.21469e-09
1.16985e-07
8.80883e-07
1.1183e-06
9.04941e-08
1.54461e-08
3.2205e-08
5.6777e-08
8.52092e-08
4.86969e-08
2.66785e-08
3.99102e-08
1.07645e-07
4.76527e-07
3.31967e-06
3.34907e-05
0.000535306
0.00240359
0.0029297
0.00772342
0.00269986
0.00160685
1.08523e-11
5.77955e-10
1.46172e-08
1.06952e-07
2.8212e-07
2.74239e-08
9.15629e-09
9.67588e-09
6.85358e-08
1.14793e-07
4.71901e-08
2.25425e-08
2.25363e-08
4.06804e-08
1.28469e-07
2.09091e-07
1.36751e-07
1.06139e-07
7.50701e-08
7.49853e-08
7.49852e-08
7.45501e-08
7.45493e-08
1.25578e-11
8.13605e-10
5.5833e-09
2.85773e-09
9.92494e-10
1.54958e-09
9.01493e-09
2.06607e-08
5.03907e-08
1.93268e-07
1.37908e-07
4.8214e-08
3.94394e-08
1.96848e-07
3.87145e-07
4.49582e-07
4.37402e-07
3.71864e-07
1.50733e-07
7.49948e-08
7.49855e-08
7.52451e-08
7.9789e-08
6.53274e-12
8.6617e-11
5.1434e-10
2.53622e-10
6.16686e-11
4.49509e-10
5.31695e-09
2.2727e-08
6.2207e-08
1.93223e-07
1.03839e-07
2.61345e-08
1.33037e-07
6.33076e-07
6.85716e-07
6.85037e-07
5.87349e-07
5.75957e-07
2.93395e-07
9.13419e-08
7.50704e-08
1.42556e-07
9.29169e-08
5.60484e-13
5.66688e-12
1.98301e-11
2.11067e-11
2.16076e-11
2.99087e-11
9.66163e-11
4.11863e-10
1.85714e-09
2.93452e-08
5.85773e-09
1.04781e-08
2.70889e-07
6.32221e-07
4.88481e-07
1.97091e-07
1.54447e-07
5.23256e-08
5.05972e-08
8.31331e-08
1.28664e-07
1.42255e-07
7.2055e-08
4.44877e-14
4.07526e-13
3.52581e-12
7.70924e-12
1.34287e-11
2.01408e-11
3.51271e-11
6.5788e-11
1.17389e-10
1.91692e-10
4.8083e-10
1.79054e-08
1.87283e-07
3.12913e-07
8.51162e-08
4.83678e-08
4.27441e-08
4.27306e-08
4.77136e-08
6.03241e-08
6.70528e-08
4.46556e-08
2.03701e-08
5.61475e-15
7.49032e-14
7.50543e-13
3.54191e-12
8.22877e-12
1.35338e-11
2.92994e-11
7.59586e-11
1.66478e-10
1.98628e-10
1.15742e-09
2.49231e-08
2.75484e-08
4.19692e-08
6.34471e-08
9.73179e-08
5.72468e-08
5.57346e-08
2.95071e-08
2.73268e-08
1.85234e-08
1.27742e-08
4.94738e-09
5.35122e-16
1.30351e-14
2.18367e-13
1.5906e-12
4.26703e-12
7.70812e-12
1.94067e-11
5.84074e-11
1.50758e-10
2.78699e-10
1.33257e-09
7.16245e-09
1.65818e-08
5.01533e-08
1.09952e-07
1.29684e-07
1.12448e-07
6.87589e-08
3.4187e-08
1.22921e-08
6.08896e-09
2.90408e-09
3.25247e-09
1.38374e-16
5.964e-15
9.79297e-14
6.21901e-13
1.7278e-12
3.70448e-12
1.1258e-11
3.79411e-11
1.03695e-10
2.46094e-10
5.07972e-10
2.67141e-09
2.11643e-08
6.48012e-08
1.30155e-07
1.30282e-07
1.02888e-07
7.16147e-08
4.1173e-08
1.66921e-08
5.73618e-09
2.40743e-09
1.24171e-09
8.94218e-17
2.97198e-15
3.59163e-14
1.89073e-13
5.44945e-13
1.49837e-12
5.7598e-12
2.13943e-11
6.15077e-11
1.73303e-10
2.45702e-10
1.62213e-09
1.83756e-08
5.65398e-08
1.07516e-07
1.17418e-07
)
;

boundaryField
{
    leftWall
    {
        type            zeroGradient;
    }
    rightWall
    {
        type            zeroGradient;
    }
    lowerWall
    {
        type            zeroGradient;
    }
    atmosphere
    {
        type            inletOutlet;
        inletValue      nonuniform 0();
        value           nonuniform 0();
    }
    defaultFaces
    {
        type            empty;
    }
    procBoundary0to1
    {
        type            processor;
        value           nonuniform List<scalar> 
26
(
1.32405e-05
1.59782e-05
1.46247e-05
1.49166e-05
1.57986e-05
1.7963e-05
2.15075e-05
2.24959e-05
2.63569e-05
0.000354443
0.00666423
0.00331079
0.0203694
0.409138
0.915165
0.494925
0.494925
0.00119442
1.27479e-07
9.00683e-08
5.90884e-08
2.42183e-08
8.54505e-09
4.00088e-09
1.96025e-09
1.0806e-09
)
;
    }
    procBoundary0to2
    {
        type            processor;
        value           nonuniform List<scalar> 
24
(
9.2392e-08
6.59062e-08
3.91407e-08
1.91859e-08
7.37656e-09
2.19595e-09
8.98211e-10
3.57564e-17
7.97228e-16
7.9147e-15
3.96776e-14
1.375e-13
5.64153e-13
2.76236e-12
1.13037e-11
3.5603e-11
9.23264e-11
1.47388e-10
4.64576e-10
9.79647e-09
3.75944e-08
3.62638e-08
9.2392e-08
5.94275e-08
)
;
    }
}


// ************************************************************************* //
