/*--------------------------------*- C++ -*----------------------------------*\
| =========                 |                                                 |
| \\      /  F ield         | OpenFOAM: The Open Source CFD Toolbox           |
|  \\    /   O peration     | Version:  2.4.0                                 |
|   \\  /    A nd           | Web:      www.OpenFOAM.org                      |
|    \\/     M anipulation  |                                                 |
\*---------------------------------------------------------------------------*/
FoamFile
{
    version     2.0;
    format      ascii;
    class       volScalarField;
    location    "0.5";
    object      p;
}
// * * * * * * * * * * * * * * * * * * * * * * * * * * * * * * * * * * * * * //

dimensions      [1 -1 -2 0 0 0 0];

internalField   nonuniform List<scalar> 
575
(
4582.23
4579.72
4569.61
4578.24
4553.95
4547.55
4538.25
4512.19
4494.34
4484.52
4487.95
4515.06
4571.65
4686.83
4888.18
5207.31
5674.17
6229.72
6812.1
7343.07
7759.7
8046.84
3779.92
3776.56
3768.2
3772.54
3752.73
3745.64
3733.25
3705.9
3689.37
3680.16
3681.25
3707.07
3788.18
3925.83
4126.26
4422.35
4857.33
5411.87
6010.93
6552.78
6982.8
7264.5
2973.09
2968.7
2962.35
2961.01
2946.32
2938.37
2922.31
2892.08
2870.44
2851.74
2844.94
2850.04
2882.51
2962.39
3150.82
3484.08
3977.62
4570.76
5204.11
5779.05
6213.3
6495.47
2185.06
2180.49
2180.62
2171.56
2169.77
2162.38
2143.24
2126.54
2111.35
2096.46
2085.36
2100.02
2164.61
2296.07
2492.55
2720.17
3109.19
3693.67
4378.85
5009.98
5459.84
5753.63
1265.77
1256.73
1263.67
1238.6
1247.79
1227.82
1184.56
1169.85
1151.52
1139.37
1122.56
1125.01
1137.38
1175.15
1238.75
1545.86
2152.64
2823.34
3571.38
4256.94
4726.71
5017.61
779.528
779.624
783.877
784.289
792.266
799.468
805.292
813.487
819.339
822.588
824.728
827.686
831.799
842.937
878.365
974.835
1158.6
1780.48
2770.9
3518.11
4017.68
4310.92
766.312
770.179
773.766
782.915
791.17
802.537
817.862
828.477
836.341
845.061
857.47
876.568
899.529
926.012
942
941.457
929.472
1075.85
1949.63
2786.05
3321
3641.18
704.02
706.989
711.086
717.069
724.327
730.749
734.766
739.906
742.72
742.987
740.72
741.756
743.516
751.83
788.252
837.229
906.891
871.331
1245.22
2091.96
2651.57
2994.73
600.218
604.258
609.709
618.411
626.988
635.87
643.773
651.575
659.601
672.385
689.725
715.753
747.104
777.869
789.357
787.872
796.776
824.276
755.935
1067.82
1637.1
2020.2
488.74
492.354
498.287
505.078
510.955
515.562
521.42
525.984
529.069
534.847
542.317
548.307
554.104
561.971
580.6
607.88
635.864
645.242
613.925
532.881
545.534
730.739
319.445
323.457
331.229
341.194
355.595
373.267
385.463
388.146
386.656
389.259
394.544
403.78
417.37
438.738
458.713
473.659
488.613
488.837
462.127
393.948
315.009
236.856
211.83
221.823
244.738
264.656
274.559
275.831
266.967
256.037
245.461
242.193
248.535
261.228
276.373
295.192
312.322
329.957
345.368
349.308
336.12
300.995
232.918
166.549
33.1192
36.6908
44.2052
47.431
63.0675
90.7374
115.182
111.313
120.672
122.44
126.967
136.11
142.832
152.794
165.765
181.864
204.722
220.764
227.698
220.154
200.347
172.982
3.7388
3.81659
4.06324
4.9069
6.231
6.86369
12.145
13.0907
19.1219
24.0465
33.9888
51.368
72.5795
91.6193
103.438
109.901
115.68
121.415
131.642
130.337
118.597
104.365
5.37602
5.28711
5.07887
4.71175
4.40852
4.26062
4.02371
3.85991
3.82771
3.9507
4.82049
7.39216
14.4095
22.4987
28.9366
37.6731
46.0374
54.839
65.5036
59.8567
57.51
49.346
4.3619
4.42239
4.51475
4.59904
4.7301
4.93794
5.15831
4.957
4.75571
4.70795
4.49854
4.23905
4.20969
4.41188
4.85212
4.91422
4.90443
7.32637
10.0806
9.77232
11.0395
9.07779
4.53769
4.48088
4.41936
4.39731
4.3201
4.38327
4.32996
4.20501
4.17488
4.2676
4.47283
4.62974
4.58365
4.43457
4.28854
4.13744
3.96028
3.70131
3.50116
3.42209
3.44017
3.46948
3.56867
4.3729
4.35999
4.35524
4.36905
4.38556
4.44597
4.42417
4.38956
4.28337
4.24178
4.20696
4.20274
4.23832
4.25787
4.27674
4.25991
4.46621
4.65975
4.77045
4.76828
4.73403
4.70294
4.61118
4.18059
4.17286
4.16532
4.16117
4.15595
4.17064
4.1477
4.14608
4.15525
4.16618
4.17661
4.16693
4.1416
4.10891
4.05726
3.9866
3.9131
3.83883
3.77809
3.74045
3.73349
3.75764
3.797
4.08946
4.08243
4.07637
4.07278
4.07046
4.07906
4.06338
4.05664
4.04591
4.04011
4.04045
4.02453
4.0095
3.99273
3.97964
3.98376
4.02687
4.0687
4.08932
4.0948
4.08667
4.0712
4.0411
3.91167
3.91261
3.91373
3.91586
3.91784
3.92269
3.91875
3.91942
3.91688
3.91316
3.91439
3.89738
3.87937
3.86066
3.83853
3.81388
3.79333
3.77544
3.76182
3.75452
3.75639
3.75743
3.75774
3.79445
3.7916
3.78877
3.78624
3.78481
3.78547
3.78214
3.78033
3.77724
3.77405
3.77195
3.76184
3.74779
3.73275
3.71847
3.70796
3.70184
3.69542
3.68525
3.67366
3.66164
3.65275
3.64737
3.65436
3.65392
3.65239
3.65055
3.64905
3.64807
3.64558
3.64373
3.64019
3.63652
3.631
3.62245
3.61144
3.59922
3.58713
3.57714
3.56936
3.56204
3.55361
3.54506
3.5367
3.52906
3.52211
3.51786
3.51728
3.51603
3.51462
3.51314
3.51144
3.50912
3.507
3.50316
3.49935
3.49389
3.48665
3.47807
3.4687
3.45884
3.44953
3.44105
3.43283
3.42476
3.41654
3.40822
3.40034
3.39308
3.38154
3.38102
3.38
3.37876
3.37723
3.37539
3.37306
3.37066
3.36704
3.36308
3.35792
3.35168
3.34446
3.3367
3.32822
3.32
3.31231
3.30444
3.29664
3.28871
3.28079
3.27316
3.2658
3.24572
3.24532
3.2443
3.24322
3.2417
3.23984
3.23751
3.23502
3.2316
3.22772
3.2229
3.21733
3.21096
3.20427
3.19694
3.1897
)
;

boundaryField
{
    leftWall
    {
        type            fixedFluxPressure;
        gradient        uniform 0;
        value           nonuniform List<scalar> 
26
(
4582.23
3779.92
2973.09
2185.06
1265.77
779.528
766.312
704.02
600.218
488.74
319.445
211.83
33.1192
3.7388
5.37602
4.3619
4.53769
4.3729
4.18059
4.08946
3.91167
3.79445
3.65436
3.51786
3.38154
3.24572
)
;
    }
    rightWall
    {
        type            fixedFluxPressure;
        gradient        nonuniform 0();
        value           nonuniform 0();
    }
    lowerWall
    {
        type            fixedFluxPressure;
        gradient        nonuniform List<scalar> 
22
(
132719
132719
132719
132719
132719
132719
132719
132719
132719
132719
132719
132719
132719
132719
132719
132719
132719
132719
132719
132719
132719
132719
)
;
        value           nonuniform List<scalar> 
22
(
4980.38
4977.87
4967.76
4976.39
4952.1
4945.7
4936.4
4910.34
4892.49
4882.67
4886.1
4913.21
4969.8
5084.98
5286.33
5605.46
6072.32
6627.86
7210.25
7741.22
8157.85
8444.99
)
;
    }
    atmosphere
    {
        type            totalPressure;
        U               U.air;
        phi             phi.air;
        rho             rho;
        psi             none;
        gamma           1;
        p0              nonuniform 0();
        value           nonuniform 0();
    }
    defaultFaces
    {
        type            empty;
    }
    procBoundary0to1
    {
        type            processor;
        value           nonuniform List<scalar> 
26
(
8166.61
7383.58
6644.67
5898.08
5153.39
4434.5
3751.2
3099.15
2084.4
980.777
172.089
132.494
141.603
92.4501
40.799
8.25676
8.25676
3.69808
4.50211
3.83339
4.00873
3.76151
3.64396
3.51671
3.3877
3.25996
)
;
    }
    procBoundary0to2
    {
        type            processor;
        value           nonuniform List<scalar> 
24
(
3.18257
3.17521
3.16789
3.16047
3.15303
3.14561
3.13811
3.11036
3.10997
3.10913
3.10801
3.10657
3.10475
3.10254
3.0999
3.0967
3.0931
3.08871
3.08372
3.07809
3.07217
3.06573
3.18257
3.05931
)
;
    }
}


// ************************************************************************* //
