/*--------------------------------*- C++ -*----------------------------------*\
| =========                 |                                                 |
| \\      /  F ield         | OpenFOAM: The Open Source CFD Toolbox           |
|  \\    /   O peration     | Version:  2.4.0                                 |
|   \\  /    A nd           | Web:      www.OpenFOAM.org                      |
|    \\/     M anipulation  |                                                 |
\*---------------------------------------------------------------------------*/
FoamFile
{
    version     2.0;
    format      ascii;
    class       surfaceScalarField;
    location    "0.5";
    object      phi;
}
// * * * * * * * * * * * * * * * * * * * * * * * * * * * * * * * * * * * * * //

dimensions      [0 3 -1 0 0 0 0];

internalField   nonuniform List<scalar> 
1101
(
2.7325e-06
-2.7325e-06
5.63137e-06
-2.89887e-06
7.80416e-06
-2.17279e-06
1.14016e-05
-3.5974e-06
1.37499e-05
-2.34834e-06
1.60119e-05
-2.26195e-06
1.9215e-05
-3.20313e-06
2.23143e-05
-3.09935e-06
2.5153e-05
-2.83867e-06
2.67207e-05
-1.56768e-06
2.83987e-05
-1.67804e-06
3.06136e-05
-2.2149e-06
3.26558e-05
-2.04216e-06
3.37256e-05
-1.06983e-06
3.30865e-05
6.39162e-07
3.09901e-05
2.09636e-06
2.69241e-05
4.06594e-06
2.16141e-05
5.31004e-06
1.61057e-05
5.50839e-06
1.20505e-05
4.05521e-06
8.19767e-06
3.85283e-06
5.3447e-06
2.74037e-06
-5.47287e-06
5.63217e-06
-5.79066e-06
7.95532e-06
-4.49594e-06
1.12962e-05
-6.93825e-06
1.36744e-05
-4.72662e-06
1.61885e-05
-4.77598e-06
1.93714e-05
-6.38608e-06
2.22557e-05
-5.98357e-06
2.487e-05
-5.45304e-06
2.6752e-05
-3.44964e-06
2.90877e-05
-4.01372e-06
3.12622e-05
-4.38947e-06
3.27191e-05
-3.49905e-06
3.33936e-05
-1.74435e-06
3.36423e-05
3.90546e-07
3.14674e-05
4.27119e-06
2.74443e-05
8.08906e-06
2.18178e-05
1.09365e-05
1.68226e-05
1.05036e-05
1.24217e-05
8.45609e-06
8.26751e-06
8.00706e-06
1.03014e-05
2.75646e-06
-8.22933e-06
5.56121e-06
-8.59542e-06
8.13321e-06
-7.06794e-06
1.1105e-05
-9.91002e-06
1.36799e-05
-7.30151e-06
1.65041e-05
-7.60025e-06
1.95025e-05
-9.38439e-06
2.20369e-05
-8.51802e-06
2.44086e-05
-7.82477e-06
2.69627e-05
-6.00375e-06
3.00114e-05
-7.06237e-06
3.20941e-05
-6.47214e-06
3.36612e-05
-5.06618e-06
3.42362e-05
-2.31932e-06
3.32177e-05
1.40896e-06
3.1207e-05
6.28188e-06
2.75557e-05
1.17404e-05
2.21471e-05
1.63451e-05
1.6976e-05
1.56747e-05
1.32961e-05
1.21361e-05
1.00681e-05
1.1235e-05
1.4056e-05
2.76161e-06
-1.09909e-05
5.4535e-06
-1.12873e-05
8.4147e-06
-1.00291e-05
1.08015e-05
-1.22969e-05
1.36707e-05
-1.01707e-05
1.67222e-05
-1.06517e-05
1.94309e-05
-1.20931e-05
2.16012e-05
-1.06884e-05
2.42101e-05
-1.04336e-05
2.73779e-05
-9.17157e-06
3.02125e-05
-9.89696e-06
3.15985e-05
-7.85818e-06
3.26237e-05
-6.09139e-06
3.29376e-05
-2.63324e-06
3.40918e-05
2.54838e-07
3.33319e-05
7.04179e-06
2.95849e-05
1.54874e-05
2.43212e-05
2.16087e-05
1.8138e-05
2.18579e-05
1.2648e-05
1.7626e-05
8.97037e-06
1.49127e-05
1.76293e-05
2.75418e-06
-1.37451e-05
5.30932e-06
-1.38424e-05
8.67258e-06
-1.33924e-05
1.0319e-05
-1.39433e-05
1.35673e-05
-1.34191e-05
1.69928e-05
-1.40771e-05
1.87532e-05
-1.38535e-05
2.11585e-05
-1.30937e-05
2.40883e-05
-1.33634e-05
2.74536e-05
-1.25368e-05
2.93883e-05
-1.18317e-05
3.15105e-05
-9.98034e-06
3.34167e-05
-7.99761e-06
3.51912e-05
-4.40776e-06
3.44799e-05
9.66199e-07
3.183e-05
9.69168e-06
2.93966e-05
1.79208e-05
2.48715e-05
2.61339e-05
1.87395e-05
2.79899e-05
1.21468e-05
2.42187e-05
7.12499e-06
1.99345e-05
1.99962e-05
2.30122e-06
-1.60463e-05
4.33753e-06
-1.58787e-05
7.46759e-06
-1.65225e-05
8.57342e-06
-1.50491e-05
1.08589e-05
-1.57046e-05
1.33697e-05
-1.65879e-05
1.46922e-05
-1.51759e-05
1.66286e-05
-1.50301e-05
1.86976e-05
-1.54324e-05
2.0786e-05
-1.46252e-05
2.20992e-05
-1.31449e-05
2.4166e-05
-1.20472e-05
2.55344e-05
-9.36597e-06
2.60243e-05
-4.89771e-06
2.53017e-05
1.68881e-06
2.66591e-05
8.3343e-06
2.43582e-05
2.02217e-05
2.17531e-05
2.8739e-05
1.73162e-05
3.24268e-05
1.17533e-05
2.97816e-05
5.82026e-06
2.58675e-05
2.30249e-05
3.25545e-07
-1.63719e-05
8.10624e-07
-1.63638e-05
1.05812e-06
-1.677e-05
1.95903e-06
-1.595e-05
2.3425e-06
-1.6088e-05
3.17412e-06
-1.74195e-05
4.74825e-06
-1.67501e-05
6.36912e-06
-1.6651e-05
8.10165e-06
-1.71649e-05
9.50783e-06
-1.60314e-05
1.03106e-05
-1.39477e-05
1.02195e-05
-1.19562e-05
9.68631e-06
-8.83273e-06
1.03308e-05
-5.54216e-06
1.43348e-05
-2.31522e-06
1.9061e-05
3.60807e-06
1.94163e-05
1.98664e-05
1.29193e-05
3.52359e-05
1.25694e-05
3.27767e-05
1.05548e-05
3.17962e-05
5.69889e-06
3.07235e-05
2.61496e-05
1.61488e-07
-1.65334e-05
3.70201e-07
-1.65725e-05
7.1721e-07
-1.7117e-05
1.11272e-06
-1.63455e-05
2.01536e-06
-1.69907e-05
3.41978e-06
-1.8824e-05
4.57502e-06
-1.79053e-05
6.65033e-06
-1.87263e-05
9.00537e-06
-1.95199e-05
1.14866e-05
-1.85126e-05
1.29206e-05
-1.53816e-05
1.4279e-05
-1.33146e-05
1.40354e-05
-8.58918e-06
1.05493e-05
-2.05604e-06
3.71898e-06
4.51511e-06
3.64611e-06
3.68094e-06
7.73041e-06
1.57822e-05
4.40922e-06
3.85571e-05
2.46039e-06
3.47255e-05
4.91794e-06
2.93386e-05
4.95549e-06
3.06859e-05
2.76127e-05
1.92066e-07
-1.67254e-05
6.82506e-07
-1.7063e-05
1.09541e-06
-1.75299e-05
1.99872e-06
-1.72488e-05
3.07009e-06
-1.8062e-05
5.59834e-06
-2.13522e-05
8.74267e-06
-2.10496e-05
1.36213e-05
-2.36049e-05
1.81831e-05
-2.40818e-05
2.1455e-05
-2.17845e-05
2.32617e-05
-1.71884e-05
2.42312e-05
-1.42841e-05
2.49596e-05
-9.31762e-06
2.90179e-05
-6.11429e-06
3.50412e-05
-1.50817e-06
3.1872e-05
6.85006e-06
2.39152e-05
2.3739e-05
2.01155e-05
4.23568e-05
-1.1502e-06
5.59913e-05
-4.57929e-06
3.27677e-05
3.78645e-06
2.23202e-05
1.55684e-05
5.22328e-07
-1.72477e-05
1.23824e-06
-1.77789e-05
1.84307e-06
-1.81347e-05
2.97891e-06
-1.83847e-05
4.13623e-06
-1.92193e-05
5.55351e-06
-2.27695e-05
9.23651e-06
-2.47326e-05
1.52834e-05
-2.96518e-05
2.01324e-05
-2.89308e-05
2.45209e-05
-2.61729e-05
2.86784e-05
-2.13459e-05
3.22621e-05
-1.78678e-05
3.29441e-05
-9.99961e-06
3.157e-05
-4.74022e-06
2.73415e-05
2.72032e-06
2.54258e-05
8.76582e-06
2.89658e-05
2.01989e-05
3.36167e-05
3.77059e-05
2.9822e-05
5.9786e-05
8.74129e-06
5.38485e-05
5.86044e-06
2.5201e-05
8.58696e-06
7.52394e-07
-1.80001e-05
1.49562e-06
-1.85221e-05
1.78427e-06
-1.84233e-05
1.49222e-06
-1.80926e-05
1.2881e-06
-1.90152e-05
3.29317e-06
-2.47746e-05
8.92323e-06
-3.03627e-05
1.7259e-05
-3.79876e-05
2.43121e-05
-3.59839e-05
3.02471e-05
-3.21079e-05
3.48586e-05
-2.59574e-05
3.90958e-05
-2.2105e-05
4.21847e-05
-1.30885e-05
4.49044e-05
-7.45994e-06
4.55744e-05
2.05038e-06
4.43588e-05
9.98141e-06
4.24531e-05
2.21046e-05
4.81219e-05
3.20371e-05
6.39477e-05
4.39602e-05
6.94926e-05
4.83035e-05
5.54275e-05
3.92661e-05
1.89737e-05
1.58817e-09
-1.80017e-05
2.70193e-07
-1.87907e-05
1.31756e-06
-1.94707e-05
2.58394e-06
-1.9359e-05
1.33482e-06
-1.77661e-05
-1.813e-07
-2.32584e-05
3.49376e-06
-3.40378e-05
1.27695e-05
-4.72633e-05
2.0947e-05
-4.41615e-05
2.66708e-05
-3.78316e-05
3.05445e-05
-2.98311e-05
3.306e-05
-2.46205e-05
3.69694e-05
-1.6998e-05
4.03991e-05
-1.08896e-05
4.38579e-05
-1.40837e-06
4.63988e-05
7.44051e-06
5.05012e-05
1.80021e-05
5.94776e-05
2.30607e-05
7.25054e-05
3.09324e-05
9.49211e-05
2.58879e-05
0.000111302
2.28853e-05
9.34437e-06
2.01954e-06
-2.00213e-05
3.1102e-06
-1.98814e-05
1.41561e-06
-1.77761e-05
-8.2608e-06
-9.68258e-06
-1.84094e-05
-7.61746e-06
-1.8483e-05
-2.31849e-05
-1.29081e-05
-3.96126e-05
-1.22869e-05
-4.78846e-05
-8.94705e-06
-4.75014e-05
-2.41386e-06
-4.43648e-05
3.53316e-06
-3.57781e-05
9.17836e-06
-3.02657e-05
1.78357e-05
-2.56554e-05
2.43356e-05
-1.73895e-05
3.16739e-05
-8.7467e-06
3.81065e-05
1.00799e-06
4.5781e-05
1.03276e-05
5.52904e-05
1.35513e-05
6.87866e-05
1.74361e-05
8.45078e-05
1.01667e-05
9.81199e-05
9.27323e-06
-7.86525e-06
-2.14242e-06
-1.78789e-05
-5.42096e-06
-1.66029e-05
-4.78775e-06
-1.84094e-05
7.45731e-06
-2.19277e-05
9.76503e-06
-9.92524e-06
-1.25995e-05
-8.20414e-07
-4.10464e-05
-1.11658e-05
-7.64489e-05
-1.24821e-05
-8.99741e-05
-3.39761e-05
-8.49426e-05
-4.93963e-05
-7.42045e-05
-4.65162e-05
-6.43012e-05
-4.0169e-05
-5.19422e-05
-3.80144e-05
-3.8167e-05
-3.11647e-05
-2.29132e-05
-2.40004e-05
-6.35221e-06
-1.5553e-05
1.33257e-05
-9.35037e-06
3.05472e-05
-3.67015e-06
4.59815e-05
2.0019e-06
6.3746e-05
-7.59779e-06
7.88402e-05
-5.82092e-06
-1.9907e-05
1.97927e-05
-3.76716e-05
4.16316e-05
-3.84419e-05
6.23664e-05
-3.91442e-05
8.41657e-05
-4.37269e-05
8.31251e-05
-8.88464e-06
4.65648e-05
3.57399e-05
-2.71316e-05
6.25306e-05
-0.000100011
6.03972e-05
-0.000127149
-6.83804e-06
-0.000123321
-5.32237e-05
-9.94029e-05
-7.04347e-05
-8.62483e-05
-5.33237e-05
-7.64758e-05
-4.77869e-05
-7.02262e-05
-3.74142e-05
-6.45474e-05
-2.96792e-05
-5.68216e-05
-2.32789e-05
-4.27572e-05
-2.34147e-05
-2.19222e-05
-2.45052e-05
-5.22854e-07
-1.93975e-05
1.69674e-05
-2.50881e-05
3.64148e-05
-2.52683e-05
-2.97691e-05
-2.25214e-05
-1.51501e-05
-3.66425e-05
-2.43208e-05
-4.52219e-05
-3.05647e-05
-5.2487e-05
-3.64618e-05
-3.24164e-05
-2.89552e-05
1.76526e-05
-1.43291e-05
9.45308e-05
-1.43476e-05
0.00012072
3.42079e-05
7.99743e-05
3.39077e-05
3.46796e-05
-7.92904e-06
-1.22312e-05
-2.35238e-05
-5.17145e-05
-1.38404e-05
-6.17988e-05
-3.77026e-05
-5.70332e-05
-4.21798e-05
-4.70977e-05
-3.96148e-05
-4.38476e-05
-2.6529e-05
-4.24484e-05
-2.4814e-05
-3.71811e-05
-2.97725e-05
-2.78168e-05
-2.87617e-05
-2.20975e-05
-3.08074e-05
-8.12121e-06
-3.92446e-05
-4.06842e-05
-4.49405e-06
-1.06561e-05
-8.07075e-06
-2.07441e-05
-9.7562e-06
-2.88793e-05
-1.00254e-05
-3.61926e-05
-1.49594e-06
-3.74847e-05
1.4172e-05
-2.99971e-05
3.59222e-05
-3.60978e-05
3.10948e-05
3.90354e-05
1.21185e-05
5.2884e-05
1.56164e-07
4.03327e-06
6.26002e-06
-2.96277e-05
4.18128e-05
-4.93932e-05
5.99024e-05
-5.57922e-05
7.0124e-05
-5.24014e-05
7.99248e-05
-4.94155e-05
9.33809e-05
-3.99849e-05
7.44004e-05
-5.83336e-06
4.97915e-05
-5.16353e-06
3.4224e-05
-1.31941e-05
2.45883e-05
-2.11716e-05
3.18527e-05
-4.6509e-05
2.66669e-05
-3.54983e-05
-4.70302e-05
8.32549e-07
-1.14886e-05
-3.54155e-07
-1.95574e-05
-2.59334e-06
-2.66401e-05
-5.29096e-06
-3.3495e-05
-4.12078e-06
-3.86549e-05
-2.53284e-07
-3.38646e-05
7.60002e-06
-4.39512e-05
3.58624e-05
1.0773e-05
4.48239e-05
4.39225e-05
2.78892e-05
2.0968e-05
3.39804e-06
-5.13653e-06
1.3228e-06
-4.73179e-05
3.03103e-06
-5.75004e-05
6.02901e-06
-5.53993e-05
6.66438e-06
-5.00509e-05
1.04021e-05
-4.37226e-05
4.13254e-05
-3.67566e-05
7.57515e-05
-3.95895e-05
0.000100204
-3.76465e-05
0.000114772
-3.57391e-05
0.000103381
-3.51184e-05
0.000106367
-3.84844e-05
-4.39414e-05
-3.28531e-06
-8.20333e-06
-4.65921e-06
-1.81835e-05
-6.1514e-06
-2.51479e-05
-8.25249e-06
-3.13939e-05
-1.15131e-05
-3.53943e-05
-1.14111e-05
-3.39666e-05
-1.823e-05
-3.71323e-05
1.04792e-05
-1.79362e-05
3.9734e-05
1.46677e-05
4.50346e-05
1.56674e-05
4.64781e-05
-6.58005e-06
4.18805e-05
-4.27203e-05
4.0439e-05
-5.60589e-05
4.45838e-05
-5.95441e-05
5.07574e-05
-5.62244e-05
5.57752e-05
-4.87403e-05
5.56419e-05
-3.66233e-05
5.02564e-05
-3.42039e-05
4.67046e-05
-3.40947e-05
3.83996e-05
-2.7434e-05
3.65329e-05
-3.32517e-05
3.71167e-05
-3.90682e-05
-4.39766e-05
4.48978e-06
-1.26931e-05
6.0655e-06
-1.97592e-05
5.31341e-06
-2.43958e-05
2.49203e-06
-2.85725e-05
-1.80688e-06
-3.10954e-05
-5.05993e-06
-3.07136e-05
-1.15681e-05
-3.0624e-05
-7.60971e-06
-2.18947e-05
1.24406e-05
-5.38267e-06
2.68029e-05
1.30516e-06
3.49946e-05
-1.47718e-05
3.09003e-05
-3.8626e-05
2.33453e-05
-4.85039e-05
1.70486e-05
-5.32474e-05
1.47195e-05
-5.38952e-05
1.72013e-05
-5.1222e-05
2.74994e-05
-4.69214e-05
3.73016e-05
-4.4006e-05
4.18404e-05
-3.86334e-05
4.595e-05
-3.15435e-05
4.16228e-05
-2.89245e-05
3.4356e-05
-3.18014e-05
-3.40528e-05
1.62934e-06
-1.43224e-05
3.10025e-06
-2.12301e-05
3.25176e-06
-2.45473e-05
1.64933e-06
-2.69701e-05
-1.56643e-06
-2.78797e-05
-4.86233e-06
-2.74177e-05
-8.98988e-06
-2.64965e-05
-8.89906e-06
-2.19855e-05
2.1729e-06
-1.64546e-05
1.53379e-05
-1.18598e-05
2.19426e-05
-2.13765e-05
1.83685e-05
-3.50518e-05
1.30868e-05
-4.32222e-05
8.35028e-06
-4.85108e-05
4.14941e-06
-4.96943e-05
1.56114e-07
-4.72287e-05
-2.71878e-06
-4.40464e-05
-4.66079e-06
-4.20639e-05
-4.486e-06
-3.88081e-05
-1.39196e-06
-3.46375e-05
2.07904e-06
-3.23955e-05
2.93964e-06
-3.2662e-05
-3.275e-05
2.6611e-06
-1.69835e-05
4.13466e-06
-2.27037e-05
4.20517e-06
-2.46179e-05
2.77967e-06
-2.55446e-05
4.94134e-07
-2.55941e-05
-1.81245e-06
-2.51111e-05
-4.05649e-06
-2.42525e-05
-3.94124e-06
-2.21007e-05
3.09762e-07
-2.07056e-05
6.95539e-06
-1.85054e-05
9.56577e-06
-2.39869e-05
5.77092e-06
-3.1257e-05
8.79377e-07
-3.83306e-05
-3.91071e-06
-4.37207e-05
-8.0185e-06
-4.55865e-05
-1.08654e-05
-4.43816e-05
-1.25328e-05
-4.2379e-05
-1.38834e-05
-4.07131e-05
-1.50002e-05
-3.76913e-05
-1.50074e-05
-3.46303e-05
-1.4333e-05
-3.30698e-05
-1.40823e-05
-3.29127e-05
-3.25573e-05
1.62564e-06
-1.86092e-05
2.36787e-06
-2.34459e-05
1.93023e-06
-2.41802e-05
8.26305e-07
-2.44407e-05
-3.48018e-07
-2.44198e-05
-1.32857e-06
-2.41305e-05
-2.01542e-06
-2.35656e-05
-1.27762e-06
-2.28385e-05
5.62911e-07
-2.25462e-05
3.52329e-06
-2.14658e-05
4.05465e-06
-2.45183e-05
1.22015e-06
-2.84224e-05
-3.11243e-06
-3.3998e-05
-7.86436e-06
-3.89688e-05
-1.19284e-05
-4.15224e-05
-1.44825e-05
-4.18274e-05
-1.62315e-05
-4.06299e-05
-1.77479e-05
-3.91967e-05
-1.87342e-05
-3.6705e-05
-1.82549e-05
-3.51096e-05
-1.71176e-05
-3.42071e-05
-1.65137e-05
-3.35166e-05
-3.28e-05
7.20828e-07
-1.933e-05
6.67944e-07
-2.3393e-05
1.41733e-07
-2.3654e-05
-3.62511e-07
-2.39364e-05
-7.08316e-07
-2.4074e-05
-8.73703e-07
-2.39651e-05
-7.16648e-07
-2.37227e-05
-5.28952e-08
-2.35023e-05
9.55413e-07
-2.35545e-05
2.55925e-06
-2.30696e-05
2.77881e-06
-2.47378e-05
1.48506e-06
-2.71287e-05
-1.6246e-06
-3.08883e-05
-6.16553e-06
-3.44278e-05
-1.05187e-05
-3.71692e-05
-1.35647e-05
-3.87814e-05
-1.53173e-05
-3.88773e-05
-1.6196e-05
-3.8318e-05
-1.67769e-05
-3.61241e-05
-1.73886e-05
-3.44977e-05
-1.76345e-05
-3.39612e-05
-1.76059e-05
-3.35451e-05
-3.28601e-05
2.4717e-07
-1.95772e-05
6.47787e-08
-2.32107e-05
-1.92247e-07
-2.3397e-05
-4.41541e-07
-2.36872e-05
-5.86606e-07
-2.39289e-05
-4.95854e-07
-2.40559e-05
-1.57194e-07
-2.40613e-05
3.80979e-07
-2.40404e-05
1.05541e-06
-2.42289e-05
2.10612e-06
-2.41203e-05
2.49086e-06
-2.51225e-05
2.3689e-06
-2.70067e-05
1.10564e-06
-2.9625e-05
-1.45182e-06
-3.18703e-05
-4.61584e-06
-3.40051e-05
-7.73381e-06
-3.56635e-05
-1.02917e-05
-1.2512e-05
-1.39573e-05
-1.56938e-05
-1.73907e-05
-1.84633e-05
7.02771e-08
6.25891e-09
-4.2645e-08
-1.15088e-07
-2.47148e-07
-2.85258e-07
-1.82828e-07
1.18993e-07
4.80072e-07
1.20978e-06
1.72799e-06
1.73315e-06
7.41525e-07
-9.92839e-07
-3.12236e-06
)
;

boundaryField
{
    leftWall
    {
        type            calculated;
        value           uniform 0;
    }
    rightWall
    {
        type            calculated;
        value           nonuniform 0();
    }
    lowerWall
    {
        type            calculated;
        value           nonuniform List<scalar> 
22
(
1.9612e-22
3.08219e-22
-7.10341e-23
-1.15061e-22
4.90911e-23
1.36509e-23
-3.44458e-22
1.4406e-22
-1.51352e-22
-9.59103e-23
-3.70433e-23
2.22717e-22
2.90863e-22
1.57466e-22
8.64583e-23
8.5611e-23
-2.06061e-22
1.77468e-22
-1.92534e-22
-4.6192e-22
-1.62856e-23
3.76913e-22
)
;
    }
    atmosphere
    {
        type            calculated;
        value           nonuniform 0();
    }
    defaultFaces
    {
        type            empty;
        value           nonuniform 0();
    }
    procBoundary0to1
    {
        type            processor;
        value           nonuniform List<scalar> 
26
(
2.85297e-06
3.3108e-06
6.31355e-06
5.39711e-06
4.75808e-06
2.79157e-06
2.57418e-06
3.49232e-06
1.58308e-05
1.28419e-05
4.50408e-05
0.000120931
0.000115329
9.08819e-05
4.6277e-05
2.79382e-06
5.15861e-05
2.21106e-05
0.000103278
3.71516e-05
2.4432e-05
1.63665e-06
-1.42751e-05
-1.62711e-05
-1.7546e-05
-1.92395e-05
)
;
    }
    procBoundary0to2
    {
        type            processor;
        value           nonuniform List<scalar> 
24
(
-3.63193e-05
-3.60977e-05
-3.46787e-05
-3.27613e-05
-3.22643e-05
-3.24726e-05
-3.20839e-05
-1.96475e-05
-2.31466e-05
-2.33481e-05
-2.36147e-05
-2.37969e-05
-2.40178e-05
-2.41637e-05
-2.43422e-05
-2.45899e-05
-2.485e-05
-2.56407e-05
-2.70118e-05
-2.86333e-05
-3.01359e-05
-3.18756e-05
-5.88747e-06
-3.28983e-05
)
;
    }
}


// ************************************************************************* //
