/*--------------------------------*- C++ -*----------------------------------*\
| =========                 |                                                 |
| \\      /  F ield         | OpenFOAM: The Open Source CFD Toolbox           |
|  \\    /   O peration     | Version:  2.4.0                                 |
|   \\  /    A nd           | Web:      www.OpenFOAM.org                      |
|    \\/     M anipulation  |                                                 |
\*---------------------------------------------------------------------------*/
FoamFile
{
    version     2.0;
    format      ascii;
    class       surfaceScalarField;
    location    "0.5";
    object      phi.mercury;
}
// * * * * * * * * * * * * * * * * * * * * * * * * * * * * * * * * * * * * * //

dimensions      [0 3 -1 0 0 0 0];

internalField   nonuniform List<scalar> 
1101
(
2.7325e-06
-2.7325e-06
5.63137e-06
-2.89887e-06
7.80416e-06
-2.17279e-06
1.14016e-05
-3.5974e-06
1.37499e-05
-2.34835e-06
1.60119e-05
-2.26195e-06
1.9215e-05
-3.20313e-06
2.23143e-05
-3.09935e-06
2.5153e-05
-2.83867e-06
2.67207e-05
-1.56768e-06
2.83987e-05
-1.67804e-06
3.06136e-05
-2.2149e-06
3.26558e-05
-2.04216e-06
3.37256e-05
-1.06983e-06
3.30865e-05
6.39162e-07
3.09901e-05
2.09636e-06
2.69242e-05
4.06595e-06
2.16141e-05
5.31004e-06
1.61057e-05
5.50839e-06
1.20505e-05
4.05521e-06
8.19768e-06
3.85283e-06
5.3447e-06
2.74037e-06
-5.47287e-06
5.63217e-06
-5.79066e-06
7.95532e-06
-4.49594e-06
1.12962e-05
-6.93825e-06
1.36744e-05
-4.72662e-06
1.61885e-05
-4.77598e-06
1.93714e-05
-6.38608e-06
2.22557e-05
-5.98357e-06
2.487e-05
-5.45304e-06
2.6752e-05
-3.44964e-06
2.90877e-05
-4.01372e-06
3.12622e-05
-4.38947e-06
3.27191e-05
-3.49905e-06
3.33936e-05
-1.74435e-06
3.36423e-05
3.90546e-07
3.14674e-05
4.27119e-06
2.74443e-05
8.08906e-06
2.18178e-05
1.09365e-05
1.68226e-05
1.05036e-05
1.24217e-05
8.45609e-06
8.26751e-06
8.00706e-06
1.03014e-05
2.75646e-06
-8.24227e-06
5.56121e-06
-8.61035e-06
8.13322e-06
-7.07937e-06
1.1105e-05
-9.93276e-06
1.36799e-05
-7.3174e-06
1.65041e-05
-7.6207e-06
1.95025e-05
-9.42092e-06
2.20369e-05
-8.55275e-06
2.44086e-05
-7.86409e-06
2.69627e-05
-6.04407e-06
3.00114e-05
-7.12122e-06
3.20941e-05
-6.52611e-06
3.36612e-05
-5.10826e-06
3.42362e-05
-2.33765e-06
3.32177e-05
1.40699e-06
3.12071e-05
6.28178e-06
2.75557e-05
1.17404e-05
2.21471e-05
1.63451e-05
1.6976e-05
1.56747e-05
1.32961e-05
1.21361e-05
1.00681e-05
1.1235e-05
1.4056e-05
2.76156e-06
-1.28616e-05
5.45351e-06
-1.32926e-05
8.41455e-06
-1.18855e-05
1.08015e-05
-1.47077e-05
1.36706e-05
-1.23959e-05
1.67217e-05
-1.32284e-05
1.94305e-05
-1.54244e-05
2.16009e-05
-1.41799e-05
2.42096e-05
-1.43711e-05
2.73774e-05
-1.34667e-05
3.0213e-05
-1.49603e-05
3.16004e-05
-1.31308e-05
3.26264e-05
-1.13957e-05
3.29417e-05
-7.22438e-06
3.40925e-05
-2.02013e-06
3.33319e-05
6.64624e-06
2.95849e-05
1.5466e-05
2.43212e-05
2.16085e-05
1.8138e-05
2.18579e-05
1.2648e-05
1.7626e-05
8.97037e-06
1.49127e-05
1.76293e-05
2.746e-06
-3.54357e-05
5.31714e-06
-3.61943e-05
8.64704e-06
-3.52637e-05
1.03334e-05
-3.83402e-05
1.35513e-05
-3.722e-05
1.69384e-05
-3.92031e-05
1.87372e-05
-4.15235e-05
2.11362e-05
-4.12542e-05
2.40822e-05
-4.30184e-05
2.74413e-05
-4.36222e-05
2.94267e-05
-4.57156e-05
3.1583e-05
-4.48841e-05
3.35593e-05
-4.42857e-05
3.53544e-05
-4.01982e-05
3.47159e-05
-3.3625e-05
3.19068e-05
-1.55225e-05
2.94092e-05
7.29042e-06
2.48716e-05
2.53339e-05
1.87395e-05
2.79711e-05
1.21468e-05
2.42185e-05
7.12499e-06
1.99345e-05
1.99962e-05
2.34702e-06
-7.20502e-05
4.5884e-06
-7.08627e-05
7.59042e-06
-7.02794e-05
9.13696e-06
-6.55018e-05
1.14299e-05
-6.40024e-05
1.4157e-05
-6.0071e-05
1.61574e-05
-5.14665e-05
1.85204e-05
-4.59903e-05
2.10868e-05
-4.31873e-05
2.34893e-05
-4.10063e-05
2.53425e-05
-3.96041e-05
2.78423e-05
-3.8359e-05
2.96695e-05
-3.69765e-05
3.07581e-05
-3.45295e-05
3.13906e-05
-3.50535e-05
3.06502e-05
-3.99751e-05
2.65942e-05
-1.67868e-05
2.20281e-05
1.56075e-05
1.73322e-05
3.13842e-05
1.17534e-05
2.97657e-05
5.82026e-06
2.58675e-05
2.30249e-05
1.52306e-06
-5.02488e-05
2.89524e-06
-4.88884e-05
4.09865e-06
-4.85055e-05
5.21588e-06
-4.32919e-05
5.6838e-06
-4.18533e-05
5.54713e-06
-3.83673e-05
5.55125e-06
-3.17363e-05
6.43259e-06
-2.79001e-05
8.03689e-06
-2.62552e-05
9.47994e-06
-2.42177e-05
1.04396e-05
-2.20894e-05
1.06079e-05
-1.99185e-05
1.02288e-05
-1.64675e-05
1.34897e-05
-1.26628e-05
1.96733e-05
-1.39735e-05
3.05286e-05
-2.90823e-05
2.75653e-05
-3.53375e-05
1.63989e-05
2.29879e-06
1.2783e-05
2.62156e-05
1.05611e-05
3.16006e-05
5.6989e-06
3.07227e-05
2.61496e-05
1.64383e-07
-2.24767e-05
3.62555e-07
-2.24265e-05
7.14257e-07
-2.27988e-05
1.13916e-06
-2.19714e-05
2.02067e-06
-2.23373e-05
3.41418e-06
-2.37624e-05
4.61119e-06
-2.26704e-05
6.64569e-06
-2.31276e-05
9.01955e-06
-2.36074e-05
1.14386e-05
-2.2394e-05
1.29053e-05
-1.91983e-05
1.4288e-05
-1.69627e-05
1.41683e-05
-1.23426e-05
1.10809e-05
-6.77392e-06
4.52957e-06
1.10723e-06
1.06054e-05
-4.83312e-07
2.15117e-05
-2.51006e-05
1.41242e-05
-1.46547e-05
4.14349e-06
1.66792e-05
4.94791e-06
2.70662e-05
4.95564e-06
3.06531e-05
2.76126e-05
3.42618e-07
-1.37143e-05
9.21692e-07
-1.39335e-05
1.4671e-06
-1.43349e-05
2.36924e-06
-1.41005e-05
3.41817e-06
-1.47513e-05
5.94748e-06
-1.72842e-05
8.99264e-06
-1.70391e-05
1.37579e-05
-1.88311e-05
1.85302e-05
-1.93151e-05
2.20132e-05
-1.79052e-05
2.41199e-05
-1.51095e-05
2.53527e-05
-1.38906e-05
2.61407e-05
-1.10937e-05
2.96207e-05
-9.64689e-06
3.52299e-05
-6.71101e-06
3.3294e-05
1.70769e-06
3.00723e-05
1.53331e-05
3.54876e-05
-7.90855e-06
7.10631e-06
1.38782e-06
-2.75221e-06
1.30365e-05
3.828e-06
1.6893e-05
1.43121e-05
5.50013e-07
-1.69326e-05
1.28377e-06
-1.73775e-05
1.89853e-06
-1.76726e-05
3.02676e-06
-1.78504e-05
4.17538e-06
-1.86808e-05
5.6047e-06
-2.19969e-05
9.24755e-06
-2.35046e-05
1.52066e-05
-2.77687e-05
2.01461e-05
-2.74356e-05
2.4552e-05
-2.49339e-05
2.87043e-05
-2.04536e-05
3.22841e-05
-1.71881e-05
3.29951e-05
-9.95308e-06
3.15969e-05
-4.9934e-06
2.71052e-05
1.75373e-06
2.56978e-05
5.5867e-06
2.56177e-05
1.56768e-05
2.6517e-05
1.68506e-05
2.4434e-05
8.32843e-07
8.69234e-06
1.33696e-06
7.18853e-06
2.27626e-06
-5.10424e-06
7.57811e-07
-1.82905e-05
1.50693e-06
-1.88168e-05
1.79772e-06
-1.87535e-05
1.50912e-06
-1.84526e-05
1.30914e-06
-1.93209e-05
3.29609e-06
-2.48784e-05
8.89515e-06
-3.02965e-05
1.72288e-05
-3.78383e-05
2.43007e-05
-3.58013e-05
3.02432e-05
-3.18572e-05
3.48554e-05
-2.56826e-05
3.91012e-05
-2.18268e-05
4.22081e-05
-1.28199e-05
4.49024e-05
-7.22788e-06
4.55398e-05
2.14539e-06
4.24773e-05
1.00522e-05
4.24608e-05
2.07152e-05
2.84573e-05
3.07946e-05
3.75874e-05
1.7293e-05
4.18489e-05
-3.66489e-06
3.94651e-05
-1.22126e-05
-1.84238e-05
8.84553e-09
-2.69294e-05
2.81483e-07
-2.64286e-05
1.32083e-06
-2.40042e-05
2.5847e-06
-2.07457e-05
1.33636e-06
-1.81644e-05
-1.81953e-07
-2.37368e-05
3.46667e-06
-3.43879e-05
1.27142e-05
-4.75235e-05
2.09212e-05
-4.51205e-05
2.66795e-05
-3.93078e-05
3.05486e-05
-3.1194e-05
3.30366e-05
-2.57749e-05
3.69259e-05
-1.77535e-05
4.03647e-05
-1.1311e-05
4.38471e-05
-1.50713e-06
4.63861e-05
7.68352e-06
5.05747e-05
1.8371e-05
3.77087e-05
2.34859e-05
5.26506e-05
1.80393e-05
6.00543e-05
5.80425e-06
6.67593e-05
-2.2349e-05
-4.02336e-05
2.34934e-06
-9.30656e-05
3.58878e-06
-9.15506e-05
1.51231e-06
-8.70542e-05
-8.12472e-06
-7.96943e-05
-1.82773e-05
-6.48782e-05
-1.83553e-05
-6.07292e-05
-1.29874e-05
-6.59021e-05
-1.19016e-05
-7.7664e-05
-8.07977e-06
-6.57153e-05
-1.43413e-06
-5.42836e-05
4.5531e-06
-4.11826e-05
1.02323e-05
-3.43912e-05
1.86747e-05
-2.93105e-05
2.48638e-05
-2.09867e-05
3.19505e-05
-1.23281e-05
3.81718e-05
-1.68103e-06
4.57755e-05
8.95838e-06
5.58486e-05
1.28733e-05
4.23889e-05
1.78964e-05
6.09386e-05
7.2967e-06
7.49568e-05
-1.25866e-05
-2.97789e-05
2.97697e-06
-5.69715e-05
5.21959e-06
-5.58604e-05
9.22897e-06
-5.68713e-05
1.40906e-05
-8.74483e-05
1.06684e-05
-8.18313e-05
-9.15611e-06
-9.23006e-05
-4.07047e-05
-0.000138891
-7.34937e-05
-0.000144741
-8.97477e-05
-0.000112062
-8.40574e-05
-9.77395e-05
-7.34288e-05
-8.27082e-05
-6.38683e-05
-5.98278e-05
-5.18266e-05
-4.6695e-05
-3.81905e-05
-3.49583e-05
-2.274e-05
-2.62692e-05
-5.31705e-06
-1.75284e-05
1.47712e-05
-1.26924e-05
3.13062e-05
-6.6444e-06
4.64911e-05
-6.02371e-07
5.45523e-05
-1.00308e-05
7.76166e-05
-4.29476e-06
-1.42609e-05
1.97916e-05
-3.76772e-05
4.16271e-05
-3.84475e-05
6.23569e-05
-3.91491e-05
8.41375e-05
-4.37285e-05
8.08612e-05
-8.89349e-06
2.73077e-05
3.28469e-05
-4.72202e-05
1.47763e-05
-0.000106294
-2.35144e-05
-0.000121659
-8.03517e-05
-0.000112966
-0.000102291
-9.41629e-05
-0.00014021
-8.25792e-05
-0.000117332
-7.51708e-05
-0.000100535
-6.98762e-05
-8.42096e-05
-6.43467e-05
-7.15177e-05
-5.66799e-05
-5.88022e-05
-4.24779e-05
-5.16128e-05
-2.10668e-05
-4.30125e-05
-1.12397e-07
-3.38191e-05
1.73334e-05
-4.1419e-05
3.67322e-05
-3.84476e-05
-5.00861e-05
-2.25223e-05
-1.51558e-05
-3.66448e-05
-2.43256e-05
-4.52267e-05
-3.05685e-05
-5.2491e-05
-3.64636e-05
-3.24067e-05
-2.89562e-05
1.76373e-05
-1.43682e-05
9.40993e-05
-1.44292e-05
0.0001197
3.36732e-05
7.94094e-05
3.35046e-05
3.05636e-05
-8.00568e-06
-3.14169e-05
-2.60759e-05
-5.93538e-05
-3.29106e-05
-5.82769e-05
-5.56596e-05
-5.28069e-05
-5.8407e-05
-4.71846e-05
-7.81552e-05
-4.40698e-05
-6.93758e-05
-3.97482e-05
-0.000105083
-3.54248e-05
-0.000121146
-2.80868e-05
-0.000113016
-2.13651e-05
-0.000112061
-9.47353e-06
-0.000102561
-0.000112386
-4.49532e-06
-1.06603e-05
-8.07336e-06
-2.07478e-05
-9.75982e-06
-2.88823e-05
-1.00294e-05
-3.61942e-05
-1.4996e-06
-3.74851e-05
1.41697e-05
-2.99977e-05
3.59186e-05
-3.60993e-05
3.10898e-05
3.90342e-05
1.21139e-05
5.2886e-05
1.55246e-07
4.0361e-06
6.26245e-06
-2.96249e-05
4.18157e-05
-4.93913e-05
5.99044e-05
-5.57908e-05
7.01237e-05
-5.23995e-05
7.98867e-05
-4.9413e-05
9.23943e-05
-3.99817e-05
6.53269e-05
-6.50197e-06
3.47528e-05
-1.58101e-05
2.13604e-05
-3.36293e-05
1.22283e-05
-3.95626e-05
1.79688e-05
-5.8069e-05
2.25252e-05
-4.77126e-05
-5.51925e-05
8.31892e-07
-1.14917e-05
-3.55577e-07
-1.95602e-05
-2.59548e-06
-2.66424e-05
-5.29337e-06
-3.34967e-05
-4.12307e-06
-3.86559e-05
-2.55608e-07
-3.38652e-05
7.59666e-06
-4.39516e-05
3.58576e-05
1.07731e-05
4.48197e-05
4.39245e-05
2.78868e-05
2.09703e-05
3.39786e-06
-5.13407e-06
1.32428e-06
-4.73157e-05
3.03385e-06
-5.74981e-05
6.03318e-06
-5.53972e-05
6.67108e-06
-5.00491e-05
1.04094e-05
-4.37219e-05
4.13322e-05
-3.67568e-05
7.57587e-05
-3.959e-05
0.000100209
-3.76485e-05
0.000114775
-3.57426e-05
0.000103383
-3.5122e-05
0.000106368
-3.84877e-05
-4.39451e-05
-3.28579e-06
-8.20528e-06
-4.66031e-06
-1.81853e-05
-6.15308e-06
-2.51494e-05
-8.25456e-06
-3.1395e-05
-1.15153e-05
-3.5395e-05
-1.14134e-05
-3.3967e-05
-1.82328e-05
-3.71323e-05
1.04761e-05
-1.79356e-05
3.97317e-05
1.46694e-05
4.50334e-05
1.56696e-05
4.64783e-05
-6.57754e-06
4.1882e-05
-4.27177e-05
4.04418e-05
-5.60564e-05
4.45878e-05
-5.95417e-05
5.07622e-05
-5.62227e-05
5.57801e-05
-4.87393e-05
5.56463e-05
-3.66232e-05
5.02605e-05
-3.42047e-05
4.67079e-05
-3.40964e-05
3.84017e-05
-2.74364e-05
3.65341e-05
-3.32543e-05
3.71172e-05
-3.90706e-05
-4.39788e-05
4.4895e-06
-1.26943e-05
6.06481e-06
-1.97603e-05
5.31227e-06
-2.43967e-05
2.49055e-06
-2.85732e-05
-1.80861e-06
-3.10957e-05
-5.06187e-06
-3.07136e-05
-1.15704e-05
-3.06236e-05
-7.61198e-06
-2.18937e-05
1.2439e-05
-5.38104e-06
2.68021e-05
1.30732e-06
3.49951e-05
-1.47694e-05
3.09019e-05
-3.86235e-05
2.33479e-05
-4.85014e-05
1.70522e-05
-5.32452e-05
1.47238e-05
-5.38936e-05
1.7206e-05
-5.1221e-05
2.75041e-05
-4.6921e-05
3.73057e-05
-4.40063e-05
4.18435e-05
-3.86342e-05
4.59521e-05
-3.15447e-05
4.16239e-05
-2.89256e-05
3.43562e-05
-3.18023e-05
-3.40534e-05
1.62915e-06
-1.43231e-05
3.09977e-06
-2.12307e-05
3.25095e-06
-2.45478e-05
1.64821e-06
-2.69703e-05
-1.56779e-06
-2.78796e-05
-4.86387e-06
-2.74173e-05
-8.99153e-06
-2.64958e-05
-8.90061e-06
-2.19844e-05
2.17183e-06
-1.6453e-05
1.53375e-05
-1.18578e-05
2.19432e-05
-2.13743e-05
1.837e-05
-3.50495e-05
1.30891e-05
-4.32198e-05
8.3533e-06
-4.85087e-05
4.15279e-06
-4.96925e-05
1.59601e-07
-4.72274e-05
-2.7155e-06
-4.40458e-05
-4.65783e-06
-4.20637e-05
-4.48352e-06
-3.88084e-05
-1.38989e-06
-3.46379e-05
2.08066e-06
-3.23957e-05
2.94075e-06
-3.26619e-05
-3.27496e-05
2.66095e-06
-1.69837e-05
4.13428e-06
-2.27039e-05
4.20454e-06
-2.46179e-05
2.77878e-06
-2.55446e-05
4.93066e-07
-2.55938e-05
-1.81366e-06
-2.51105e-05
-4.05772e-06
-2.42516e-05
-3.94232e-06
-2.20995e-05
3.0909e-07
-2.07041e-05
6.95535e-06
-1.85035e-05
9.56645e-06
-2.39848e-05
5.77237e-06
-3.12548e-05
8.81521e-07
-3.83285e-05
-3.90806e-06
-4.37188e-05
-8.01555e-06
-4.55848e-05
-1.08625e-05
-4.43805e-05
-1.25299e-05
-4.23782e-05
-1.38809e-05
-4.07128e-05
-1.49979e-05
-3.76911e-05
-1.50055e-05
-3.46302e-05
-1.43313e-05
-3.30695e-05
-1.40811e-05
-3.29122e-05
-3.25564e-05
1.62553e-06
-1.86091e-05
2.3676e-06
-2.34458e-05
1.92975e-06
-2.41801e-05
8.25643e-07
-2.44404e-05
-3.4883e-07
-2.44194e-05
-1.32947e-06
-2.41298e-05
-2.0163e-06
-2.35647e-05
-1.27833e-06
-2.28373e-05
5.62553e-07
-2.25447e-05
3.52345e-06
-2.1464e-05
4.0554e-06
-2.45164e-05
1.22153e-06
-2.84205e-05
-3.11051e-06
-3.39962e-05
-7.86201e-06
-3.89671e-05
-1.19259e-05
-4.15211e-05
-1.44799e-05
-4.18263e-05
-1.62291e-05
-4.06292e-05
-1.77455e-05
-3.91961e-05
-1.87321e-05
-3.67046e-05
-1.82528e-05
-3.51091e-05
-1.71158e-05
-3.42066e-05
-1.6512e-05
-3.35159e-05
-3.27991e-05
7.20745e-07
-1.93298e-05
6.67734e-07
-2.33928e-05
1.41373e-07
-2.36537e-05
-3.63008e-07
-2.39361e-05
-7.08917e-07
-2.40735e-05
-8.74349e-07
-2.39644e-05
-7.17242e-07
-2.37217e-05
-5.33193e-08
-2.35011e-05
9.55292e-07
-2.35531e-05
2.55955e-06
-2.3068e-05
2.77961e-06
-2.47361e-05
1.48634e-06
-2.7127e-05
-1.62289e-06
-3.08867e-05
-6.1636e-06
-3.44264e-05
-1.05165e-05
-3.7168e-05
-1.35625e-05
-3.87805e-05
-1.53149e-05
-3.88764e-05
-1.61939e-05
-3.83175e-05
-1.67746e-05
-3.61235e-05
-1.73866e-05
-3.44973e-05
-1.76325e-05
-3.39607e-05
-1.76042e-05
-3.35446e-05
-3.28592e-05
2.47101e-07
-1.95769e-05
6.46148e-08
-2.32103e-05
-1.92514e-07
-2.33966e-05
-4.419e-07
-2.36867e-05
-5.87027e-07
-2.39284e-05
-4.96288e-07
-2.40552e-05
-1.57559e-07
-2.40604e-05
3.80772e-07
-2.40394e-05
1.05547e-06
-2.42276e-05
2.10654e-06
-2.41189e-05
2.49169e-06
-2.51211e-05
2.37012e-06
-2.70053e-05
1.10716e-06
-2.96237e-05
-1.45008e-06
-3.18692e-05
-4.61394e-06
-3.40041e-05
-7.73166e-06
-3.56626e-05
-1.02897e-05
-1.25097e-05
-1.39552e-05
-1.56916e-05
-1.73887e-05
-1.84611e-05
7.02327e-08
6.14455e-09
-4.28325e-08
-1.1533e-07
-2.4742e-07
-2.85515e-07
-1.83015e-07
1.18956e-07
4.80262e-07
1.21027e-06
1.72882e-06
1.73431e-06
7.42942e-07
-9.91225e-07
-3.12059e-06
)
;

boundaryField
{
    leftWall
    {
        type            fixedValue;
        value           uniform 0;
    }
    rightWall
    {
        type            fixedValue;
        value           nonuniform 0();
    }
    lowerWall
    {
        type            fixedValue;
        value           uniform 0;
    }
    atmosphere
    {
        type            calculated;
        value           nonuniform 0();
    }
    defaultFaces
    {
        type            empty;
        value           nonuniform 0();
    }
    procBoundary0to1
    {
        type            processor;
        value           nonuniform List<scalar> 
26
(
2.85297e-06
3.3108e-06
6.31355e-06
5.39712e-06
4.75808e-06
2.79157e-06
2.57419e-06
3.49232e-06
1.58333e-05
1.31808e-05
4.01928e-05
7.91098e-05
8.88779e-05
9.03007e-05
4.59411e-05
2.31685e-06
0.000117113
2.30859e-05
0.000103274
3.71511e-05
2.4431e-05
1.63697e-06
-1.42742e-05
-1.62698e-05
-1.7544e-05
-1.92374e-05
)
;
    }
    procBoundary0to2
    {
        type            processor;
        value           nonuniform List<scalar> 
24
(
-3.63187e-05
-3.6097e-05
-3.46784e-05
-3.27608e-05
-3.2264e-05
-3.24721e-05
-3.20835e-05
-1.96472e-05
-2.31463e-05
-2.33477e-05
-2.36143e-05
-2.37963e-05
-2.40171e-05
-2.41629e-05
-2.43413e-05
-2.45889e-05
-2.48488e-05
-2.56395e-05
-2.70107e-05
-2.86323e-05
-3.01349e-05
-3.18748e-05
-5.88561e-06
-3.28976e-05
)
;
    }
}


// ************************************************************************* //
