/*--------------------------------*- C++ -*----------------------------------*\
| =========                 |                                                 |
| \\      /  F ield         | OpenFOAM: The Open Source CFD Toolbox           |
|  \\    /   O peration     | Version:  2.4.0                                 |
|   \\  /    A nd           | Web:      www.OpenFOAM.org                      |
|    \\/     M anipulation  |                                                 |
\*---------------------------------------------------------------------------*/
FoamFile
{
    version     2.0;
    format      ascii;
    class       surfaceScalarField;
    location    "0.5";
    object      phi.air;
}
// * * * * * * * * * * * * * * * * * * * * * * * * * * * * * * * * * * * * * //

dimensions      [0 3 -1 0 0 0 0];

internalField   nonuniform List<scalar> 
1101
(
2.7325e-06
-2.73248e-06
5.63137e-06
-2.89885e-06
7.80417e-06
-2.17278e-06
1.14016e-05
-3.59738e-06
1.37499e-05
-2.34832e-06
1.60119e-05
-2.26193e-06
1.9215e-05
-3.20311e-06
2.23144e-05
-3.09934e-06
2.5153e-05
-2.83868e-06
2.67207e-05
-1.56769e-06
2.83987e-05
-1.67804e-06
3.06136e-05
-2.21491e-06
3.26558e-05
-2.04216e-06
3.37256e-05
-1.06981e-06
3.30864e-05
6.39186e-07
3.09901e-05
2.09639e-06
2.69241e-05
4.06598e-06
2.16141e-05
5.31005e-06
1.61057e-05
5.50841e-06
1.20505e-05
4.05525e-06
8.19769e-06
3.85289e-06
5.34478e-06
2.74037e-06
-5.47287e-06
5.63217e-06
-5.79066e-06
7.95533e-06
-4.49594e-06
1.12962e-05
-6.93825e-06
1.36745e-05
-4.72662e-06
1.61885e-05
-4.77598e-06
1.93715e-05
-6.38609e-06
2.22557e-05
-5.98359e-06
2.48701e-05
-5.45308e-06
2.6752e-05
-3.44969e-06
2.90877e-05
-4.01377e-06
3.12622e-05
-4.38952e-06
3.27191e-05
-3.49908e-06
3.33936e-05
-1.74435e-06
3.36422e-05
3.90592e-07
3.14674e-05
4.27128e-06
2.74443e-05
8.08919e-06
2.18178e-05
1.09367e-05
1.68226e-05
1.05037e-05
1.24217e-05
8.4562e-06
8.26753e-06
8.0072e-06
1.03016e-05
2.75646e-06
-8.20127e-06
5.56122e-06
-8.5627e-06
8.13322e-06
-7.04397e-06
1.1105e-05
-9.85967e-06
1.36799e-05
-7.2667e-06
1.65042e-05
-7.55516e-06
1.95025e-05
-9.31065e-06
2.20369e-05
-8.44724e-06
2.44087e-05
-7.74736e-06
2.69628e-05
-5.92551e-06
3.00114e-05
-6.95843e-06
3.20941e-05
-6.374e-06
3.36612e-05
-4.98485e-06
3.42361e-05
-2.27687e-06
3.32177e-05
1.41226e-06
3.1207e-05
6.28209e-06
2.75556e-05
1.17406e-05
2.21471e-05
1.63452e-05
1.6976e-05
1.56748e-05
1.32961e-05
1.21362e-05
1.00682e-05
1.12352e-05
1.40562e-05
2.76173e-06
-1.04877e-05
5.45348e-06
-1.07918e-05
8.41502e-06
-9.53045e-06
1.08017e-05
-1.18414e-05
1.3671e-05
-9.69933e-06
1.6723e-05
-1.02204e-05
1.94316e-05
-1.18589e-05
2.16018e-05
-1.04778e-05
2.42109e-05
-1.03495e-05
2.73787e-05
-9.18502e-06
3.02118e-05
-1.01967e-05
3.15956e-05
-8.17306e-06
3.26186e-05
-6.31719e-06
3.29288e-05
-2.44337e-06
3.40907e-05
7.83428e-07
3.33318e-05
7.36993e-06
2.95848e-05
1.55342e-05
2.43212e-05
2.16092e-05
1.8138e-05
2.18581e-05
1.26481e-05
1.76262e-05
8.97041e-06
1.49129e-05
1.76295e-05
2.75244e-06
-2.24449e-05
5.31104e-06
-2.28525e-05
8.66655e-06
-2.21281e-05
1.03228e-05
-2.38873e-05
1.35632e-05
-2.30002e-05
1.6976e-05
-2.42602e-05
1.87479e-05
-2.52061e-05
2.11508e-05
-2.45596e-05
2.40863e-05
-2.54468e-05
2.7449e-05
-2.51367e-05
2.94045e-05
-2.56045e-05
3.15409e-05
-2.39828e-05
3.34737e-05
-2.2303e-05
3.52434e-05
-1.79261e-05
3.44941e-05
-1.02953e-05
3.17732e-05
1.82881e-06
2.93698e-05
1.59931e-05
2.48713e-05
2.64606e-05
1.87395e-05
2.80245e-05
1.21469e-05
2.42189e-05
7.12505e-06
1.99346e-05
1.99964e-05
2.32568e-06
-4.58746e-05
4.47122e-06
-4.5089e-05
7.53256e-06
-4.52122e-05
8.86873e-06
-4.16121e-05
1.11557e-05
-4.12894e-05
1.37667e-05
-3.92648e-05
1.54049e-05
-3.32268e-05
1.75189e-05
-2.99284e-05
1.97759e-05
-2.81452e-05
2.19376e-05
-2.61051e-05
2.33864e-05
-2.3699e-05
2.55356e-05
-2.17984e-05
2.7057e-05
-1.89295e-05
2.79389e-05
-1.56229e-05
2.83309e-05
-1.37714e-05
2.87697e-05
-1.69944e-05
2.52016e-05
2.76224e-06
2.16642e-05
2.34647e-05
1.72875e-05
3.28063e-05
1.17533e-05
2.98132e-05
5.82032e-06
2.58676e-05
2.3025e-05
3.5074e-07
-1.6873e-05
8.51537e-07
-1.67878e-05
1.10933e-06
-1.71691e-05
2.00215e-06
-1.61783e-05
2.37929e-06
-1.62811e-05
3.19124e-06
-1.75246e-05
4.75145e-06
-1.67866e-05
6.36959e-06
-1.66651e-05
8.10195e-06
-1.71711e-05
9.50816e-06
-1.60344e-05
1.03109e-05
-1.39492e-05
1.02199e-05
-1.19568e-05
9.68663e-06
-8.83299e-06
1.0334e-05
-5.54213e-06
1.47193e-05
-2.32626e-06
2.30629e-05
1.26524e-06
2.34377e-05
-4.2418e-07
1.42684e-05
1.8614e-05
1.24748e-05
3.05989e-05
1.05423e-05
3.20286e-05
5.69897e-06
3.07241e-05
2.61496e-05
1.61515e-07
-1.65336e-05
3.7026e-07
-1.65727e-05
7.17303e-07
-1.71171e-05
1.11287e-06
-1.63457e-05
2.01556e-06
-1.69907e-05
3.42003e-06
-1.88239e-05
4.57532e-06
-1.79052e-05
6.65064e-06
-1.87263e-05
9.00568e-06
-1.95198e-05
1.14869e-05
-1.85125e-05
1.29208e-05
-1.53817e-05
1.42792e-05
-1.33149e-05
1.40356e-05
-8.59021e-06
1.05494e-05
-2.05788e-06
3.71913e-06
4.51393e-06
3.79172e-06
3.68036e-06
1.30095e-05
1.47309e-05
8.73524e-06
1.82828e-05
2.78794e-06
2.61229e-05
4.88203e-06
2.93973e-05
4.95547e-06
3.07322e-05
2.76131e-05
1.92132e-07
-1.6701e-05
6.82644e-07
-1.70426e-05
1.09564e-06
-1.75194e-05
1.99903e-06
-1.72443e-05
3.07047e-06
-1.80568e-05
5.59878e-06
-2.13406e-05
8.74316e-06
-2.10405e-05
1.36217e-05
-2.36013e-05
1.81835e-05
-2.40795e-05
2.14553e-05
-2.17825e-05
2.32618e-05
-1.71861e-05
2.4231e-05
-1.42806e-05
2.49592e-05
-9.31222e-06
2.90178e-05
-6.10452e-06
3.50414e-05
-1.49799e-06
3.18725e-05
6.85807e-06
2.45163e-05
2.37418e-05
2.70802e-05
3.74455e-05
2.52522e-06
3.18664e-05
-4.35122e-06
2.37627e-05
3.73635e-06
2.11633e-05
1.58733e-05
5.20986e-07
-1.71001e-05
1.23681e-06
-1.76547e-05
1.84245e-06
-1.80565e-05
2.97874e-06
-1.8323e-05
4.13593e-06
-1.91309e-05
5.55293e-06
-2.26899e-05
9.23646e-06
-2.47012e-05
1.52837e-05
-2.96383e-05
2.01327e-05
-2.89059e-05
2.45211e-05
-2.60894e-05
2.86786e-05
-2.12542e-05
3.22622e-05
-1.77889e-05
3.2944e-05
-9.96181e-06
3.1569e-05
-4.72257e-06
2.73398e-05
2.72648e-06
2.54241e-05
8.77334e-06
2.89634e-05
2.0207e-05
3.25926e-05
3.7698e-05
2.74551e-05
5.13384e-05
8.71845e-06
3.12063e-05
6.34914e-06
1.49491e-05
3.30675e-06
7.48972e-07
1.71856e-05
1.49027e-06
1.44931e-05
1.77907e-06
4.26757e-06
1.48283e-06
-1.18483e-05
1.27329e-06
-1.74371e-05
3.28692e-06
-2.21661e-05
8.92308e-06
-2.69994e-05
1.72579e-05
-3.42317e-05
2.43071e-05
-3.32168e-05
3.02358e-05
-3.13121e-05
3.4839e-05
-2.63187e-05
3.90816e-05
-2.18461e-05
4.21751e-05
-1.27441e-05
4.48957e-05
-7.11727e-06
4.55729e-05
2.23406e-06
4.4358e-05
1.00291e-05
4.24532e-05
2.21054e-05
4.80262e-05
3.20389e-05
5.89019e-05
4.38304e-05
5.8921e-05
3.84111e-05
4.76177e-05
1.90898e-05
2.35938e-06
-4.11882e-06
6.01678e-05
-8.81082e-06
5.7022e-05
-3.6071e-06
4.95472e-05
1.94403e-06
3.963e-05
1.29783e-06
3.51316e-05
1.11446e-07
2.85374e-05
3.9062e-06
1.39307e-05
1.31959e-05
6.39263e-06
2.12519e-05
3.39527e-05
2.69558e-05
4.79294e-05
3.07752e-05
-1.13734e-05
3.31144e-05
-2.00543e-05
3.69498e-05
-1.47699e-05
4.03557e-05
-1.01307e-05
4.38213e-05
-2.11953e-06
4.63857e-05
6.15552e-06
5.05024e-05
1.74656e-05
5.94733e-05
2.34608e-05
7.2359e-05
3.10408e-05
9.15481e-05
2.58326e-05
0.000103335
1.85205e-05
5.47825e-07
6.48142e-07
3.39894e-05
4.69099e-07
3.60722e-05
3.82101e-07
4.5456e-05
-1.24466e-05
7.42015e-05
-2.59237e-05
8.83921e-05
-2.5861e-05
6.58374e-05
-1.1154e-05
5.03495e-05
-1.55331e-05
7.19552e-05
-9.18292e-06
5.4434e-05
-5.54136e-06
3.82693e-05
3.34271e-06
3.29918e-05
1.06109e-05
3.28625e-05
1.92084e-05
3.03219e-05
2.54379e-05
3.22589e-05
3.25576e-05
3.91211e-05
3.8574e-05
3.69416e-05
4.58946e-05
2.90393e-05
5.52747e-05
1.34229e-05
6.88085e-05
1.67907e-05
8.42039e-05
1.05021e-05
9.68612e-05
8.85477e-06
-8.13498e-06
-2.29578e-06
-1.73282e-05
-5.9039e-06
-1.59223e-05
-6.13698e-06
-1.72821e-05
5.89362e-06
-1.75901e-05
9.29719e-06
1.12215e-06
-1.5987e-05
2.44768e-05
-4.06558e-05
4.20375e-05
-8.20011e-05
4.82683e-05
-9.37866e-05
1.54686e-05
-9.24238e-05
-5.08538e-07
-8.69304e-05
1.9946e-05
-8.08783e-05
2.99058e-05
-6.85219e-05
2.58547e-05
-4.94114e-05
2.49246e-05
-2.94016e-05
2.90265e-05
-1.00455e-05
3.33872e-05
1.35983e-05
3.71932e-05
3.19526e-05
4.3084e-05
4.65749e-05
4.85377e-05
6.41627e-05
4.61672e-05
7.91234e-05
4.30996e-05
2.70614e-05
1.97927e-05
-3.76716e-05
4.16317e-05
-3.84419e-05
6.23664e-05
-3.91442e-05
8.41657e-05
-4.3727e-05
8.31284e-05
-8.88462e-06
4.66285e-05
3.57444e-05
-2.69045e-05
6.26672e-05
-9.97727e-05
6.10723e-05
-0.000127751
-4.86837e-06
-0.000126828
-4.90774e-05
-0.000104223
-5.41518e-05
-9.4611e-05
-2.2326e-05
-8.36716e-05
-6.89031e-06
-7.48837e-05
1.59358e-05
-7.03914e-05
3.67887e-05
-6.23297e-05
5.36078e-05
-4.8908e-05
5.65303e-05
-3.00792e-05
5.00766e-05
3.4366e-06
5.45377e-05
1.87465e-05
4.53026e-05
4.31462e-05
3.89454e-05
3.78917e-05
-2.25215e-05
-1.51502e-05
-3.66425e-05
-2.43208e-05
-4.5222e-05
-3.05648e-05
-5.24871e-05
-3.64619e-05
-3.24165e-05
-2.89552e-05
1.76527e-05
-1.4329e-05
9.45319e-05
-1.43474e-05
0.000120722
3.42091e-05
7.99755e-05
3.39085e-05
3.46879e-05
-7.92886e-06
-1.21131e-05
-2.35189e-05
-5.14944e-05
-1.37338e-05
-6.21525e-05
-3.72653e-05
-5.80619e-05
-4.09364e-05
-4.7057e-05
-3.37078e-05
-4.36821e-05
-1.60718e-05
-4.56961e-05
2.2616e-06
-4.03407e-05
1.40914e-05
-2.72827e-05
2.01497e-05
-2.34269e-05
1.25763e-05
-5.49713e-06
-1.0842e-06
-7.04921e-06
-4.49406e-06
-1.06561e-05
-8.07076e-06
-2.07441e-05
-9.75621e-06
-2.88793e-05
-1.00254e-05
-3.61927e-05
-1.49594e-06
-3.74848e-05
1.4172e-05
-2.99971e-05
3.59222e-05
-3.60979e-05
3.10948e-05
3.90354e-05
1.21185e-05
5.2884e-05
1.56164e-07
4.03327e-06
6.26002e-06
-2.96277e-05
4.18128e-05
-4.93932e-05
5.99024e-05
-5.57922e-05
7.01241e-05
-5.24014e-05
7.9925e-05
-4.94156e-05
9.33824e-05
-3.99849e-05
7.44205e-05
-5.83243e-06
4.98696e-05
-5.14163e-06
3.43195e-05
-1.31082e-05
2.4734e-05
-2.10834e-05
3.20141e-05
-4.64082e-05
2.66949e-05
-3.54401e-05
-4.69982e-05
8.3255e-07
-1.14887e-05
-3.54155e-07
-1.95574e-05
-2.59334e-06
-2.66401e-05
-5.29096e-06
-3.34951e-05
-4.12078e-06
-3.86549e-05
-2.53285e-07
-3.38646e-05
7.60003e-06
-4.39512e-05
3.58624e-05
1.0773e-05
4.48239e-05
4.39225e-05
2.78892e-05
2.0968e-05
3.39804e-06
-5.13653e-06
1.3228e-06
-4.7318e-05
3.03104e-06
-5.75004e-05
6.02901e-06
-5.53994e-05
6.66438e-06
-5.00509e-05
1.04021e-05
-4.37226e-05
4.13255e-05
-3.67566e-05
7.57515e-05
-3.95895e-05
0.000100204
-3.76466e-05
0.000114772
-3.57392e-05
0.000103381
-3.51185e-05
0.000106367
-3.84844e-05
-4.39414e-05
-3.28531e-06
-8.20334e-06
-4.65922e-06
-1.81835e-05
-6.1514e-06
-2.51479e-05
-8.2525e-06
-3.1394e-05
-1.15131e-05
-3.53944e-05
-1.14111e-05
-3.39666e-05
-1.823e-05
-3.71323e-05
1.04792e-05
-1.79362e-05
3.9734e-05
1.46677e-05
4.50346e-05
1.56674e-05
4.64781e-05
-6.58005e-06
4.18805e-05
-4.27203e-05
4.0439e-05
-5.60589e-05
4.45838e-05
-5.95441e-05
5.07574e-05
-5.62244e-05
5.57752e-05
-4.87403e-05
5.5642e-05
-3.66233e-05
5.02565e-05
-3.42039e-05
4.67047e-05
-3.40947e-05
3.83996e-05
-2.7434e-05
3.65329e-05
-3.32517e-05
3.71167e-05
-3.90682e-05
-4.39766e-05
4.48979e-06
-1.26931e-05
6.06551e-06
-1.97592e-05
5.31342e-06
-2.43959e-05
2.49203e-06
-2.85726e-05
-1.80688e-06
-3.10955e-05
-5.05993e-06
-3.07136e-05
-1.15682e-05
-3.06241e-05
-7.60971e-06
-2.18947e-05
1.24406e-05
-5.38267e-06
2.68029e-05
1.30516e-06
3.49947e-05
-1.47718e-05
3.09003e-05
-3.8626e-05
2.33453e-05
-4.85039e-05
1.70486e-05
-5.32474e-05
1.47195e-05
-5.38953e-05
1.72013e-05
-5.1222e-05
2.74995e-05
-4.69214e-05
3.73016e-05
-4.4006e-05
4.18404e-05
-3.86334e-05
4.595e-05
-3.15435e-05
4.16228e-05
-2.89245e-05
3.4356e-05
-3.18014e-05
-3.40528e-05
1.62934e-06
-1.43225e-05
3.10025e-06
-2.12302e-05
3.25177e-06
-2.45474e-05
1.64933e-06
-2.69701e-05
-1.56643e-06
-2.78797e-05
-4.86233e-06
-2.74177e-05
-8.98988e-06
-2.64965e-05
-8.89907e-06
-2.19855e-05
2.1729e-06
-1.64546e-05
1.53379e-05
-1.18598e-05
2.19426e-05
-2.13765e-05
1.83685e-05
-3.50518e-05
1.30868e-05
-4.32222e-05
8.35028e-06
-4.85109e-05
4.14941e-06
-4.96943e-05
1.56114e-07
-4.72287e-05
-2.71878e-06
-4.40464e-05
-4.66079e-06
-4.20639e-05
-4.486e-06
-3.88081e-05
-1.39196e-06
-3.46375e-05
2.07904e-06
-3.23955e-05
2.93964e-06
-3.2662e-05
-3.275e-05
2.6611e-06
-1.69836e-05
4.13466e-06
-2.27037e-05
4.20518e-06
-2.46179e-05
2.77967e-06
-2.55446e-05
4.94134e-07
-2.55941e-05
-1.81246e-06
-2.51111e-05
-4.05649e-06
-2.42525e-05
-3.94124e-06
-2.21007e-05
3.09762e-07
-2.07056e-05
6.95539e-06
-1.85054e-05
9.56577e-06
-2.39869e-05
5.77093e-06
-3.1257e-05
8.79377e-07
-3.83306e-05
-3.91071e-06
-4.37207e-05
-8.0185e-06
-4.55865e-05
-1.08654e-05
-4.43816e-05
-1.25328e-05
-4.2379e-05
-1.38834e-05
-4.07132e-05
-1.50002e-05
-3.76913e-05
-1.50074e-05
-3.46303e-05
-1.4333e-05
-3.30699e-05
-1.40823e-05
-3.29127e-05
-3.25573e-05
1.62564e-06
-1.86092e-05
2.36787e-06
-2.34459e-05
1.93023e-06
-2.41802e-05
8.26305e-07
-2.44407e-05
-3.48018e-07
-2.44198e-05
-1.32857e-06
-2.41305e-05
-2.01542e-06
-2.35656e-05
-1.27762e-06
-2.28385e-05
5.62911e-07
-2.25462e-05
3.5233e-06
-2.14658e-05
4.05465e-06
-2.45183e-05
1.22015e-06
-2.84224e-05
-3.11243e-06
-3.3998e-05
-7.86436e-06
-3.89688e-05
-1.19284e-05
-4.15224e-05
-1.44826e-05
-4.18274e-05
-1.62315e-05
-4.06299e-05
-1.77479e-05
-3.91967e-05
-1.87342e-05
-3.6705e-05
-1.82549e-05
-3.51096e-05
-1.71176e-05
-3.42071e-05
-1.65137e-05
-3.35166e-05
-3.28e-05
7.20829e-07
-1.933e-05
6.67945e-07
-2.33931e-05
1.41733e-07
-2.3654e-05
-3.62511e-07
-2.39365e-05
-7.08317e-07
-2.4074e-05
-8.73703e-07
-2.39651e-05
-7.16649e-07
-2.37227e-05
-5.28952e-08
-2.35023e-05
9.55413e-07
-2.35545e-05
2.55925e-06
-2.30696e-05
2.77881e-06
-2.47378e-05
1.48506e-06
-2.71287e-05
-1.6246e-06
-3.08883e-05
-6.16553e-06
-3.44278e-05
-1.05187e-05
-3.71692e-05
-1.35647e-05
-3.87814e-05
-1.53173e-05
-3.88773e-05
-1.6196e-05
-3.83179e-05
-1.67769e-05
-3.61241e-05
-1.73886e-05
-3.44977e-05
-1.76346e-05
-3.39613e-05
-1.76059e-05
-3.35451e-05
-3.28601e-05
2.4717e-07
-1.95772e-05
6.47787e-08
-2.32107e-05
-1.92247e-07
-2.3397e-05
-4.41541e-07
-2.36872e-05
-5.86606e-07
-2.39289e-05
-4.95854e-07
-2.40559e-05
-1.57194e-07
-2.40613e-05
3.80979e-07
-2.40404e-05
1.05541e-06
-2.42289e-05
2.10612e-06
-2.41203e-05
2.49087e-06
-2.51225e-05
2.3689e-06
-2.70067e-05
1.10564e-06
-2.9625e-05
-1.45182e-06
-3.18703e-05
-4.61584e-06
-3.40052e-05
-7.73381e-06
-3.56635e-05
-1.02917e-05
-1.2512e-05
-1.39573e-05
-1.56938e-05
-1.73907e-05
-1.84633e-05
7.02771e-08
6.25891e-09
-4.2645e-08
-1.15088e-07
-2.47148e-07
-2.85258e-07
-1.82828e-07
1.18993e-07
4.80072e-07
1.20978e-06
1.72799e-06
1.73315e-06
7.41526e-07
-9.9284e-07
-3.12236e-06
)
;

boundaryField
{
    leftWall
    {
        type            fixedValue;
        value           uniform 0;
    }
    rightWall
    {
        type            fixedValue;
        value           nonuniform 0();
    }
    lowerWall
    {
        type            fixedValue;
        value           uniform 0;
    }
    atmosphere
    {
        type            calculated;
        value           nonuniform 0();
    }
    defaultFaces
    {
        type            empty;
        value           nonuniform 0();
    }
    procBoundary0to1
    {
        type            processor;
        value           nonuniform List<scalar> 
26
(
2.853e-06
3.31082e-06
6.31358e-06
5.39715e-06
4.75812e-06
2.79162e-06
2.57424e-06
3.49242e-06
1.58269e-05
1.28278e-05
4.25029e-05
0.000111422
0.000113541
9.16291e-05
5.36049e-05
4.22175e-06
2.18486e-05
2.21055e-05
0.000103278
3.71516e-05
2.4432e-05
1.63665e-06
-1.42751e-05
-1.62711e-05
-1.7546e-05
-1.92395e-05
)
;
    }
    procBoundary0to2
    {
        type            processor;
        value           nonuniform List<scalar> 
24
(
-3.63193e-05
-3.60977e-05
-3.46787e-05
-3.27613e-05
-3.22643e-05
-3.24726e-05
-3.20839e-05
-1.96475e-05
-2.31467e-05
-2.33481e-05
-2.36147e-05
-2.37969e-05
-2.40178e-05
-2.41637e-05
-2.43422e-05
-2.45899e-05
-2.485e-05
-2.56407e-05
-2.70118e-05
-2.86334e-05
-3.0136e-05
-3.18756e-05
-5.88747e-06
-3.28983e-05
)
;
    }
}


// ************************************************************************* //
