/*--------------------------------*- C++ -*----------------------------------*\
| =========                 |                                                 |
| \\      /  F ield         | OpenFOAM: The Open Source CFD Toolbox           |
|  \\    /   O peration     | Version:  2.4.0                                 |
|   \\  /    A nd           | Web:      www.OpenFOAM.org                      |
|    \\/     M anipulation  |                                                 |
\*---------------------------------------------------------------------------*/
FoamFile
{
    version     2.0;
    format      ascii;
    class       surfaceScalarField;
    location    "0.5";
    object      phi.oil;
}
// * * * * * * * * * * * * * * * * * * * * * * * * * * * * * * * * * * * * * //

dimensions      [0 3 -1 0 0 0 0];

internalField   nonuniform List<scalar> 
1101
(
2.7325e-06
-2.73248e-06
5.63137e-06
-2.89885e-06
7.80417e-06
-2.17278e-06
1.14016e-05
-3.59738e-06
1.37499e-05
-2.34833e-06
1.60119e-05
-2.26194e-06
1.9215e-05
-3.20311e-06
2.23144e-05
-3.09934e-06
2.5153e-05
-2.83868e-06
2.67207e-05
-1.56769e-06
2.83987e-05
-1.67804e-06
3.06136e-05
-2.21491e-06
3.26558e-05
-2.04214e-06
3.37256e-05
-1.06977e-06
3.30864e-05
6.39332e-07
3.099e-05
2.09688e-06
2.6924e-05
4.06727e-06
2.16139e-05
5.31242e-06
1.61054e-05
5.51178e-06
1.205e-05
4.05972e-06
8.17176e-06
3.86014e-06
5.65333e-06
2.74037e-06
-5.47288e-06
5.63217e-06
-5.79067e-06
7.95533e-06
-4.49595e-06
1.12962e-05
-6.93826e-06
1.36745e-05
-4.72663e-06
1.61885e-05
-4.77599e-06
1.93715e-05
-6.3861e-06
2.22557e-05
-5.9836e-06
2.48701e-05
-5.45309e-06
2.6752e-05
-3.44969e-06
2.90877e-05
-4.01378e-06
3.12622e-05
-4.38952e-06
3.27191e-05
-3.49905e-06
3.33936e-05
-1.74428e-06
3.36422e-05
3.90867e-07
3.14672e-05
4.27217e-06
2.74438e-05
8.09159e-06
2.1817e-05
1.09421e-05
1.68217e-05
1.05136e-05
1.24207e-05
8.46824e-06
8.2434e-06
8.02135e-06
1.05949e-05
2.75646e-06
-8.21158e-06
5.56122e-06
-8.57469e-06
8.13322e-06
-7.05282e-06
1.1105e-05
-9.87806e-06
1.36799e-05
-7.27945e-06
1.65042e-05
-7.57164e-06
1.95025e-05
-9.33403e-06
2.20369e-05
-8.46977e-06
2.44087e-05
-7.77167e-06
2.69628e-05
-5.94992e-06
3.00114e-05
-6.98959e-06
3.20941e-05
-6.40362e-06
3.36612e-05
-5.00984e-06
3.42361e-05
-2.29204e-06
3.32177e-05
1.41118e-06
3.12067e-05
6.28284e-06
2.75547e-05
1.17439e-05
2.21449e-05
1.63569e-05
1.69733e-05
1.57059e-05
1.32937e-05
1.21791e-05
1.00488e-05
1.12714e-05
1.43318e-05
2.76169e-06
-1.06514e-05
5.45349e-06
-1.09591e-05
8.41491e-06
-9.69307e-06
1.08016e-05
-1.20171e-05
1.36709e-05
-9.87123e-06
1.67228e-05
-1.03994e-05
1.94314e-05
-1.19894e-05
2.16017e-05
-1.06108e-05
2.42107e-05
-1.04789e-05
2.73785e-05
-9.31293e-06
3.0212e-05
-1.03108e-05
3.15963e-05
-8.29187e-06
3.26201e-05
-6.44727e-06
3.2932e-05
-2.65771e-06
3.40911e-05
6.05936e-07
3.33315e-05
7.29189e-06
2.95832e-05
1.55284e-05
2.43145e-05
2.16351e-05
1.81271e-05
2.19306e-05
1.26406e-05
1.77352e-05
8.94942e-06
1.5006e-05
1.79382e-05
2.75238e-06
-2.14997e-05
5.31109e-06
-2.19114e-05
8.66643e-06
-2.11912e-05
1.03229e-05
-2.29373e-05
1.35631e-05
-2.20598e-05
1.6976e-05
-2.33345e-05
1.8748e-05
-2.43379e-05
2.11508e-05
-2.37445e-05
2.40863e-05
-2.46928e-05
2.7449e-05
-2.44483e-05
2.94043e-05
-2.50184e-05
3.15405e-05
-2.35107e-05
3.34729e-05
-2.19403e-05
3.52433e-05
-1.75352e-05
3.44992e-05
-9.62434e-06
3.17881e-05
3.20402e-06
2.9378e-05
1.62292e-05
2.48574e-05
2.68521e-05
1.87151e-05
2.85376e-05
1.21283e-05
2.46011e-05
7.09853e-06
2.01331e-05
2.0369e-05
2.32243e-06
-4.15698e-05
4.4535e-06
-4.08511e-05
7.52396e-06
-4.10437e-05
8.82961e-06
-3.76326e-05
1.11163e-05
-3.74492e-05
1.3713e-05
-3.57452e-05
1.53061e-05
-3.01417e-05
1.73926e-05
-2.73069e-05
1.96186e-05
-2.58227e-05
2.17633e-05
-2.39308e-05
2.31828e-05
-2.15844e-05
2.53111e-05
-1.97545e-05
2.68071e-05
-1.68542e-05
2.76461e-05
-1.33755e-05
2.7932e-05
-1.09125e-05
2.85712e-05
-1.36757e-05
2.52069e-05
4.16586e-06
2.15537e-05
2.48348e-05
1.71557e-05
3.39021e-05
1.16946e-05
3.12019e-05
5.78386e-06
2.65204e-05
2.35279e-05
3.39839e-07
-1.66188e-05
8.33477e-07
-1.65686e-05
1.08553e-06
-1.69616e-05
1.98085e-06
-1.60528e-05
2.36022e-06
-1.61737e-05
3.18144e-06
-1.74636e-05
4.74966e-06
-1.67638e-05
6.36952e-06
-1.66563e-05
8.10198e-06
-1.71676e-05
9.50817e-06
-1.60331e-05
1.03109e-05
-1.39491e-05
1.02199e-05
-1.19574e-05
9.68659e-06
-8.83386e-06
1.03325e-05
-5.54271e-06
1.45574e-05
-2.27016e-06
2.23132e-05
2.61521e-06
2.28658e-05
3.43194e-06
1.40223e-05
2.0918e-05
1.20955e-05
3.49453e-05
1.02653e-05
3.41651e-05
5.62653e-06
3.1572e-05
2.67129e-05
1.61516e-07
-1.65332e-05
3.70262e-07
-1.65724e-05
7.17305e-07
-1.71168e-05
1.11287e-06
-1.63453e-05
2.01556e-06
-1.69905e-05
3.42003e-06
-1.88237e-05
4.57532e-06
-1.79052e-05
6.65064e-06
-1.87263e-05
9.00568e-06
-1.95148e-05
1.14869e-05
-1.84932e-05
1.29208e-05
-1.53853e-05
1.42792e-05
-1.33615e-05
1.40356e-05
-8.64521e-06
1.05424e-05
-2.07915e-06
3.46446e-06
4.52089e-06
3.74315e-06
3.75137e-06
1.23025e-05
1.6274e-05
8.01158e-06
2.35824e-05
1.71139e-06
3.18636e-05
4.52015e-06
3.67388e-05
4.87233e-06
3.57187e-05
2.90195e-05
1.92133e-07
-1.67243e-05
6.82641e-07
-1.70619e-05
1.09563e-06
-1.75288e-05
1.99903e-06
-1.72478e-05
3.07048e-06
-1.80611e-05
5.59882e-06
-2.13514e-05
8.74329e-06
-2.10586e-05
1.36468e-05
-2.36328e-05
1.81956e-05
-2.38326e-05
2.14525e-05
-1.93975e-05
2.32518e-05
-1.42275e-05
2.42139e-05
-1.20012e-05
2.4946e-05
-8.47127e-06
2.90164e-05
-5.80418e-06
3.50571e-05
-1.2924e-06
3.04005e-05
6.92702e-06
2.37446e-05
2.46248e-05
2.43879e-05
4.13837e-05
-2.47074e-06
4.29193e-05
-1.27877e-05
4.23964e-05
-5.90498e-07
4.45448e-05
2.99497e-05
5.22364e-07
-1.72468e-05
1.23832e-06
-1.7778e-05
1.84321e-06
-1.81338e-05
2.97911e-06
-1.83839e-05
4.13649e-06
-1.92187e-05
5.55684e-06
-2.27664e-05
9.24439e-06
-2.43563e-05
1.54201e-05
-1.50236e-05
1.95389e-05
-1.28608e-05
2.47291e-05
-1.02532e-05
2.84533e-05
-9.03926e-06
3.11011e-05
-5.43036e-06
3.2636e-05
1.5663e-06
3.15686e-05
6.14932e-06
2.73306e-05
5.43976e-06
2.51834e-05
1.03634e-05
2.62298e-05
2.1358e-05
3.19245e-05
3.98236e-05
2.82867e-05
5.97143e-05
9.08421e-06
5.01499e-05
1.22918e-06
3.16309e-05
3.17106e-05
7.52404e-07
-1.80308e-05
1.49564e-06
-1.85458e-05
1.78431e-06
-1.8431e-05
1.49234e-06
-1.80924e-05
1.28766e-06
-1.90136e-05
3.33925e-06
-2.29657e-05
5.38054e-06
-1.42226e-05
1.4047e-05
-2.47285e-05
2.29198e-05
-2.32988e-05
2.90998e-05
-1.85736e-05
3.32313e-05
-1.21402e-05
3.74898e-05
-7.85428e-06
3.99345e-05
9.11767e-07
3.85866e-05
6.71118e-06
3.98424e-05
1.25978e-05
4.16544e-05
1.49931e-05
4.18625e-05
2.04421e-05
4.56604e-05
2.82144e-05
5.56275e-05
4.61139e-05
7.18487e-05
5.33957e-05
5.50718e-05
3.71376e-05
2.54463e-05
8.34156e-09
-2.69758e-05
2.80286e-07
-2.64718e-05
1.31972e-06
-2.40456e-05
2.58375e-06
-2.07825e-05
7.0775e-07
-1.82424e-05
-1.7366e-06
-1.59561e-05
-1.65133e-07
-2.62088e-05
9.5701e-06
-3.48614e-05
1.80669e-05
-3.25685e-05
2.40164e-05
-2.7253e-05
2.78808e-05
-1.92379e-05
3.02559e-05
-1.41678e-05
3.42102e-05
-6.56381e-06
3.82965e-05
-5.15268e-07
4.20633e-05
1.147e-05
4.52393e-05
2.14512e-05
5.0792e-05
3.10076e-05
5.76074e-05
3.56039e-05
7.4968e-05
3.61207e-05
9.84033e-05
3.30052e-05
0.000112024
2.90498e-05
1.19165e-05
2.34935e-06
-9.30688e-05
3.5888e-06
-9.1554e-05
1.51234e-06
-8.70633e-05
-8.16975e-06
-7.97032e-05
-1.1012e-05
-6.48469e-05
-1.85092e-05
-6.38189e-05
-1.72211e-05
-6.46787e-05
-1.66108e-05
-6.58524e-05
-1.18706e-05
-5.34577e-05
-4.4964e-06
-4.61804e-05
1.41893e-06
-3.38288e-05
6.64538e-06
-2.71845e-05
1.52275e-05
-2.20134e-05
2.19464e-05
-1.29282e-05
2.91992e-05
-3.03875e-06
3.58707e-05
7.60718e-06
4.39529e-05
1.71089e-05
5.47556e-05
2.08017e-05
6.99656e-05
2.42154e-05
8.7763e-05
1.72223e-05
0.000100878
1.76488e-05
-2.49174e-06
2.97698e-06
-5.69726e-05
5.2198e-06
-5.58915e-05
9.22916e-06
-5.71827e-05
1.40864e-05
-8.716e-05
-3.22444e-06
-7.70191e-05
-2.37435e-05
-9.53139e-05
-4.9719e-05
-0.000146095
-7.46243e-05
-0.000124664
-8.87993e-05
-0.00010431
-8.42566e-05
-9.80095e-05
-7.39115e-05
-8.29136e-05
-6.417e-05
-5.91341e-05
-5.18349e-05
-4.6135e-05
-3.80969e-05
-3.4099e-05
-2.2964e-05
-2.51366e-05
-7.04407e-06
-1.57504e-05
1.13779e-05
-8.29742e-06
2.83005e-05
-1.76364e-06
4.46532e-05
5.44228e-06
6.27334e-05
-3.89731e-06
7.83179e-05
-1.49719e-06
-1.62523e-05
1.97933e-05
-3.76773e-05
4.16588e-05
-3.84465e-05
6.20206e-05
-4.00285e-05
8.25712e-05
-5.21204e-05
-1.68337e-06
-3.48089e-05
-4.25822e-05
-7.28319e-05
-8.13825e-05
-0.000125882
-0.000111179
-0.000120309
-0.000120433
-0.000115412
-0.000111735
-0.000113739
-9.37568e-05
-0.000151165
-8.2336e-05
-0.000127689
-7.50853e-05
-0.00010794
-6.98512e-05
-8.91591e-05
-6.43343e-05
-7.52263e-05
-5.67221e-05
-6.15683e-05
-4.27153e-05
-5.36834e-05
-2.20624e-05
-4.4304e-05
-6.91089e-07
-3.46052e-05
1.68412e-05
-4.20525e-05
3.62115e-05
-3.80122e-05
-4.96807e-05
-2.25453e-05
-1.51558e-05
-3.67418e-05
-2.43418e-05
-4.41529e-05
-2.89786e-05
-4.30124e-05
-2.94448e-05
-1.62343e-05
-3.40883e-05
1.19106e-05
-6.33536e-05
2.60414e-05
-7.92603e-05
6.11646e-06
-7.11295e-05
-9.94512e-06
-6.29826e-05
-4.84583e-05
-4.45745e-05
-7.27052e-05
-7.63333e-05
-6.38576e-05
-7.11864e-05
-5.73957e-05
-6.46917e-05
-5.22022e-05
-6.2227e-05
-4.71944e-05
-8.41317e-05
-4.40838e-05
-7.44661e-05
-3.95501e-05
-0.000113973
-3.53063e-05
-0.000134216
-2.81109e-05
-0.000126606
-2.13807e-05
-0.000125318
-9.78153e-06
-0.000113355
-0.00012816
-4.50187e-06
-1.066e-05
-8.19132e-06
-2.0704e-05
-8.46574e-06
-2.59674e-05
-1.15944e-05
-2.15151e-05
-5.68134e-06
-2.31676e-05
1.4359e-05
-2.74777e-05
3.62376e-05
-3.56836e-05
3.04791e-05
3.98686e-05
1.22124e-05
5.3035e-05
8.1716e-07
4.5292e-06
5.31392e-06
-2.97888e-05
3.3738e-05
-5.05461e-05
3.49157e-05
-5.9141e-05
2.62235e-05
-5.7888e-05
1.8516e-05
-5.47952e-05
1.37914e-05
-3.59688e-05
3.74134e-06
-6.16023e-05
-3.26902e-06
-8.69589e-05
-1.47979e-06
-8.45901e-05
-2.61584e-06
-8.13061e-05
1.05445e-06
-7.25086e-05
1.36646e-05
-7.8581e-05
-8.6806e-05
8.31742e-07
-1.14917e-05
-3.69707e-07
-1.95577e-05
-2.61911e-06
-2.69044e-05
-5.39501e-06
-3.55972e-05
-4.73974e-06
-4.22587e-05
-1.92634e-07
-3.45025e-05
7.58845e-06
-4.40212e-05
3.63084e-05
1.04868e-05
4.48442e-05
4.39458e-05
2.91209e-05
2.01983e-05
3.44095e-06
-5.46783e-06
1.37057e-06
-4.74982e-05
3.1117e-06
-5.755e-05
6.19653e-06
-5.34711e-05
6.90958e-06
-4.65588e-05
1.11824e-05
-3.9579e-05
4.1842e-05
-2.97681e-05
7.50704e-05
-3.22052e-05
9.8533e-05
-3.63671e-05
0.000111566
-3.77296e-05
0.000100668
-3.76316e-05
0.000105368
-4.04986e-05
-4.57822e-05
-3.28672e-06
-8.2052e-06
-4.66385e-06
-1.81747e-05
-6.15186e-06
-2.50866e-05
-8.25199e-06
-3.13681e-05
-1.1515e-05
-3.53872e-05
-1.1442e-05
-3.39601e-05
-1.82398e-05
-3.71348e-05
1.13109e-05
-1.79978e-05
3.9528e-05
1.44033e-05
4.49338e-05
1.5031e-05
4.62344e-05
-6.93368e-06
4.18658e-05
-4.28246e-05
3.94491e-05
-5.61635e-05
4.36768e-05
-5.98618e-05
4.99529e-05
-5.92542e-05
5.50584e-05
-5.17021e-05
5.4917e-05
-3.89723e-05
4.903e-05
-3.74252e-05
4.65459e-05
-3.67771e-05
3.83894e-05
-2.73356e-05
3.65832e-05
-3.27018e-05
3.7198e-05
-3.95789e-05
-4.37851e-05
4.48964e-06
-1.26943e-05
6.06482e-06
-1.97612e-05
5.31249e-06
-2.44015e-05
2.49097e-06
-2.85753e-05
-1.80924e-06
-3.10961e-05
-5.07832e-06
-3.07162e-05
-1.16064e-05
-3.06468e-05
-7.41101e-06
-2.18675e-05
1.36983e-05
-4.86094e-06
2.64925e-05
2.15199e-06
3.46027e-05
-1.4397e-05
3.01154e-05
-3.87453e-05
2.0191e-05
-4.78617e-05
1.68117e-05
-5.52751e-05
1.49046e-05
-5.64673e-05
1.78486e-05
-5.36393e-05
2.84911e-05
-5.03967e-05
3.66687e-05
-4.7126e-05
4.05433e-05
-4.13138e-05
4.59191e-05
-3.2341e-05
4.12567e-05
-2.93787e-05
3.44312e-05
-3.28784e-05
-3.47879e-05
1.62916e-06
-1.4323e-05
3.09978e-06
-2.12307e-05
3.25095e-06
-2.45478e-05
1.64821e-06
-2.69704e-05
-1.5678e-06
-2.78797e-05
-4.86404e-06
-2.74175e-05
-8.99185e-06
-2.64962e-05
-8.89986e-06
-2.19859e-05
2.45989e-06
-1.64533e-05
1.52347e-05
-1.17689e-05
2.19393e-05
-2.13661e-05
1.68763e-05
-3.51055e-05
1.19254e-05
-4.38285e-05
8.1793e-06
-4.87591e-05
4.23949e-06
-4.64098e-05
1.46672e-07
-4.62892e-05
-2.61507e-06
-4.32649e-05
-4.67631e-06
-4.21113e-05
-4.46794e-06
-3.89008e-05
-1.28262e-06
-3.47659e-05
2.11765e-06
-3.26247e-05
2.94722e-06
-3.28789e-05
-3.293e-05
2.66095e-06
-1.69837e-05
4.13428e-06
-2.27039e-05
4.20453e-06
-2.4618e-05
2.77878e-06
-2.55446e-05
4.93058e-07
-2.55939e-05
-1.81369e-06
-2.51106e-05
-4.05774e-06
-2.42517e-05
-3.94231e-06
-2.20998e-05
3.0939e-07
-2.07046e-05
6.95627e-06
-1.85042e-05
9.53467e-06
-2.39873e-05
5.26668e-06
-3.1309e-05
5.82773e-07
-3.8416e-05
-3.51626e-06
-4.2957e-05
-7.97458e-06
-4.58782e-05
-1.08676e-05
-4.44451e-05
-1.25389e-05
-4.25267e-05
-1.38959e-05
-4.08748e-05
-1.50136e-05
-3.77939e-05
-1.50234e-05
-3.46367e-05
-1.43398e-05
-3.29406e-05
-1.40853e-05
-3.28516e-05
-3.25377e-05
1.62553e-06
-1.86091e-05
2.3676e-06
-2.34458e-05
1.92975e-06
-2.41801e-05
8.2564e-07
-2.44404e-05
-3.48833e-07
-2.44194e-05
-1.32948e-06
-2.41299e-05
-2.01629e-06
-2.35648e-05
-1.2783e-06
-2.28375e-05
5.62586e-07
-2.25452e-05
3.52474e-06
-2.1465e-05
4.02731e-06
-2.4521e-05
1.20776e-06
-2.84851e-05
-3.15576e-06
-3.4094e-05
-7.93172e-06
-3.90971e-05
-1.19797e-05
-4.16356e-05
-1.44429e-05
-4.21253e-05
-1.62391e-05
-4.07539e-05
-1.7726e-05
-3.9387e-05
-1.8739e-05
-3.68068e-05
-1.82599e-05
-3.51896e-05
-1.71214e-05
-3.4258e-05
-1.65155e-05
-3.35509e-05
-3.28152e-05
7.20745e-07
-1.93298e-05
6.67734e-07
-2.33928e-05
1.41372e-07
-2.36537e-05
-3.63008e-07
-2.39361e-05
-7.08918e-07
-2.40735e-05
-8.7435e-07
-2.39644e-05
-7.17232e-07
-2.37218e-05
-5.33048e-08
-2.35013e-05
9.55382e-07
-2.35535e-05
2.56017e-06
-2.3069e-05
2.77611e-06
-2.47393e-05
1.47441e-06
-2.71453e-05
-1.69946e-06
-3.09497e-05
-6.29965e-06
-3.46022e-05
-1.05707e-05
-3.7538e-05
-1.35707e-05
-3.92198e-05
-1.52875e-05
-3.92459e-05
-1.6181e-05
-3.8556e-05
-1.67663e-05
-3.62511e-05
-1.73855e-05
-3.45444e-05
-1.76331e-05
-3.39808e-05
-1.76047e-05
-3.35535e-05
-3.28661e-05
2.47101e-07
-1.95769e-05
6.46148e-08
-2.32103e-05
-1.92514e-07
-2.33966e-05
-4.419e-07
-2.36867e-05
-5.87027e-07
-2.39284e-05
-4.96288e-07
-2.40552e-05
-1.57554e-07
-2.40605e-05
3.8078e-07
-2.40395e-05
1.05553e-06
-2.42279e-05
2.1066e-06
-2.41197e-05
2.49142e-06
-2.51223e-05
2.36324e-06
-2.70127e-05
1.05348e-06
-2.96951e-05
-1.55847e-06
-3.20892e-05
-4.64196e-06
-3.44223e-05
-7.7173e-06
-3.60944e-05
-1.0269e-05
-1.24863e-05
-1.39378e-05
-1.56788e-05
-1.73871e-05
-1.84611e-05
7.02327e-08
6.14455e-09
-4.28325e-08
-1.1533e-07
-2.4742e-07
-2.85515e-07
-1.83013e-07
1.18958e-07
4.8028e-07
1.21028e-06
1.72889e-06
1.72877e-06
7.07824e-07
-1.05281e-06
-3.14952e-06
)
;

boundaryField
{
    leftWall
    {
        type            fixedValue;
        value           uniform 0;
    }
    rightWall
    {
        type            fixedValue;
        value           nonuniform 0();
    }
    lowerWall
    {
        type            fixedValue;
        value           uniform 0;
    }
    atmosphere
    {
        type            calculated;
        value           nonuniform 0();
    }
    defaultFaces
    {
        type            empty;
        value           nonuniform 0();
    }
    procBoundary0to1
    {
        type            processor;
        value           nonuniform List<scalar> 
26
(
2.69111e-06
3.09737e-06
6.08003e-06
5.17239e-06
4.5871e-06
2.65746e-06
2.44397e-06
3.3603e-06
1.56013e-05
6.81175e-06
5.05904e-05
0.000120926
0.00011593
8.982e-05
4.6053e-05
1.49576e-06
0.0001416
2.59574e-05
0.000102497
3.72721e-05
2.44376e-05
1.67994e-06
-1.42694e-05
-1.62704e-05
-1.75443e-05
-1.92376e-05
)
;
    }
    procBoundary0to2
    {
        type            processor;
        value           nonuniform List<scalar> 
24
(
-3.66624e-05
-3.6341e-05
-3.48188e-05
-3.28188e-05
-3.22837e-05
-3.24802e-05
-3.20875e-05
-1.96472e-05
-2.31463e-05
-2.33477e-05
-2.36143e-05
-2.37963e-05
-2.40171e-05
-2.4163e-05
-2.43414e-05
-2.45891e-05
-2.48493e-05
-2.56402e-05
-2.70143e-05
-2.86836e-05
-3.03006e-05
-3.20391e-05
-5.86762e-06
-3.31853e-05
)
;
    }
}


// ************************************************************************* //
