/*--------------------------------*- C++ -*----------------------------------*\
| =========                 |                                                 |
| \\      /  F ield         | OpenFOAM: The Open Source CFD Toolbox           |
|  \\    /   O peration     | Version:  2.4.0                                 |
|   \\  /    A nd           | Web:      www.OpenFOAM.org                      |
|    \\/     M anipulation  |                                                 |
\*---------------------------------------------------------------------------*/
FoamFile
{
    version     2.0;
    format      ascii;
    class       volScalarField;
    location    "0.5";
    object      rho;
}
// * * * * * * * * * * * * * * * * * * * * * * * * * * * * * * * * * * * * * //

dimensions      [1 -3 0 0 0 0 0];

internalField   nonuniform List<scalar> 
575
(
13529
13529
13529
13529
13529
13529
13529
13529
13529
13529
13529
13529
13529
13529
13529
13529
13529
13529
13529
13529
13529
13529
13529
13529
13529
13529
13529
13529
13529
13529
13529
13529
13529
13529
13529
13529
13529
13529
13529
13529
13529
13529
13529
13529
13529
13529
13529
13529
13529
13529
13529
13529
13529
13529
13528.9
13528.9
13529
13529
13529
13529
13529
13529
13529
13529
13529
13529
13515.5
13513.7
13516.7
13506.5
13512.5
13508
13492.9
13494.4
13489.3
13487.1
13469.5
13474.4
13484.6
13507.5
13524.6
13528.3
13528.9
13529
13529
13529
13529
13529
12248.3
12169.8
12249.6
11930.7
12034.6
11832.8
11423.5
11338.6
11091.9
10901.6
10508.4
10436.9
10494.9
10981.6
12093.8
13157.7
13496
13527.5
13528.9
13529
13529
13529
3790.17
3652.74
3711.62
3279.16
3322.83
3037.03
2580.22
2395.92
2158.49
1961.73
1714.7
1567.57
1459.81
1509.75
1766.15
3662
8120.45
12612.8
13479.1
13527.6
13529
13529
1002.43
1002.14
1002.07
1001.45
1001.33
1001.01
1000.67
1000.51
1000.39
1000.3
1000.23
1000.18
1000.15
1000.12
1000.43
1026.64
1573.94
6474.31
12730.1
13502.7
13528.5
13529
1000.16
1000.16
1000.15
1000.15
1000.14
1000.13
1000.13
1000.12
1000.11
1000.1
1000.11
1000.11
1000.11
1000.11
1000.11
1000.11
1005.2
1689.61
9290.01
13376.1
13526.4
13528.9
1000.14
1000.14
1000.13
1000.14
1000.13
1000.11
1000.11
1000.1
1000.09
1000.09
1000.09
1000.09
1000.1
1000.11
1000.12
1000.13
1000.19
1036.57
2744.63
10501.3
13400.1
13518.2
1000.02
1000.02
1000.02
1000.02
1000.02
1000.01
1000.01
1000.01
1000.01
999.989
999.983
999.992
1000.01
1000.01
1000.02
1000.03
1000.03
1000.28
1069.35
2949.12
8831.27
12369.1
1000
1000
1000
1000
1000
1000
999.998
999.763
998.41
995.706
995.133
996.211
998.288
999.335
999.82
999.947
999.992
999.981
1001.12
1115.77
2092.49
3840.42
998.158
998.472
999.236
999.832
999.967
999.943
999.295
986.549
952.534
915.89
909.853
920.957
945.67
965.338
984.332
994.516
998.305
999.401
999.883
1001.8
1036.22
1127.2
789.676
811.89
872.418
951.374
983.612
980.439
972.398
884.963
752.249
678.561
665.544
673.919
698.702
731.109
776.865
848.752
914.533
954.719
978.575
987.712
998.617
1008.62
20.6994
26.2014
46.7649
109.89
248.103
409.856
521.729
438.627
419.325
456.983
500.118
516.273
518.383
518.586
519.835
529.285
584.435
658.922
759.016
783.671
833.586
815.042
1.00023
1.00013
1.00011
1.00008
1.00107
1.04773
1.84667
4.86346
18.8704
65.1763
168.707
292.993
389.178
449.496
476.449
488.731
493.262
498.152
510.636
500.191
511.691
516.419
1.00007
1.00004
1.00004
1.00016
1.00062
1.00307
1.00391
1.01123
1.00829
1.00534
1.09475
2.85292
16.9169
59.292
117.918
179.724
233.464
295.918
332.447
313.602
336.61
277.111
1.00006
1.00005
1.00008
1.00044
1.00056
1.00005
1.00001
1.00002
1.00003
1.00005
1.00003
1.00002
1.00002
1.00005
1.00024
1.00166
1.01671
1.26712
2.19941
2.46201
4.85446
2.34765
1.80235
1.00005
1.00003
1.00003
1.00006
1.00014
1.00001
1
1.00001
1.00004
1.00006
1.00003
1.00001
1.00001
1.00002
1.00006
1.0001
1.00007
1.00005
1.00004
1.00004
1.00004
1.00004
1.00004
1.00005
1.00002
1.00002
1.00001
1
1
1
1.00001
1.00003
1.00011
1.00008
1.00003
1.00002
1.0001
1.00019
1.00022
1.00022
1.00018
1.00007
1.00004
1.00004
1.00004
1.00004
1.00003
1.00001
1
1
0.999999
1
1
1.00001
1.00004
1.00011
1.00006
1.00002
1.00007
1.00032
1.00034
1.00034
1.00029
1.00029
1.00015
1.00005
1.00004
1.00007
1.00005
1
1
0.999999
0.999999
0.999999
0.999999
0.999999
1
1
1.00002
1
1
1.00013
1.00032
1.00024
1.0001
1.00008
1.00003
1.00002
1.00004
1.00006
1.00007
1.00004
0.999999
0.999999
0.999999
0.999999
0.999999
0.999999
0.999999
1
1
1
1
1.00001
1.00009
1.00016
1.00004
1.00002
1.00002
1.00002
1.00002
1.00003
1.00003
1.00002
1.00001
0.999999
0.999999
0.999999
0.999999
0.999999
0.999999
1
1
1
1
1
1.00001
1.00001
1.00002
1.00003
1.00005
1.00003
1.00003
1.00001
1.00001
1.00001
1.00001
1
0.999999
0.999999
0.999999
0.999999
0.999999
1
1
1
1
1
1
1
1.00001
1.00002
1.00005
1.00006
1.00006
1.00003
1.00002
1.00001
1
1
1
0.999999
0.999999
0.999999
0.999999
1
1
1
1
1
1
1
1
1.00001
1.00003
1.00006
1.00007
1.00005
1.00004
1.00002
1.00001
1
1
1
0.999999
0.999999
0.999999
0.999999
1
1
1
1
1
1
1
1
1.00001
1.00003
1.00005
1.00006
)
;

boundaryField
{
    leftWall
    {
        type            calculated;
        value           nonuniform List<scalar> 
26
(
13529
13529
13529
13515.5
12248.3
3790.17
1002.43
1000.16
1000.14
1000.02
1000
998.158
789.676
20.6994
1.00023
1.00007
1.00006
1.00005
1.00005
1.00003
1
0.999999
0.999999
0.999999
0.999999
0.999999
)
;
    }
    rightWall
    {
        type            calculated;
        value           nonuniform 0();
    }
    lowerWall
    {
        type            calculated;
        value           nonuniform List<scalar> 
22
(
13529
13529
13529
13529
13529
13529
13529
13529
13529
13529
13529
13529
13529
13529
13529
13529
13529
13529
13529
13529
13529
13529
)
;
    }
    atmosphere
    {
        type            calculated;
        value           nonuniform 0();
    }
    defaultFaces
    {
        type            empty;
    }
    procBoundary0to1
    {
        type            processor;
        value           nonuniform List<scalar> 
26
(
13528.8
13528.8
13528.8
13528.8
13528.8
13528.8
13528.7
13528.7
13527.7
13310
6074.89
1168.39
1003.91
795.492
520.36
248.401
248.401
1.59658
1.00006
1.00005
1.00003
1.00001
1
1
1
1
)
;
    }
    procBoundary0to2
    {
        type            processor;
        value           nonuniform List<scalar> 
24
(
1.00005
1.00003
1.00002
1.00001
1
1
1
0.999999
0.999999
0.999999
1
1
1
1
1
1
1
1
1
1
1.00002
1.00002
1.00005
1.00003
)
;
    }
}


// ************************************************************************* //
