/*--------------------------------*- C++ -*----------------------------------*\
| =========                 |                                                 |
| \\      /  F ield         | OpenFOAM: The Open Source CFD Toolbox           |
|  \\    /   O peration     | Version:  2.4.0                                 |
|   \\  /    A nd           | Web:      www.OpenFOAM.org                      |
|    \\/     M anipulation  |                                                 |
\*---------------------------------------------------------------------------*/
FoamFile
{
    version     2.0;
    format      ascii;
    class       volVectorField;
    location    "0.5";
    object      U;
}
// * * * * * * * * * * * * * * * * * * * * * * * * * * * * * * * * * * * * * //

dimensions      [0 1 -1 0 0 0 0];

internalField   nonuniform List<vector> 
575
(
(0.0163665 -0.00734938 0)
(0.0462288 -0.0077323 0)
(0.079779 -0.00593929 0)
(0.103258 -0.00956881 0)
(0.150796 -0.00635267 0)
(0.168165 -0.00632627 0)
(0.196275 -0.00805486 0)
(0.237499 -0.0087101 0)
(0.274911 -0.00702273 0)
(0.296988 -0.00418412 0)
(0.308902 -0.0042778 0)
(0.337237 -0.0057116 0)
(0.356355 -0.00523792 0)
(0.38146 -0.00660041 0)
(0.381693 -0.00965581 0)
(0.369171 -0.00962426 0)
(0.340716 0.0035144 0)
(0.281057 0.00474301 0)
(0.222621 0.014201 0)
(0.155218 0.00344247 0)
(0.126909 0.0149483 0)
(0.0653031 0.0161399 0)
(0.0165295 -0.022346 0)
(0.0458197 -0.0238689 0)
(0.0809456 -0.0176188 0)
(0.104737 -0.0299506 0)
(0.147904 -0.0187147 0)
(0.168789 -0.0185049 0)
(0.199357 -0.027175 0)
(0.238384 -0.0255077 0)
(0.273057 -0.0234162 0)
(0.292035 -0.0123675 0)
(0.315165 -0.0132832 0)
(0.344168 -0.0168162 0)
(0.36477 -0.0128373 0)
(0.37552 -0.00107379 0)
(0.383372 0.0195247 0)
(0.373023 0.0365966 0)
(0.342814 0.0435026 0)
(0.290201 0.0541179 0)
(0.219412 0.0464769 0)
(0.174837 0.039065 0)
(0.116595 0.0283559 0)
(0.0758197 0.040683 0)
(0.0166592 -0.0380149 0)
(0.0455643 -0.040008 0)
(0.0814408 -0.0323801 0)
(0.106658 -0.0467587 0)
(0.143209 -0.0341926 0)
(0.172831 -0.0352123 0)
(0.202036 -0.0440113 0)
(0.239783 -0.0422649 0)
(0.266626 -0.0394513 0)
(0.287719 -0.0289786 0)
(0.325387 -0.0348734 0)
(0.356392 -0.0368143 0)
(0.372807 -0.0328686 0)
(0.386938 -0.0248743 0)
(0.384058 -0.0186546 0)
(0.371895 0.000663149 0)
(0.33846 0.0379693 0)
(0.297716 0.0626339 0)
(0.217946 0.0691309 0)
(0.181454 0.0543904 0)
(0.128864 0.0559011 0)
(0.102351 0.0683315 0)
(0.0168489 -0.0428681 0)
(0.0449759 -0.0445144 0)
(0.0816079 -0.0360894 0)
(0.108195 -0.0509101 0)
(0.13895 -0.036257 0)
(0.175188 -0.037977 0)
(0.203477 -0.0468443 0)
(0.239083 -0.0390403 0)
(0.257235 -0.0341635 0)
(0.291788 -0.0257972 0)
(0.331318 -0.0302078 0)
(0.352898 -0.0214287 0)
(0.364668 -0.00934723 0)
(0.376208 0.0101326 0)
(0.376591 0.0422913 0)
(0.386125 0.0813512 0)
(0.364839 0.0968895 0)
(0.318114 0.110363 0)
(0.249801 0.0943862 0)
(0.178747 0.0739056 0)
(0.114179 0.0634018 0)
(0.0929278 0.0874941 0)
(0.0172225 -0.0976063 0)
(0.0436393 -0.100104 0)
(0.0815761 -0.0934278 0)
(0.110401 -0.107239 0)
(0.131625 -0.096626 0)
(0.176528 -0.102262 0)
(0.206299 -0.113958 0)
(0.227057 -0.106787 0)
(0.254241 -0.110785 0)
(0.298133 -0.105934 0)
(0.323776 -0.11235 0)
(0.347195 -0.0986419 0)
(0.369806 -0.0919697 0)
(0.391863 -0.0707488 0)
(0.393957 -0.0553062 0)
(0.385818 -0.0233658 0)
(0.35466 0.0622603 0)
(0.321072 0.137503 0)
(0.255241 0.146885 0)
(0.188366 0.117925 0)
(0.0932931 0.0985939 0)
(0.0672504 0.0964982 0)
(0.0139262 -0.0513053 0)
(0.0364932 -0.0470686 0)
(0.0666091 -0.0498875 0)
(0.096 -0.0327029 0)
(0.106289 -0.0377953 0)
(0.137878 -0.031609 0)
(0.160522 -0.00607476 0)
(0.178875 0.00176897 0)
(0.198812 0.0125341 0)
(0.227395 0.0270949 0)
(0.243633 0.052972 0)
(0.260967 0.0718305 0)
(0.284978 0.0975021 0)
(0.289565 0.125042 0)
(0.284081 0.17901 0)
(0.297203 0.169069 0)
(0.303641 0.103593 0)
(0.302265 0.12391 0)
(0.225708 0.156278 0)
(0.180316 0.145051 0)
(0.0918959 0.120361 0)
(0.038989 0.121812 0)
(0.000523713 -0.0532444 0)
(0.00810712 -0.0585226 0)
(0.00811633 -0.0610782 0)
(0.0188803 -0.0738805 0)
(0.0230141 -0.0755146 0)
(0.0295016 -0.0941144 0)
(0.0460511 -0.111202 0)
(0.0614422 -0.118909 0)
(0.081563 -0.13219 0)
(0.101813 -0.136716 0)
(0.115023 -0.14426 0)
(0.119509 -0.147776 0)
(0.115243 -0.146525 0)
(0.113709 -0.14257 0)
(0.131025 -0.132562 0)
(0.190981 -0.0111348 0)
(0.200418 0.249362 0)
(0.173958 0.209898 0)
(0.16247 0.175146 0)
(0.141892 0.168333 0)
(0.0979087 0.152227 0)
(0.0338976 0.129633 0)
(9.16655e-05 -0.122099 0)
(0.00386236 -0.120726 0)
(0.00469154 -0.12285 0)
(0.0110833 -0.114894 0)
(0.0157145 -0.11667 0)
(0.0303055 -0.120198 0)
(0.0465634 -0.106202 0)
(0.0599395 -0.101137 0)
(0.0907334 -0.0962722 0)
(0.11769 -0.0823363 0)
(0.140204 -0.0559348 0)
(0.15687 -0.0335634 0)
(0.16187 0.000229335 0)
(0.149083 0.0386694 0)
(0.0891068 0.0809648 0)
(-0.00113556 0.0303166 0)
(0.103424 0.020022 0)
(0.0263655 0.259217 0)
(0.0225959 0.177241 0)
(0.0487965 0.165954 0)
(0.0663262 0.175049 0)
(0.047536 0.150034 0)
(0.000236746 -0.0476212 0)
(0.00231462 -0.0495006 0)
(0.00427347 -0.0538071 0)
(0.00870171 -0.0520935 0)
(0.0125631 -0.0574181 0)
(0.0217811 -0.0756905 0)
(0.0395267 -0.0734602 0)
(0.0557181 -0.0824964 0)
(0.0869988 -0.0913504 0)
(0.106915 -0.0872998 0)
(0.118898 -0.0784835 0)
(0.129726 -0.0831898 0)
(0.131369 -0.0786636 0)
(0.145106 -0.0793018 0)
(0.169806 -0.0483448 0)
(0.191469 0.0277052 0)
(0.141827 0.182658 0)
(0.14566 0.227107 0)
(0.011187 0.358649 0)
(-0.0351642 0.136427 0)
(-0.00908701 0.132273 0)
(0.0527575 0.139777 0)
(0.00130301 -0.108278 0)
(0.00479146 -0.110346 0)
(0.00854934 -0.111289 0)
(0.0121296 -0.11181 0)
(0.0203021 -0.117215 0)
(0.0227972 -0.136997 0)
(0.0396558 -0.139374 0)
(0.0606596 -0.158805 0)
(0.0986712 -0.157385 0)
(0.11915 -0.142873 0)
(0.139571 -0.11744 0)
(0.17031 -0.0965979 0)
(0.174163 -0.0507876 0)
(0.181325 -0.0143378 0)
(0.158049 0.0191121 0)
(0.13521 0.0269752 0)
(0.15 0.0748311 0)
(0.170764 0.18969 0)
(0.2046 0.338109 0)
(0.0723258 0.316819 0)
(0.0246061 0.102261 0)
(0.0466408 0.0088521 0)
(0.00216544 -0.106172 0)
(0.00609258 -0.110416 0)
(0.00977437 -0.114568 0)
(0.00824452 -0.116797 0)
(0.00906891 -0.117953 0)
(0.00697498 -0.131451 0)
(0.0310029 -0.144908 0)
(0.0638696 -0.17782 0)
(0.115599 -0.169709 0)
(0.143306 -0.152234 0)
(0.176992 -0.122474 0)
(0.200376 -0.10177 0)
(0.213279 -0.0501762 0)
(0.243005 -0.0230963 0)
(0.237283 0.0202246 0)
(0.254653 0.0782344 0)
(0.236661 0.139321 0)
(0.231028 0.211173 0)
(0.29845 0.276966 0)
(0.384813 0.343492 0)
(0.340212 0.269366 0)
(0.260353 0.133786 0)
(0.000351844 -0.0567777 0)
(-0.00020954 -0.0561747 0)
(0.00491991 -0.0474913 0)
(0.0110681 -0.0395619 0)
(0.0175781 -0.0498022 0)
(-0.00474658 -0.103323 0)
(0.00209677 -0.166514 0)
(0.0372334 -0.231887 0)
(0.0947317 -0.231732 0)
(0.123683 -0.21398 0)
(0.161208 -0.172954 0)
(0.16699 -0.140484 0)
(0.191209 -0.0881001 0)
(0.213277 -0.0552711 0)
(0.220544 -0.000424414 0)
(0.255076 0.033527 0)
(0.25411 0.104157 0)
(0.297041 0.137697 0)
(0.353769 0.207732 0)
(0.447144 0.189566 0)
(0.541091 0.190262 0)
(0.618059 0.127811 0)
(0.00811442 -0.197306 0)
(0.0142284 -0.199869 0)
(0.0206061 -0.203516 0)
(-0.00971291 -0.208462 0)
(-0.079857 -0.18092 0)
(-0.107193 -0.18224 0)
(-0.0810611 -0.220681 0)
(-0.0694386 -0.293131 0)
(-0.0584192 -0.269305 0)
(-0.042414 -0.224243 0)
(0.0145449 -0.175105 0)
(0.0282117 -0.150585 0)
(0.0727034 -0.117362 0)
(0.119841 -0.0788482 0)
(0.13918 -0.0302962 0)
(0.205409 0.0328317 0)
(0.22134 0.0732738 0)
(0.277041 0.0998674 0)
(0.329147 0.129781 0)
(0.411997 0.10389 0)
(0.48572 0.0870061 0)
(0.562838 -0.00194355 0)
(-0.000396278 0.575614 0)
(-0.0277495 0.510043 0)
(-0.0425243 0.300484 0)
(0.0148609 0.0200334 0)
(0.0630465 -0.152939 0)
(0.0118425 -0.283452 0)
(-0.125028 -0.365241 0)
(-0.329857 -0.366912 0)
(-0.489891 -0.298545 0)
(-0.505425 -0.296204 0)
(-0.404562 -0.239242 0)
(-0.372951 -0.1886 0)
(-0.307629 -0.135306 0)
(-0.250277 -0.079504 0)
(-0.167768 -0.0408756 0)
(-0.0827079 0.00866082 0)
(0.0210626 0.0620614 0)
(0.127515 0.0608956 0)
(0.220529 0.0587286 0)
(0.280939 0.00156966 0)
(0.396988 -0.00231521 0)
(0.455949 -0.0946569 0)
(0.0592135 -0.486354 0)
(0.158675 -0.416235 0)
(0.297409 -0.248695 0)
(0.315907 0.0624939 0)
(0.597764 0.476559 0)
(0.340137 0.941646 0)
(0.110729 1.44528 0)
(-0.441781 1.25541 0)
(-0.662825 0.362477 0)
(-0.648383 -0.177708 0)
(-0.574323 -0.359059 0)
(-0.481422 -0.340257 0)
(-0.43533 -0.325083 0)
(-0.389393 -0.288571 0)
(-0.369941 -0.245533 0)
(-0.324139 -0.190606 0)
(-0.277317 -0.150776 0)
(-0.182673 -0.0956434 0)
(-0.0344427 -0.0224582 0)
(0.0257762 -0.0696365 0)
(0.169418 -0.0488781 0)
(0.219108 -0.11179 0)
(-0.0714086 -0.148636 0)
(-0.161646 -0.208088 0)
(-0.22569 -0.334199 0)
(-0.290887 -0.469007 0)
(-0.264019 -0.496057 0)
(-0.0531445 -0.366404 0)
(0.286847 -0.438071 0)
(0.638738 -0.253513 0)
(0.627932 -0.212661 0)
(0.300856 -0.0597533 0)
(0.0363873 0.210575 0)
(-0.203279 0.477048 0)
(-0.300722 0.241746 0)
(-0.297902 -0.0956629 0)
(-0.27342 -0.218616 0)
(-0.239095 -0.247929 0)
(-0.240872 -0.276521 0)
(-0.20265 -0.285074 0)
(-0.181691 -0.275331 0)
(-0.137985 -0.291949 0)
(-0.0795125 -0.289356 0)
(-0.0214123 -0.307578 0)
(-0.0186419 0.0802127 0)
(-0.0386651 0.0405911 0)
(-0.0513055 0.0227354 0)
(-0.0424927 0.0112142 0)
(-0.0924744 0.0722461 0)
(0.0882289 0.112383 0)
(0.0439969 0.155715 0)
(0.297533 0.442216 0)
(0.0608394 0.412633 0)
(0.0554223 -0.0875668 0)
(-0.0451251 -0.402004 0)
(0.133137 -0.517223 0)
(0.273584 -0.446857 0)
(0.357216 -0.19441 0)
(0.399485 0.0187956 0)
(0.50453 0.211897 0)
(0.450308 0.687283 0)
(0.309795 0.892764 0)
(0.22133 0.827433 0)
(0.147256 0.724056 0)
(0.140235 0.44512 0)
(0.170363 0.52005 0)
(0.132203 0.43048 0)
(0.0036779 -0.21219 0)
(0.00312331 -0.249055 0)
(-0.00772787 -0.289118 0)
(-0.0175194 -0.332605 0)
(-0.0474422 -0.375327 0)
(0.01559 -0.333315 0)
(-0.0206399 -0.413804 0)
(0.114241 0.116888 0)
(0.229553 0.285956 0)
(0.26483 0.156199 0)
(0.0203238 0.00769266 0)
(0.013786 -0.160744 0)
(0.00434432 -0.28509 0)
(0.0244875 -0.374423 0)
(0.0407252 -0.453515 0)
(0.00673593 -0.53636 0)
(0.137978 -0.681858 0)
(0.309406 -0.809032 0)
(0.473154 -0.775856 0)
(0.603108 -0.741399 0)
(0.59159 -0.635627 0)
(0.562597 -0.641416 0)
(0.554484 -0.653736 0)
(-0.0126615 0.0625959 0)
(-0.0224799 0.00149342 0)
(-0.0277383 -0.046217 0)
(-0.0373434 -0.0892653 0)
(-0.0556015 -0.118762 0)
(-0.0524596 -0.111523 0)
(-0.0867284 -0.153853 0)
(-0.0944381 -0.0487499 0)
(0.201709 0.142375 0)
(0.234703 0.0894827 0)
(0.248869 -0.036753 0)
(0.241093 -0.258813 0)
(0.215192 -0.283141 0)
(0.218297 -0.255462 0)
(0.252604 -0.162672 0)
(0.285988 -0.0350166 0)
(0.305981 0.134328 0)
(0.287579 0.181624 0)
(0.259789 0.150902 0)
(0.226826 0.137806 0)
(0.197431 0.0470215 0)
(0.19849 0.0113792 0)
(0.201901 -0.031152 0)
(0.0133885 -0.126599 0)
(0.031784 -0.162553 0)
(0.0327579 -0.184379 0)
(0.0234597 -0.203344 0)
(0.00118012 -0.212424 0)
(-0.0157777 -0.200349 0)
(-0.0468489 -0.190534 0)
(-0.0688799 -0.108716 0)
(-0.0106698 0.0255606 0)
(0.138272 0.0609334 0)
(0.165221 -0.0516579 0)
(0.193249 -0.237191 0)
(0.144326 -0.311501 0)
(0.101208 -0.350784 0)
(0.0800681 -0.381686 0)
(0.0795808 -0.405503 0)
(0.117211 -0.415625 0)
(0.175256 -0.412848 0)
(0.210967 -0.365174 0)
(0.24571 -0.290808 0)
(0.241265 -0.251064 0)
(0.213179 -0.271196 0)
(0.157222 -0.285415 0)
(0.00458049 -0.0372425 0)
(0.0140737 -0.0817402 0)
(0.0193261 -0.110632 0)
(0.0157057 -0.136218 0)
(0.00185604 -0.153563 0)
(-0.016256 -0.158324 0)
(-0.0408304 -0.161267 0)
(-0.0508326 -0.132782 0)
(-0.0447448 -0.0841277 0)
(0.0661811 -0.0445055 0)
(0.109326 -0.101584 0)
(0.114113 -0.181045 0)
(0.0866312 -0.223982 0)
(0.0554345 -0.24731 0)
(0.0327535 -0.241249 0)
(0.00968693 -0.211472 0)
(-0.00786224 -0.17907 0)
(-0.0211348 -0.167243 0)
(-0.0303168 -0.160714 0)
(-0.0199617 -0.152166 0)
(0.00655117 -0.156898 0)
(0.0144396 -0.167981 0)
(0.01593 -0.17364 0)
(0.00782228 -0.0957963 0)
(0.0194717 -0.124375 0)
(0.0244384 -0.133841 0)
(0.0204519 -0.140196 0)
(0.00979258 -0.141229 0)
(-0.00354036 -0.137458 0)
(-0.0177552 -0.131931 0)
(-0.0238001 -0.114028 0)
(-0.0197611 -0.103438 0)
(0.0228113 -0.0922648 0)
(0.0567248 -0.137074 0)
(0.0418394 -0.191716 0)
(0.0177122 -0.231825 0)
(-0.00867598 -0.260161 0)
(-0.0338011 -0.269598 0)
(-0.052313 -0.260302 0)
(-0.0635327 -0.2457 0)
(-0.0728336 -0.228281 0)
(-0.0794655 -0.199413 0)
(-0.0802278 -0.168517 0)
(-0.0781287 -0.151812 0)
(-0.0764079 -0.151953 0)
(-0.0724987 -0.15309 0)
(0.00512194 -0.0976737 0)
(0.0120445 -0.125855 0)
(0.012846 -0.132196 0)
(0.00762947 -0.133516 0)
(0.00128223 -0.132581 0)
(-0.00460321 -0.131052 0)
(-0.010538 -0.127324 0)
(-0.00977014 -0.120544 0)
(-0.00493586 -0.116644 0)
(0.0114629 -0.108627 0)
(0.0262471 -0.12876 0)
(0.0165667 -0.156136 0)
(-0.00395405 -0.193611 0)
(-0.0293262 -0.224988 0)
(-0.0569232 -0.237329 0)
(-0.0726386 -0.23532 0)
(-0.0825716 -0.227545 0)
(-0.092633 -0.221303 0)
(-0.100109 -0.209778 0)
(-0.0984691 -0.201527 0)
(-0.0945877 -0.195659 0)
(-0.0894968 -0.191507 0)
(-0.0856158 -0.187306 0)
(0.00309707 -0.103266 0)
(0.00455234 -0.127095 0)
(0.0022909 -0.128826 0)
(-0.00073566 -0.13028 0)
(-0.00294952 -0.130505 0)
(-0.00464442 -0.129406 0)
(-0.00507847 -0.127086 0)
(-0.00185346 -0.124722 0)
(0.000994101 -0.12455 0)
(0.00990696 -0.120871 0)
(0.0170573 -0.131606 0)
(0.0127911 -0.14712 0)
(0.00280542 -0.169871 0)
(-0.0200401 -0.192267 0)
(-0.0479044 -0.20884 0)
(-0.0669701 -0.216489 0)
(-0.079015 -0.213695 0)
(-0.0861832 -0.207009 0)
(-0.0879327 -0.193794 0)
(-0.0903358 -0.187047 0)
(-0.0942331 -0.184002 0)
(-0.0947647 -0.179635 0)
(-0.0929341 -0.17514 0)
(0.00163091 -0.105538 0)
(0.000955058 -0.126041 0)
(-0.000304551 -0.127194 0)
(-0.0016354 -0.128793 0)
(-0.00298548 -0.129963 0)
(-0.0032315 -0.129581 0)
(-0.00206863 -0.129131 0)
(0.000719216 -0.128497 0)
(0.00313424 -0.129014 0)
(0.00874071 -0.12725 0)
(0.013408 -0.133216 0)
(0.0134987 -0.144495 0)
(0.0114526 -0.162309 0)
(0.000598507 -0.177437 0)
(-0.0171225 -0.189973 0)
(-0.0336491 -0.200216 0)
(-0.0498553 -0.204092 0)
(-0.0618592 -0.204962 0)
(-0.0710356 -0.194829 0)
(-0.0775991 -0.183823 0)
(-0.0899264 -0.181449 0)
(-0.0967954 -0.18146 0)
(-0.0996049 -0.177697 0)
(0.000579904 -0.106221 0)
(0.000188206 -0.125201 0)
(-0.000140255 -0.126058 0)
(-0.000228354 -0.12741 0)
(-0.000961645 -0.128832 0)
(-0.00155456 -0.130092 0)
(-0.00149287 -0.130657 0)
(-0.000167079 -0.131077 0)
(0.00136621 -0.132177 0)
(0.00404802 -0.1319 0)
(0.00863152 -0.136993 0)
(0.010103 -0.146055 0)
(0.00802714 -0.157215 0)
(0.00012586 -0.166015 0)
(-0.011468 -0.177302 0)
(-0.0228752 -0.185562 0)
)
;

boundaryField
{
    leftWall
    {
        type            calculated;
        value           uniform (0 0 0);
    }
    rightWall
    {
        type            calculated;
        value           nonuniform 0();
    }
    lowerWall
    {
        type            calculated;
        value           uniform (0 0 0);
    }
    atmosphere
    {
        type            calculated;
        value           nonuniform 0();
    }
    defaultFaces
    {
        type            empty;
    }
    procBoundary0to1
    {
        type            processor;
        value           nonuniform List<vector> 
26
(
(-0.00345895 0.00696 0)
(-0.00362204 0.0214335 0)
(0.0406486 0.0496726 0)
(0.0277534 0.0818927 0)
(0.0381703 0.105069 0)
(0.0214079 0.136805 0)
(0.0206265 0.141821 0)
(0.0272143 0.167085 0)
(0.118991 0.154674 0)
(0.100399 0.015673 0)
(0.242399 -0.00402639 0)
(0.671526 0.0297788 0)
(0.656663 -0.0871173 0)
(0.508309 -0.14404 0)
(0.282218 -0.170173 0)
(0.0591402 -0.327702 0)
(0.0591402 -0.327702 0)
(0.108456 0.347372 0)
(0.557498 -0.63306 0)
(0.200338 -0.058949 0)
(0.119653 -0.29343 0)
(0.00750078 -0.198658 0)
(-0.0765221 -0.175948 0)
(-0.0877842 -0.197875 0)
(-0.0940223 -0.180933 0)
(-0.1043 -0.179039 0)
)
;
    }
    procBoundary0to2
    {
        type            processor;
        value           nonuniform List<vector> 
24
(
(-0.0405793 -0.188517 0)
(-0.0551524 -0.186361 0)
(-0.0664109 -0.181522 0)
(-0.0759212 -0.170755 0)
(-0.085725 -0.165759 0)
(-0.0986177 -0.167316 0)
(-0.105032 -0.167904 0)
(0.000143663 -0.105754 0)
(0.00041714 -0.124716 0)
(0.000559604 -0.12598 0)
(-5.24077e-05 -0.127413 0)
(-0.000917891 -0.128312 0)
(-0.00267055 -0.129626 0)
(-0.0042784 -0.130392 0)
(-0.00554709 -0.13162 0)
(-0.00643259 -0.133149 0)
(-0.00579064 -0.135777 0)
(-0.00407381 -0.140005 0)
(-0.00269864 -0.146458 0)
(-0.00539731 -0.152749 0)
(-0.0099756 -0.160268 0)
(-0.0190392 -0.167968 0)
(-0.0405793 -0.188517 0)
(-0.0306962 -0.169815 0)
)
;
    }
}


// ************************************************************************* //
