/*--------------------------------*- C++ -*----------------------------------*\
| =========                 |                                                 |
| \\      /  F ield         | OpenFOAM: The Open Source CFD Toolbox           |
|  \\    /   O peration     | Version:  2.4.0                                 |
|   \\  /    A nd           | Web:      www.OpenFOAM.org                      |
|    \\/     M anipulation  |                                                 |
\*---------------------------------------------------------------------------*/
FoamFile
{
    version     2.0;
    format      ascii;
    class       volVectorField;
    location    "0.5";
    object      U.air;
}
// * * * * * * * * * * * * * * * * * * * * * * * * * * * * * * * * * * * * * //

dimensions      [0 1 -1 0 0 0 0];

internalField   nonuniform List<vector> 
575
(
(0.0163665 -0.00734932 0)
(0.0462288 -0.00773224 0)
(0.0797791 -0.00593924 0)
(0.103258 -0.00956876 0)
(0.150796 -0.00635262 0)
(0.168165 -0.00632622 0)
(0.196276 -0.00805482 0)
(0.237499 -0.00871009 0)
(0.274912 -0.00702273 0)
(0.296988 -0.00418414 0)
(0.308903 -0.00427781 0)
(0.337237 -0.0057116 0)
(0.356355 -0.00523791 0)
(0.38146 -0.00660039 0)
(0.381693 -0.00965577 0)
(0.36917 -0.00962421 0)
(0.340716 0.0035145 0)
(0.281057 0.00474308 0)
(0.22262 0.0142011 0)
(0.155218 0.00344257 0)
(0.126909 0.0149484 0)
(0.0653033 0.0161401 0)
(0.0165295 -0.022346 0)
(0.0458198 -0.0238688 0)
(0.0809457 -0.0176188 0)
(0.104737 -0.0299505 0)
(0.147904 -0.0187146 0)
(0.168789 -0.0185049 0)
(0.199357 -0.027175 0)
(0.238385 -0.0255078 0)
(0.273058 -0.0234164 0)
(0.292036 -0.0123676 0)
(0.315165 -0.0132833 0)
(0.344169 -0.0168163 0)
(0.36477 -0.0128374 0)
(0.37552 -0.00107375 0)
(0.383371 0.0195249 0)
(0.373022 0.036597 0)
(0.342813 0.043503 0)
(0.290201 0.0541182 0)
(0.219412 0.0464772 0)
(0.174837 0.0390653 0)
(0.116595 0.0283564 0)
(0.0758199 0.0406838 0)
(0.0166592 -0.0380147 0)
(0.0455643 -0.0400079 0)
(0.0814409 -0.03238 0)
(0.106658 -0.0467586 0)
(0.143209 -0.0341925 0)
(0.172831 -0.0352121 0)
(0.202037 -0.0440112 0)
(0.239784 -0.042265 0)
(0.266627 -0.0394515 0)
(0.287719 -0.0289789 0)
(0.325387 -0.0348737 0)
(0.356393 -0.0368145 0)
(0.372807 -0.0328687 0)
(0.386938 -0.0248742 0)
(0.384058 -0.0186543 0)
(0.371894 0.000663673 0)
(0.338459 0.0379701 0)
(0.297716 0.0626346 0)
(0.217946 0.0691314 0)
(0.181454 0.054391 0)
(0.128865 0.055902 0)
(0.102351 0.0683326 0)
(0.0168497 -0.0424757 0)
(0.0449765 -0.04406 0)
(0.0816091 -0.0357491 0)
(0.108199 -0.0502275 0)
(0.138951 -0.0357675 0)
(0.175194 -0.037346 0)
(0.203488 -0.0459265 0)
(0.239089 -0.0381428 0)
(0.257243 -0.0332021 0)
(0.291799 -0.0248075 0)
(0.331318 -0.0290291 0)
(0.352877 -0.0202863 0)
(0.364621 -0.00830399 0)
(0.376154 0.0108494 0)
(0.376585 0.0423626 0)
(0.386125 0.081355 0)
(0.364839 0.0968907 0)
(0.318113 0.110364 0)
(0.249801 0.094387 0)
(0.178747 0.0739064 0)
(0.114179 0.0634028 0)
(0.0929282 0.0874954 0)
(0.0172138 -0.101443 0)
(0.0436386 -0.104531 0)
(0.0815608 -0.0972422 0)
(0.110378 -0.113565 0)
(0.131626 -0.102073 0)
(0.176432 -0.109339 0)
(0.206152 -0.12459 0)
(0.226982 -0.118079 0)
(0.254188 -0.124329 0)
(0.2981 -0.121268 0)
(0.323848 -0.131765 0)
(0.347445 -0.118914 0)
(0.370338 -0.11212 0)
(0.392389 -0.0863208 0)
(0.394463 -0.0607136 0)
(0.385526 -0.0219455 0)
(0.354408 0.0632265 0)
(0.321068 0.137513 0)
(0.25524 0.146886 0)
(0.188366 0.117925 0)
(0.0932938 0.0985949 0)
(0.067251 0.0964995 0)
(0.014142 -0.176345 0)
(0.0373753 -0.175657 0)
(0.0678476 -0.176226 0)
(0.0982389 -0.171679 0)
(0.109427 -0.174751 0)
(0.142411 -0.174444 0)
(0.166883 -0.155018 0)
(0.187962 -0.146684 0)
(0.210508 -0.136899 0)
(0.240627 -0.122971 0)
(0.257476 -0.0966735 0)
(0.276513 -0.074993 0)
(0.302335 -0.0485849 0)
(0.309575 -0.0303512 0)
(0.312667 -0.00263572 0)
(0.32826 0.0143639 0)
(0.319082 0.0494726 0)
(0.302879 0.122349 0)
(0.225266 0.157229 0)
(0.180314 0.145056 0)
(0.0918965 0.120361 0)
(0.0389897 0.121813 0)
(0.000722159 -0.0620315 0)
(0.00845831 -0.0660327 0)
(0.00872577 -0.0682392 0)
(0.0193883 -0.0780414 0)
(0.0235122 -0.0791134 0)
(0.0298481 -0.0961598 0)
(0.0461327 -0.111887 0)
(0.0614545 -0.119142 0)
(0.0815674 -0.132278 0)
(0.101817 -0.13675 0)
(0.115027 -0.144274 0)
(0.119513 -0.147782 0)
(0.115247 -0.146528 0)
(0.113712 -0.142572 0)
(0.131163 -0.132668 0)
(0.203129 -0.0352548 0)
(0.255823 0.0902545 0)
(0.21226 0.133944 0)
(0.162861 0.174413 0)
(0.141624 0.16896 0)
(0.0979093 0.152227 0)
(0.0338984 0.129634 0)
(9.18147e-05 -0.122101 0)
(0.00386284 -0.120728 0)
(0.00469241 -0.122851 0)
(0.0110847 -0.114895 0)
(0.0157165 -0.116671 0)
(0.0303081 -0.120199 0)
(0.0465666 -0.106204 0)
(0.059943 -0.101139 0)
(0.090737 -0.0962738 0)
(0.117693 -0.0823375 0)
(0.140207 -0.0559362 0)
(0.156873 -0.0335648 0)
(0.161873 0.00022615 0)
(0.149085 0.0386645 0)
(0.0891083 0.0809589 0)
(-0.00113366 0.030311 0)
(0.108203 0.0129025 0)
(0.116685 0.135298 0)
(0.0400639 0.148582 0)
(0.0481379 0.167255 0)
(0.0663232 0.175061 0)
(0.0475373 0.150034 0)
(0.000236931 -0.0475586 0)
(0.00231518 -0.0494489 0)
(0.00427445 -0.0537818 0)
(0.00870321 -0.0520846 0)
(0.012565 -0.0574067 0)
(0.0217834 -0.0756608 0)
(0.0395292 -0.0734373 0)
(0.0557207 -0.0824882 0)
(0.0870012 -0.0913451 0)
(0.106917 -0.0872949 0)
(0.118899 -0.0784781 0)
(0.129725 -0.0831818 0)
(0.131368 -0.0786521 0)
(0.145105 -0.07928 0)
(0.169806 -0.0483209 0)
(0.19147 0.0277237 0)
(0.141835 0.182635 0)
(0.159236 0.18493 0)
(0.0507017 0.214381 0)
(-0.0274048 0.120788 0)
(-0.00953992 0.133427 0)
(0.052728 0.139963 0)
(0.00129941 -0.107817 0)
(0.00478404 -0.109959 0)
(0.00854383 -0.111051 0)
(0.0121275 -0.111633 0)
(0.0203008 -0.116963 0)
(0.0227948 -0.136752 0)
(0.0396541 -0.139265 0)
(0.0606602 -0.15876 0)
(0.0986725 -0.157363 0)
(0.119151 -0.142858 0)
(0.139572 -0.117425 0)
(0.170311 -0.0965795 0)
(0.174163 -0.0507621 0)
(0.181322 -0.0142972 0)
(0.158041 0.0191558 0)
(0.135201 0.0270181 0)
(0.149995 0.0748668 0)
(0.170788 0.189582 0)
(0.20107 0.27251 0)
(0.064284 0.188633 0)
(0.0287667 0.0741465 0)
(0.0472219 0.00651376 0)
(0.00215731 -0.0137871 0)
(0.00606861 -0.0239801 0)
(0.00974604 -0.0555796 0)
(0.00820539 -0.100375 0)
(0.00900396 -0.113572 0)
(0.0069186 -0.124344 0)
(0.0309853 -0.135874 0)
(0.0638705 -0.167613 0)
(0.115591 -0.161715 0)
(0.143253 -0.148618 0)
(0.176911 -0.121072 0)
(0.200267 -0.100732 0)
(0.213222 -0.0496757 0)
(0.242976 -0.0228932 0)
(0.237279 0.0202608 0)
(0.25465 0.0782676 0)
(0.23666 0.139358 0)
(0.231031 0.211204 0)
(0.298135 0.275156 0)
(0.350536 0.259607 0)
(0.277946 0.142646 0)
(0.235429 0.0419684 0)
(-0.0106805 0.272843 0)
(-0.0357203 0.258058 0)
(-0.0326874 0.211723 0)
(-0.0036778 0.138138 0)
(0.0157888 0.0959852 0)
(-0.0040633 0.0421494 0)
(0.00392103 -0.0299172 0)
(0.0394089 -0.0784505 0)
(0.0967513 -0.0228775 0)
(0.125445 0.00027983 0)
(0.162863 -0.126741 0)
(0.167512 -0.126009 0)
(0.19125 -0.0779952 0)
(0.213087 -0.048062 0)
(0.220373 0.00345086 0)
(0.25493 0.0348836 0)
(0.254087 0.104621 0)
(0.297054 0.137865 0)
(0.353774 0.207761 0)
(0.446484 0.187336 0)
(0.516402 0.153224 0)
(0.564509 0.068604 0)
(0.00449009 0.136672 0)
(0.00362974 0.152475 0)
(0.0106486 0.202919 0)
(-0.0235991 0.283471 0)
(-0.111481 0.337274 0)
(-0.147065 0.283016 0)
(-0.0967182 0.211822 0)
(-0.0729184 0.222575 0)
(-0.0670868 0.213787 0)
(-0.054226 0.226515 0)
(0.00703543 0.0313628 0)
(0.0329418 -0.0039879 0)
(0.0802614 0.003126 0)
(0.126735 0.0222895 0)
(0.143759 0.0668875 0)
(0.208316 0.113091 0)
(0.222454 0.118137 0)
(0.276923 0.103427 0)
(0.329183 0.131531 0)
(0.412164 0.106962 0)
(0.483708 0.0825559 0)
(0.554039 -0.0186822 0)
(-0.000758765 0.601848 0)
(-0.0292643 0.541732 0)
(-0.0470503 0.347514 0)
(0.00788811 0.0994783 0)
(0.0571398 -0.0229337 0)
(0.000503952 -0.118116 0)
(-0.134924 -0.1391 0)
(-0.342886 -0.0381131 0)
(-0.516648 0.0734264 0)
(-0.536696 0.0931513 0)
(-0.459678 0.176083 0)
(-0.451562 0.20328 0)
(-0.396455 0.201545 0)
(-0.324554 0.211095 0)
(-0.21607 0.233483 0)
(-0.110543 0.238771 0)
(0.0149873 0.222148 0)
(0.133471 0.158168 0)
(0.224246 0.156345 0)
(0.283145 0.119886 0)
(0.397659 0.105913 0)
(0.459098 0.00843178 0)
(0.0592135 -0.486354 0)
(0.158675 -0.416235 0)
(0.297409 -0.248695 0)
(0.315907 0.0624939 0)
(0.597765 0.476559 0)
(0.34017 0.941747 0)
(0.111292 1.44864 0)
(-0.441038 1.26981 0)
(-0.663625 0.398763 0)
(-0.649178 -0.109866 0)
(-0.58707 -0.234618 0)
(-0.514639 -0.15735 0)
(-0.479345 -0.0678694 0)
(-0.422988 0.0524522 0)
(-0.398631 0.142248 0)
(-0.354704 0.214269 0)
(-0.308513 0.247632 0)
(-0.221072 0.270485 0)
(-0.0454385 0.333586 0)
(0.0419345 0.292594 0)
(0.191858 0.278309 0)
(0.256891 0.231623 0)
(-0.0714086 -0.148636 0)
(-0.161646 -0.208088 0)
(-0.225691 -0.3342 0)
(-0.290887 -0.469008 0)
(-0.264019 -0.496058 0)
(-0.0531449 -0.366402 0)
(0.286849 -0.438069 0)
(0.63875 -0.253503 0)
(0.627943 -0.212655 0)
(0.300859 -0.0597485 0)
(0.0364741 0.210792 0)
(-0.202706 0.481946 0)
(-0.300091 0.273533 0)
(-0.299483 -0.0240224 0)
(-0.274247 -0.110812 0)
(-0.238008 -0.10639 0)
(-0.248238 -0.110432 0)
(-0.220208 -0.088994 0)
(-0.189043 -0.0475881 0)
(-0.140137 -0.0787066 0)
(-0.0754669 -0.0718459 0)
(-0.0109398 -0.117123 0)
(-0.018642 0.0802128 0)
(-0.0386652 0.0405912 0)
(-0.0513056 0.0227355 0)
(-0.0424928 0.0112143 0)
(-0.0924744 0.0722462 0)
(0.0882289 0.112383 0)
(0.0439969 0.155715 0)
(0.297533 0.442216 0)
(0.0608394 0.412633 0)
(0.0554223 -0.0875669 0)
(-0.0451251 -0.402004 0)
(0.133137 -0.517224 0)
(0.273584 -0.446857 0)
(0.357216 -0.19441 0)
(0.399485 0.0187957 0)
(0.504531 0.211899 0)
(0.45032 0.687326 0)
(0.309972 0.893759 0)
(0.221897 0.831641 0)
(0.147697 0.728764 0)
(0.141521 0.454662 0)
(0.170728 0.523814 0)
(0.132235 0.432748 0)
(0.0036779 -0.21219 0)
(0.00312331 -0.249056 0)
(-0.00772788 -0.289119 0)
(-0.0175194 -0.332605 0)
(-0.0474422 -0.375327 0)
(0.0155901 -0.333315 0)
(-0.0206399 -0.413805 0)
(0.114241 0.116888 0)
(0.229553 0.285956 0)
(0.26483 0.1562 0)
(0.0203238 0.00769266 0)
(0.013786 -0.160745 0)
(0.00434432 -0.28509 0)
(0.0244876 -0.374423 0)
(0.0407253 -0.453516 0)
(0.00673593 -0.536361 0)
(0.137978 -0.681859 0)
(0.309406 -0.809033 0)
(0.473155 -0.775857 0)
(0.603109 -0.7414 0)
(0.591591 -0.635627 0)
(0.562597 -0.641416 0)
(0.554484 -0.653736 0)
(-0.0126615 0.0625959 0)
(-0.0224799 0.00149342 0)
(-0.0277383 -0.0462171 0)
(-0.0373435 -0.0892654 0)
(-0.0556016 -0.118762 0)
(-0.0524597 -0.111523 0)
(-0.0867285 -0.153853 0)
(-0.0944381 -0.0487499 0)
(0.201709 0.142375 0)
(0.234703 0.0894827 0)
(0.248869 -0.036753 0)
(0.241093 -0.258813 0)
(0.215192 -0.283141 0)
(0.218297 -0.255462 0)
(0.252604 -0.162672 0)
(0.285988 -0.0350166 0)
(0.305981 0.134328 0)
(0.287579 0.181624 0)
(0.259789 0.150902 0)
(0.226827 0.137806 0)
(0.197431 0.0470215 0)
(0.19849 0.0113792 0)
(0.201901 -0.031152 0)
(0.0133885 -0.126599 0)
(0.0317841 -0.162553 0)
(0.032758 -0.184379 0)
(0.0234597 -0.203344 0)
(0.00118012 -0.212425 0)
(-0.0157777 -0.200349 0)
(-0.046849 -0.190535 0)
(-0.06888 -0.108716 0)
(-0.0106698 0.0255606 0)
(0.138272 0.0609334 0)
(0.165221 -0.0516579 0)
(0.193249 -0.237191 0)
(0.144326 -0.311501 0)
(0.101208 -0.350784 0)
(0.0800681 -0.381686 0)
(0.0795808 -0.405504 0)
(0.117211 -0.415625 0)
(0.175256 -0.412848 0)
(0.210967 -0.365174 0)
(0.24571 -0.290809 0)
(0.241265 -0.251064 0)
(0.213179 -0.271196 0)
(0.157222 -0.285415 0)
(0.0045805 -0.0372426 0)
(0.0140737 -0.0817403 0)
(0.0193261 -0.110632 0)
(0.0157057 -0.136218 0)
(0.00185604 -0.153563 0)
(-0.016256 -0.158324 0)
(-0.0408305 -0.161267 0)
(-0.0508326 -0.132782 0)
(-0.0447448 -0.0841277 0)
(0.0661812 -0.0445055 0)
(0.109326 -0.101584 0)
(0.114113 -0.181045 0)
(0.0866312 -0.223982 0)
(0.0554345 -0.247311 0)
(0.0327535 -0.241249 0)
(0.00968693 -0.211472 0)
(-0.00786224 -0.17907 0)
(-0.0211348 -0.167244 0)
(-0.0303168 -0.160714 0)
(-0.0199617 -0.152166 0)
(0.00655117 -0.156898 0)
(0.0144396 -0.167981 0)
(0.01593 -0.17364 0)
(0.00782229 -0.0957965 0)
(0.0194717 -0.124375 0)
(0.0244384 -0.133841 0)
(0.0204519 -0.140196 0)
(0.00979259 -0.141229 0)
(-0.00354036 -0.137458 0)
(-0.0177552 -0.131931 0)
(-0.0238001 -0.114028 0)
(-0.0197611 -0.103438 0)
(0.0228113 -0.0922649 0)
(0.0567248 -0.137074 0)
(0.0418394 -0.191716 0)
(0.0177122 -0.231825 0)
(-0.00867598 -0.260162 0)
(-0.0338011 -0.269598 0)
(-0.0523131 -0.260302 0)
(-0.0635328 -0.2457 0)
(-0.0728336 -0.228281 0)
(-0.0794655 -0.199413 0)
(-0.0802278 -0.168517 0)
(-0.0781287 -0.151812 0)
(-0.0764079 -0.151953 0)
(-0.0724987 -0.15309 0)
(0.00512195 -0.0976739 0)
(0.0120445 -0.125855 0)
(0.012846 -0.132196 0)
(0.00762948 -0.133516 0)
(0.00128223 -0.132581 0)
(-0.00460322 -0.131052 0)
(-0.010538 -0.127324 0)
(-0.00977015 -0.120544 0)
(-0.00493587 -0.116644 0)
(0.0114629 -0.108627 0)
(0.0262471 -0.12876 0)
(0.0165668 -0.156136 0)
(-0.00395405 -0.193612 0)
(-0.0293262 -0.224988 0)
(-0.0569232 -0.237329 0)
(-0.0726386 -0.23532 0)
(-0.0825716 -0.227545 0)
(-0.092633 -0.221303 0)
(-0.100109 -0.209778 0)
(-0.0984691 -0.201527 0)
(-0.0945877 -0.195659 0)
(-0.0894969 -0.191507 0)
(-0.0856159 -0.187306 0)
(0.00309708 -0.103266 0)
(0.00455234 -0.127095 0)
(0.0022909 -0.128826 0)
(-0.000735661 -0.13028 0)
(-0.00294952 -0.130505 0)
(-0.00464442 -0.129406 0)
(-0.00507847 -0.127086 0)
(-0.00185346 -0.124722 0)
(0.000994101 -0.12455 0)
(0.00990696 -0.120871 0)
(0.0170574 -0.131606 0)
(0.0127911 -0.14712 0)
(0.00280542 -0.169871 0)
(-0.0200401 -0.192267 0)
(-0.0479044 -0.20884 0)
(-0.0669701 -0.216489 0)
(-0.079015 -0.213695 0)
(-0.0861832 -0.207009 0)
(-0.0879326 -0.193794 0)
(-0.0903358 -0.187047 0)
(-0.0942331 -0.184002 0)
(-0.0947648 -0.179635 0)
(-0.0929341 -0.17514 0)
(0.00163091 -0.105538 0)
(0.000955059 -0.126041 0)
(-0.000304551 -0.127194 0)
(-0.0016354 -0.128793 0)
(-0.00298548 -0.129963 0)
(-0.0032315 -0.129581 0)
(-0.00206863 -0.129131 0)
(0.000719216 -0.128497 0)
(0.00313424 -0.129014 0)
(0.00874071 -0.12725 0)
(0.013408 -0.133216 0)
(0.0134987 -0.144495 0)
(0.0114526 -0.162309 0)
(0.000598507 -0.177437 0)
(-0.0171225 -0.189973 0)
(-0.0336491 -0.200216 0)
(-0.0498553 -0.204092 0)
(-0.0618592 -0.204962 0)
(-0.0710356 -0.194829 0)
(-0.077599 -0.183823 0)
(-0.0899264 -0.181449 0)
(-0.0967954 -0.18146 0)
(-0.099605 -0.177698 0)
(0.000579904 -0.106221 0)
(0.000188206 -0.125202 0)
(-0.000140255 -0.126058 0)
(-0.000228354 -0.12741 0)
(-0.000961646 -0.128832 0)
(-0.00155456 -0.130092 0)
(-0.00149287 -0.130657 0)
(-0.000167079 -0.131077 0)
(0.00136621 -0.132177 0)
(0.00404802 -0.1319 0)
(0.00863153 -0.136993 0)
(0.010103 -0.146055 0)
(0.00802714 -0.157215 0)
(0.00012586 -0.166015 0)
(-0.011468 -0.177302 0)
(-0.0228753 -0.185562 0)
)
;

boundaryField
{
    leftWall
    {
        type            fixedValue;
        value           uniform (0 0 0);
    }
    rightWall
    {
        type            fixedValue;
        value           nonuniform 0();
    }
    lowerWall
    {
        type            fixedValue;
        value           uniform (0 0 0);
    }
    atmosphere
    {
        type            fluxCorrectedVelocity;
        value           nonuniform 0();
    }
    defaultFaces
    {
        type            empty;
    }
    procBoundary0to1
    {
        type            processor;
        value           nonuniform List<vector> 
26
(
(-0.00345883 0.00696008 0)
(-0.00362193 0.0214341 0)
(0.0406488 0.0496738 0)
(0.0277536 0.0818941 0)
(0.0381705 0.10507 0)
(0.0214082 0.136806 0)
(0.0206268 0.141821 0)
(0.0272149 0.167086 0)
(0.118994 0.154675 0)
(0.100208 0.0167874 0)
(0.236141 -0.0593104 0)
(0.624055 -0.0319136 0)
(0.646945 -0.0991237 0)
(0.514291 -0.0337272 0)
(0.323548 0.163753 0)
(0.0695085 -0.159891 0)
(0.0695085 -0.159891 0)
(0.108403 0.349024 0)
(0.557497 -0.63306 0)
(0.200338 -0.058949 0)
(0.119653 -0.29343 0)
(0.00750078 -0.198658 0)
(-0.0765221 -0.175948 0)
(-0.0877842 -0.197875 0)
(-0.0940223 -0.180933 0)
(-0.1043 -0.179039 0)
)
;
    }
    procBoundary0to2
    {
        type            processor;
        value           nonuniform List<vector> 
24
(
(-0.0405793 -0.188517 0)
(-0.0551523 -0.186361 0)
(-0.0664109 -0.181522 0)
(-0.0759212 -0.170755 0)
(-0.085725 -0.165759 0)
(-0.0986178 -0.167316 0)
(-0.105032 -0.167904 0)
(0.000143663 -0.105754 0)
(0.00041714 -0.124717 0)
(0.000559605 -0.12598 0)
(-5.24078e-05 -0.127413 0)
(-0.000917892 -0.128312 0)
(-0.00267055 -0.129626 0)
(-0.0042784 -0.130392 0)
(-0.00554709 -0.13162 0)
(-0.00643259 -0.133149 0)
(-0.00579064 -0.135777 0)
(-0.00407381 -0.140005 0)
(-0.00269864 -0.146458 0)
(-0.00539731 -0.15275 0)
(-0.0099756 -0.160268 0)
(-0.0190392 -0.167969 0)
(-0.0405793 -0.188517 0)
(-0.0306962 -0.169815 0)
)
;
    }
}


// ************************************************************************* //
