/*--------------------------------*- C++ -*----------------------------------*\
| =========                 |                                                 |
| \\      /  F ield         | OpenFOAM: The Open Source CFD Toolbox           |
|  \\    /   O peration     | Version:  2.4.0                                 |
|   \\  /    A nd           | Web:      www.OpenFOAM.org                      |
|    \\/     M anipulation  |                                                 |
\*---------------------------------------------------------------------------*/
FoamFile
{
    version     2.0;
    format      ascii;
    class       volVectorField;
    location    "0.5";
    object      U.mercury;
}
// * * * * * * * * * * * * * * * * * * * * * * * * * * * * * * * * * * * * * //

dimensions      [0 1 -1 0 0 0 0];

internalField   nonuniform List<vector> 
575
(
(0.0163665 -0.00734938 0)
(0.0462288 -0.0077323 0)
(0.079779 -0.00593929 0)
(0.103258 -0.00956882 0)
(0.150796 -0.00635267 0)
(0.168165 -0.00632627 0)
(0.196275 -0.00805486 0)
(0.237499 -0.00871011 0)
(0.274912 -0.00702273 0)
(0.296988 -0.00418412 0)
(0.308903 -0.0042778 0)
(0.337237 -0.0057116 0)
(0.356355 -0.00523792 0)
(0.381461 -0.00660041 0)
(0.381693 -0.00965581 0)
(0.369171 -0.00962427 0)
(0.340717 0.0035144 0)
(0.281057 0.00474301 0)
(0.222621 0.014201 0)
(0.155218 0.00344247 0)
(0.126909 0.0149483 0)
(0.0653031 0.0161399 0)
(0.0165295 -0.022346 0)
(0.0458197 -0.0238689 0)
(0.0809457 -0.0176188 0)
(0.104737 -0.0299506 0)
(0.147904 -0.0187147 0)
(0.168789 -0.0185049 0)
(0.199357 -0.027175 0)
(0.238385 -0.0255077 0)
(0.273057 -0.0234162 0)
(0.292035 -0.0123675 0)
(0.315165 -0.0132832 0)
(0.344168 -0.0168162 0)
(0.36477 -0.0128373 0)
(0.37552 -0.00107379 0)
(0.383372 0.0195247 0)
(0.373023 0.0365966 0)
(0.342814 0.0435026 0)
(0.290201 0.0541179 0)
(0.219412 0.0464769 0)
(0.174837 0.039065 0)
(0.116595 0.0283559 0)
(0.0758197 0.040683 0)
(0.0166592 -0.0380149 0)
(0.0455643 -0.040008 0)
(0.0814408 -0.0323801 0)
(0.106658 -0.0467588 0)
(0.143209 -0.0341926 0)
(0.172831 -0.0352123 0)
(0.202036 -0.0440114 0)
(0.239783 -0.042265 0)
(0.266626 -0.0394514 0)
(0.287719 -0.0289787 0)
(0.325387 -0.0348736 0)
(0.356392 -0.0368145 0)
(0.372807 -0.0328687 0)
(0.386938 -0.0248744 0)
(0.384058 -0.0186546 0)
(0.371895 0.000663148 0)
(0.33846 0.0379693 0)
(0.297716 0.0626339 0)
(0.217946 0.0691309 0)
(0.181454 0.0543904 0)
(0.128864 0.0559011 0)
(0.102351 0.0683315 0)
(0.0168486 -0.0430494 0)
(0.0449756 -0.0447222 0)
(0.0816074 -0.0362519 0)
(0.108193 -0.0512192 0)
(0.138949 -0.036481 0)
(0.175186 -0.0382639 0)
(0.203471 -0.0473476 0)
(0.23908 -0.0395228 0)
(0.25723 -0.0347159 0)
(0.291782 -0.0263826 0)
(0.331318 -0.0310478 0)
(0.352913 -0.0222038 0)
(0.364697 -0.00998229 0)
(0.376232 0.00982047 0)
(0.376594 0.042248 0)
(0.386126 0.0813477 0)
(0.364839 0.0968891 0)
(0.318114 0.110363 0)
(0.249801 0.0943862 0)
(0.178747 0.0739056 0)
(0.114179 0.0634018 0)
(0.0929278 0.0874941 0)
(0.0171801 -0.11619 0)
(0.0436349 -0.119903 0)
(0.0814992 -0.111925 0)
(0.110312 -0.130813 0)
(0.131626 -0.118401 0)
(0.176184 -0.127194 0)
(0.205856 -0.145555 0)
(0.226832 -0.13948 0)
(0.25409 -0.147513 0)
(0.298039 -0.145806 0)
(0.323942 -0.159505 0)
(0.347788 -0.147353 0)
(0.371085 -0.140733 0)
(0.39324 -0.111748 0)
(0.396039 -0.0776191 0)
(0.386971 -0.0289681 0)
(0.354791 0.0617556 0)
(0.321074 0.137495 0)
(0.255241 0.146885 0)
(0.188366 0.117925 0)
(0.0932931 0.0985939 0)
(0.0672504 0.0964982 0)
(0.0143294 -0.285065 0)
(0.0381496 -0.288658 0)
(0.0689302 -0.28684 0)
(0.100276 -0.298261 0)
(0.112271 -0.299034 0)
(0.14668 -0.309098 0)
(0.173434 -0.308549 0)
(0.197813 -0.307706 0)
(0.224193 -0.311812 0)
(0.257377 -0.312988 0)
(0.277455 -0.312712 0)
(0.301497 -0.311006 0)
(0.333068 -0.307302 0)
(0.342926 -0.289368 0)
(0.350917 -0.245707 0)
(0.354023 -0.113991 0)
(0.333086 0.000329382 0)
(0.307644 0.110131 0)
(0.226002 0.155645 0)
(0.180318 0.145045 0)
(0.0918959 0.120361 0)
(0.038989 0.121812 0)
(0.009502 -0.451084 0)
(0.0257451 -0.436252 0)
(0.0396387 -0.432054 0)
(0.0556739 -0.376281 0)
(0.0624127 -0.361454 0)
(0.0676344 -0.321246 0)
(0.0624812 -0.255683 0)
(0.0649502 -0.216601 0)
(0.0817733 -0.201841 0)
(0.102465 -0.187663 0)
(0.1161 -0.183243 0)
(0.123368 -0.179764 0)
(0.121049 -0.174079 0)
(0.119097 -0.167234 0)
(0.206971 -0.19159 0)
(0.323184 -0.273633 0)
(0.340555 -0.153076 0)
(0.242865 0.0732188 0)
(0.168162 0.164404 0)
(0.142026 0.168022 0)
(0.0979093 0.152226 0)
(0.0338976 0.129633 0)
(0.000107385 -0.151452 0)
(0.00381414 -0.150158 0)
(0.00461673 -0.151596 0)
(0.0112101 -0.144503 0)
(0.0160218 -0.145261 0)
(0.0305084 -0.148203 0)
(0.0469427 -0.136272 0)
(0.0605649 -0.131212 0)
(0.0911842 -0.125351 0)
(0.117656 -0.111093 0)
(0.139712 -0.0857953 0)
(0.156895 -0.0637484 0)
(0.162646 -0.0304902 0)
(0.152916 0.00701116 0)
(0.0968962 0.0494236 0)
(0.00984611 -0.000224254 0)
(0.252599 -0.202175 0)
(0.245583 -0.0415641 0)
(0.0593713 0.116866 0)
(0.0497365 0.164099 0)
(0.0663308 0.175035 0)
(0.047536 0.150034 0)
(0.000681398 -0.0766078 0)
(0.00339367 -0.078007 0)
(0.00589456 -0.0814512 0)
(0.0108098 -0.079972 0)
(0.0145543 -0.0840261 0)
(0.0237 -0.0998042 0)
(0.0413131 -0.0974322 0)
(0.0571531 -0.104529 0)
(0.088572 -0.111564 0)
(0.109296 -0.10649 0)
(0.122695 -0.0972592 0)
(0.134905 -0.101441 0)
(0.137663 -0.0968059 0)
(0.149856 -0.0973557 0)
(0.171859 -0.0703144 0)
(0.193565 0.000183097 0)
(0.155754 0.117888 0)
(0.260833 -0.130697 0)
(0.0889585 0.0746588 0)
(-0.0166932 0.0991579 0)
(-0.00851188 0.130809 0)
(0.0527756 0.13967 0)
(0.00138154 -0.115953 0)
(0.00499445 -0.117935 0)
(0.00881685 -0.118699 0)
(0.0124198 -0.11924 0)
(0.0205695 -0.124346 0)
(0.0230411 -0.14352 0)
(0.0398872 -0.145792 0)
(0.0607913 -0.164877 0)
(0.0987759 -0.163103 0)
(0.119311 -0.148565 0)
(0.139657 -0.123446 0)
(0.170444 -0.102962 0)
(0.174374 -0.0578117 0)
(0.181794 -0.0218496 0)
(0.159038 0.0107219 0)
(0.137343 0.0157411 0)
(0.151601 0.0600952 0)
(0.189657 0.0946924 0)
(0.183349 -0.0569221 0)
(0.0565677 0.0656879 0)
(0.0332287 0.0439091 0)
(0.0496711 -0.00341869 0)
(0.00218216 -0.107909 0)
(0.0061408 -0.1121 0)
(0.00984287 -0.116186 0)
(0.00832732 -0.118375 0)
(0.00916625 -0.119468 0)
(0.00705858 -0.132805 0)
(0.031048 -0.146244 0)
(0.0638827 -0.179024 0)
(0.115593 -0.17065 0)
(0.143276 -0.152854 0)
(0.176969 -0.123011 0)
(0.200356 -0.102417 0)
(0.213308 -0.051144 0)
(0.243073 -0.0242756 0)
(0.237358 0.0187405 0)
(0.254577 0.0758945 0)
(0.236289 0.133689 0)
(0.231445 0.204213 0)
(0.26418 0.081684 0)
(0.22475 -0.0482422 0)
(0.203536 -0.00879693 0)
(0.212898 -0.040989 0)
(0.00037297 -0.0576142 0)
(-0.000152402 -0.056879 0)
(0.00495353 -0.0479221 0)
(0.0110751 -0.0398288 0)
(0.0175814 -0.0500352 0)
(-0.00474534 -0.103504 0)
(0.00208591 -0.166647 0)
(0.0370151 -0.231275 0)
(0.0944989 -0.230894 0)
(0.123706 -0.214126 0)
(0.161278 -0.173348 0)
(0.166966 -0.1404 0)
(0.191026 -0.087213 0)
(0.213064 -0.0540164 0)
(0.220432 0.000602032 0)
(0.255006 0.0338663 0)
(0.254089 0.103275 0)
(0.29713 0.136563 0)
(0.343275 0.170033 0)
(0.397247 0.0227947 0)
(0.33068 -0.125397 0)
(0.370385 -0.145994 0)
(0.00904743 -0.28325 0)
(0.0166025 -0.278745 0)
(0.0220135 -0.260928 0)
(-0.00902693 -0.232714 0)
(-0.0793468 -0.189259 0)
(-0.106433 -0.191103 0)
(-0.0809077 -0.227352 0)
(-0.0688725 -0.301873 0)
(-0.0540253 -0.284645 0)
(-0.0368324 -0.242832 0)
(0.0193835 -0.192767 0)
(0.0344594 -0.16717 0)
(0.0777644 -0.131806 0)
(0.123579 -0.0907605 0)
(0.141094 -0.0388734 0)
(0.206066 0.0290612 0)
(0.221382 0.0729057 0)
(0.276977 0.100629 0)
(0.329588 0.128233 0)
(0.416801 0.0645474 0)
(0.412317 -0.100967 0)
(0.43382 -0.273818 0)
(0.0131778 -0.406721 0)
(0.0179187 -0.445284 0)
(0.0363167 -0.518708 0)
(0.0660006 -0.562519 0)
(0.0798678 -0.523071 0)
(0.0274073 -0.510349 0)
(-0.117907 -0.542947 0)
(-0.314495 -0.584667 0)
(-0.487246 -0.447985 0)
(-0.500593 -0.368746 0)
(-0.400152 -0.271301 0)
(-0.37026 -0.206528 0)
(-0.306231 -0.149017 0)
(-0.250525 -0.0923582 0)
(-0.16741 -0.0546175 0)
(-0.0808825 -0.00676492 0)
(0.0295074 0.0455728 0)
(0.133354 0.0469388 0)
(0.222214 0.0506185 0)
(0.282237 -0.00726545 0)
(0.398227 -0.0198492 0)
(0.455728 -0.115152 0)
(0.059216 -0.486369 0)
(0.158658 -0.416253 0)
(0.297373 -0.24873 0)
(0.315854 0.0624381 0)
(0.597459 0.476013 0)
(0.321622 0.880977 0)
(0.00425924 0.703249 0)
(-0.482488 0.218889 0)
(-0.646605 -0.362773 0)
(-0.643551 -0.571971 0)
(-0.551089 -0.583849 0)
(-0.459389 -0.461564 0)
(-0.423503 -0.394204 0)
(-0.385845 -0.32473 0)
(-0.368604 -0.263631 0)
(-0.323456 -0.199601 0)
(-0.276609 -0.15725 0)
(-0.179814 -0.101072 0)
(-0.030399 -0.0306899 0)
(0.0264047 -0.0808743 0)
(0.17187 -0.0603877 0)
(0.219422 -0.126768 0)
(-0.0714105 -0.148678 0)
(-0.161654 -0.208129 0)
(-0.22571 -0.334236 0)
(-0.290912 -0.469024 0)
(-0.264039 -0.496061 0)
(-0.0530803 -0.366804 0)
(0.286432 -0.438872 0)
(0.633873 -0.257786 0)
(0.622295 -0.216146 0)
(0.299433 -0.0618377 0)
(0.000917568 0.121902 0)
(-0.2654 -0.0541219 0)
(-0.314538 -0.454955 0)
(-0.287747 -0.555642 0)
(-0.270999 -0.533896 0)
(-0.24089 -0.480248 0)
(-0.23305 -0.452922 0)
(-0.191285 -0.41183 0)
(-0.178199 -0.383202 0)
(-0.136775 -0.410956 0)
(-0.0813136 -0.388816 0)
(-0.0290927 -0.451302 0)
(-0.0186456 0.0801954 0)
(-0.0386758 0.0405746 0)
(-0.0513224 0.0227207 0)
(-0.042514 0.0112057 0)
(-0.0924943 0.0722421 0)
(0.0882148 0.112383 0)
(0.0439789 0.155713 0)
(0.29751 0.442215 0)
(0.0608145 0.412647 0)
(0.0554086 -0.0875546 0)
(-0.0451188 -0.401989 0)
(0.133151 -0.517215 0)
(0.273596 -0.446851 0)
(0.357231 -0.194419 0)
(0.399465 0.018741 0)
(0.504115 0.211442 0)
(0.442482 0.660349 0)
(0.251411 0.564731 0)
(0.139343 0.218104 0)
(0.0916225 0.128972 0)
(0.0549262 -0.188098 0)
(0.122642 0.0277777 0)
(0.126538 0.0384892 0)
(0.00367608 -0.212211 0)
(0.00311766 -0.249075 0)
(-0.00773741 -0.289134 0)
(-0.0175317 -0.332616 0)
(-0.0474546 -0.375333 0)
(0.0155781 -0.333318 0)
(-0.0206554 -0.413808 0)
(0.114219 0.116888 0)
(0.229527 0.285972 0)
(0.264812 0.156215 0)
(0.0203173 0.00770685 0)
(0.0137895 -0.160736 0)
(0.00435568 -0.285085 0)
(0.0245061 -0.374416 0)
(0.0407529 -0.45351 0)
(0.00677289 -0.536357 0)
(0.138019 -0.681866 0)
(0.309444 -0.809037 0)
(0.473185 -0.775864 0)
(0.60313 -0.741412 0)
(0.591604 -0.635639 0)
(0.562606 -0.641431 0)
(0.554478 -0.653774 0)
(-0.0126628 0.0625832 0)
(-0.0224841 0.00148204 0)
(-0.0277458 -0.0462265 0)
(-0.0373536 -0.0892723 0)
(-0.0556128 -0.118767 0)
(-0.0524718 -0.111526 0)
(-0.0867427 -0.153855 0)
(-0.0944535 -0.0487493 0)
(0.201694 0.142383 0)
(0.234694 0.0894951 0)
(0.248867 -0.0367387 0)
(0.241097 -0.258798 0)
(0.215203 -0.283127 0)
(0.218316 -0.255447 0)
(0.252627 -0.162659 0)
(0.286014 -0.035009 0)
(0.306006 0.134327 0)
(0.287601 0.181618 0)
(0.259808 0.150887 0)
(0.226841 0.137785 0)
(0.197439 0.046999 0)
(0.198495 0.0113578 0)
(0.201902 -0.0311739 0)
(0.0133877 -0.126608 0)
(0.0317814 -0.162561 0)
(0.032753 -0.184386 0)
(0.0234527 -0.203349 0)
(0.0011717 -0.212427 0)
(-0.0157875 -0.200349 0)
(-0.0468603 -0.190532 0)
(-0.0688919 -0.10871 0)
(-0.0106805 0.0255697 0)
(0.138265 0.0609451 0)
(0.16522 -0.0516455 0)
(0.193254 -0.237178 0)
(0.144338 -0.311488 0)
(0.101224 -0.350772 0)
(0.0800892 -0.381678 0)
(0.0796051 -0.405499 0)
(0.117236 -0.415623 0)
(0.175279 -0.412848 0)
(0.210986 -0.365176 0)
(0.245724 -0.290813 0)
(0.241273 -0.251068 0)
(0.213182 -0.2712 0)
(0.15722 -0.285418 0)
(0.00458001 -0.0372475 0)
(0.014072 -0.0817448 0)
(0.0193226 -0.110636 0)
(0.0157005 -0.13622 0)
(0.00184943 -0.153564 0)
(-0.0162637 -0.158323 0)
(-0.040839 -0.161264 0)
(-0.0508412 -0.132777 0)
(-0.0447519 -0.0841191 0)
(0.0661775 -0.0444943 0)
(0.109326 -0.101571 0)
(0.114118 -0.181032 0)
(0.0866417 -0.223969 0)
(0.0554489 -0.247299 0)
(0.0327707 -0.24124 0)
(0.00970533 -0.211466 0)
(-0.00784404 -0.179068 0)
(-0.0211181 -0.167246 0)
(-0.0303023 -0.16072 0)
(-0.0199495 -0.152174 0)
(0.00656114 -0.156907 0)
(0.014447 -0.167988 0)
(0.0159339 -0.173645 0)
(0.00782188 -0.0957981 0)
(0.0194703 -0.124376 0)
(0.0244356 -0.133842 0)
(0.0204478 -0.140196 0)
(0.00978737 -0.141228 0)
(-0.00354647 -0.137456 0)
(-0.0177617 -0.131927 0)
(-0.0238063 -0.114022 0)
(-0.0197658 -0.103429 0)
(0.0228095 -0.0922544 0)
(0.0567266 -0.137063 0)
(0.0418451 -0.191704 0)
(0.0177219 -0.231813 0)
(-0.00866311 -0.26015 0)
(-0.0337861 -0.269589 0)
(-0.0522973 -0.260295 0)
(-0.063517 -0.245696 0)
(-0.072819 -0.228279 0)
(-0.0794524 -0.199411 0)
(-0.0802166 -0.168516 0)
(-0.0781193 -0.151811 0)
(-0.0764003 -0.15195 0)
(-0.0724932 -0.153086 0)
(0.00512165 -0.0976741 0)
(0.0120435 -0.125855 0)
(0.012844 -0.132196 0)
(0.00762644 -0.133515 0)
(0.00127828 -0.132579 0)
(-0.00460783 -0.131049 0)
(-0.0105428 -0.127319 0)
(-0.00977441 -0.120537 0)
(-0.00493876 -0.116636 0)
(0.0114624 -0.108618 0)
(0.0262495 -0.128749 0)
(0.0165724 -0.156125 0)
(-0.0039452 -0.193601 0)
(-0.0293147 -0.224978 0)
(-0.0569102 -0.237321 0)
(-0.0726247 -0.235314 0)
(-0.0825578 -0.227541 0)
(-0.09262 -0.221301 0)
(-0.100097 -0.209776 0)
(-0.098458 -0.201525 0)
(-0.0945775 -0.195657 0)
(-0.0894878 -0.191504 0)
(-0.0856081 -0.187301 0)
(0.00309685 -0.103265 0)
(0.00455156 -0.127094 0)
(0.00228937 -0.128825 0)
(-0.000737962 -0.130278 0)
(-0.00295246 -0.130502 0)
(-0.00464777 -0.129402 0)
(-0.00508179 -0.127081 0)
(-0.0018562 -0.124716 0)
(0.000992618 -0.124543 0)
(0.00990747 -0.120862 0)
(0.0170604 -0.131596 0)
(0.0127967 -0.14711 0)
(0.00281344 -0.169861 0)
(-0.0200303 -0.192259 0)
(-0.0478933 -0.208834 0)
(-0.0669583 -0.216484 0)
(-0.0790026 -0.213691 0)
(-0.0861709 -0.207006 0)
(-0.0879208 -0.193792 0)
(-0.0903243 -0.187045 0)
(-0.0942223 -0.183999 0)
(-0.0947546 -0.179632 0)
(-0.0929241 -0.175135 0)
(0.00163073 -0.105536 0)
(0.000954435 -0.12604 0)
(-0.000305709 -0.127192 0)
(-0.00163708 -0.128791 0)
(-0.00298757 -0.12996 0)
(-0.00323379 -0.129578 0)
(-0.00207078 -0.129126 0)
(0.000717697 -0.12849 0)
(0.00313384 -0.129007 0)
(0.008742 -0.127242 0)
(0.0134113 -0.133208 0)
(0.0135042 -0.144487 0)
(0.01146 -0.162301 0)
(0.000607286 -0.17743 0)
(-0.0171128 -0.189967 0)
(-0.0336382 -0.200211 0)
(-0.049844 -0.204088 0)
(-0.0618475 -0.204959 0)
(-0.0710239 -0.194827 0)
(-0.0775877 -0.183821 0)
(-0.0899153 -0.181447 0)
(-0.0967843 -0.181457 0)
(-0.0995935 -0.177694 0)
(0.000579789 -0.106219 0)
(0.000187773 -0.1252 0)
(-0.000141072 -0.126056 0)
(-0.000229512 -0.127408 0)
(-0.000963018 -0.128829 0)
(-0.00155598 -0.130088 0)
(-0.00149406 -0.130653 0)
(-0.000167664 -0.131072 0)
(0.00136663 -0.132171 0)
(0.00404984 -0.131893 0)
(0.00863506 -0.136986 0)
(0.0101084 -0.146048 0)
(0.00803406 -0.157209 0)
(0.000133994 -0.166009 0)
(-0.011459 -0.177297 0)
(-0.0228655 -0.185557 0)
)
;

boundaryField
{
    leftWall
    {
        type            fixedValue;
        value           uniform (0 0 0);
    }
    rightWall
    {
        type            fixedValue;
        value           nonuniform 0();
    }
    lowerWall
    {
        type            fixedValue;
        value           uniform (0 0 0);
    }
    atmosphere
    {
        type            fluxCorrectedVelocity;
        value           nonuniform 0();
    }
    defaultFaces
    {
        type            empty;
    }
    procBoundary0to1
    {
        type            processor;
        value           nonuniform List<vector> 
26
(
(-0.00345894 0.00695983 0)
(-0.00362203 0.0214333 0)
(0.0406487 0.0496724 0)
(0.0277534 0.0818925 0)
(0.0381703 0.105068 0)
(0.0214079 0.136805 0)
(0.0206265 0.14182 0)
(0.0272143 0.167085 0)
(0.118991 0.154671 0)
(0.100794 0.0133787 0)
(0.230509 -0.108959 0)
(0.472382 -0.229081 0)
(0.511349 -0.335847 0)
(0.511186 -0.167217 0)
(0.281323 -0.18893 0)
(0.0501188 -0.487038 0)
(0.0501188 -0.487038 0)
(0.118907 0.0176786 0)
(0.557476 -0.63311 0)
(0.200334 -0.058966 0)
(0.119648 -0.293432 0)
(0.00750276 -0.198659 0)
(-0.0765173 -0.175941 0)
(-0.087777 -0.197868 0)
(-0.0940122 -0.180927 0)
(-0.104288 -0.179034 0)
)
;
    }
    procBoundary0to2
    {
        type            processor;
        value           nonuniform List<vector> 
24
(
(-0.0405683 -0.188513 0)
(-0.0551411 -0.186358 0)
(-0.0663997 -0.18152 0)
(-0.0759099 -0.170753 0)
(-0.0857137 -0.165758 0)
(-0.0986062 -0.167314 0)
(-0.105019 -0.167902 0)
(0.000143568 -0.105752 0)
(0.000416838 -0.124715 0)
(0.000559088 -0.125978 0)
(-5.31105e-05 -0.127411 0)
(-0.000918669 -0.128309 0)
(-0.00267126 -0.129622 0)
(-0.00427885 -0.130388 0)
(-0.00554699 -0.131616 0)
(-0.00643164 -0.133143 0)
(-0.00578851 -0.135772 0)
(-0.00407024 -0.139999 0)
(-0.00269352 -0.146452 0)
(-0.00539077 -0.152744 0)
(-0.00996811 -0.160263 0)
(-0.0190308 -0.167964 0)
(-0.0405683 -0.188513 0)
(-0.0306869 -0.169811 0)
)
;
    }
}


// ************************************************************************* //
