/*--------------------------------*- C++ -*----------------------------------*\
| =========                 |                                                 |
| \\      /  F ield         | OpenFOAM: The Open Source CFD Toolbox           |
|  \\    /   O peration     | Version:  2.4.0                                 |
|   \\  /    A nd           | Web:      www.OpenFOAM.org                      |
|    \\/     M anipulation  |                                                 |
\*---------------------------------------------------------------------------*/
FoamFile
{
    version     2.0;
    format      ascii;
    class       volVectorField;
    location    "0.5";
    object      U.oil;
}
// * * * * * * * * * * * * * * * * * * * * * * * * * * * * * * * * * * * * * //

dimensions      [0 1 -1 0 0 0 0];

internalField   nonuniform List<vector> 
575
(
(0.0163665 -0.00734932 0)
(0.0462288 -0.00773224 0)
(0.0797791 -0.00593925 0)
(0.103258 -0.00956876 0)
(0.150796 -0.00635262 0)
(0.168165 -0.00632622 0)
(0.196276 -0.00805482 0)
(0.237499 -0.00871009 0)
(0.274912 -0.00702274 0)
(0.296988 -0.00418414 0)
(0.308903 -0.00427781 0)
(0.337237 -0.00571159 0)
(0.356355 -0.00523783 0)
(0.38146 -0.00660017 0)
(0.381693 -0.00965513 0)
(0.36917 -0.00962233 0)
(0.340715 0.00351915 0)
(0.281055 0.00475153 0)
(0.222617 0.014214 0)
(0.155213 0.00346114 0)
(0.126828 0.0149832 0)
(0.0648937 0.0177843 0)
(0.0165295 -0.022346 0)
(0.0458198 -0.0238688 0)
(0.0809457 -0.0176188 0)
(0.104737 -0.0299505 0)
(0.147904 -0.0187146 0)
(0.168789 -0.0185049 0)
(0.199357 -0.027175 0)
(0.238385 -0.0255078 0)
(0.273058 -0.0234164 0)
(0.292036 -0.0123676 0)
(0.315165 -0.0132833 0)
(0.344169 -0.0168163 0)
(0.36477 -0.0128373 0)
(0.37552 -0.00107342 0)
(0.383371 0.019526 0)
(0.373021 0.0366007 0)
(0.34281 0.0435128 0)
(0.290194 0.0541388 0)
(0.219403 0.0465122 0)
(0.174827 0.0391089 0)
(0.116506 0.0284131 0)
(0.075349 0.0423099 0)
(0.0166592 -0.0380149 0)
(0.0455643 -0.0400081 0)
(0.0814409 -0.0323802 0)
(0.106658 -0.0467588 0)
(0.143209 -0.0341926 0)
(0.172831 -0.0352123 0)
(0.202037 -0.0440114 0)
(0.239784 -0.0422652 0)
(0.266627 -0.0394516 0)
(0.287719 -0.0289789 0)
(0.325387 -0.0348737 0)
(0.356393 -0.0368146 0)
(0.372807 -0.0328686 0)
(0.386938 -0.0248739 0)
(0.384058 -0.0186531 0)
(0.371893 0.000668193 0)
(0.338453 0.0379853 0)
(0.297701 0.0626797 0)
(0.21792 0.0692392 0)
(0.181426 0.0545354 0)
(0.128776 0.0560361 0)
(0.101826 0.0698688 0)
(0.0168494 -0.0426196 0)
(0.0449763 -0.0442263 0)
(0.0816087 -0.0358746 0)
(0.108198 -0.0504763 0)
(0.13895 -0.0359466 0)
(0.175192 -0.0375763 0)
(0.203485 -0.0461726 0)
(0.239088 -0.0383855 0)
(0.257241 -0.0334548 0)
(0.291797 -0.025064 0)
(0.331318 -0.0293113 0)
(0.352883 -0.0205637 0)
(0.364633 -0.0085674 0)
(0.376173 0.0105961 0)
(0.376587 0.0423381 0)
(0.386123 0.0813703 0)
(0.364829 0.0969305 0)
(0.318073 0.110465 0)
(0.249712 0.0946596 0)
(0.178645 0.0743036 0)
(0.114042 0.0637415 0)
(0.0923927 0.0890694 0)
(0.0172135 -0.101574 0)
(0.0436386 -0.104644 0)
(0.0815602 -0.0973738 0)
(0.110377 -0.113623 0)
(0.131626 -0.102155 0)
(0.176431 -0.109375 0)
(0.206153 -0.12453 0)
(0.226982 -0.117999 0)
(0.254189 -0.124191 0)
(0.2981 -0.121084 0)
(0.323847 -0.131486 0)
(0.347442 -0.118617 0)
(0.37033 -0.111833 0)
(0.392383 -0.0861508 0)
(0.394471 -0.0608068 0)
(0.385586 -0.0222366 0)
(0.354465 0.0633673 0)
(0.320972 0.139704 0)
(0.255038 0.148723 0)
(0.188127 0.119287 0)
(0.0930613 0.0993749 0)
(0.0666942 0.0983295 0)
(0.0141133 -0.159679 0)
(0.0372585 -0.158624 0)
(0.0676833 -0.159451 0)
(0.0979423 -0.153248 0)
(0.109012 -0.156605 0)
(0.141806 -0.155347 0)
(0.16601 -0.134579 0)
(0.186691 -0.125897 0)
(0.208824 -0.115382 0)
(0.238667 -0.100738 0)
(0.255326 -0.0734313 0)
(0.274003 -0.0512774 0)
(0.299442 -0.0242331 0)
(0.306337 -0.00519941 0)
(0.308481 0.0239505 0)
(0.324368 0.0336413 0)
(0.317658 0.0535038 0)
(0.301947 0.126737 0)
(0.223454 0.163149 0)
(0.179033 0.150111 0)
(0.0913383 0.122655 0)
(0.0383766 0.124168 0)
(0.000637624 -0.0582856 0)
(0.00830396 -0.0627272 0)
(0.00845553 -0.0650589 0)
(0.01914 -0.0760012 0)
(0.0232634 -0.0773077 0)
(0.0296614 -0.0950479 0)
(0.0460841 -0.11146 0)
(0.0614493 -0.118996 0)
(0.0815673 -0.132227 0)
(0.101817 -0.136733 0)
(0.115027 -0.144269 0)
(0.119513 -0.147782 0)
(0.115246 -0.146529 0)
(0.113711 -0.142573 0)
(0.13108 -0.13255 0)
(0.199271 -0.0271607 0)
(0.246844 0.115061 0)
(0.205959 0.145308 0)
(0.15866 0.191884 0)
(0.137174 0.179253 0)
(0.0958549 0.156272 0)
(0.0329704 0.132516 0)
(9.1818e-05 -0.122099 0)
(0.00386285 -0.120726 0)
(0.00469243 -0.122849 0)
(0.0110847 -0.114893 0)
(0.0157165 -0.116669 0)
(0.0303081 -0.120198 0)
(0.0465665 -0.106202 0)
(0.0599429 -0.101138 0)
(0.0907369 -0.0962559 0)
(0.117693 -0.0823129 0)
(0.140207 -0.0559323 0)
(0.156873 -0.0335894 0)
(0.161873 0.00019607 0)
(0.149079 0.0386541 0)
(0.0889121 0.0809822 0)
(-0.00164652 0.0306867 0)
(0.10572 0.016763 0)
(0.0993278 0.154964 0)
(0.028585 0.175718 0)
(0.0375312 0.201277 0)
(0.0638461 0.197378 0)
(0.0466669 0.156588 0)
(0.000236928 -0.0476194 0)
(0.00231517 -0.0494988 0)
(0.00427442 -0.0538052 0)
(0.00870315 -0.0520919 0)
(0.0125649 -0.0574164 0)
(0.0217834 -0.0756886 0)
(0.0395293 -0.0734501 0)
(0.0557169 -0.0824406 0)
(0.0870178 -0.0909584 0)
(0.106903 -0.0856091 0)
(0.118872 -0.0762813 0)
(0.129694 -0.0810134 0)
(0.13134 -0.0775602 0)
(0.145087 -0.0789213 0)
(0.169806 -0.0480909 0)
(0.191362 0.0280022 0)
(0.141247 0.185828 0)
(0.15804 0.200781 0)
(0.036554 0.249041 0)
(-0.0678748 0.200693 0)
(-0.0420952 0.222805 0)
(0.0451217 0.185503 0)
(0.00130311 -0.108273 0)
(0.00479178 -0.110341 0)
(0.00854992 -0.111284 0)
(0.0121305 -0.111805 0)
(0.0203033 -0.117211 0)
(0.0227978 -0.136989 0)
(0.0396522 -0.139003 0)
(0.0606334 -0.154456 0)
(0.098784 -0.150083 0)
(0.120034 -0.12893 0)
(0.140927 -0.101756 0)
(0.170768 -0.0840079 0)
(0.174254 -0.0441165 0)
(0.18127 -0.0102429 0)
(0.157972 0.0223609 0)
(0.134942 0.0297574 0)
(0.149675 0.0787478 0)
(0.172245 0.201435 0)
(0.218011 0.303318 0)
(0.074996 0.290543 0)
(0.00890288 0.201347 0)
(0.0166503 0.127859 0)
(0.00216547 -0.106167 0)
(0.00609266 -0.110412 0)
(0.00977453 -0.114564 0)
(0.00824494 -0.116793 0)
(0.00906883 -0.117949 0)
(0.00691436 -0.130959 0)
(0.0304662 -0.140523 0)
(0.0563327 -0.1432 0)
(0.107768 -0.10533 0)
(0.136247 -0.0818593 0)
(0.170637 -0.0484459 0)
(0.190787 -0.0264507 0)
(0.203865 0.0238872 0)
(0.231295 0.0514259 0)
(0.232817 0.0601281 0)
(0.252958 0.0967591 0)
(0.236326 0.149909 0)
(0.232023 0.225419 0)
(0.308746 0.303041 0)
(0.387393 0.33059 0)
(0.325816 0.232424 0)
(0.276887 0.212388 0)
(0.000371612 -0.0573657 0)
(-0.000156822 -0.0566391 0)
(0.00494761 -0.0476811 0)
(0.0110702 -0.039588 0)
(0.0175571 -0.0497449 0)
(-0.00637696 -0.0952301 0)
(-0.0196549 -0.121515 0)
(0.0180646 -0.169326 0)
(0.077702 -0.165811 0)
(0.108813 -0.146011 0)
(0.147682 -0.103501 0)
(0.153092 -0.0701855 0)
(0.177167 -0.0157479 0)
(0.201015 0.0213981 0)
(0.212658 0.0792081 0)
(0.245372 0.113435 0)
(0.25016 0.17968 0)
(0.302708 0.210253 0)
(0.361552 0.251297 0)
(0.469351 0.235212 0)
(0.567014 0.217473 0)
(0.621592 0.137884 0)
(0.00904744 -0.283242 0)
(0.0166025 -0.278737 0)
(0.0220135 -0.260921 0)
(-0.00903371 -0.232706 0)
(-0.0810189 -0.189195 0)
(-0.114693 -0.172433 0)
(-0.107115 -0.207406 0)
(-0.0947404 -0.255022 0)
(-0.0794238 -0.231656 0)
(-0.055179 -0.190773 0)
(0.00488199 -0.13999 0)
(0.0147793 -0.114949 0)
(0.0591399 -0.0786504 0)
(0.106367 -0.0358911 0)
(0.128232 0.0188135 0)
(0.195359 0.0906524 0)
(0.21296 0.137591 0)
(0.272161 0.167393 0)
(0.330413 0.192149 0)
(0.423062 0.162007 0)
(0.496185 0.132796 0)
(0.571823 0.0212235 0)
(0.0131778 -0.406721 0)
(0.0179187 -0.445284 0)
(0.0363176 -0.518711 0)
(0.0660012 -0.562523 0)
(0.0798213 -0.523027 0)
(-0.0429683 -0.51986 0)
(-0.191272 -0.55205 0)
(-0.342773 -0.514613 0)
(-0.478061 -0.395813 0)
(-0.500673 -0.350238 0)
(-0.402417 -0.255878 0)
(-0.372079 -0.191061 0)
(-0.307131 -0.133899 0)
(-0.249699 -0.0766198 0)
(-0.167689 -0.0369976 0)
(-0.0834697 0.0151082 0)
(0.0132405 0.0772245 0)
(0.116614 0.0869481 0)
(0.212727 0.0955195 0)
(0.275931 0.039426 0)
(0.39664 0.0364884 0)
(0.450365 -0.0602982 0)
(0.0592159 -0.486368 0)
(0.158626 -0.416231 0)
(0.296657 -0.248802 0)
(0.313242 0.0597059 0)
(0.575656 0.450092 0)
(-0.0994328 -0.277166 0)
(-0.322351 -0.773945 0)
(-0.553036 -0.644725 0)
(-0.641373 -0.617659 0)
(-0.643108 -0.638221 0)
(-0.549179 -0.605221 0)
(-0.457847 -0.470061 0)
(-0.422745 -0.398612 0)
(-0.385596 -0.327069 0)
(-0.368511 -0.264849 0)
(-0.323423 -0.200109 0)
(-0.276885 -0.156696 0)
(-0.182766 -0.0989627 0)
(-0.0356169 -0.0222432 0)
(0.0252971 -0.0739039 0)
(0.168317 -0.0488252 0)
(0.218138 -0.11311 0)
(-0.0714105 -0.148679 0)
(-0.16163 -0.208296 0)
(-0.22463 -0.336588 0)
(-0.285058 -0.471393 0)
(-0.23639 -0.505284 0)
(-0.0034895 -0.614674 0)
(0.12917 -0.74884 0)
(0.140804 -0.690066 0)
(-0.073703 -0.646455 0)
(-0.0213925 -0.538934 0)
(-0.422421 -0.93672 0)
(-0.357072 -0.837718 0)
(-0.31987 -0.723138 0)
(-0.28595 -0.637329 0)
(-0.270717 -0.57093 0)
(-0.241044 -0.501579 0)
(-0.232426 -0.46696 0)
(-0.1905 -0.42077 0)
(-0.177974 -0.39048 0)
(-0.136703 -0.419156 0)
(-0.0814883 -0.395375 0)
(-0.0298865 -0.46151 0)
(-0.0186456 0.0801955 0)
(-0.0386955 0.0405756 0)
(-0.0521022 0.0226169 0)
(-0.0493337 0.00564111 0)
(-0.0947357 0.0574479 0)
(0.0883563 0.106789 0)
(0.0437935 0.152056 0)
(0.297012 0.438341 0)
(0.0600234 0.408424 0)
(0.0573804 -0.0933034 0)
(-0.0429891 -0.404253 0)
(0.12255 -0.525859 0)
(0.197751 -0.476848 0)
(0.173415 -0.311157 0)
(0.128088 -0.207923 0)
(0.146658 -0.114701 0)
(0.0836302 -0.565768 0)
(-0.0204511 -0.962316 0)
(-0.0136194 -0.91861 0)
(-0.00255431 -0.878079 0)
(-0.0249515 -0.780763 0)
(0.0354601 -0.870247 0)
(0.111723 -0.978622 0)
(0.00367607 -0.212211 0)
(0.00311684 -0.249095 0)
(-0.00772444 -0.289813 0)
(-0.0172652 -0.336286 0)
(-0.0458977 -0.381105 0)
(0.0157045 -0.334028 0)
(-0.0206926 -0.413956 0)
(0.114066 0.116612 0)
(0.229362 0.285811 0)
(0.264238 0.155307 0)
(0.0204343 0.00647117 0)
(0.014027 -0.16167 0)
(0.00452591 -0.285876 0)
(0.0248504 -0.375795 0)
(0.0411246 -0.455867 0)
(0.0131519 -0.53364 0)
(0.143793 -0.674842 0)
(0.31306 -0.800344 0)
(0.466308 -0.775621 0)
(0.592523 -0.74317 0)
(0.569278 -0.640366 0)
(0.554373 -0.643616 0)
(0.552373 -0.660426 0)
(-0.0126628 0.062583 0)
(-0.0224856 0.00147146 0)
(-0.0277561 -0.046342 0)
(-0.0373591 -0.089725 0)
(-0.0556136 -0.119729 0)
(-0.0524758 -0.111675 0)
(-0.0867624 -0.154061 0)
(-0.0944532 -0.0492136 0)
(0.201836 0.141487 0)
(0.235026 0.0868207 0)
(0.248868 -0.0378881 0)
(0.241003 -0.258863 0)
(0.214992 -0.284076 0)
(0.216079 -0.260468 0)
(0.247989 -0.172402 0)
(0.281855 -0.0433389 0)
(0.30272 0.123036 0)
(0.283491 0.165793 0)
(0.258726 0.142181 0)
(0.226619 0.134123 0)
(0.197528 0.0437518 0)
(0.198847 0.0073595 0)
(0.202375 -0.0344232 0)
(0.0133877 -0.126608 0)
(0.0317813 -0.162566 0)
(0.0327528 -0.184416 0)
(0.0234526 -0.203364 0)
(0.00117173 -0.212432 0)
(-0.0157881 -0.20036 0)
(-0.0468709 -0.190608 0)
(-0.0689236 -0.108956 0)
(-0.0108213 0.0248025 0)
(0.138207 0.0581014 0)
(0.165111 -0.0532851 0)
(0.193199 -0.237566 0)
(0.144005 -0.313761 0)
(0.0999968 -0.36032 0)
(0.0799616 -0.391202 0)
(0.0824688 -0.413368 0)
(0.121658 -0.420836 0)
(0.180867 -0.416692 0)
(0.213004 -0.364954 0)
(0.245696 -0.290565 0)
(0.241013 -0.251061 0)
(0.212659 -0.270954 0)
(0.156803 -0.285567 0)
(0.00458001 -0.0372475 0)
(0.014072 -0.0817453 0)
(0.0193226 -0.110639 0)
(0.0157005 -0.136222 0)
(0.00184944 -0.153565 0)
(-0.0162637 -0.158326 0)
(-0.0408391 -0.161289 0)
(-0.0508413 -0.132881 0)
(-0.0447531 -0.0844005 0)
(0.0661891 -0.0454973 0)
(0.109313 -0.102042 0)
(0.114084 -0.181323 0)
(0.0859326 -0.228251 0)
(0.0536447 -0.257357 0)
(0.0318515 -0.248801 0)
(0.00933298 -0.215809 0)
(-0.00807874 -0.18306 0)
(-0.0212356 -0.169966 0)
(-0.0303952 -0.162927 0)
(-0.020018 -0.154581 0)
(0.00670598 -0.160333 0)
(0.0146225 -0.17183 0)
(0.0160763 -0.175569 0)
(0.00782188 -0.0957981 0)
(0.0194703 -0.124376 0)
(0.0244356 -0.133842 0)
(0.0204478 -0.140197 0)
(0.00978737 -0.141228 0)
(-0.00354648 -0.137456 0)
(-0.0177617 -0.131928 0)
(-0.0238063 -0.114025 0)
(-0.0197659 -0.10344 0)
(0.0228094 -0.092385 0)
(0.0567258 -0.137099 0)
(0.041812 -0.19205 0)
(0.0173182 -0.23513 0)
(-0.00943734 -0.265764 0)
(-0.0340001 -0.272102 0)
(-0.0523832 -0.261787 0)
(-0.063568 -0.246844 0)
(-0.0728745 -0.229012 0)
(-0.0795245 -0.200054 0)
(-0.0803247 -0.169345 0)
(-0.0782086 -0.152859 0)
(-0.0764357 -0.152872 0)
(-0.0725035 -0.15356 0)
(0.00512165 -0.0976741 0)
(0.0120435 -0.125855 0)
(0.012844 -0.132196 0)
(0.00762644 -0.133515 0)
(0.00127828 -0.132579 0)
(-0.00460783 -0.131049 0)
(-0.0105428 -0.12732 0)
(-0.00977444 -0.120539 0)
(-0.00493884 -0.116639 0)
(0.0114623 -0.108622 0)
(0.0262484 -0.12877 0)
(0.0165374 -0.156512 0)
(-0.00399962 -0.194646 0)
(-0.0294022 -0.226624 0)
(-0.0570291 -0.238718 0)
(-0.0727411 -0.23702 0)
(-0.0826229 -0.228763 0)
(-0.0926821 -0.222347 0)
(-0.100134 -0.210422 0)
(-0.0984922 -0.202102 0)
(-0.0946004 -0.196145 0)
(-0.0895004 -0.191829 0)
(-0.0856132 -0.187451 0)
(0.00309685 -0.103265 0)
(0.00455156 -0.127094 0)
(0.00228937 -0.128825 0)
(-0.000737962 -0.130278 0)
(-0.00295246 -0.130502 0)
(-0.00464777 -0.129402 0)
(-0.00508179 -0.127081 0)
(-0.00185622 -0.124717 0)
(0.000992534 -0.124545 0)
(0.00990728 -0.120867 0)
(0.0170592 -0.131618 0)
(0.0127882 -0.147307 0)
(0.00279326 -0.170244 0)
(-0.020096 -0.193222 0)
(-0.0480346 -0.210759 0)
(-0.0671189 -0.21872 0)
(-0.0791425 -0.215506 0)
(-0.0862558 -0.208235 0)
(-0.0879577 -0.194431 0)
(-0.0903377 -0.187354 0)
(-0.0942292 -0.184164 0)
(-0.0947578 -0.179727 0)
(-0.0929273 -0.175194 0)
(0.00163073 -0.105536 0)
(0.000954435 -0.12604 0)
(-0.000305709 -0.127192 0)
(-0.00163708 -0.128791 0)
(-0.00298757 -0.12996 0)
(-0.00323379 -0.129578 0)
(-0.00207078 -0.129126 0)
(0.000717681 -0.128491 0)
(0.00313378 -0.129009 0)
(0.00874184 -0.127247 0)
(0.0134109 -0.13322 0)
(0.0135016 -0.144554 0)
(0.0114375 -0.162675 0)
(0.000530766 -0.178569 0)
(-0.0172679 -0.192224 0)
(-0.0337859 -0.202556 0)
(-0.0499572 -0.205972 0)
(-0.061928 -0.206247 0)
(-0.0710698 -0.19555 0)
(-0.0776057 -0.184119 0)
(-0.0899214 -0.181561 0)
(-0.0967868 -0.181503 0)
(-0.0995949 -0.177724 0)
(0.000579789 -0.106219 0)
(0.000187773 -0.1252 0)
(-0.000141072 -0.126056 0)
(-0.000229512 -0.127408 0)
(-0.000963018 -0.128829 0)
(-0.00155598 -0.130088 0)
(-0.00149406 -0.130653 0)
(-0.000167672 -0.131072 0)
(0.0013666 -0.132172 0)
(0.00404974 -0.131896 0)
(0.00863489 -0.136992 0)
(0.0101071 -0.146078 0)
(0.00801774 -0.157535 0)
(7.71003e-05 -0.16704 0)
(-0.0115662 -0.179107 0)
(-0.0229821 -0.187546 0)
)
;

boundaryField
{
    leftWall
    {
        type            fixedValue;
        value           uniform (0 0 0);
    }
    rightWall
    {
        type            fixedValue;
        value           nonuniform 0();
    }
    lowerWall
    {
        type            fixedValue;
        value           uniform (0 0 0);
    }
    atmosphere
    {
        type            fluxCorrectedVelocity;
        value           nonuniform 0();
    }
    defaultFaces
    {
        type            empty;
    }
    procBoundary0to1
    {
        type            processor;
        value           nonuniform List<vector> 
26
(
(-0.00379855 0.0199418 0)
(-0.00402641 0.0348675 0)
(0.0401728 0.0628017 0)
(0.0272902 0.09508 0)
(0.0377262 0.118665 0)
(0.0209644 0.151166 0)
(0.0201638 0.157095 0)
(0.0267861 0.182374 0)
(0.121575 0.181807 0)
(0.0852594 0.098356 0)
(0.251408 0.0884493 0)
(0.682003 0.0265951 0)
(0.656403 -0.0769204 0)
(0.501466 -0.114453 0)
(0.280859 -0.173978 0)
(0.0485696 -0.498611 0)
(0.0485696 -0.498611 0)
(0.152253 -1.03397 0)
(0.55386 -0.63751 0)
(0.201127 -0.0617369 0)
(0.119337 -0.293756 0)
(0.00754992 -0.199377 0)
(-0.0765221 -0.176137 0)
(-0.0877811 -0.197954 0)
(-0.0940143 -0.180968 0)
(-0.104289 -0.179055 0)
)
;
    }
    procBoundary0to2
    {
        type            processor;
        value           nonuniform List<vector> 
24
(
(-0.0406602 -0.190164 0)
(-0.055208 -0.187537 0)
(-0.0664397 -0.182218 0)
(-0.0759295 -0.171081 0)
(-0.0857212 -0.165882 0)
(-0.0986086 -0.167354 0)
(-0.10502 -0.167918 0)
(0.000143568 -0.105752 0)
(0.000416838 -0.124715 0)
(0.000559088 -0.125978 0)
(-5.31105e-05 -0.127411 0)
(-0.000918669 -0.128309 0)
(-0.00267126 -0.129622 0)
(-0.00427885 -0.130388 0)
(-0.005547 -0.131616 0)
(-0.00643166 -0.133144 0)
(-0.00578856 -0.135774 0)
(-0.00407033 -0.140002 0)
(-0.00269382 -0.146465 0)
(-0.00539842 -0.152934 0)
(-0.01 -0.160925 0)
(-0.0190665 -0.168874 0)
(-0.0406602 -0.190164 0)
(-0.0307465 -0.171043 0)
)
;
    }
}


// ************************************************************************* //
