/*--------------------------------*- C++ -*----------------------------------*\
| =========                 |                                                 |
| \\      /  F ield         | OpenFOAM: The Open Source CFD Toolbox           |
|  \\    /   O peration     | Version:  2.4.0                                 |
|   \\  /    A nd           | Web:      www.OpenFOAM.org                      |
|    \\/     M anipulation  |                                                 |
\*---------------------------------------------------------------------------*/
FoamFile
{
    version     2.0;
    format      ascii;
    class       volVectorField;
    location    "0.5";
    object      U.water;
}
// * * * * * * * * * * * * * * * * * * * * * * * * * * * * * * * * * * * * * //

dimensions      [0 1 -1 0 0 0 0];

internalField   nonuniform List<vector> 
575
(
(0.0163665 -0.00732678 0)
(0.0462289 -0.00770975 0)
(0.0797791 -0.0059204 0)
(0.103258 -0.00954105 0)
(0.150797 -0.00633006 0)
(0.168165 -0.00630309 0)
(0.196276 -0.00802287 0)
(0.2375 -0.00867595 0)
(0.274912 -0.00699023 0)
(0.296988 -0.00415422 0)
(0.308903 -0.00424438 0)
(0.337237 -0.00567182 0)
(0.356354 -0.00519607 0)
(0.381458 -0.00656107 0)
(0.38169 -0.00962256 0)
(0.369168 -0.00959791 0)
(0.340714 0.00353445 0)
(0.281054 0.00475934 0)
(0.222618 0.0142151 0)
(0.155216 0.00345447 0)
(0.126908 0.0149569 0)
(0.0653029 0.0161432 0)
(0.0165296 -0.0221597 0)
(0.04582 -0.0236447 0)
(0.0809458 -0.0174734 0)
(0.104738 -0.0295118 0)
(0.147904 -0.0184913 0)
(0.168789 -0.0182148 0)
(0.199358 -0.0263854 0)
(0.238386 -0.024814 0)
(0.273058 -0.0226848 0)
(0.292036 -0.0116915 0)
(0.315164 -0.0119946 0)
(0.344165 -0.0155816 0)
(0.364764 -0.0118577 0)
(0.37551 -0.00060514 0)
(0.383358 0.0197199 0)
(0.373007 0.036697 0)
(0.342797 0.0435763 0)
(0.290186 0.0541777 0)
(0.2194 0.0465195 0)
(0.17483 0.0390959 0)
(0.116592 0.0283742 0)
(0.075819 0.0406898 0)
(0.0166641 -0.00834724 0)
(0.0455659 -0.0100481 0)
(0.0814423 -0.00308274 0)
(0.106666 -0.0157709 0)
(0.143213 -0.00451807 0)
(0.172842 -0.0050916 0)
(0.202069 -0.0126102 0)
(0.239815 -0.0115157 0)
(0.266643 -0.00891379 0)
(0.287744 0.00130062 0)
(0.325412 -0.00309073 0)
(0.356365 -0.0056997 0)
(0.372744 -0.00389031 0)
(0.386864 8.66871e-05 0)
(0.383995 -0.00302268 0)
(0.371845 0.00727802 0)
(0.338412 0.0399969 0)
(0.29767 0.0635324 0)
(0.217911 0.069708 0)
(0.181434 0.0547172 0)
(0.128856 0.0560003 0)
(0.102349 0.0683652 0)
(0.017178 0.125513 0)
(0.0451967 0.125115 0)
(0.0821736 0.129126 0)
(0.109106 0.120982 0)
(0.139349 0.133254 0)
(0.176736 0.133211 0)
(0.205578 0.127414 0)
(0.240165 0.135023 0)
(0.258656 0.139711 0)
(0.293633 0.14848 0)
(0.331258 0.145708 0)
(0.349565 0.155809 0)
(0.356585 0.169236 0)
(0.362518 0.191397 0)
(0.366327 0.165928 0)
(0.38164 0.144709 0)
(0.362775 0.135147 0)
(0.317085 0.123502 0)
(0.249127 0.0968607 0)
(0.17836 0.0748847 0)
(0.114055 0.0637139 0)
(0.0929059 0.0876164 0)
(0.0175949 0.0656072 0)
(0.0436759 0.0626093 0)
(0.0822527 0.0692185 0)
(0.111012 0.053979 0)
(0.131618 0.0641602 0)
(0.178725 0.0569707 0)
(0.208492 0.0424625 0)
(0.228119 0.0475219 0)
(0.254866 0.0413065 0)
(0.298488 0.0443281 0)
(0.323253 0.0360838 0)
(0.345385 0.0500184 0)
(0.365803 0.0606296 0)
(0.386469 0.0898955 0)
(0.377856 0.117167 0)
(0.348053 0.160097 0)
(0.305076 0.253304 0)
(0.299688 0.210261 0)
(0.249718 0.180764 0)
(0.187484 0.129248 0)
(0.093074 0.0997592 0)
(0.0672026 0.0968483 0)
(0.0138106 0.0156669 0)
(0.0360483 0.0178218 0)
(0.0659681 0.0155601 0)
(0.0950493 0.0263467 0)
(0.104927 0.0216603 0)
(0.136169 0.0222657 0)
(0.158658 0.0375809 0)
(0.176501 0.0405726 0)
(0.196226 0.0455803 0)
(0.224902 0.0553703 0)
(0.241587 0.075094 0)
(0.259044 0.0899963 0)
(0.283145 0.112924 0)
(0.287302 0.142617 0)
(0.279728 0.206673 0)
(0.281874 0.245435 0)
(0.264876 0.239543 0)
(0.234088 0.298567 0)
(0.151983 0.314733 0)
(0.15641 0.19829 0)
(0.0878461 0.127506 0)
(0.0387732 0.123009 0)
(0.00052197 -0.0531672 0)
(0.0081041 -0.0584579 0)
(0.00811112 -0.0610168 0)
(0.018876 -0.0738454 0)
(0.0230099 -0.0754842 0)
(0.0294986 -0.0940962 0)
(0.0460503 -0.111194 0)
(0.0614421 -0.118905 0)
(0.081563 -0.132188 0)
(0.101813 -0.136715 0)
(0.115023 -0.14426 0)
(0.119509 -0.147775 0)
(0.115243 -0.146524 0)
(0.113709 -0.14257 0)
(0.131022 -0.13256 0)
(0.190699 -0.0105754 0)
(0.19369 0.268682 0)
(0.120484 0.315968 0)
(0.0788618 0.332933 0)
(0.0782553 0.316811 0)
(0.0837403 0.177106 0)
(0.0322008 0.131273 0)
(9.16654e-05 -0.122099 0)
(0.00386236 -0.120726 0)
(0.00469154 -0.122849 0)
(0.0110833 -0.114893 0)
(0.0157145 -0.116669 0)
(0.0303055 -0.120198 0)
(0.0465634 -0.106202 0)
(0.0599395 -0.101137 0)
(0.0907334 -0.0962719 0)
(0.11769 -0.082336 0)
(0.140204 -0.0559346 0)
(0.15687 -0.0335631 0)
(0.16187 0.000229599 0)
(0.149083 0.0386697 0)
(0.0891067 0.080965 0)
(-0.00113566 0.0303169 0)
(0.103362 0.0201144 0)
(0.0135938 0.276741 0)
(-0.0493579 0.295366 0)
(-0.0274614 0.316386 0)
(0.0439569 0.241699 0)
(0.044009 0.170485 0)
(0.000236741 -0.0476209 0)
(0.00231461 -0.0495003 0)
(0.00427345 -0.0538068 0)
(0.00870169 -0.0520932 0)
(0.012563 -0.0574178 0)
(0.0217811 -0.0756902 0)
(0.0395267 -0.07346 0)
(0.0557181 -0.0824962 0)
(0.0869988 -0.0913503 0)
(0.106915 -0.0872997 0)
(0.118898 -0.0784834 0)
(0.129726 -0.0831896 0)
(0.131369 -0.0786635 0)
(0.145106 -0.0793017 0)
(0.169806 -0.0483446 0)
(0.191469 0.0277055 0)
(0.141827 0.182659 0)
(0.145322 0.228156 0)
(-0.0014088 0.40465 0)
(-0.0932042 0.253538 0)
(-0.0654167 0.275447 0)
(0.0309655 0.269678 0)
(0.00130301 -0.108278 0)
(0.00479146 -0.110346 0)
(0.00854934 -0.111289 0)
(0.0121296 -0.11181 0)
(0.0203021 -0.117215 0)
(0.0227972 -0.136997 0)
(0.0396558 -0.139374 0)
(0.0606596 -0.158805 0)
(0.0986712 -0.157385 0)
(0.11915 -0.142873 0)
(0.139571 -0.117441 0)
(0.17031 -0.0965984 0)
(0.174163 -0.0507877 0)
(0.181325 -0.0143378 0)
(0.158049 0.0191121 0)
(0.13521 0.0269752 0)
(0.15 0.0748311 0)
(0.170763 0.189692 0)
(0.204715 0.340321 0)
(0.0752307 0.36324 0)
(0.0102343 0.199561 0)
(0.016924 0.129214 0)
(0.00216544 -0.106172 0)
(0.00609258 -0.110417 0)
(0.00977437 -0.114568 0)
(0.00824452 -0.116797 0)
(0.00906891 -0.117953 0)
(0.00697498 -0.131451 0)
(0.0310029 -0.144908 0)
(0.0638732 -0.177836 0)
(0.115624 -0.169914 0)
(0.143367 -0.152844 0)
(0.177054 -0.123202 0)
(0.200449 -0.102345 0)
(0.213311 -0.0504307 0)
(0.243021 -0.0231957 0)
(0.237285 0.0202101 0)
(0.254654 0.0782324 0)
(0.236661 0.13932 0)
(0.231028 0.211172 0)
(0.298451 0.276979 0)
(0.386311 0.347175 0)
(0.35334 0.296099 0)
(0.274265 0.184931 0)
(0.000372224 -0.0573866 0)
(-0.000155147 -0.056656 0)
(0.00494869 -0.0476896 0)
(0.0110706 -0.0395918 0)
(0.0175781 -0.049807 0)
(-0.00474658 -0.10333 0)
(0.00212524 -0.16658 0)
(0.0377611 -0.233618 0)
(0.0965161 -0.23865 0)
(0.126689 -0.227727 0)
(0.164183 -0.18823 0)
(0.1696 -0.153684 0)
(0.19292 -0.0969203 0)
(0.21419 -0.060982 0)
(0.220799 -0.00300049 0)
(0.255184 0.0326408 0)
(0.254124 0.103899 0)
(0.297034 0.137609 0)
(0.353765 0.20771 0)
(0.447137 0.189564 0)
(0.541682 0.191162 0)
(0.620619 0.130627 0)
(0.00908095 -0.286371 0)
(0.0166871 -0.281606 0)
(0.022064 -0.263022 0)
(-0.00900242 -0.233632 0)
(-0.0793296 -0.189562 0)
(-0.106403 -0.191423 0)
(-0.0801647 -0.228145 0)
(-0.0629407 -0.312852 0)
(-0.0391759 -0.315829 0)
(-0.0201047 -0.290415 0)
(0.0340345 -0.246117 0)
(0.0533825 -0.217401 0)
(0.0932642 -0.17606 0)
(0.135516 -0.128826 0)
(0.148003 -0.0698747 0)
(0.209767 0.00775585 0)
(0.223068 0.0600129 0)
(0.277527 0.0931431 0)
(0.32909 0.126989 0)
(0.411712 0.102399 0)
(0.485618 0.0865059 0)
(0.562877 -0.00191978 0)
(0.0176238 -0.728538 0)
(0.0307808 -0.714415 0)
(0.0517465 -0.679092 0)
(0.0718589 -0.62938 0)
(0.0810199 -0.548526 0)
(0.0283218 -0.521704 0)
(-0.107988 -0.549245 0)
(-0.29261 -0.647182 0)
(-0.510382 -0.594241 0)
(-0.499432 -0.459813 0)
(-0.389051 -0.347506 0)
(-0.361364 -0.281275 0)
(-0.301433 -0.227762 0)
(-0.254952 -0.178176 0)
(-0.165914 -0.147683 0)
(-0.0702156 -0.0969665 0)
(0.0594515 -0.0126936 0)
(0.15091 0.00498191 0)
(0.227787 0.0244989 0)
(0.284757 -0.027301 0)
(0.397161 -0.0216825 0)
(0.459229 -0.114843 0)
(0.148648 -0.50367 0)
(0.13033 -0.45686 0)
(0.225677 -0.347992 0)
(0.201791 -0.199042 0)
(0.311852 -0.0636212 0)
(0.113693 -0.321135 0)
(0.0614542 -1.01513 0)
(-0.239945 -1.13806 0)
(-0.601975 -0.908402 0)
(-0.572213 -0.682215 0)
(-0.47191 -0.621656 0)
(-0.454365 -0.507746 0)
(-0.425796 -0.42999 0)
(-0.397138 -0.366751 0)
(-0.369205 -0.297198 0)
(-0.317869 -0.24979 0)
(-0.248783 -0.243027 0)
(-0.106917 -0.157526 0)
(0.0109604 -0.0981903 0)
(0.0393507 -0.162205 0)
(0.19897 -0.12682 0)
(0.228104 -0.183333 0)
(-0.0713621 -0.156596 0)
(-0.160865 -0.212682 0)
(-0.225314 -0.335637 0)
(-0.290679 -0.469532 0)
(-0.263027 -0.498167 0)
(-0.0524417 -0.371078 0)
(0.296398 -0.442231 0)
(0.689614 -0.268497 0)
(0.606474 -0.200925 0)
(0.288665 -0.0599632 0)
(-0.02378 0.105026 0)
(-0.276931 -0.098711 0)
(-0.308082 -0.481993 0)
(-0.287648 -0.567986 0)
(-0.270602 -0.542595 0)
(-0.240839 -0.48777 0)
(-0.233363 -0.457047 0)
(-0.190128 -0.416942 0)
(-0.172574 -0.393976 0)
(-0.127442 -0.436077 0)
(-0.0737604 -0.439821 0)
(-0.0176403 -0.516538 0)
(-0.0191318 0.0802729 0)
(-0.0394837 0.0404712 0)
(-0.0515707 0.0222713 0)
(-0.0425546 0.0108828 0)
(-0.0924974 0.0719746 0)
(0.0882165 0.112218 0)
(0.0439011 0.155057 0)
(0.297403 0.440977 0)
(0.0606732 0.410567 0)
(0.0558826 -0.0896918 0)
(-0.0448045 -0.403762 0)
(0.133172 -0.519294 0)
(0.273544 -0.449218 0)
(0.357165 -0.196998 0)
(0.39939 0.0161019 0)
(0.504042 0.208836 0)
(0.442383 0.658117 0)
(0.251427 0.562528 0)
(0.139254 0.215225 0)
(0.091145 0.123749 0)
(0.0537233 -0.199187 0)
(0.121828 0.0117315 0)
(0.127021 0.0130731 0)
(0.00358549 -0.214981 0)
(0.00304732 -0.250572 0)
(-0.00769723 -0.290004 0)
(-0.0174838 -0.332893 0)
(-0.0474391 -0.375365 0)
(0.015581 -0.333336 0)
(-0.020662 -0.413846 0)
(0.114194 0.116846 0)
(0.229504 0.285937 0)
(0.264737 0.156035 0)
(0.020339 0.00748276 0)
(0.0138527 -0.160913 0)
(0.00437557 -0.285135 0)
(0.0245107 -0.374429 0)
(0.0407526 -0.453517 0)
(0.0067736 -0.53637 0)
(0.13802 -0.681883 0)
(0.309444 -0.809062 0)
(0.473186 -0.775931 0)
(0.60313 -0.741687 0)
(0.591601 -0.636562 0)
(0.562603 -0.642492 0)
(0.554476 -0.655123 0)
(-0.0127182 0.0607525 0)
(-0.0225538 0.000585634 0)
(-0.0277919 -0.0467599 0)
(-0.0373698 -0.0894738 0)
(-0.0556128 -0.118809 0)
(-0.0524731 -0.111551 0)
(-0.0867467 -0.153896 0)
(-0.0944533 -0.0488265 0)
(0.201716 0.142239 0)
(0.234736 0.089154 0)
(0.248868 -0.0369108 0)
(0.241073 -0.258839 0)
(0.215197 -0.283154 0)
(0.218314 -0.255455 0)
(0.252627 -0.162662 0)
(0.286014 -0.0350097 0)
(0.306006 0.134327 0)
(0.287601 0.181617 0)
(0.259808 0.150886 0)
(0.22684 0.137785 0)
(0.197439 0.0469985 0)
(0.198495 0.0113576 0)
(0.201902 -0.031174 0)
(0.0133575 -0.127877 0)
(0.0317647 -0.163036 0)
(0.0327492 -0.1846 0)
(0.023452 -0.203417 0)
(0.00117217 -0.212445 0)
(-0.0157878 -0.200359 0)
(-0.0468625 -0.190549 0)
(-0.0688968 -0.10875 0)
(-0.0106963 0.0254489 0)
(0.138264 0.0605903 0)
(0.165202 -0.0518958 0)
(0.193242 -0.237272 0)
(0.144338 -0.311508 0)
(0.101224 -0.350777 0)
(0.0800892 -0.381679 0)
(0.0796052 -0.405499 0)
(0.117236 -0.415623 0)
(0.17528 -0.412848 0)
(0.210986 -0.365176 0)
(0.245724 -0.290813 0)
(0.241273 -0.251068 0)
(0.213182 -0.2712 0)
(0.15722 -0.285418 0)
(0.00458038 -0.0376623 0)
(0.0140723 -0.0818951 0)
(0.0193227 -0.110677 0)
(0.0157005 -0.136233 0)
(0.00184947 -0.15357 0)
(-0.0162637 -0.158327 0)
(-0.0408391 -0.161271 0)
(-0.0508412 -0.132795 0)
(-0.044752 -0.0841677 0)
(0.0661789 -0.0446263 0)
(0.109325 -0.101652 0)
(0.114118 -0.181058 0)
(0.0866416 -0.223972 0)
(0.0554489 -0.247299 0)
(0.0327707 -0.24124 0)
(0.00970533 -0.211466 0)
(-0.00784404 -0.179068 0)
(-0.0211181 -0.167246 0)
(-0.0303023 -0.16072 0)
(-0.0199495 -0.152174 0)
(0.00656114 -0.156907 0)
(0.014447 -0.167988 0)
(0.0159339 -0.173645 0)
(0.00782172 -0.0958476 0)
(0.0194702 -0.1244 0)
(0.0244356 -0.133845 0)
(0.0204478 -0.140198 0)
(0.00978737 -0.141229 0)
(-0.00354648 -0.137457 0)
(-0.0177617 -0.131928 0)
(-0.0238063 -0.114023 0)
(-0.0197658 -0.103431 0)
(0.0228095 -0.092264 0)
(0.0567265 -0.137066 0)
(0.041845 -0.191704 0)
(0.0177219 -0.231813 0)
(-0.00866311 -0.260151 0)
(-0.0337861 -0.269589 0)
(-0.0522973 -0.260295 0)
(-0.063517 -0.245696 0)
(-0.072819 -0.228279 0)
(-0.0794524 -0.199411 0)
(-0.0802166 -0.168516 0)
(-0.0781193 -0.151811 0)
(-0.0764003 -0.15195 0)
(-0.0724932 -0.153086 0)
(0.00512165 -0.0976787 0)
(0.0120435 -0.125857 0)
(0.012844 -0.132197 0)
(0.00762644 -0.133516 0)
(0.00127828 -0.13258 0)
(-0.00460783 -0.131049 0)
(-0.0105428 -0.12732 0)
(-0.00977442 -0.120538 0)
(-0.00493877 -0.116636 0)
(0.0114624 -0.108618 0)
(0.0262495 -0.128749 0)
(0.0165724 -0.156125 0)
(-0.00394521 -0.193601 0)
(-0.0293147 -0.224978 0)
(-0.0569102 -0.237321 0)
(-0.0726247 -0.235314 0)
(-0.0825578 -0.227541 0)
(-0.09262 -0.221301 0)
(-0.100097 -0.209776 0)
(-0.098458 -0.201525 0)
(-0.0945775 -0.195657 0)
(-0.0894878 -0.191504 0)
(-0.0856081 -0.187301 0)
(0.00309685 -0.103266 0)
(0.00455155 -0.127095 0)
(0.00228937 -0.128825 0)
(-0.000737963 -0.130278 0)
(-0.00295246 -0.130502 0)
(-0.00464777 -0.129402 0)
(-0.00508179 -0.127081 0)
(-0.0018562 -0.124716 0)
(0.000992614 -0.124543 0)
(0.00990746 -0.120862 0)
(0.0170604 -0.131596 0)
(0.0127967 -0.147111 0)
(0.00281344 -0.169861 0)
(-0.0200303 -0.192259 0)
(-0.0478933 -0.208834 0)
(-0.0669583 -0.216484 0)
(-0.0790026 -0.213691 0)
(-0.0861709 -0.207006 0)
(-0.0879208 -0.193792 0)
(-0.0903243 -0.187045 0)
(-0.0942223 -0.183999 0)
(-0.0947546 -0.179632 0)
(-0.0929241 -0.175135 0)
(0.00163073 -0.105536 0)
(0.000954435 -0.12604 0)
(-0.000305709 -0.127192 0)
(-0.00163708 -0.128791 0)
(-0.00298757 -0.12996 0)
(-0.00323379 -0.129578 0)
(-0.00207078 -0.129126 0)
(0.000717696 -0.128491 0)
(0.00313384 -0.129007 0)
(0.00874199 -0.127242 0)
(0.0134113 -0.133208 0)
(0.0135042 -0.144487 0)
(0.01146 -0.162301 0)
(0.000607286 -0.17743 0)
(-0.0171128 -0.189967 0)
(-0.0336382 -0.200211 0)
(-0.049844 -0.204088 0)
(-0.0618475 -0.204959 0)
(-0.0710239 -0.194827 0)
(-0.0775877 -0.183821 0)
(-0.0899153 -0.181447 0)
(-0.0967843 -0.181457 0)
(-0.0995935 -0.177694 0)
(0.000579789 -0.106219 0)
(0.000187773 -0.1252 0)
(-0.000141072 -0.126056 0)
(-0.000229512 -0.127408 0)
(-0.000963018 -0.128829 0)
(-0.00155598 -0.130088 0)
(-0.00149406 -0.130653 0)
(-0.000167664 -0.131072 0)
(0.00136663 -0.132171 0)
(0.00404984 -0.131893 0)
(0.00863506 -0.136986 0)
(0.0101084 -0.146048 0)
(0.00803406 -0.157209 0)
(0.000133994 -0.166009 0)
(-0.011459 -0.177297 0)
(-0.0228655 -0.185557 0)
)
;

boundaryField
{
    leftWall
    {
        type            fixedValue;
        value           uniform (0 0 0);
    }
    rightWall
    {
        type            fixedValue;
        value           nonuniform 0();
    }
    lowerWall
    {
        type            fixedValue;
        value           uniform (0 0 0);
    }
    atmosphere
    {
        type            fluxCorrectedVelocity;
        value           nonuniform 0();
    }
    defaultFaces
    {
        type            empty;
    }
    procBoundary0to1
    {
        type            processor;
        value           nonuniform List<vector> 
26
(
(-0.00345889 0.00696064 0)
(-0.00362202 0.0214357 0)
(0.0406484 0.0496803 0)
(0.0277508 0.0819196 0)
(0.038163 0.105138 0)
(0.0213885 0.137051 0)
(0.0205497 0.142422 0)
(0.0271811 0.174248 0)
(0.121008 0.193411 0)
(0.078024 0.145715 0)
(0.250492 0.0672551 0)
(0.67424 0.0333631 0)
(0.656836 -0.0870435 0)
(0.513047 -0.16454 0)
(0.287491 -0.232221 0)
(0.0576363 -0.554385 0)
(0.0576363 -0.554385 0)
(0.121976 -0.0104768 0)
(0.557473 -0.63456 0)
(0.200334 -0.0589661 0)
(0.119648 -0.293432 0)
(0.00750276 -0.198659 0)
(-0.0765173 -0.175941 0)
(-0.087777 -0.197868 0)
(-0.0940122 -0.180927 0)
(-0.104288 -0.179034 0)
)
;
    }
    procBoundary0to2
    {
        type            processor;
        value           nonuniform List<vector> 
24
(
(-0.0405683 -0.188513 0)
(-0.0551411 -0.186358 0)
(-0.0663997 -0.18152 0)
(-0.0759099 -0.170753 0)
(-0.0857137 -0.165758 0)
(-0.0986062 -0.167314 0)
(-0.105019 -0.167902 0)
(0.000143568 -0.105752 0)
(0.000416838 -0.124715 0)
(0.000559088 -0.125978 0)
(-5.31105e-05 -0.127411 0)
(-0.000918669 -0.128309 0)
(-0.00267126 -0.129622 0)
(-0.00427885 -0.130388 0)
(-0.00554699 -0.131616 0)
(-0.00643164 -0.133143 0)
(-0.00578851 -0.135772 0)
(-0.00407024 -0.139999 0)
(-0.00269352 -0.146452 0)
(-0.00539077 -0.152744 0)
(-0.00996811 -0.160263 0)
(-0.0190308 -0.167964 0)
(-0.0405683 -0.188513 0)
(-0.0306869 -0.169811 0)
)
;
    }
}


// ************************************************************************* //
