/*--------------------------------*- C++ -*----------------------------------*\
| =========                 |                                                 |
| \\      /  F ield         | OpenFOAM: The Open Source CFD Toolbox           |
|  \\    /   O peration     | Version:  2.4.0                                 |
|   \\  /    A nd           | Web:      www.OpenFOAM.org                      |
|    \\/     M anipulation  |                                                 |
\*---------------------------------------------------------------------------*/
FoamFile
{
    version     2.0;
    format      ascii;
    class       volScalarField;
    location    "0.85";
    object      alpha.oil;
}
// * * * * * * * * * * * * * * * * * * * * * * * * * * * * * * * * * * * * * //

dimensions      [0 0 0 0 0 0 0];

internalField   nonuniform List<scalar> 
575
(
1.36776e-16
7.77545e-16
8.5915e-16
1.23914e-15
3.12578e-15
2.09223e-14
1.85186e-13
1.05094e-12
4.30823e-12
1.42153e-11
3.97177e-11
9.59728e-11
2.07827e-10
4.25953e-10
9.50919e-10
2.10463e-09
4.2771e-09
7.16445e-09
2.07582e-08
1.88857e-07
1.76434e-06
5.63141e-06
1.43697e-15
7.51577e-15
1.5061e-14
1.50744e-14
2.68387e-14
4.59625e-14
2.11458e-13
1.00747e-12
3.67757e-12
1.04963e-11
2.47618e-11
5.02817e-11
9.29582e-11
1.741e-10
9.84538e-10
3.6052e-09
7.04081e-09
1.07098e-08
2.4014e-08
9.60523e-08
1.13178e-06
5.9627e-06
9.22929e-15
3.88586e-14
1.18684e-13
1.02539e-13
1.97462e-13
3.02277e-13
4.98717e-13
1.08339e-12
3.10282e-12
8.28695e-12
2.00528e-11
5.25235e-11
2.21812e-10
1.6645e-09
4.65944e-09
7.50888e-09
9.76099e-09
2.23357e-08
4.86366e-08
1.37182e-07
4.78176e-07
3.52875e-06
4.13264e-14
1.76965e-13
4.76893e-13
5.43881e-13
1.27974e-12
1.88188e-12
2.33943e-12
2.58465e-12
4.6012e-12
1.05832e-11
1.09072e-10
2.61578e-09
3.27821e-08
1.39477e-07
2.05851e-07
1.97426e-07
1.48343e-07
1.24884e-07
2.89446e-07
7.92817e-07
2.09129e-06
5.47064e-06
1.54008e-13
4.99509e-13
1.34379e-12
2.72611e-12
8.83013e-12
1.73685e-11
1.46147e-11
7.59726e-12
1.24183e-11
1.96193e-09
6.997e-08
3.32214e-07
1.21261e-06
2.13283e-06
2.34249e-06
2.20701e-06
1.5718e-06
1.03807e-06
1.04699e-06
1.83498e-06
3.74955e-06
7.681e-06
7.46157e-13
4.63651e-12
2.5164e-11
5.31741e-11
1.13608e-10
2.04555e-10
1.37728e-10
1.60184e-10
9.11713e-09
2.90353e-07
1.57957e-06
4.10584e-06
6.68648e-06
7.40207e-06
7.56854e-06
7.02589e-06
5.16411e-06
3.21008e-06
2.57843e-06
2.59706e-06
4.1733e-06
1.58104e-05
1.61209e-12
3.17922e-12
2.59366e-11
3.42893e-10
7.62355e-10
5.12842e-10
5.33165e-10
3.59224e-08
7.33528e-07
3.79632e-06
8.52023e-06
1.17297e-05
1.41706e-05
2.90646e-05
8.48619e-05
0.000158401
0.000192708
0.000191688
0.000145463
7.66557e-05
7.17331e-05
0.000831268
2.05064e-12
2.20993e-12
3.41338e-10
4.98056e-09
4.48778e-09
3.43865e-10
3.4399e-10
1.46156e-07
2.22024e-06
6.74403e-06
1.22871e-05
1.75263e-05
4.15367e-05
0.000289922
0.000969778
0.00186854
0.00280797
0.00368154
0.00366741
0.00237969
0.00213599
0.0113498
1.62489e-08
1.69012e-07
3.85664e-07
3.38909e-07
3.13626e-07
1.35451e-06
9.8704e-07
8.16187e-07
9.03171e-07
1.53055e-06
5.40332e-06
4.80649e-05
0.000764448
0.0040377
0.0065838
0.00809652
0.0109808
0.0147221
0.015722
0.0151356
0.0147518
0.0324913
5.16458e-06
5.41425e-05
0.000194878
8.54845e-05
3.48398e-05
5.63374e-05
4.75002e-05
3.30119e-05
2.10289e-05
1.83875e-05
0.000109371
0.000809042
0.00227865
0.0114471
0.0218825
0.0259986
0.0325821
0.0426981
0.0480621
0.0463856
0.0482557
0.105454
0.00716584
0.00825632
0.0106077
0.00703328
0.00190604
0.00102726
0.00084
0.000548461
0.00038729
0.000535219
0.00166882
0.0107834
0.0535373
0.157663
0.224448
0.209233
0.19655
0.197489
0.191952
0.180509
0.255592
0.641052
0.171572
0.241074
0.197745
0.103798
0.0251605
0.0144334
0.00990146
0.0070399
0.00748622
0.0222409
0.0864124
0.189865
0.376977
0.533875
0.608812
0.533889
0.461304
0.500283
0.463537
0.579511
0.771724
0.769833
0.552245
0.801916
0.636137
0.325583
0.147221
0.115401
0.112583
0.134381
0.2517
0.414672
0.512416
0.643651
0.841702
0.844337
0.886054
0.855881
0.787318
0.767266
0.767459
0.798766
0.798727
0.551739
0.784248
0.846522
0.830945
0.701329
0.582543
0.554307
0.601735
0.698942
0.699123
0.326612
0.0425963
0.213821
0.68308
0.906965
0.919141
0.91899
0.911669
0.90545
0.864079
0.548604
0.193755
0.186114
0.846522
0.846522
0.785538
0.669998
0.58241
0.507568
0.372283
0.178292
0.016627
0.00029364
0.000360515
0.0114858
0.166968
0.662009
0.919044
0.91957
0.919569
0.893752
0.510646
0.0595513
0.00495002
0.0222298
0.586022
0.252091
0.106702
0.0665625
0.041546
0.0235351
0.00804061
0.00251291
0.000116232
6.35432e-07
3.91387e-07
8.86642e-05
0.0115214
0.222426
0.757031
0.919569
0.91957
0.700244
0.123756
0.00104301
1.93609e-05
0.000102103
0.0466279
0.00582862
0.000876279
0.000353561
0.000168051
7.1147e-05
1.30707e-05
3.331e-06
1.492e-07
2.29609e-08
9.72104e-08
3.83312e-07
0.00018347
0.0262024
0.31657
0.801784
0.915458
0.584819
0.055015
2.70666e-05
1.05126e-06
6.75043e-07
5.73872e-07
0.000447531
1.21633e-05
6.15977e-07
1.24107e-07
4.26782e-08
1.73967e-08
9.47855e-09
9.51321e-09
9.54866e-09
9.58591e-09
3.32695e-08
1.40277e-07
5.3987e-07
0.000548277
0.0389436
0.256038
0.44338
0.334475
0.0330492
4.7427e-05
9.02056e-07
5.1377e-07
2.40464e-07
8.51652e-07
1.95515e-07
1.65189e-07
6.37045e-08
2.66494e-08
9.41106e-09
9.44589e-09
9.49057e-09
9.53641e-09
9.5884e-09
1.76957e-08
8.20226e-08
2.3542e-07
1.43641e-05
0.00221992
0.0190555
0.0409263
0.0455795
0.0124887
0.000213557
8.77178e-07
6.3383e-07
2.62909e-07
2.77553e-07
2.23069e-07
1.36323e-07
5.60933e-08
1.42478e-08
6.61034e-09
1.32028e-08
1.46015e-08
1.25147e-08
1.21641e-08
1.79416e-08
4.69776e-08
1.86949e-07
5.33408e-07
3.03162e-05
0.000285031
0.000777889
0.00128004
0.00151495
0.000541544
1.91025e-06
8.27931e-07
3.98802e-07
2.78695e-07
2.41821e-07
9.51311e-08
4.85468e-08
1.2708e-08
2.89235e-09
1.37212e-08
2.26524e-08
1.89494e-08
1.39591e-08
2.10625e-08
4.32836e-08
1.00651e-07
2.31762e-07
1.21955e-07
5.66292e-07
2.21303e-06
7.97057e-06
7.58445e-05
0.000213553
2.4659e-05
1.26396e-06
6.85826e-07
2.23862e-07
1.35114e-07
6.31625e-08
3.27796e-08
9.6246e-09
9.46594e-10
8.46493e-09
2.77627e-08
2.72231e-08
2.30674e-08
4.08468e-08
5.73167e-08
3.97822e-08
4.9349e-08
2.63654e-08
2.10538e-08
5.83946e-08
4.65637e-07
1.1076e-06
1.33106e-05
2.9503e-05
1.02951e-05
1.17257e-06
1.18e-07
6.15337e-08
4.05104e-08
2.10541e-08
4.20562e-09
2.40271e-10
4.11995e-09
2.23168e-08
2.47798e-08
4.85244e-08
5.76427e-08
5.7669e-08
2.43754e-08
2.10422e-08
2.1074e-08
2.10129e-08
6.4851e-08
3.24483e-07
7.37108e-07
1.58118e-06
8.36718e-06
1.00682e-05
3.82996e-06
5.50211e-08
3.57196e-08
2.31579e-08
9.06649e-09
6.01429e-10
2.46833e-11
1.79761e-09
5.75106e-09
1.3274e-08
3.46863e-08
5.76292e-08
3.88909e-08
2.15204e-08
2.10065e-08
2.26235e-08
2.10191e-08
4.37827e-08
1.90887e-07
5.09973e-07
1.11311e-06
1.88432e-06
3.2516e-06
2.12271e-06
3.62334e-08
2.09985e-08
1.2288e-08
1.65597e-09
2.70864e-11
1.37762e-11
4.50407e-10
4.4337e-10
3.3479e-09
8.86196e-09
2.33857e-08
1.16341e-08
1.65124e-08
4.33166e-08
6.76325e-08
5.87706e-08
4.37485e-08
7.29366e-08
2.92358e-07
7.24582e-07
1.35324e-06
1.95384e-06
1.89456e-06
1.82413e-08
8.87696e-09
1.96909e-09
6.73295e-11
7.81184e-12
8.44769e-12
2.86221e-11
4.12841e-11
3.57574e-10
7.05261e-10
2.17606e-09
2.63477e-09
1.28777e-08
4.54507e-08
9.9387e-08
9.89559e-08
)
;

boundaryField
{
    leftWall
    {
        type            zeroGradient;
    }
    rightWall
    {
        type            zeroGradient;
    }
    lowerWall
    {
        type            zeroGradient;
    }
    atmosphere
    {
        type            inletOutlet;
        inletValue      nonuniform 0();
        value           nonuniform 0();
    }
    defaultFaces
    {
        type            empty;
    }
    procBoundary0to1
    {
        type            processor;
        value           nonuniform List<scalar> 
26
(
8.27058e-06
1.12451e-05
1.17321e-05
1.18477e-05
1.19204e-05
8.04172e-05
0.00371309
0.03026
0.0739383
0.263749
0.807621
0.575665
0.487299
0.586118
0.271666
0.00039166
0.00039166
3.0185e-06
2.4121e-07
2.29258e-07
4.16779e-07
9.66224e-07
1.14498e-06
1.37456e-06
1.81045e-06
1.9269e-06
)
;
    }
    procBoundary0to2
    {
        type            processor;
        value           nonuniform List<scalar> 
24
(
5.98107e-08
5.36559e-08
1.07584e-07
3.25057e-07
9.72769e-07
1.58116e-06
1.7955e-06
5.40718e-09
2.15602e-09
7.87001e-11
5.00006e-12
3.95676e-12
5.16207e-12
1.42087e-11
3.25276e-11
6.39189e-11
1.16326e-10
1.69804e-10
1.09255e-09
6.32777e-09
4.1017e-08
9.76367e-08
5.98107e-08
1.1615e-07
)
;
    }
}


// ************************************************************************* //
