/*--------------------------------*- C++ -*----------------------------------*\
| =========                 |                                                 |
| \\      /  F ield         | OpenFOAM: The Open Source CFD Toolbox           |
|  \\    /   O peration     | Version:  2.4.0                                 |
|   \\  /    A nd           | Web:      www.OpenFOAM.org                      |
|    \\/     M anipulation  |                                                 |
\*---------------------------------------------------------------------------*/
FoamFile
{
    version     2.0;
    format      ascii;
    class       volScalarField;
    location    "0.85";
    object      alphas;
}
// * * * * * * * * * * * * * * * * * * * * * * * * * * * * * * * * * * * * * //

dimensions      [0 0 0 0 0 0 0];

internalField   nonuniform List<scalar> 
575
(
2
2
2
2
2
2
2
2
2
2
2
2
2
2
2
2
2
2
2
2
2
1.99999
1.99907
1.99939
1.99991
1.99998
1.99999
2
2
2
2
2
2
2
2
2
2
2
2
2
2
2
2
1.99999
1.56278
1.64691
1.79735
1.9688
1.9987
1.99993
1.99999
2
2
2
2
2
2
2
2
2
2
2
2
2
2
2
0.00931277
0.0155563
0.0911281
0.483221
1.23991
1.8996
1.99606
1.99972
1.99995
1.99998
1.99999
2
2
2
2
2
2
2
2
2
2
1.99999
9.92308e-06
1.19993e-05
0.000141961
0.00730773
0.18758
1.21874
1.92774
1.99572
1.99956
1.99989
1.99996
1.99998
1.99993
1.99982
1.99979
1.99988
1.99997
2
2
2
1.99999
1.99987
1.12574e-05
1.04013e-05
1.04019e-05
0.000306636
0.0480392
0.635368
1.67744
1.96833
1.99643
1.99932
1.99905
1.99454
1.98046
1.96311
1.95951
1.97137
1.98681
1.99556
1.99767
1.99789
1.9952
1.97454
1.37776e-05
1.31934e-05
1.27703e-05
0.000109618
0.0208298
0.365833
1.34607
1.91459
1.98011
1.96722
1.8888
1.71615
1.45794
1.2473
1.20831
1.29974
1.47322
1.63884
1.73005
1.76325
1.70695
1.38056
6.98405e-06
7.16285e-06
8.20364e-06
2.27117e-05
0.00463773
0.127583
0.699997
1.39275
1.5379
1.33342
0.963134
0.551205
0.239464
0.104588
0.0850785
0.0981067
0.140728
0.209311
0.278187
0.338314
0.333274
0.148367
3.67927e-06
4.03235e-06
4.53821e-06
7.0008e-06
0.000551815
0.0203121
0.103694
0.17186
0.172968
0.167068
0.123418
0.0553925
0.0179006
0.0149688
0.0123951
0.0112376
0.013364
0.0169099
0.0180817
0.0187596
0.0193021
0.0358641
6.73155e-06
5.55008e-05
0.00019595
8.74699e-05
8.242e-05
0.000635881
0.00330967
0.00503086
0.00443969
0.00267692
0.0023877
0.00169121
0.00251786
0.0115393
0.0219391
0.026041
0.0326102
0.0427207
0.0480858
0.046467
0.0495783
0.109739
0.00716699
0.00825745
0.010609
0.00703395
0.00190689
0.0010619
0.00127434
0.00130792
0.00147006
0.00132102
0.00194923
0.010861
0.0537903
0.158573
0.231022
0.221891
0.199156
0.197834
0.192362
0.182947
0.278226
0.705712
0.171573
0.241076
0.197747
0.103799
0.0251609
0.0144337
0.00990949
0.00706002
0.0075163
0.0223042
0.0866981
0.191808
0.401602
0.616565
0.790977
1.00871
0.906606
0.546466
0.463974
0.583833
0.88679
1.38542
0.552257
0.801933
0.636139
0.325584
0.147222
0.115401
0.112583
0.134381
0.254119
0.506248
0.738618
0.847403
1.02888
1.18968
1.07219
0.990586
0.915335
0.786221
0.776688
0.945302
1.29063
1.86065
0.78518
0.846715
0.830958
0.701331
0.582545
0.554311
0.601812
0.731591
1.32403
2.32353
2.8776
2.49076
1.58541
1.06608
0.954575
0.929075
0.921813
0.919324
1.02734
1.8162
2.60375
2.61753
0.940312
1.12751
1.18456
1.27221
1.36083
1.51875
1.94415
2.53762
2.96624
2.99941
2.9992
2.97629
2.66119
1.62451
1.02588
0.963559
0.957138
1.07225
1.9325
2.87765
2.99002
2.95497
1.79778
2.48567
2.77222
2.85201
2.90533
2.94531
2.98121
2.99429
2.99975
3
3
2.99982
2.97675
2.54738
1.4408
1.07356
1.05925
1.5427
2.7468
2.99789
2.99996
2.9998
2.90647
2.98828
2.99819
2.99926
2.99964
2.99985
2.99997
2.99999
3
3
3
3
2.99963
2.94727
2.36217
1.38143
1.14828
1.81436
2.88857
2.99994
3
3
3
2.9991
2.99997
3
3
3
3
3
3
3
3
3
3
3
2.9989
2.92203
2.48732
2.11196
2.3297
2.93363
2.9999
3
3
3
3
3
3
3
3
3
3
3
3
3
3
3
3
2.99997
2.99556
2.96189
2.91814
2.90882
2.97501
2.99956
3
3
3
3
3
3
3
3
3
3
3
3
3
3
3
3
3
2.99994
2.99943
2.99844
2.99744
2.99697
2.99892
3
3
3
3
3
3
3
3
3
3
3
3
3
3
3
3
3
3
3
3
2.99999
2.99985
2.99958
2.99996
3
3
3
3
3
3
3
3
3
3
3
3
3
3
3
3
3
3
3
3
3
2.99998
2.99995
2.99998
3
3
3
3
3
3
3
3
3
3
3
3
3
3
3
3
3
3
3
3
3
2.99999
2.99999
3
3
3
3
3
3
3
3
3
3
3
3
3
3
3
3
3
3
3
3
3
3
3
3
3
3
3
3
3
3
3
3
3
3
3
3
3
3
3
3
3
3
3
3
3
3
3
3
3
3
3
3
3
3
3
3
3
3
3
3
3
3
3
)
;

boundaryField
{
    leftWall
    {
        type            zeroGradient;
    }
    rightWall
    {
        type            zeroGradient;
    }
    lowerWall
    {
        type            zeroGradient;
    }
    atmosphere
    {
        type            zeroGradient;
    }
    defaultFaces
    {
        type            empty;
    }
    procBoundary0to1
    {
        type            processor;
        value           nonuniform List<scalar> 
26
(
1.99999
1.99999
1.99999
1.99999
1.99879
1.86778
0.712195
0.122884
0.0916739
0.322677
1.16249
1.8262
1.95996
1.7736
2.44392
2.99921
2.99921
3
3
3
3
3
3
3
3
3
)
;
    }
    procBoundary0to2
    {
        type            processor;
        value           nonuniform List<scalar> 
24
(
3
3
3
3
3
3
3
3
3
3
3
3
3
3
3
3
3
3
3
3
3
3
3
3
)
;
    }
}


// ************************************************************************* //
