/*--------------------------------*- C++ -*----------------------------------*\
| =========                 |                                                 |
| \\      /  F ield         | OpenFOAM: The Open Source CFD Toolbox           |
|  \\    /   O peration     | Version:  2.4.0                                 |
|   \\  /    A nd           | Web:      www.OpenFOAM.org                      |
|    \\/     M anipulation  |                                                 |
\*---------------------------------------------------------------------------*/
FoamFile
{
    version     2.0;
    format      ascii;
    class       volScalarField;
    location    "0.85";
    object      p;
}
// * * * * * * * * * * * * * * * * * * * * * * * * * * * * * * * * * * * * * //

dimensions      [1 -1 -2 0 0 0 0];

internalField   nonuniform List<scalar> 
575
(
3093.95
3180.76
3294.2
3675.66
4197.19
4785.8
5304.41
5639.64
5834.12
5951.27
5983.34
5968.04
5926.88
5879.88
5844.53
5828.77
5829.57
5838.48
5847.07
5848.09
5826.17
5786.82
2375.81
2463.65
2539.93
2859.65
3350.59
3940.52
4528.81
4885.44
5084.24
5174.42
5198.38
5175.35
5127.43
5075.84
5039.53
5026.41
5030.35
5041.49
5051.4
5050.94
5030.07
4986.7
1361.49
1375.77
1431.55
1863.72
2545.85
3193.71
3772.87
4125.18
4303.49
4403.83
4417.31
4384.18
4325.61
4265.71
4229.58
4221.02
4230.05
4244.02
4256.2
4256.83
4235.9
4186.42
1116.13
1129.42
1162.44
1252.45
1419.25
2320.89
3051.8
3412.41
3587.75
3654.36
3648.42
3596.29
3520.42
3447.98
3412.22
3408.83
3425.16
3451.53
3470.06
3470.8
3442.48
3382.35
1183.32
1185.04
1188.33
1194.11
1199.33
1533.22
2354.54
2723.26
2893.92
2915.35
2886.11
2813
2714.02
2622.69
2585.74
2588.29
2609.03
2635.96
2656.1
2663.64
2643.04
2574.78
1016.83
1031.73
1050.9
1094.04
1131.73
1128.77
1677.04
2033.74
2172.61
2183.6
2133.22
2019.63
1881.63
1764.56
1732.66
1753.62
1810.57
1874.71
1918.26
1928.77
1894.34
1753.81
1018.07
1021.88
1026.11
1031.47
1035.93
924.91
1074.34
1393.61
1425.9
1369.96
1283.05
1188.33
1078.95
978.409
953.769
953.858
978.473
1016.37
1052.85
1072.59
1052.16
970.963
904.004
913.231
923.859
934.595
925.135
776.511
636.775
663.449
646.23
642.745
691.58
686.215
642.72
621.336
607.239
596.858
598.284
614.308
628.338
634.894
635.412
605.727
827.002
821.914
811.089
792.781
752.34
609.084
415.894
331.519
327
389.9
474.312
570.51
642.464
691.449
713.399
717.433
710.673
705.088
700.206
692.495
674.614
656.225
638.388
634.371
625.201
612.292
577.302
503.982
421.202
391.373
382.429
370.733
394.446
430.315
455.4
443.327
423.13
410.721
416.8
439.152
468.438
495.643
502.437
429.032
513.512
501.052
480.85
464.796
438.33
400.241
350.661
307.569
277.176
275.362
294.197
325.96
346.025
335.658
323.701
326.978
360.422
397.134
408.72
438.686
451.723
423.851
316.844
300.779
305.245
312.007
304.475
284.455
254.069
225.025
205.552
198.446
211.305
258.222
272.737
224.393
184.542
172.381
190.062
239.324
304.368
376.91
409.29
292.023
202.966
178.986
177.148
185.616
186.601
178.868
156.861
138.074
104.529
47.5903
18.4626
123.417
292.391
169.991
107.155
99.5782
119.251
142.196
179.427
199.982
153.66
106.68
148.005
125.377
124.388
120.073
108.384
88.1591
59.3791
25.8504
11.2452
7.13789
6.11255
15.2579
57.7032
77.2682
76.6245
82.1939
96.9749
95.6533
62.3182
31.5751
13.017
15.9569
93.7757
42.5739
22.5004
18.0984
14.4783
10.8724
8.07358
6.46907
5.18696
5.02057
5.0924
5.10805
4.68438
3.42576
21.7104
61.9061
59.8898
34.2859
17.4123
3.86577
3.23138
3.55298
18.2857
7.49668
5.60766
5.09507
4.89331
4.8448
4.78251
4.8531
5.24901
5.36507
5.30652
4.96966
4.34664
3.51937
3.28895
42.5464
32.2917
14.3081
5.42962
4.19181
4.49759
4.37573
4.90415
4.6471
4.69657
4.76311
4.88114
5.03918
5.15872
5.14453
5.07508
5.05164
5.07652
4.86311
4.40659
4.19518
3.62942
4.51178
16.1684
10.2654
4.27401
4.22681
4.28021
3.98788
4.00736
4.69035
4.71021
4.64277
4.64106
4.70453
4.76512
4.82233
4.84831
4.8085
4.7828
4.76165
4.60891
4.33306
4.24545
4.01975
3.88518
3.81053
5.1531
3.86983
3.90381
3.59882
3.13246
3.08349
4.54395
4.46052
4.45956
4.50495
4.57034
4.62213
4.6454
4.62003
4.57541
4.53385
4.49191
4.39661
4.22468
4.06914
3.93294
3.79782
3.619
3.62046
3.67584
3.6169
3.21722
2.68399
2.59711
4.31417
4.25335
4.28873
4.32742
4.3748
4.4157
4.44303
4.42494
4.37561
4.31217
4.25997
4.1917
4.07523
3.94309
3.81856
3.69263
3.67294
3.76189
3.70842
3.47448
3.04873
2.46843
2.16358
4.15401
4.13973
4.15156
4.1795
4.21839
4.23859
4.24216
4.22674
4.18333
4.1206
4.06203
3.99985
3.91407
3.81361
3.71529
3.6273
3.58124
3.5726
3.49755
3.34749
2.95283
2.3716
1.8047
4.03284
4.02451
4.02101
4.03258
4.05076
4.05892
4.0547
4.03865
3.99926
3.94559
3.88629
3.82646
3.75487
3.67283
3.59219
3.5172
3.44817
3.37972
3.2774
3.11859
2.81156
2.2961
1.67155
3.90051
3.88772
3.88061
3.88112
3.8857
3.88489
3.87625
3.85903
3.82481
3.7786
3.72396
3.66595
3.60115
3.53022
3.45732
3.38428
3.30712
3.21788
3.10151
2.94149
2.70058
2.33401
1.9349
3.74954
3.74087
3.7327
3.72717
3.7239
3.71688
3.70406
3.68494
3.65467
3.61262
3.5633
3.51032
3.45099
3.38692
3.31919
3.24811
3.17085
3.08299
2.96967
2.83374
2.6506
2.41956
2.19629
3.59703
3.5914
3.58101
3.57247
3.5646
3.55372
3.53818
3.51706
3.48819
3.45066
3.40657
3.35738
3.30349
3.24559
3.18325
3.11665
3.04429
2.96316
2.86999
2.75773
2.61507
2.46847
2.35323
3.44154
3.43702
3.42709
3.41806
3.407
3.39386
3.37687
3.35518
3.32765
3.29375
3.25413
3.20973
3.16086
3.10793
3.05111
2.99024
)
;

boundaryField
{
    leftWall
    {
        type            fixedFluxPressure;
        gradient        uniform 0;
        value           nonuniform List<scalar> 
26
(
3093.95
2375.81
1361.49
1116.13
1183.32
1016.83
1018.07
904.004
827.002
638.388
513.512
316.844
202.966
148.005
93.7757
18.2857
4.90415
4.69035
4.54395
4.31417
4.15401
4.03284
3.90051
3.74954
3.59703
3.44154
)
;
    }
    rightWall
    {
        type            fixedFluxPressure;
        gradient        nonuniform 0();
        value           nonuniform 0();
    }
    lowerWall
    {
        type            fixedFluxPressure;
        gradient        nonuniform List<scalar> 
22
(
132719
132719
132719
132719
132719
132719
132719
132719
132719
132719
132719
132719
132719
132719
132719
132719
132719
132719
132719
132719
132719
132719
)
;
        value           nonuniform List<scalar> 
22
(
3492.1
3578.91
3692.35
4073.81
4595.34
5183.95
5702.56
6037.79
6232.27
6349.42
6381.49
6366.19
6325.03
6278.02
6242.68
6226.92
6227.72
6236.63
6245.22
6246.24
6224.32
6184.96
)
;
    }
    atmosphere
    {
        type            totalPressure;
        U               U.air;
        phi             phi.air;
        rho             rho;
        psi             none;
        gamma           1;
        p0              nonuniform 0();
        value           nonuniform 0();
    }
    defaultFaces
    {
        type            empty;
    }
    procBoundary0to1
    {
        type            processor;
        value           nonuniform List<scalar> 
26
(
5756.56
4946.04
4126.97
3296.29
2467.77
1474.64
929.145
671.791
560.712
355.023
288.446
195.988
106.5
35.1106
3.42081
4.14327
4.14327
4.04774
3.02613
2.44209
1.99612
1.5267
1.31858
1.68897
2.06736
2.31052
)
;
    }
    procBoundary0to2
    {
        type            processor;
        value           nonuniform List<scalar> 
24
(
2.92469
2.85299
2.7743
2.68447
2.58167
2.48713
2.43572
3.28474
3.28121
3.27234
3.26261
3.25065
3.23656
3.21932
3.1981
3.17232
3.1416
3.10603
3.06606
3.02205
2.97395
2.92252
2.92469
2.86772
)
;
    }
}


// ************************************************************************* //
