/*--------------------------------*- C++ -*----------------------------------*\
| =========                 |                                                 |
| \\      /  F ield         | OpenFOAM: The Open Source CFD Toolbox           |
|  \\    /   O peration     | Version:  2.4.0                                 |
|   \\  /    A nd           | Web:      www.OpenFOAM.org                      |
|    \\/     M anipulation  |                                                 |
\*---------------------------------------------------------------------------*/
FoamFile
{
    version     2.0;
    format      ascii;
    class       surfaceScalarField;
    location    "0.85";
    object      phi;
}
// * * * * * * * * * * * * * * * * * * * * * * * * * * * * * * * * * * * * * //

dimensions      [0 3 -1 0 0 0 0];

internalField   nonuniform List<scalar> 
1101
(
1.37253e-07
-1.37253e-07
-6.28073e-08
2.00061e-07
-1.99186e-06
1.92906e-06
-5.98404e-06
3.99217e-06
-1.06494e-05
4.66538e-06
-1.61556e-05
5.50623e-06
-2.06242e-05
4.46852e-06
-2.26652e-05
2.04099e-06
-2.27714e-05
1.06214e-07
-2.19515e-05
-8.199e-07
-2.09162e-05
-1.03529e-06
-1.9358e-05
-1.55818e-06
-1.70886e-05
-2.26939e-06
-1.45626e-05
-2.526e-06
-1.25807e-05
-1.98196e-06
-1.13599e-05
-1.22073e-06
-1.05527e-05
-8.07249e-07
-9.60519e-06
-9.47483e-07
-8.11017e-06
-1.49502e-06
-5.86867e-06
-2.24151e-06
-4.41233e-06
-1.45634e-06
-8.26048e-07
-1.07968e-07
-2.92856e-08
-1.47014e-07
2.39107e-07
-1.10079e-06
2.88284e-06
-3.94989e-06
6.84127e-06
-8.28074e-06
8.99624e-06
-1.47061e-05
1.19316e-05
-2.01797e-05
9.94204e-06
-2.30231e-05
4.88439e-06
-2.33229e-05
4.06076e-07
-2.24563e-05
-1.68654e-06
-2.10174e-05
-2.47417e-06
-1.91151e-05
-3.46052e-06
-1.6738e-05
-4.64649e-06
-1.4363e-05
-4.901e-06
-1.25289e-05
-3.816e-06
-1.12223e-05
-2.52734e-06
-1.02437e-05
-1.78589e-06
-9.21748e-06
-1.97368e-06
-7.51864e-06
-3.19385e-06
-5.46395e-06
-4.2962e-06
-3.46836e-06
-3.45194e-06
-2.48452e-06
1.11531e-06
-1.1446e-06
6.62192e-07
6.9223e-07
-1.72525e-06
5.27028e-06
-6.68144e-06
1.17975e-05
-1.23121e-05
1.46269e-05
-1.73771e-05
1.69967e-05
-2.15554e-05
1.41203e-05
-2.35388e-05
6.86779e-06
-2.36657e-05
5.3297e-07
-2.25974e-05
-2.75482e-06
-2.07493e-05
-4.32231e-06
-1.85552e-05
-5.65458e-06
-1.63862e-05
-6.81548e-06
-1.43548e-05
-6.93239e-06
-1.27307e-05
-5.44009e-06
-1.13395e-05
-3.9186e-06
-9.98503e-06
-3.14033e-06
-8.73024e-06
-3.22847e-06
-7.17187e-06
-4.75222e-06
-5.57384e-06
-5.89423e-06
-3.27498e-06
-5.7508e-06
-4.65155e-06
-2.69137e-06
1.54677e-06
-6.54788e-06
4.54874e-06
-8.79874e-06
7.52113e-06
-9.16694e-06
1.21657e-05
-1.62856e-05
2.17455e-05
-2.26002e-05
2.33113e-05
-2.45748e-05
1.60949e-05
-2.5218e-05
7.51099e-06
-2.44051e-05
-2.79845e-07
-2.24907e-05
-4.66927e-06
-2.02727e-05
-6.54035e-06
-1.82409e-05
-7.6863e-06
-1.62653e-05
-8.79111e-06
-1.42741e-05
-8.92359e-06
-1.23382e-05
-7.37603e-06
-1.04715e-05
-5.78529e-06
-8.95108e-06
-4.66074e-06
-7.93395e-06
-4.24559e-06
-7.38927e-06
-5.29691e-06
-6.88087e-06
-6.40262e-06
-4.76659e-06
-7.86508e-06
-7.59945e-06
-1.15201e-06
2.69879e-06
-2.0125e-06
5.40923e-06
-2.91247e-06
8.4211e-06
-8.04673e-06
1.72999e-05
-1.94923e-05
3.31911e-05
-2.78162e-05
3.16352e-05
-2.94547e-05
1.77334e-05
-2.95565e-05
7.6128e-06
-2.84031e-05
-1.43328e-06
-2.60297e-05
-7.0427e-06
-2.29412e-05
-9.62885e-06
-1.99289e-05
-1.06985e-05
-1.74817e-05
-1.12384e-05
-1.53753e-05
-1.10299e-05
-1.28439e-05
-9.90749e-06
-1.02487e-05
-8.38042e-06
-8.36869e-06
-6.54078e-06
-7.61113e-06
-5.00315e-06
-7.52512e-06
-5.38291e-06
-7.27318e-06
-6.65457e-06
-5.84021e-06
-9.29804e-06
-1.05647e-05
-4.61688e-06
7.31566e-06
-1.00833e-05
1.08757e-05
-1.71688e-05
1.55065e-05
-2.2908e-05
2.30391e-05
-3.03706e-05
4.06537e-05
-3.76721e-05
3.89367e-05
-3.68306e-05
1.68918e-05
-3.4332e-05
5.11424e-06
-3.27729e-05
-2.99242e-06
-3.02917e-05
-9.52389e-06
-2.66608e-05
-1.32598e-05
-2.30523e-05
-1.4307e-05
-2.00385e-05
-1.42522e-05
-1.7659e-05
-1.34095e-05
-1.5129e-05
-1.24375e-05
-1.25889e-05
-1.09205e-05
-1.01245e-05
-9.00523e-06
-8.40179e-06
-6.72583e-06
-7.55858e-06
-6.22612e-06
-6.85375e-06
-7.35939e-06
-5.34889e-06
-1.08029e-05
-1.26695e-05
-1.39434e-06
8.71001e-06
-3.57563e-06
1.30569e-05
-7.80255e-06
1.97335e-05
-1.55791e-05
3.08157e-05
-2.78712e-05
5.29459e-05
-4.21324e-05
5.31978e-05
-4.56638e-05
2.04233e-05
-4.3424e-05
2.87445e-06
-3.88118e-05
-7.60468e-06
-3.40321e-05
-1.43036e-05
-2.90137e-05
-1.82781e-05
-2.29389e-05
-2.03818e-05
-1.77699e-05
-1.94212e-05
-1.5778e-05
-1.54013e-05
-1.54308e-05
-1.27847e-05
-1.50771e-05
-1.12742e-05
-1.33793e-05
-1.0703e-05
-1.03023e-05
-9.80285e-06
-7.70445e-06
-8.82397e-06
-6.00832e-06
-9.05553e-06
-6.14504e-06
-1.06662e-05
-1.06986e-05
-3.16685e-06
1.18769e-05
-6.15331e-06
1.60434e-05
-9.48926e-06
2.30694e-05
-1.27042e-05
3.40306e-05
-1.79264e-05
5.8168e-05
-3.20896e-05
6.7361e-05
-4.15643e-05
2.9898e-05
-4.25499e-05
3.86007e-06
-4.004e-05
-1.01146e-05
-3.59111e-05
-1.84325e-05
-2.86857e-05
-2.55035e-05
-1.87922e-05
-3.02753e-05
-1.23378e-05
-2.58756e-05
-1.08122e-05
-1.6927e-05
-1.23191e-05
-1.12778e-05
-1.55303e-05
-8.06299e-06
-1.70804e-05
-9.15285e-06
-1.39778e-05
-1.29055e-05
-9.91418e-06
-1.28875e-05
-7.97177e-06
-1.09979e-05
-9.72404e-06
-8.91391e-06
-4.65887e-06
6.23463e-06
5.64222e-06
9.58e-06
1.2698e-05
9.62004e-06
2.30294e-05
8.277e-06
3.53737e-05
1.47226e-05
5.17224e-05
2.02627e-05
6.18209e-05
3.00887e-06
4.71518e-05
-1.85733e-05
2.54422e-05
-3.7984e-05
9.29615e-06
-4.58122e-05
-1.06043e-05
-4.25632e-05
-2.87524e-05
-3.95489e-05
-3.32897e-05
-3.62536e-05
-2.91708e-05
-2.91249e-05
-2.40557e-05
-2.36382e-05
-1.67645e-05
-2.22491e-05
-9.45202e-06
-2.38798e-05
-7.52219e-06
-2.71409e-05
-9.64441e-06
-2.90238e-05
-1.10047e-05
-2.89615e-05
-1.10602e-05
-2.39697e-05
-1.39058e-05
-1.97501e-05
4.29464e-06
1.34758e-06
7.56745e-06
9.42523e-06
7.66113e-06
2.29357e-05
1.01483e-05
3.28865e-05
1.91419e-05
4.27288e-05
3.44391e-05
4.65238e-05
3.97245e-05
4.18664e-05
3.61091e-05
2.90577e-05
3.53165e-05
1.00887e-05
3.35156e-05
-8.8034e-06
2.59863e-05
-2.12231e-05
2.12817e-05
-2.85851e-05
2.4202e-05
-3.20912e-05
2.78707e-05
-2.77243e-05
2.86248e-05
-1.75187e-05
2.39979e-05
-4.82508e-06
1.49548e-05
1.5209e-06
4.19518e-06
1.11524e-06
-6.68986e-06
-1.19655e-07
-1.02927e-05
-7.4573e-06
1.4299e-07
-2.43415e-05
-3.04423e-05
1.74051e-05
-1.60576e-05
2.53709e-05
1.45948e-06
2.42909e-05
2.40157e-05
2.22542e-05
3.49232e-05
2.33091e-05
4.16738e-05
2.96286e-05
4.02044e-05
3.70788e-05
3.44162e-05
4.26913e-05
2.34451e-05
4.43753e-05
8.40474e-06
4.04105e-05
-4.83862e-06
3.4411e-05
-1.52236e-05
2.97945e-05
-2.39686e-05
3.04594e-05
-3.27561e-05
3.34126e-05
-3.06775e-05
3.46519e-05
-1.87579e-05
2.63521e-05
3.47463e-06
1.40924e-05
1.37807e-05
5.41672e-06
9.79087e-06
-9.53725e-06
1.48343e-05
-3.91943e-05
2.21997e-05
-7.68234e-05
1.32876e-05
-3.00153e-05
1.98759e-05
-3.59335e-05
2.26942e-05
-1.35872e-06
1.66731e-05
3.00368e-05
1.48141e-05
3.67822e-05
1.60094e-05
4.04784e-05
1.82409e-05
3.7973e-05
2.30901e-05
2.9567e-05
2.82851e-05
1.82501e-05
3.03343e-05
6.35556e-06
3.13333e-05
-5.83763e-06
2.50337e-05
-8.92397e-06
1.86089e-05
-1.75438e-05
1.63267e-05
-3.04739e-05
3.38904e-06
-1.77399e-05
-1.14734e-05
-3.89545e-06
-2.67667e-05
1.87678e-05
-4.83887e-05
3.54028e-05
-8.19584e-05
4.33606e-05
-0.000116855
4.97308e-05
-0.0001542
5.95448e-05
-0.000171681
3.07687e-05
-2.17741e-05
9.48058e-07
-3.68816e-05
-5.93433e-06
5.52367e-06
-1.13303e-05
3.54328e-05
-1.17385e-05
3.71904e-05
-8.17767e-06
3.69176e-05
-5.36289e-06
3.51582e-05
-1.49581e-06
2.56999e-05
7.53128e-06
9.22298e-06
2.29651e-05
-9.07821e-06
3.24681e-05
-1.53407e-05
-1.02116e-07
2.36463e-05
-0.00011004
9.23943e-05
-0.000171888
3.13741e-05
-0.000190287
6.59177e-07
-0.000189312
-4.8709e-06
-0.000195365
2.48212e-05
-0.000211889
5.19268e-05
-0.000233762
6.52332e-05
-0.000256729
7.26983e-05
-0.000286639
8.94548e-05
-0.000319068
6.31973e-05
-3.15849e-06
-2.23937e-05
-1.44878e-05
-3.54524e-05
1.85823e-05
-3.49634e-05
3.49437e-05
-3.30241e-05
3.52511e-05
-2.7023e-05
3.09165e-05
-1.80057e-05
2.61409e-05
-1.53024e-05
2.29966e-05
-2.54991e-05
1.94197e-05
-3.68221e-05
2.24482e-06
-5.66287e-05
4.4659e-06
-0.000159269
0.000126286
-0.000228148
0.000161273
-0.000246902
5.01284e-05
-0.000242865
-3.37788e-06
-0.000240918
-6.81778e-06
-0.000244352
2.82558e-05
-0.000245357
5.29314e-05
-0.000243809
6.3685e-05
-0.000250154
7.90432e-05
-0.000283535
0.000122836
-0.000340529
0.000120192
2.34636e-05
-2.81478e-05
1.36599e-05
-5.36536e-05
4.40882e-05
-6.09723e-05
4.22624e-05
-5.66833e-05
3.09621e-05
-4.84002e-05
2.26334e-05
-4.10911e-05
1.88318e-05
-3.43063e-05
1.62117e-05
-5.13688e-05
3.64822e-05
-0.000148458
9.93343e-05
-0.000217368
7.3376e-05
-0.000219046
0.000127964
-0.00027207
0.000214296
-0.000258838
3.68972e-05
-0.000231439
-3.07776e-05
-0.000236995
-1.26117e-06
-0.000240027
3.12874e-05
-0.000236174
4.90782e-05
-0.000230956
5.84675e-05
-0.000264425
0.000112512
-0.000284223
0.000142634
-0.000336909
0.000172879
2.89038e-05
-3.70256e-05
5.06855e-05
-5.70784e-05
6.4141e-05
-5.81542e-05
4.33383e-05
-6.14145e-05
3.42224e-05
-7.68698e-05
3.80887e-05
-0.000106274
4.82364e-05
-0.000144739
5.46765e-05
-0.000174974
6.67169e-05
-0.000161443
8.58032e-05
-0.000172685
8.46179e-05
-0.000180432
0.000135712
-0.000166111
0.000199975
-0.000226015
9.68013e-05
-0.000232768
-2.40241e-05
-0.00022517
-8.85928e-06
-0.000218668
2.47847e-05
-0.000212789
4.31999e-05
-0.000212603
5.82814e-05
-0.000234993
0.000134902
-0.000246458
0.000154099
-0.000228554
0.000154975
5.38996e-07
-6.61028e-05
0.000116788
-9.91262e-05
9.71643e-05
-0.000100213
4.44254e-05
-9.22097e-05
2.62187e-05
-7.92548e-05
2.51338e-05
-6.98535e-05
3.88352e-05
-7.84865e-05
6.33096e-05
-0.000106516
9.47461e-05
-0.000129223
0.00010851
-0.000137628
9.30231e-05
-0.000124051
0.000122135
-8.89549e-05
0.000164879
-0.000127442
0.000135288
-0.000207878
5.64119e-05
-0.000217815
1.07736e-06
-0.000198707
5.67681e-06
-0.000190482
3.49751e-05
-0.000192194
5.99936e-05
-0.000205472
0.00014818
-0.000228121
0.000176748
-0.000240623
0.000167476
-0.000263562
2.34786e-05
-3.0103e-05
-5.03992e-05
0.000167188
-5.87923e-05
0.000105557
-6.02626e-05
4.58958e-05
-5.88185e-05
2.47746e-05
-5.82762e-05
2.45914e-05
-6.0389e-05
4.09479e-05
-6.97825e-05
7.27031e-05
-8.09483e-05
0.000105912
-9.06164e-05
0.000118178
-0.000103262
0.000105668
-8.73743e-05
0.000106248
-4.50277e-05
0.000122532
-3.48016e-05
0.000125062
-9.90339e-05
0.000120644
-0.000178262
8.03055e-05
-0.000204223
3.16382e-05
-0.000192571
2.3323e-05
-0.000192309
5.97316e-05
-0.000176311
0.000132181
-0.000193832
0.000194269
-0.000222454
0.000196098
-0.000279075
8.01001e-05
-8.88565e-06
-1.88771e-05
0.000186065
-2.60939e-05
0.000112774
-3.43321e-05
5.4134e-05
-3.46645e-05
2.5107e-05
-3.17593e-05
2.16861e-05
-3.17947e-05
4.09834e-05
-3.20753e-05
7.29837e-05
-3.90479e-05
0.000112885
-4.26563e-05
0.000121787
-4.88109e-05
0.000111823
-3.9837e-05
9.72736e-05
-1.57778e-05
9.84729e-05
-4.23634e-07
0.000109708
4.58593e-06
0.000115635
-3.30019e-05
0.000117893
-0.000102759
0.000101395
-0.000151732
7.22966e-05
-0.000163594
7.15932e-05
-0.000133556
0.000102144
-0.000111092
0.000171805
-0.000129712
0.000214718
-0.000191004
0.000141392
3.20425e-05
1.02908e-05
0.000175774
4.74844e-06
0.000118317
-5.54077e-06
6.44232e-05
-1.61303e-05
3.56965e-05
-2.3495e-05
2.90509e-05
-2.40823e-05
4.15707e-05
-1.30908e-05
6.19923e-05
-7.12746e-06
0.000106921
-8.05684e-06
0.000122716
-1.09e-05
0.000114666
-5.35134e-06
9.1725e-05
7.79955e-06
8.5322e-05
2.17057e-05
9.58018e-05
3.77344e-05
9.96059e-05
5.02681e-05
0.00010536
4.16296e-05
0.000110033
6.25435e-06
0.000107672
-3.42494e-05
0.000112097
-5.42064e-05
0.000122101
-3.71406e-05
0.00015474
-3.31848e-05
0.000210762
-9.0931e-05
0.000199139
0.00011139
1.91561e-05
0.000156618
1.85421e-05
0.000118931
1.18436e-05
7.11218e-05
3.66304e-06
4.3877e-05
-4.99401e-06
3.77079e-05
-1.00987e-05
4.66753e-05
-5.22231e-06
5.71159e-05
6.18752e-06
9.55113e-05
1.2018e-05
0.000116886
1.5756e-05
0.000110928
1.9321e-05
8.816e-05
2.55951e-05
7.90479e-05
3.49071e-05
8.64899e-05
4.64194e-05
8.80935e-05
5.97214e-05
9.20576e-05
7.07971e-05
9.89577e-05
7.11327e-05
0.000107336
6.15768e-05
0.000121653
4.72204e-05
0.000136457
4.1825e-05
0.000160135
4.53515e-05
0.000207236
1.59673e-05
0.000228523
0.000180304
1.7858e-05
0.00013876
2.25696e-05
0.000114219
1.82453e-05
7.5446e-05
1.09181e-05
5.12042e-05
4.12586e-06
4.45001e-05
-7.65764e-07
5.1567e-05
-5.04064e-08
5.64005e-05
1.09496e-05
8.45113e-05
2.26789e-05
0.000105156
3.14467e-05
0.00010216
3.38394e-05
8.57673e-05
3.54299e-05
7.74575e-05
4.04979e-05
8.14219e-05
4.71941e-05
8.13974e-05
5.61989e-05
8.30528e-05
6.87362e-05
8.64204e-05
8.13022e-05
9.47704e-05
9.18213e-05
0.000111134
9.85156e-05
0.000129763
0.000109235
0.000149415
0.000130836
0.000185635
0.000140492
0.000218867
0.000192371
1.36606e-05
0.000125099
2.23627e-05
0.000105517
2.24372e-05
7.53716e-05
1.68469e-05
5.67945e-05
9.9821e-06
5.13649e-05
4.79574e-06
5.67533e-05
2.25118e-06
5.89451e-05
1.06881e-05
7.60744e-05
2.5076e-05
9.07684e-05
3.5031e-05
9.22054e-05
3.66634e-05
8.41348e-05
3.62097e-05
7.79112e-05
3.90264e-05
7.86052e-05
4.39108e-05
7.6513e-05
5.12284e-05
7.57352e-05
6.13194e-05
7.63294e-05
7.55349e-05
8.05548e-05
9.40036e-05
9.26653e-05
0.000112052
0.000111714
0.000137204
0.000124263
0.000178808
0.000144031
0.000203283
0.000194392
0.000184235
1.34811e-05
0.000111618
2.26474e-05
9.63505e-05
2.41174e-05
7.39016e-05
1.99569e-05
6.0955e-05
1.37933e-05
5.75285e-05
9.59366e-06
6.09529e-05
5.95654e-06
6.25822e-05
1.07129e-05
7.1318e-05
2.23133e-05
7.9168e-05
3.15688e-05
8.29499e-05
3.44002e-05
8.13035e-05
3.41674e-05
7.8144e-05
3.61547e-05
7.66179e-05
3.97722e-05
7.28954e-05
4.53168e-05
7.01906e-05
5.30757e-05
6.85705e-05
6.39235e-05
6.97071e-05
8.15452e-05
7.50435e-05
0.000104075
8.91845e-05
0.000133014
9.5324e-05
0.000172578
0.000104468
0.000206894
0.000160076
0.000170419
1.33829e-05
9.82352e-05
2.16032e-05
8.81302e-05
2.28445e-05
7.26602e-05
1.94407e-05
6.43588e-05
1.50953e-05
6.1874e-05
1.25403e-05
6.35078e-05
1.05772e-05
6.45454e-05
1.30149e-05
6.88803e-05
1.97672e-05
7.24158e-05
2.67794e-05
7.59377e-05
3.07016e-05
7.73813e-05
3.24497e-05
7.63959e-05
3.47858e-05
7.42818e-05
3.75376e-05
7.01436e-05
4.12157e-05
6.65125e-05
4.62439e-05
6.35423e-05
5.34929e-05
6.48173e-05
8.30356e-05
0.000105912
0.000136966
0.000177741
1.09844e-05
1.79644e-05
1.92576e-05
1.73034e-05
1.51641e-05
1.43969e-05
1.41851e-05
1.61117e-05
1.98916e-05
2.46185e-05
2.89471e-05
3.26044e-05
3.62525e-05
3.91707e-05
4.1928e-05
)
;

boundaryField
{
    leftWall
    {
        type            calculated;
        value           uniform 0;
    }
    rightWall
    {
        type            calculated;
        value           nonuniform 0();
    }
    lowerWall
    {
        type            calculated;
        value           nonuniform List<scalar> 
22
(
1.5334e-24
1.84546e-22
-3.14531e-22
-3.6936e-23
2.81283e-22
-5.30809e-23
-3.06365e-22
-1.74153e-22
-5.4164e-22
8.82186e-23
2.94441e-23
-4.51839e-22
-1.74009e-22
5.05e-23
2.28159e-22
3.59187e-22
-3.53704e-23
-3.36827e-22
2.36924e-22
-2.39799e-22
-2.44542e-22
-1.20017e-22
)
;
    }
    atmosphere
    {
        type            calculated;
        value           nonuniform 0();
    }
    defaultFaces
    {
        type            empty;
        value           nonuniform 0();
    }
    procBoundary0to1
    {
        type            processor;
        value           nonuniform List<scalar> 
26
(
-3.58628e-06
-1.80988e-06
-1.10795e-06
-1.81868e-06
-2.87493e-06
-3.24415e-06
-8.11595e-06
-1.57638e-05
-8.87842e-06
1.08352e-05
-7.72505e-05
-0.000179922
-0.000337684
-0.000367152
-0.00034235
-0.000200189
5.54814e-05
-0.000288941
-0.000300293
-0.000231932
-0.000170279
-5.2947e-05
0.000128425
0.000211419
0.000220711
0.000200581
)
;
    }
    procBoundary0to2
    {
        type            processor;
        value           nonuniform List<scalar> 
24
(
6.2458e-05
6.37192e-05
7.09662e-05
7.24475e-05
7.34144e-05
0.0001193
0.000147579
8.72508e-05
8.11503e-05
7.1367e-05
6.6313e-05
6.40133e-05
6.42751e-05
6.47572e-05
6.69537e-05
6.86358e-05
7.12107e-05
7.30527e-05
7.27386e-05
7.06337e-05
6.72254e-05
6.37551e-05
4.51591e-05
6.03112e-05
)
;
    }
}


// ************************************************************************* //
