/*--------------------------------*- C++ -*----------------------------------*\
| =========                 |                                                 |
| \\      /  F ield         | OpenFOAM: The Open Source CFD Toolbox           |
|  \\    /   O peration     | Version:  2.4.0                                 |
|   \\  /    A nd           | Web:      www.OpenFOAM.org                      |
|    \\/     M anipulation  |                                                 |
\*---------------------------------------------------------------------------*/
FoamFile
{
    version     2.0;
    format      ascii;
    class       surfaceScalarField;
    location    "0.85";
    object      phi.air;
}
// * * * * * * * * * * * * * * * * * * * * * * * * * * * * * * * * * * * * * //

dimensions      [0 3 -1 0 0 0 0];

internalField   nonuniform List<scalar> 
1101
(
1.37252e-07
-1.29979e-07
-6.28067e-08
2.03446e-07
-1.99186e-06
1.92917e-06
-5.98401e-06
3.99219e-06
-1.06493e-05
4.66537e-06
-1.61556e-05
5.50614e-06
-2.06243e-05
4.46846e-06
-2.26653e-05
2.04097e-06
-2.27715e-05
1.06229e-07
-2.19515e-05
-8.1986e-07
-2.09162e-05
-1.03521e-06
-1.9358e-05
-1.55807e-06
-1.70886e-05
-2.26926e-06
-1.45626e-05
-2.52587e-06
-1.25807e-05
-1.98184e-06
-1.136e-05
-1.22064e-06
-1.05527e-05
-8.07171e-07
-9.60528e-06
-9.47437e-07
-8.11026e-06
-1.49499e-06
-5.86875e-06
-2.2415e-06
-4.41239e-06
-1.45634e-06
-8.26066e-07
-1.08196e-07
2.02781e-08
-1.47078e-07
4.70866e-07
-1.10081e-06
3.22017e-06
-3.94988e-06
6.97981e-06
-8.28069e-06
9.00409e-06
-1.47061e-05
1.19317e-05
-2.01798e-05
9.94203e-06
-2.30232e-05
4.88438e-06
-2.3323e-05
4.06099e-07
-2.24563e-05
-1.68651e-06
-2.10174e-05
-2.47414e-06
-1.91151e-05
-3.46049e-06
-1.6738e-05
-4.64645e-06
-1.4363e-05
-4.90097e-06
-1.25289e-05
-3.81598e-06
-1.12224e-05
-2.52733e-06
-1.02437e-05
-1.7859e-06
-9.21756e-06
-1.97372e-06
-7.51873e-06
-3.19391e-06
-5.46403e-06
-4.29629e-06
-3.46842e-06
-3.45207e-06
-2.48468e-06
1.1277e-06
-1.77945e-05
7.05388e-07
-1.36452e-05
-1.73126e-06
-5.00021e-06
-6.7186e-06
4.5097e-06
-1.23117e-05
1.3308e-05
-1.73771e-05
1.72558e-05
-2.15555e-05
1.41475e-05
-2.35389e-05
6.86805e-06
-2.36658e-05
5.33078e-07
-2.25975e-05
-2.75465e-06
-2.07493e-05
-4.32213e-06
-1.85552e-05
-5.65439e-06
-1.63862e-05
-6.81531e-06
-1.43548e-05
-6.93225e-06
-1.27308e-05
-5.43998e-06
-1.13395e-05
-3.91851e-06
-9.98511e-06
-3.14027e-06
-8.73033e-06
-3.22846e-06
-7.17196e-06
-4.75226e-06
-5.57392e-06
-5.89432e-06
-3.27504e-06
-5.75094e-06
-4.65175e-06
-2.21765e-06
-3.54494e-06
-4.80977e-06
-2.39937e-06
-6.12069e-06
-8.88079e-06
-7.85749e-06
-8.26932e-06
-1.57913e-05
9.67752e-06
-2.26909e-05
2.034e-05
-2.45702e-05
1.64434e-05
-2.5218e-05
7.55542e-06
-2.44052e-05
-2.78781e-07
-2.24907e-05
-4.6691e-06
-2.02727e-05
-6.54021e-06
-1.82409e-05
-7.68622e-06
-1.62653e-05
-8.79108e-06
-1.42741e-05
-8.92344e-06
-1.23382e-05
-7.37584e-06
-1.04715e-05
-5.78527e-06
-8.95117e-06
-4.66077e-06
-7.93406e-06
-4.24565e-06
-7.38937e-06
-5.29699e-06
-6.88098e-06
-6.40275e-06
-4.76667e-06
-7.8653e-06
-7.59967e-06
-1.15203e-06
2.69778e-06
-2.01144e-06
5.40802e-06
-2.87298e-06
8.39086e-06
-8.08841e-06
1.45794e-05
-1.8833e-05
1.69404e-05
-2.7408e-05
1.99753e-05
-2.95e-05
1.72218e-05
-2.95495e-05
7.87537e-06
-2.8403e-05
-1.38953e-06
-2.60297e-05
-7.03975e-06
-2.29412e-05
-9.62317e-06
-1.99289e-05
-1.06277e-05
-1.74817e-05
-1.10537e-05
-1.53753e-05
-1.07581e-05
-1.28439e-05
-9.62606e-06
-1.02488e-05
-8.15452e-06
-8.36878e-06
-6.40812e-06
-7.61124e-06
-4.94675e-06
-7.52524e-06
-5.35261e-06
-7.27329e-06
-6.6277e-06
-5.84032e-06
-9.23591e-06
-1.03934e-05
-4.61688e-06
7.31413e-06
-1.00832e-05
1.08743e-05
-1.71978e-05
1.5505e-05
-2.55666e-05
2.27572e-05
-3.38668e-05
2.74217e-05
-3.72874e-05
1.98058e-05
-3.68117e-05
1.34714e-05
-3.43396e-05
5.32606e-06
-3.27666e-05
-2.76578e-06
-3.02915e-05
-9.26818e-06
-2.66527e-05
-1.28147e-05
-2.30437e-05
-1.39589e-05
-2.00283e-05
-1.49194e-05
-1.76556e-05
-1.53255e-05
-1.51304e-05
-1.46402e-05
-1.25938e-05
-1.24427e-05
-1.01286e-05
-9.52753e-06
-8.40341e-06
-6.51776e-06
-7.55898e-06
-5.79807e-06
-6.85284e-06
-6.90922e-06
-5.34166e-06
-1.04676e-05
-1.35355e-05
-1.3943e-06
8.70854e-06
-3.57546e-06
1.30556e-05
-7.83085e-06
1.97317e-05
-1.88351e-05
3.07362e-05
-3.49658e-05
4.12007e-05
-4.35171e-05
2.62421e-05
-4.56824e-05
9.74734e-06
-4.34209e-05
9.8529e-07
-3.88083e-05
-8.11877e-06
-3.40256e-05
-1.56548e-05
-2.90365e-05
-2.22507e-05
-2.30887e-05
-2.88298e-05
-1.80395e-05
-3.41877e-05
-1.58971e-05
-3.43857e-05
-1.54584e-05
-3.29853e-05
-1.50456e-05
-2.98619e-05
-1.33397e-05
-2.61675e-05
-1.02795e-05
-2.20155e-05
-7.69594e-06
-1.92798e-05
-6.01407e-06
-1.87151e-05
-6.20736e-06
-2.10789e-05
-2.61405e-05
-3.16683e-06
1.18934e-05
-6.15315e-06
1.6056e-05
-9.48971e-06
2.30738e-05
-1.35775e-05
3.40268e-05
-2.55988e-05
5.15691e-05
-3.61619e-05
3.78952e-05
-4.19877e-05
1.13013e-05
-4.26061e-05
-4.39588e-06
-4.01336e-05
-1.74138e-05
-3.60708e-05
-2.79064e-05
-2.93081e-05
-3.92459e-05
-1.98015e-05
-5.33262e-05
-1.25984e-05
-5.76809e-05
-1.04975e-05
-4.82671e-05
-1.23208e-05
-4.26761e-05
-1.58973e-05
-4.07964e-05
-1.7138e-05
-4.24337e-05
-1.36241e-05
-4.44222e-05
-9.30139e-06
-4.32508e-05
-7.42237e-06
-3.97167e-05
-9.83562e-06
-3.83851e-05
-3.72208e-05
6.23704e-06
5.88554e-06
9.58292e-06
1.28647e-05
9.62196e-06
2.30841e-05
7.66147e-06
3.5386e-05
1.08823e-06
5.09056e-05
-2.95461e-06
4.86294e-05
-1.55485e-05
2.51184e-05
-2.50851e-05
5.09264e-06
-3.33106e-05
-1.10313e-05
-3.66186e-05
-3.06988e-05
-3.36966e-05
-4.83092e-05
-3.38342e-05
-5.42262e-05
-3.41617e-05
-3.96221e-05
-2.89014e-05
-2.92313e-05
-2.41447e-05
-1.87036e-05
-2.27493e-05
-1.02501e-05
-2.40872e-05
-8.33952e-06
-2.69056e-05
-1.04489e-05
-2.8385e-05
-1.17505e-05
-2.77646e-05
-9.93043e-06
-2.34668e-05
1.6163e-05
5.07692e-05
4.30172e-06
1.58012e-06
7.57655e-06
9.64492e-06
7.66542e-06
2.31572e-05
1.01454e-05
3.29511e-05
1.86469e-05
4.27317e-05
3.08153e-05
4.59323e-05
3.42751e-05
3.81677e-05
3.17169e-05
2.40685e-05
3.24919e-05
5.54651e-06
3.18821e-05
-1.18357e-05
2.53747e-05
-2.3152e-05
2.13371e-05
-2.90522e-05
2.42372e-05
-2.81088e-05
2.78964e-05
-1.55069e-05
2.86441e-05
2.0417e-05
2.39813e-05
2.71966e-05
1.48683e-05
1.52599e-05
4.037e-06
2.86373e-06
-7.08767e-06
5.54768e-06
-1.12423e-05
1.22507e-05
3.02686e-05
1.28374e-05
-2.08441e-05
1.7442e-05
-1.53676e-05
2.54367e-05
2.50499e-06
2.43464e-05
2.49187e-05
2.22971e-05
3.55819e-05
2.33251e-05
4.19405e-05
2.9391e-05
4.0339e-05
3.63272e-05
3.41775e-05
4.15392e-05
2.28733e-05
4.34598e-05
7.97765e-06
4.01596e-05
-4.37069e-06
3.4399e-05
-1.26998e-05
2.92088e-05
-7.62124e-06
3.16743e-05
3.69027e-05
3.80394e-05
6.12045e-05
3.3251e-05
9.50381e-05
1.31108e-05
0.000135363
7.095e-06
0.000146226
4.64771e-06
0.000107873
-2.18271e-05
2.4532e-05
-4.82393e-05
5.93279e-05
-4.96273e-05
5.23867e-05
5.24308e-05
1.98922e-05
-3.72968e-05
2.26863e-05
-3.15705e-06
1.6667e-05
2.88337e-05
1.48563e-05
3.6917e-05
1.60668e-05
4.09323e-05
1.83002e-05
3.84098e-05
2.31312e-05
2.98972e-05
2.82762e-05
1.8051e-05
3.0361e-05
3.10005e-05
3.10242e-05
7.7409e-05
1.78064e-05
0.000128211
5.71979e-06
5.04114e-05
6.36231e-05
-3.47935e-05
3.79042e-05
2.61397e-05
-1.00937e-06
6.33065e-05
-4.10902e-05
8.24772e-05
-8.75908e-05
9.19308e-05
-0.000121719
0.00011423
-0.000144689
0.000122367
-0.000181314
0.000158115
-0.000102538
0.000143155
8.1103e-05
1.95284e-07
-2.75371e-05
-6.22973e-06
4.82133e-06
-1.12321e-05
3.32338e-05
-1.17317e-05
3.61113e-05
-8.1766e-06
3.65106e-05
-5.34517e-06
3.49376e-05
-1.59421e-06
2.67186e-05
1.39288e-05
8.7598e-05
5.45716e-05
9.75862e-05
5.14927e-05
7.63182e-05
-5.77209e-05
0.000100026
-0.000203529
0.000257246
-8.90444e-05
0.000168328
-0.000142934
6.28716e-05
-0.000180754
2.67067e-05
-0.000217383
4.74066e-05
-0.000238547
8.06413e-05
-0.000269182
0.000113152
-0.000275887
0.000162475
-0.000271674
0.000223486
-0.000296319
0.000199451
7.12911e-05
-1.83325e-05
3.10442e-05
-3.61199e-05
7.93115e-05
-3.54311e-05
0.000121815
-3.30322e-05
0.000138454
-2.71069e-05
0.000141093
-1.82949e-05
0.000135858
7.39867e-06
0.000130304
-9.37094e-06
0.000108201
-3.07161e-05
5.60738e-05
-6.03054e-05
2.55434e-05
-0.000175402
0.0001322
-0.000266818
0.000188846
-0.000258758
0.000106165
-0.000245633
8.30149e-05
-0.000249039
4.78877e-05
-0.000264653
5.60875e-05
-0.000244987
9.79694e-05
-0.000221902
0.000126949
-0.000222716
0.000137462
-0.000272048
0.000175478
-0.000344262
0.000148736
4.63517e-05
8.76028e-06
0.000102871
-3.8291e-05
0.000117043
-5.71789e-05
9.66466e-05
-5.33428e-05
7.73401e-05
-4.45377e-05
6.58167e-05
-3.74764e-05
5.72523e-05
-3.14611e-05
4.42431e-05
-5.17485e-05
5.00149e-05
-0.00014906
0.000100941
-0.000217403
7.33945e-05
-0.000219158
0.000127995
-0.000272068
0.000215775
-0.000263568
4.45364e-05
-0.00025136
-3.15804e-05
-0.000281626
2.51569e-05
-0.000238025
5.34913e-05
-0.000210843
8.37373e-05
-0.000201715
8.66556e-05
-0.000253016
0.000141614
-0.000281922
0.000146316
-0.000337094
0.000173735
3.16209e-05
-2.36847e-05
8.98803e-05
-5.3178e-05
7.90914e-05
-5.66555e-05
4.89739e-05
-6.11013e-05
3.77955e-05
-7.74671e-05
4.05531e-05
-0.000107145
4.97645e-05
-0.000145266
5.52303e-05
-0.000175146
6.68763e-05
-0.000161449
8.58105e-05
-0.000172685
8.4618e-05
-0.000180433
0.000135712
-0.000165384
0.000199983
-0.000220278
9.74947e-05
-0.000236078
-2.48934e-05
-0.000279067
-1.16054e-05
-0.000207669
7.58897e-05
-0.000183696
6.41545e-05
-0.000192344
6.60419e-05
-0.000227397
0.000139707
-0.000246407
0.000154077
-0.000228551
0.000154976
5.44918e-07
-6.59397e-05
0.000120785
-9.91851e-05
9.75399e-05
-0.000100228
4.44597e-05
-9.22163e-05
2.62319e-05
-7.92573e-05
2.51403e-05
-6.98545e-05
3.8838e-05
-7.84868e-05
6.33101e-05
-0.000106516
9.47463e-05
-0.000129223
0.00010851
-0.000137628
9.30232e-05
-0.000124051
0.000122135
-8.89481e-05
0.000164879
-0.000125334
0.000135299
-0.00019909
5.71805e-05
-0.00022433
1.36323e-06
-0.0002141
5.68579e-06
-0.000176453
6.09404e-05
-0.000178021
7.24023e-05
-0.00019854
0.000149936
-0.000228118
0.000176741
-0.000240622
0.000167476
-0.000263562
2.34786e-05
-3.0103e-05
-5.03986e-05
0.000167222
-5.87924e-05
0.000105558
-6.02627e-05
4.58959e-05
-5.88186e-05
2.47746e-05
-5.82762e-05
2.45914e-05
-6.0389e-05
4.0948e-05
-6.97825e-05
7.27031e-05
-8.09484e-05
0.000105912
-9.06165e-05
0.000118178
-0.000103262
0.000105669
-8.73744e-05
0.000106248
-4.50278e-05
0.000122532
-3.47668e-05
0.000125062
-9.56044e-05
0.000120673
-0.000170449
8.17424e-05
-0.000208749
3.52772e-05
-0.000197559
2.65628e-05
-0.000189656
6.63425e-05
-0.000172428
0.00013316
-0.000193828
0.000194255
-0.000222453
0.000196098
-0.000279075
8.01e-05
-8.88564e-06
-1.88771e-05
0.000186065
-2.6094e-05
0.000112774
-3.43322e-05
5.4134e-05
-3.46645e-05
2.5107e-05
-3.17593e-05
2.16862e-05
-3.17947e-05
4.09834e-05
-3.20753e-05
7.29837e-05
-3.90479e-05
0.000112885
-4.26563e-05
0.000121787
-4.8811e-05
0.000111823
-3.98371e-05
9.72737e-05
-1.57778e-05
9.8473e-05
-4.23013e-07
0.000109708
4.80508e-06
0.000115635
-3.08904e-05
0.000117991
-9.94939e-05
0.000102179
-0.000149886
7.34288e-05
-0.000162733
7.25379e-05
-0.000132654
0.000102317
-0.000111083
0.000171795
-0.000129711
0.000214717
-0.000191004
0.000141392
3.20425e-05
1.02908e-05
0.000175774
4.74845e-06
0.000118317
-5.54078e-06
6.44233e-05
-1.61303e-05
3.56965e-05
-2.3495e-05
2.90509e-05
-2.40823e-05
4.15707e-05
-1.30908e-05
6.19923e-05
-7.12746e-06
0.000106921
-8.05684e-06
0.000122716
-1.09e-05
0.000114666
-5.35134e-06
9.1725e-05
7.79956e-06
8.53221e-05
2.17057e-05
9.58019e-05
3.77358e-05
9.9606e-05
5.02985e-05
0.000105361
4.17444e-05
0.000110044
6.44747e-06
0.000107701
-3.40309e-05
0.000112136
-5.40368e-05
0.000122118
-3.71127e-05
0.000154741
-3.31847e-05
0.000210762
-9.09309e-05
0.000199138
0.00011139
1.91561e-05
0.000156618
1.85421e-05
0.000118931
1.18436e-05
7.11218e-05
3.66304e-06
4.38771e-05
-4.99401e-06
3.77079e-05
-1.00987e-05
4.66754e-05
-5.22231e-06
5.71159e-05
6.18752e-06
9.55113e-05
1.2018e-05
0.000116886
1.5756e-05
0.000110928
1.9321e-05
8.816e-05
2.55951e-05
7.9048e-05
3.49071e-05
8.649e-05
4.64195e-05
8.80936e-05
5.97214e-05
9.20576e-05
7.07971e-05
9.89577e-05
7.1133e-05
0.000107336
6.15828e-05
0.000121653
4.72502e-05
0.000136459
4.18479e-05
0.000160138
4.53528e-05
0.000207236
1.59673e-05
0.000228523
0.000180304
1.7858e-05
0.00013876
2.25696e-05
0.000114219
1.82453e-05
7.54461e-05
1.09181e-05
5.12043e-05
4.12587e-06
4.45002e-05
-7.65764e-07
5.1567e-05
-5.04064e-08
5.64005e-05
1.09496e-05
8.45113e-05
2.26789e-05
0.000105156
3.14467e-05
0.00010216
3.38395e-05
8.57673e-05
3.54299e-05
7.74575e-05
4.04979e-05
8.14219e-05
4.71941e-05
8.13974e-05
5.61989e-05
8.30528e-05
6.87362e-05
8.64204e-05
8.13022e-05
9.47704e-05
9.18212e-05
0.000111134
9.85161e-05
0.000129763
0.000109238
0.000149415
0.000130838
0.000185635
0.000140492
0.000218867
0.000192371
1.36606e-05
0.000125099
2.23627e-05
0.000105517
2.24372e-05
7.53716e-05
1.68469e-05
5.67946e-05
9.98211e-06
5.1365e-05
4.79574e-06
5.67533e-05
2.25118e-06
5.89451e-05
1.06881e-05
7.60744e-05
2.5076e-05
9.07684e-05
3.5031e-05
9.22055e-05
3.66634e-05
8.41348e-05
3.62098e-05
7.79112e-05
3.90264e-05
7.86052e-05
4.39109e-05
7.6513e-05
5.12284e-05
7.57352e-05
6.13194e-05
7.63294e-05
7.55349e-05
8.05548e-05
9.40035e-05
9.26652e-05
0.000112052
0.000111714
0.000137204
0.000124263
0.000178808
0.000144031
0.000203283
0.000194392
0.000184235
1.34811e-05
0.000111618
2.26474e-05
9.63506e-05
2.41174e-05
7.39016e-05
1.99569e-05
6.0955e-05
1.37933e-05
5.75286e-05
9.59367e-06
6.0953e-05
5.95654e-06
6.25822e-05
1.0713e-05
7.1318e-05
2.23133e-05
7.91681e-05
3.15688e-05
8.29499e-05
3.44002e-05
8.13035e-05
3.41674e-05
7.8144e-05
3.61547e-05
7.66179e-05
3.97722e-05
7.28955e-05
4.53168e-05
7.01906e-05
5.30757e-05
6.85705e-05
6.39235e-05
6.97071e-05
8.15452e-05
7.50435e-05
0.000104075
8.91845e-05
0.000133014
9.53239e-05
0.000172577
0.000104468
0.000206894
0.000160076
0.000170419
1.33829e-05
9.82353e-05
2.16032e-05
8.81303e-05
2.28446e-05
7.26603e-05
1.94408e-05
6.43588e-05
1.50953e-05
6.18741e-05
1.25403e-05
6.35079e-05
1.05772e-05
6.45454e-05
1.30149e-05
6.88803e-05
1.97672e-05
7.24158e-05
2.67794e-05
7.59377e-05
3.07016e-05
7.73813e-05
3.24497e-05
7.63959e-05
3.47858e-05
7.42818e-05
3.75376e-05
7.01437e-05
4.12157e-05
6.65125e-05
4.62439e-05
6.35423e-05
5.34929e-05
6.48173e-05
8.30356e-05
0.000105912
0.000136965
0.000177741
1.09844e-05
1.79644e-05
1.92576e-05
1.73034e-05
1.51641e-05
1.43969e-05
1.41851e-05
1.61117e-05
1.98916e-05
2.46185e-05
2.89472e-05
3.26044e-05
3.62525e-05
3.91707e-05
4.1928e-05
)
;

boundaryField
{
    leftWall
    {
        type            fixedValue;
        value           uniform 0;
    }
    rightWall
    {
        type            fixedValue;
        value           nonuniform 0();
    }
    lowerWall
    {
        type            fixedValue;
        value           uniform 0;
    }
    atmosphere
    {
        type            calculated;
        value           nonuniform 0();
    }
    defaultFaces
    {
        type            empty;
        value           nonuniform 0();
    }
    procBoundary0to1
    {
        type            processor;
        value           nonuniform List<scalar> 
26
(
-3.58632e-06
-1.80991e-06
-1.10799e-06
-1.81874e-06
-2.87443e-06
-3.23825e-06
-8.36836e-06
-1.65941e-05
1.92073e-05
4.98111e-05
2.08037e-05
-0.000122505
-0.000339578
-0.000396333
-0.000350106
-0.000200176
5.54725e-05
-0.00028894
-0.000300292
-0.000231932
-0.000170279
-5.29469e-05
0.000128425
0.000211418
0.00022071
0.000200581
)
;
    }
    procBoundary0to2
    {
        type            processor;
        value           nonuniform List<scalar> 
24
(
6.24581e-05
6.37192e-05
7.09662e-05
7.24474e-05
7.34143e-05
0.0001193
0.000147579
8.72509e-05
8.11504e-05
7.13671e-05
6.6313e-05
6.40133e-05
6.42751e-05
6.47572e-05
6.69537e-05
6.86359e-05
7.12108e-05
7.30527e-05
7.27387e-05
7.06338e-05
6.72254e-05
6.37552e-05
4.51591e-05
6.03113e-05
)
;
    }
}


// ************************************************************************* //
