/*--------------------------------*- C++ -*----------------------------------*\
| =========                 |                                                 |
| \\      /  F ield         | OpenFOAM: The Open Source CFD Toolbox           |
|  \\    /   O peration     | Version:  2.4.0                                 |
|   \\  /    A nd           | Web:      www.OpenFOAM.org                      |
|    \\/     M anipulation  |                                                 |
\*---------------------------------------------------------------------------*/
FoamFile
{
    version     2.0;
    format      ascii;
    class       surfaceScalarField;
    location    "0.85";
    object      phi.oil;
}
// * * * * * * * * * * * * * * * * * * * * * * * * * * * * * * * * * * * * * //

dimensions      [0 3 -1 0 0 0 0];

internalField   nonuniform List<scalar> 
1101
(
1.37253e-07
-1.3278e-07
-6.28057e-08
2.02069e-07
-1.99186e-06
1.92906e-06
-5.984e-06
3.9921e-06
-1.06493e-05
4.66528e-06
-1.61556e-05
5.50608e-06
-2.06243e-05
4.46843e-06
-2.26653e-05
2.04095e-06
-2.27715e-05
1.06217e-07
-2.19515e-05
-8.19863e-07
-2.09162e-05
-1.0352e-06
-1.9358e-05
-1.55803e-06
-1.70886e-05
-2.26919e-06
-1.45626e-05
-2.52571e-06
-1.25807e-05
-1.98134e-06
-1.136e-05
-1.21915e-06
-1.05527e-05
-8.04236e-07
-9.60524e-06
-9.42817e-07
-8.10919e-06
-1.48345e-06
-5.8524e-06
-2.16724e-06
-4.39056e-06
-9.16317e-07
5.68828e-07
-1.08108e-07
-1.67698e-07
-1.47053e-07
2.96634e-07
-1.1008e-06
3.1055e-06
-3.94986e-06
6.94346e-06
-8.28067e-06
9.00107e-06
-1.47061e-05
1.19315e-05
-2.01798e-05
9.94196e-06
-2.30232e-05
4.88433e-06
-2.3323e-05
4.06063e-07
-2.24563e-05
-1.68653e-06
-2.10174e-05
-2.47415e-06
-1.91151e-05
-3.46048e-06
-1.67379e-05
-4.64638e-06
-1.4363e-05
-4.90051e-06
-1.25289e-05
-3.81453e-06
-1.12224e-05
-2.52445e-06
-1.02438e-05
-1.78155e-06
-9.21754e-06
-1.96522e-06
-7.51823e-06
-3.17531e-06
-5.45466e-06
-4.23644e-06
-3.43339e-06
-3.12779e-06
-1.28843e-06
1.12757e-06
-1.83183e-05
7.05588e-07
-1.42172e-05
-1.72471e-06
-4.47945e-06
-6.70884e-06
6.09524e-06
-1.23118e-05
1.33478e-05
-1.73771e-05
1.71893e-05
-2.15555e-05
1.41375e-05
-2.35389e-05
6.86781e-06
-2.36658e-05
5.32984e-07
-2.25975e-05
-2.75472e-06
-2.07493e-05
-4.32214e-06
-1.85552e-05
-5.65375e-06
-1.63862e-05
-6.8068e-06
-1.43548e-05
-6.89624e-06
-1.27307e-05
-5.38697e-06
-1.13395e-05
-3.86732e-06
-9.98509e-06
-3.09996e-06
-8.73029e-06
-3.19069e-06
-7.17147e-06
-4.66701e-06
-5.57117e-06
-5.68047e-06
-3.24673e-06
-5.29058e-06
-3.53054e-06
-2.3219e-06
-1.97174e-06
-5.09933e-06
-4.5521e-07
-6.46755e-06
-5.71527e-06
-7.97603e-06
-5.63391e-06
-1.58172e-05
1.05106e-05
-2.26683e-05
2.04931e-05
-2.45719e-05
1.63525e-05
-2.52181e-05
7.53914e-06
-2.44052e-05
-2.79365e-07
-2.24907e-05
-4.66877e-06
-2.02726e-05
-6.52294e-06
-1.82406e-05
-7.61042e-06
-1.62635e-05
-8.53172e-06
-1.42729e-05
-8.47621e-06
-1.23382e-05
-6.88609e-06
-1.04721e-05
-5.31235e-06
-8.95174e-06
-4.28865e-06
-7.93414e-06
-3.97163e-06
-7.38749e-06
-4.98285e-06
-6.87197e-06
-5.88463e-06
-4.72977e-06
-6.96226e-06
-6.05878e-06
-1.15203e-06
2.69782e-06
-2.01196e-06
5.40814e-06
-2.89117e-06
8.40726e-06
-8.08051e-06
1.57545e-05
-1.88785e-05
1.96626e-05
-2.74308e-05
2.0942e-05
-2.94883e-05
1.71875e-05
-2.95521e-05
7.80306e-06
-2.84031e-05
-1.40421e-06
-2.60289e-05
-6.9822e-06
-2.29343e-05
-9.32393e-06
-1.99097e-05
-9.97557e-06
-1.74627e-05
-1.01132e-05
-1.53674e-05
-9.81901e-06
-1.28445e-05
-8.83983e-06
-1.02536e-05
-7.49385e-06
-8.37267e-06
-5.89844e-06
-7.61374e-06
-4.58606e-06
-7.52497e-06
-5.01165e-06
-7.2626e-06
-6.16298e-06
-5.79807e-06
-8.48655e-06
-9.14822e-06
-4.61688e-06
7.31424e-06
-1.00832e-05
1.08744e-05
-1.71809e-05
1.55051e-05
-2.49058e-05
2.29172e-05
-3.34462e-05
3.01197e-05
-3.73199e-05
2.21397e-05
-3.6806e-05
1.35301e-05
-3.43379e-05
5.2743e-06
-3.27647e-05
-2.70686e-06
-3.02596e-05
-8.75336e-06
-2.66024e-05
-1.20309e-05
-2.29849e-05
-1.33493e-05
-1.99957e-05
-1.44061e-05
-1.76571e-05
-1.4577e-05
-1.51403e-05
-1.22048e-05
-1.26041e-05
-7.68561e-06
-1.01364e-05
-3.57987e-06
-8.40677e-06
-4.06146e-07
-7.56043e-06
-7.20583e-07
-6.84615e-06
-4.18928e-06
-5.28995e-06
-8.01629e-06
4.1956e-06
-1.3943e-06
8.70846e-06
-3.57546e-06
1.30553e-05
-7.81309e-06
1.97318e-05
-1.78914e-05
3.0785e-05
-3.39415e-05
4.39569e-05
-4.34167e-05
2.99546e-05
-4.56839e-05
1.04704e-05
-4.34378e-05
9.81311e-07
-3.87304e-05
-8.07978e-06
-3.39481e-05
-1.54179e-05
-2.90051e-05
-2.1624e-05
-2.30639e-05
-2.76408e-05
-1.79519e-05
-3.25587e-05
-1.57494e-05
-2.76948e-05
-1.53586e-05
-1.27584e-05
-1.5111e-05
-2.98545e-06
-1.35019e-05
5.11557e-06
-1.04402e-05
1.2408e-05
-7.75231e-06
1.49379e-05
-6.00419e-06
7.16276e-06
-5.34933e-06
4.90284e-06
3.58692e-05
-3.16682e-06
1.18721e-05
-6.15314e-06
1.60149e-05
-9.48935e-06
2.30288e-05
-1.32577e-05
3.40138e-05
-2.43594e-05
5.35642e-05
-3.56946e-05
4.24267e-05
-4.1959e-05
1.33663e-05
-4.26071e-05
-4.09014e-06
-4.01071e-05
-1.72593e-05
-3.60543e-05
-2.77496e-05
-2.92319e-05
-3.83053e-05
-1.9495e-05
-5.06999e-05
-1.13376e-05
-4.49723e-05
-9.188e-06
-2.38767e-05
-1.1819e-05
-2.99941e-05
-1.54078e-05
-2.31587e-05
-1.70335e-05
-1.58266e-05
-1.41436e-05
-8.12833e-06
-1.01239e-05
-5.37515e-06
-8.20385e-06
-8.48786e-06
-9.20705e-06
-5.8826e-06
1.24016e-05
6.23867e-06
6.50021e-06
9.58362e-06
1.6564e-05
9.62504e-06
2.2146e-05
7.99618e-06
3.02046e-05
4.23196e-06
4.72574e-05
7.85614e-07
5.70807e-05
-1.2826e-05
3.24945e-05
-2.41161e-05
9.91022e-06
-3.40305e-05
-7.9313e-06
-3.8032e-05
-2.93133e-05
-3.50172e-05
-4.60381e-05
-2.49917e-05
-2.38214e-05
-2.85304e-05
-2.27064e-05
-2.69251e-05
-1.20399e-05
-2.39657e-05
-4.77549e-06
-2.35626e-05
2.92563e-06
-2.52572e-05
5.27964e-06
-2.85624e-05
1.47204e-06
-2.95827e-05
-7.00097e-07
-2.85162e-05
-1.09404e-06
-2.31203e-05
-3.96966e-06
-8.77339e-06
4.34962e-06
2.28036e-06
7.06387e-06
1.26051e-05
7.54688e-06
2.8068e-05
9.83597e-06
3.18897e-05
2.05008e-05
3.41791e-05
3.2704e-05
3.85864e-05
3.58805e-05
2.97744e-05
3.28579e-05
2.19187e-05
3.33586e-05
1.46048e-05
2.78204e-05
1.91627e-07
1.92014e-05
-8.85705e-06
1.96145e-05
-1.57799e-05
2.53159e-05
-1.83826e-05
2.96709e-05
-1.40132e-05
2.97536e-05
-1.99287e-06
2.35181e-05
8.68277e-06
1.27216e-05
1.22309e-05
1.07472e-06
1.10044e-05
-9.74362e-06
9.65838e-06
-1.12952e-05
2.9433e-06
-1.65158e-06
-1.62355e-05
-2.18652e-05
1.91164e-05
-3.8755e-06
2.80138e-05
1.90473e-05
2.71785e-05
3.91021e-05
2.58894e-05
4.85869e-05
2.73021e-05
5.44951e-05
3.36809e-05
5.2133e-05
3.91751e-05
4.41752e-05
4.40001e-05
2.80484e-05
4.38884e-05
1.36232e-05
3.55602e-05
3.00026e-06
3.06612e-05
-3.84434e-06
2.54011e-05
-1.31572e-05
2.82063e-05
-2.35418e-05
3.29027e-05
-2.2102e-05
3.43666e-05
-1.19366e-05
2.42406e-05
3.38899e-06
1.1134e-05
1.64839e-05
2.96422e-06
2.12142e-05
-1.23098e-05
2.41814e-05
-4.3942e-05
3.04818e-05
-7.788e-05
1.67565e-05
-3.02697e-05
2.07829e-05
-2.64302e-05
2.29014e-05
7.57559e-06
1.68491e-05
4.11049e-05
1.58331e-05
4.84093e-05
1.85301e-05
5.21145e-05
2.1997e-05
4.94496e-05
2.68956e-05
4.01525e-05
3.10418e-05
2.81169e-05
3.18982e-05
1.61788e-05
3.11516e-05
-1.29624e-07
2.18248e-05
-5.10305e-06
1.26832e-05
-9.42945e-06
8.53641e-06
-2.06062e-05
-2.45556e-06
-1.37574e-05
-1.24858e-05
-5.10825e-06
-2.15186e-05
1.51573e-05
-4.25026e-05
3.47847e-05
-8.12144e-05
5.00871e-05
-0.000120941
5.77409e-05
-0.000155712
6.14381e-05
-0.000177535
2.08181e-05
-6.7574e-05
2.17775e-06
-3.1648e-05
-5.50122e-06
8.77493e-06
-1.18894e-05
4.0009e-05
-1.25499e-05
4.40644e-05
-8.18248e-06
4.43101e-05
-4.56226e-06
4.19953e-05
7.33015e-08
3.11054e-05
9.88692e-06
1.57944e-05
2.44842e-05
-1.42948e-05
3.19099e-05
-5.59807e-05
-2.12639e-06
-6.02009e-05
-0.000114839
-1.50315e-05
-0.000180633
3.63289e-06
-0.000194234
-4.01109e-06
-0.000188575
-5.74366e-06
-0.000192114
2.47292e-05
-0.000211291
5.249e-05
-0.000238398
6.71274e-05
-0.000263507
7.23522e-05
-0.000292456
4.8684e-05
-0.000330165
-6.19334e-05
-0.000124393
-2.1668e-05
-1.19989e-05
-3.48469e-05
1.84176e-05
-3.44387e-05
3.26609e-05
-3.30265e-05
2.94689e-05
-2.6864e-05
2.04221e-05
-1.70332e-05
9.0427e-06
-1.46165e-05
-1.03296e-05
-2.71423e-05
-3.50747e-05
-4.14339e-05
-7.31344e-05
-4.28198e-05
-0.000101327
-7.79206e-05
-8.89078e-05
-0.000189605
-2.59637e-05
-0.000245617
-2.25539e-05
-0.000242995
-2.29566e-05
-0.000241298
-7.84174e-06
-0.000244704
2.87267e-05
-0.000246012
5.33799e-05
-0.000245428
6.23578e-05
-0.000260038
5.84646e-05
-0.000302293
9.77287e-06
-0.000325491
-0.000133831
-0.000168672
-3.00884e-05
-7.02757e-06
-5.53616e-05
-6.04606e-06
-6.20052e-05
-1.1237e-05
-5.86932e-05
-2.51579e-05
-5.13105e-05
-4.10891e-05
-4.52093e-05
-5.252e-05
-4.06552e-05
-7.05874e-05
-4.96847e-05
-7.42947e-05
-7.87197e-05
-8.91819e-05
-0.00011877
-5.17304e-05
-0.000204821
-3.16561e-05
-0.000273407
-3.50982e-05
-0.000252209
-4.03991e-05
-0.000226758
-2.99158e-05
-0.000236188
-5.18904e-06
-0.000240553
3.11458e-05
-0.000237216
4.85304e-05
-0.000241372
5.29117e-05
-0.000292177
5.22549e-05
-0.000352759
2.64345e-05
-0.000323711
-0.000169699
-0.000210293
-5.5053e-05
-3.14714e-05
-7.45376e-05
-3.52036e-05
-7.33223e-05
-5.08282e-05
-6.69212e-05
-6.18658e-05
-6.11902e-05
-6.8744e-05
-5.82194e-05
-6.89557e-05
-5.58774e-05
-7.01059e-05
-5.49948e-05
-5.00703e-05
-6.81861e-05
-3.3781e-05
-0.000173658
6.02959e-05
-0.000172771
0.00011877
-0.000290625
2.39008e-05
-0.00026893
-2.04997e-05
-0.000229211
-1.80447e-05
-0.000216344
-6.58513e-06
-0.000219411
1.78251e-05
-0.000218529
4.2057e-05
-0.000240066
5.43954e-05
-0.000348189
8.697e-05
-0.000342718
0.00019451
-0.000278632
-5.79185e-05
-0.000114649
-7.21841e-05
-4.87903e-05
-8.17082e-05
-3.07526e-05
-7.76321e-05
-3.23707e-05
-6.76203e-05
-4.67713e-05
-5.92488e-05
-5.01744e-05
-4.84089e-05
-3.94764e-05
-5.63967e-05
-1.22132e-05
-6.54328e-05
3.46245e-05
-0.000126052
0.000104682
-0.000136897
9.30012e-05
-0.000130192
0.000122195
-0.000162827
0.000154016
-0.000284984
1.91823e-05
-0.000250216
-9.72548e-08
-0.000212713
-2.47096e-07
-0.00019627
5.67483e-06
-0.000195023
2.29665e-05
-0.000222047
4.566e-05
-0.000450388
0.000110599
-0.000379129
0.000358633
-0.000241173
0.000134917
-0.00026751
1.06811e-05
-3.70424e-05
-5.30792e-05
1.56276e-05
-4.73827e-05
2.6483e-05
-5.75341e-05
3.89895e-05
-5.85377e-05
2.40498e-05
-5.81421e-05
2.42055e-05
-6.04036e-05
4.07967e-05
-6.97914e-05
7.26668e-05
-8.09649e-05
0.000105871
-9.06357e-05
0.000118123
-0.000103257
0.000105603
-8.6213e-05
0.000106124
-6.92001e-05
0.000122208
-0.000161565
0.000114681
-0.000269248
1.84859e-05
-0.00022341
1.19741e-05
-0.000195819
8.84032e-06
-0.000184751
1.31976e-05
-0.000204105
3.16026e-05
-0.000406961
9.03158e-05
-0.000342283
0.000302389
-0.00022048
0.000190949
-0.000270159
7.8836e-05
-1.17676e-05
-1.97021e-05
0.000164571
-2.57133e-05
0.000111901
-3.3814e-05
5.32849e-05
-3.45862e-05
2.47411e-05
-3.17428e-05
2.14396e-05
-3.18037e-05
4.09217e-05
-3.20984e-05
7.2909e-05
-3.90768e-05
0.000112809
-4.26906e-05
0.000121732
-4.88711e-05
0.000111769
-3.92494e-05
9.71633e-05
-1.57356e-05
9.83666e-05
-8.55917e-05
0.000108998
-0.000191363
4.60518e-05
-0.000229378
3.14156e-05
-0.000208342
2.11453e-05
-0.000192558
1.91342e-05
-0.000192376
3.22203e-05
-0.00027464
7.76146e-05
-0.000191687
0.000197812
-0.000133837
0.000213696
-0.000184876
0.000141851
3.04979e-05
9.76553e-06
0.000174687
5.40105e-06
0.000117616
-5.14108e-06
6.3826e-05
-1.57986e-05
3.54697e-05
-2.34905e-05
2.89942e-05
-2.40859e-05
4.1558e-05
-1.31047e-05
6.19265e-05
-7.15861e-06
0.000106799
-8.1025e-06
0.000122632
-1.09709e-05
0.000114607
-5.23664e-06
9.16244e-05
7.64274e-06
8.51031e-05
1.84699e-05
9.50027e-05
-5.39377e-05
9.67144e-05
-0.000141924
4.13312e-05
-0.000174094
3.25383e-05
-0.000181238
3.4171e-05
-0.000190405
5.17348e-05
-0.000218934
0.000100697
-0.000139613
0.00015005
-5.68302e-05
0.000162784
-8.52578e-05
0.000195008
0.000108872
1.88441e-05
0.000156239
1.8819e-05
0.000117676
1.19201e-05
7.07461e-05
3.90699e-06
4.36744e-05
-4.97794e-06
3.76555e-05
-1.01497e-05
4.66692e-05
-5.17469e-06
5.70854e-05
6.13461e-06
9.53592e-05
1.19478e-05
0.00011674
1.56999e-05
0.000110815
1.92873e-05
8.79705e-05
2.53793e-05
7.87961e-05
3.46714e-05
8.6076e-05
4.50767e-05
8.60193e-05
4.78925e-05
9.14756e-05
3.1396e-05
8.63625e-05
4.0864e-06
6.70022e-05
-8.28188e-05
7.49468e-05
-0.00015933
9.42035e-05
-0.000151202
0.000128813
-5.88749e-05
0.00018544
4.33319e-06
0.000183138
0.000179388
1.72875e-05
0.000138075
2.25861e-05
0.000113597
1.8266e-05
7.52186e-05
1.10446e-05
5.10637e-05
4.12572e-06
4.44552e-05
-8.12804e-07
5.15707e-05
-1.78553e-09
5.63759e-05
1.08947e-05
8.44325e-05
2.25951e-05
0.000105064
3.14149e-05
0.000101811
3.37152e-05
8.55202e-05
3.52615e-05
7.7229e-05
4.03522e-05
8.13202e-05
4.69203e-05
8.12992e-05
5.60061e-05
8.30278e-05
6.8712e-05
8.64035e-05
7.53094e-05
9.46002e-05
7.90729e-05
0.000109442
1.55702e-05
0.000129237
-3.07143e-05
0.000129134
8.05943e-06
0.00015584
6.01023e-05
0.000212536
0.000185081
1.31434e-05
0.000124675
2.23365e-05
0.000105393
2.24178e-05
7.52504e-05
1.69212e-05
5.67039e-05
9.97629e-06
5.13492e-05
4.76295e-06
5.67619e-05
2.2453e-06
5.89355e-05
1.06588e-05
7.60465e-05
2.51599e-05
9.07605e-05
3.49396e-05
9.20767e-05
3.65314e-05
8.39071e-05
3.60387e-05
7.7688e-05
3.89085e-05
7.85455e-05
4.37904e-05
7.64714e-05
5.10993e-05
7.57014e-05
6.12864e-05
7.63271e-05
7.36707e-05
8.05539e-05
9.07904e-05
9.20832e-05
0.000101177
0.000110341
8.21218e-05
0.000122626
0.000102163
0.000140899
0.000149643
0.000181571
0.000195992
1.33264e-05
0.000111535
2.26117e-05
9.63008e-05
2.40987e-05
7.38413e-05
1.99791e-05
6.09265e-05
1.37811e-05
5.75357e-05
9.57201e-06
6.09634e-05
5.93166e-06
6.25872e-05
1.07218e-05
7.13238e-05
2.23726e-05
7.91797e-05
3.15375e-05
8.29159e-05
3.42921e-05
8.11101e-05
3.40616e-05
7.80176e-05
3.60619e-05
7.6579e-05
3.96704e-05
7.27488e-05
4.52e-05
6.98512e-05
5.30189e-05
6.82884e-05
6.33964e-05
6.96567e-05
7.98148e-05
7.47339e-05
9.93412e-05
8.87256e-05
0.000123768
9.44254e-05
0.00015901
0.000105884
0.000191114
0.000170172
0.00018091
1.33016e-05
9.82236e-05
2.15685e-05
8.81159e-05
2.28427e-05
7.26396e-05
1.94354e-05
6.43635e-05
1.50828e-05
6.18844e-05
1.25242e-05
6.3519e-05
1.05585e-05
6.45565e-05
1.29997e-05
6.88934e-05
1.9757e-05
7.24303e-05
2.6771e-05
7.59549e-05
3.06301e-05
7.73598e-05
3.23889e-05
7.64011e-05
3.47038e-05
7.42617e-05
3.74072e-05
7.00255e-05
4.10272e-05
6.61751e-05
4.60422e-05
6.31933e-05
5.34017e-05
6.39437e-05
8.01091e-05
0.0001011
0.000135306
0.000175265
1.09499e-05
1.79373e-05
1.9253e-05
1.72944e-05
1.51524e-05
1.43827e-05
1.41682e-05
1.60921e-05
1.98686e-05
2.45939e-05
2.89144e-05
3.25741e-05
3.6194e-05
3.8982e-05
4.17359e-05
)
;

boundaryField
{
    leftWall
    {
        type            fixedValue;
        value           uniform 0;
    }
    rightWall
    {
        type            fixedValue;
        value           nonuniform 0();
    }
    lowerWall
    {
        type            fixedValue;
        value           uniform 0;
    }
    atmosphere
    {
        type            calculated;
        value           nonuniform 0();
    }
    defaultFaces
    {
        type            empty;
        value           nonuniform 0();
    }
    procBoundary0to1
    {
        type            processor;
        value           nonuniform List<scalar> 
26
(
-3.56966e-06
-1.78144e-06
-1.06871e-06
-1.76236e-06
-2.82358e-06
-2.97437e-06
-7.0153e-06
-1.68906e-05
-5.56077e-06
5.96981e-06
-8.06509e-05
-0.000204391
-0.00033757
-0.00032366
-0.000298633
-0.00025434
0.000100641
-0.000241466
-0.000300487
-0.000231432
-0.000172261
-5.96949e-05
0.000115415
0.000180208
0.000213916
0.000199057
)
;
    }
    procBoundary0to2
    {
        type            processor;
        value           nonuniform List<scalar> 
24
(
6.23187e-05
6.36951e-05
7.03455e-05
7.06936e-05
7.38075e-05
0.000126145
0.000151128
8.72597e-05
8.11548e-05
7.13742e-05
6.63234e-05
6.40245e-05
6.42868e-05
6.47702e-05
6.69681e-05
6.8652e-05
7.12296e-05
7.30762e-05
7.27633e-05
7.06448e-05
6.71213e-05
6.34774e-05
4.48675e-05
5.99851e-05
)
;
    }
}


// ************************************************************************* //
