/*--------------------------------*- C++ -*----------------------------------*\
| =========                 |                                                 |
| \\      /  F ield         | OpenFOAM: The Open Source CFD Toolbox           |
|  \\    /   O peration     | Version:  2.4.0                                 |
|   \\  /    A nd           | Web:      www.OpenFOAM.org                      |
|    \\/     M anipulation  |                                                 |
\*---------------------------------------------------------------------------*/
FoamFile
{
    version     2.0;
    format      ascii;
    class       volScalarField;
    location    "0.85";
    object      rho;
}
// * * * * * * * * * * * * * * * * * * * * * * * * * * * * * * * * * * * * * //

dimensions      [1 -3 0 0 0 0 0];

internalField   nonuniform List<scalar> 
575
(
13529
13529
13529
13529
13529
13529
13529
13529
13529
13529
13529
13529
13529
13529
13529
13529
13529
13529
13529
13529
13529
13528.9
13523.2
13525.2
13528.4
13528.8
13528.9
13529
13529
13529
13529
13529
13529
13529
13529
13529
13529
13529
13529
13529
13529
13529
13529
13528.9
10790
11317.1
12259.5
13333.5
13520.9
13528.6
13529
13529
13529
13529
13529
13529
13529
13529
13529
13529
13529
13529
13529
13529
13529
13529
1058.34
1097.45
1570.87
4027.14
8767.41
12900
13504.3
13527.2
13528.7
13528.9
13529
13529
13529
13529
13529
13529
13529
13529
13529
13529
13529
13528.9
1000.06
1000.08
1000.89
1045.78
2175.09
8634.81
13076.3
13502.2
13526.2
13528.3
13528.8
13528.9
13528.6
13527.8
13527.7
13528.3
13528.8
13529
13529
13529
13528.9
13528.1
1000.07
1000.07
1000.07
1001.92
1300.94
4980.26
11508.3
13330.6
13506.6
13524.8
13523
13494.7
13406.6
13297.8
13275.3
13349.6
13446.3
13501.1
13514.4
13515.7
13498.9
13369.4
1000.09
1000.08
1000.08
1000.69
1130.49
3291.76
9432.48
12994
13404.4
13323.6
12832.4
11750.7
10133.2
8813.53
8568.86
9141.12
10227.7
11265.2
11836.9
12045.4
11692.7
9642.86
1000.04
1000.04
1000.05
1000.14
1029.05
1799.24
5385.13
9724.88
10634.2
9353.14
7033.47
4452.91
2499.84
1653.23
1526.41
1601.95
1862.59
2286.3
2717.87
3103.26
3073.34
1852.12
1000.02
1000.02
1000.03
1000.04
1003.45
1127.24
1649.58
2076.61
2083.55
2046.59
1773.12
1346.68
1106.97
1066.45
1033.1
1015.61
1009.41
1006.3
1006.87
1015.09
1021.07
1004.47
1000
999.976
999.907
999.969
1000.28
1003.6
1020.41
1031.29
1027.67
1016.65
1014.22
1005.12
1000.35
994.842
989.343
987.177
983.827
978.748
976.065
976.893
975.583
946.084
996.417
995.872
994.696
996.484
999.051
999.703
1002.3
1004.48
1006.59
1004.65
1000.92
995.085
973.332
920.962
885.651
891.223
900.902
901.182
903.932
909.014
865.079
658.708
914.213
879.462
901.127
948.1
987.42
992.784
995.099
996.606
996.445
988.951
956.738
904.437
803.319
705.532
634.942
574.955
621.084
734.527
768.3
709.412
576.589
410.861
723.873
599.036
681.931
837.208
926.389
942.3
943.708
932.81
873.345
762.169
668.467
610.325
516.82
462.843
495.01
527.238
563.801
610.397
613.837
552.59
437.6
288.96
607.565
576.675
584.523
649.335
708.728
722.845
699.107
639.656
442.345
171.721
34.6446
134.868
357.987
493.553
528.695
537.241
540.957
542.976
514
303.922
100.72
97.4117
545.507
483.169
474.355
464.463
449.58
409.492
290.426
125.196
9.46384
1.14753
1.20594
6.97604
85.9423
348.488
504.946
525.674
527.853
493.861
271.331
31.8203
3.4989
12.2928
303.473
130.174
59.0299
39.1641
25.586
15.2807
5.91311
2.48162
1.06384
1.00032
1.0002
1.04457
6.81786
114.579
393.817
489
493.781
369.397
64.6625
1.52998
1.00979
1.05161
24.3572
3.92732
1.45431
1.18738
1.08988
1.03854
1.00715
1.0018
1.0001
1.00001
1.00005
1.00019
1.09221
14.1849
160.537
406.104
464.766
298.168
28.921
1.01525
1.00055
1.00035
1.0003
1.22346
1.00609
1.00031
1.00007
1.00002
1.00001
1.00001
1.00001
1.00001
1.00001
1.00002
1.00007
1.00027
1.2742
20.4611
128.967
222.678
168.356
17.5848
1.02699
1.00054
1.00027
1.00013
1.00043
1.0001
1.00009
1.00004
1.00002
1.00001
1.00001
1.00001
1.00001
1.00001
1.00001
1.00004
1.00012
1.00717
2.10782
10.5099
21.4266
23.7513
7.23839
1.11098
1.00076
1.00036
1.00014
1.00014
1.00012
1.00007
1.00004
1.00001
1
1.00001
1.00001
1.00001
1.00001
1.00001
1.00003
1.0001
1.00027
1.01513
1.14223
1.38817
1.63876
1.75608
1.27124
1.00164
1.00053
1.00022
1.00015
1.00013
1.00006
1.00004
1.00001
1
1.00001
1.00001
1.00001
1.00001
1.00001
1.00003
1.00005
1.00012
1.00006
1.00028
1.0011
1.00398
1.03785
1.10659
1.01273
1.00086
1.00039
1.00012
1.00008
1.00005
1.00003
1.00001
1
1
1.00002
1.00002
1.00001
1.00002
1.00003
1.00002
1.00002
1.00001
1.00001
1.00003
1.00023
1.00055
1.00664
1.01479
1.00528
1.00068
1.00009
1.00005
1.00005
1.00003
1.00001
1
1
1.00001
1.00002
1.00003
1.00003
1.00003
1.00001
1.00001
1.00001
1.00001
1.00003
1.00016
1.00037
1.00079
1.00418
1.00506
1.00196
1.00007
1.00006
1.00004
1.00002
1
0.999999
1
1
1.00001
1.00002
1.00003
1.00002
1.00001
1.00001
1.00001
1.00001
1.00002
1.0001
1.00026
1.00056
1.00095
1.00163
1.00107
1.00006
1.00004
1.00003
1
0.999999
0.999999
1
1
1
1.00001
1.00001
1.00001
1.00001
1.00002
1.00003
1.00003
1.00002
1.00004
1.00015
1.00037
1.00068
1.00098
1.00095
1.00004
1.00002
1.00001
0.999999
0.999999
1
1
1
1
1
1
1
1.00001
1.00002
1.00005
1.00005
)
;

boundaryField
{
    leftWall
    {
        type            calculated;
        value           nonuniform List<scalar> 
26
(
13529
13523.2
10790
1058.34
1000.06
1000.07
1000.09
1000.04
1000.02
1000
996.417
914.213
723.873
607.565
545.507
303.473
24.3572
1.22346
1.00043
1.00014
1.00015
1.00012
1.00009
1.00007
1.00006
1.00004
)
;
    }
    rightWall
    {
        type            calculated;
        value           nonuniform 0();
    }
    lowerWall
    {
        type            calculated;
        value           nonuniform List<scalar> 
22
(
13529
13529
13529
13529
13529
13529
13529
13529
13529
13529
13529
13529
13529
13529
13529
13529
13529
13529
13529
13529
13529
13528.9
)
;
    }
    atmosphere
    {
        type            calculated;
        value           nonuniform 0();
    }
    defaultFaces
    {
        type            empty;
    }
    procBoundary0to1
    {
        type            processor;
        value           nonuniform List<scalar> 
26
(
13528.9
13528.9
13528.8
13528.8
13521.3
12700.1
5436.33
1559.34
1038.11
848.858
478.782
296.261
266.815
312.126
140.988
1.19786
1.19786
1.00152
1.00013
1.00012
1.00023
1.00052
1.00065
1.00073
1.00092
1.00097
)
;
    }
    procBoundary0to2
    {
        type            processor;
        value           nonuniform List<scalar> 
24
(
1.00003
1.00003
1.00005
1.00016
1.00049
1.0008
1.00091
1.00002
1.00001
1
0.999999
0.999999
1
1
1
1
1
1
1
1
1.00002
1.00005
1.00003
1.00006
)
;
    }
}


// ************************************************************************* //
