/*--------------------------------*- C++ -*----------------------------------*\
| =========                 |                                                 |
| \\      /  F ield         | OpenFOAM: The Open Source CFD Toolbox           |
|  \\    /   O peration     | Version:  2.4.0                                 |
|   \\  /    A nd           | Web:      www.OpenFOAM.org                      |
|    \\/     M anipulation  |                                                 |
\*---------------------------------------------------------------------------*/
FoamFile
{
    version     2.0;
    format      ascii;
    class       volVectorField;
    location    "0.85";
    object      U;
}
// * * * * * * * * * * * * * * * * * * * * * * * * * * * * * * * * * * * * * //

dimensions      [0 1 -1 0 0 0 0];

internalField   nonuniform List<vector> 
575
(
(0.0018994 -0.073362 0)
(0.00113274 -0.0792716 0)
(-0.00318645 -0.0841982 0)
(-0.0422565 -0.0745903 0)
(-0.090601 -0.0522493 0)
(-0.147569 -0.0144492 0)
(-0.211716 0.0130047 0)
(-0.254437 0.0202243 0)
(-0.263638 0.0174508 0)
(-0.257705 0.0133559 0)
(-0.246019 0.00711061 0)
(-0.234125 -0.00314128 0)
(-0.211525 -0.00792938 0)
(-0.182171 -0.00976419 0)
(-0.153876 -0.00972369 0)
(-0.135864 -0.00628188 0)
(-0.125095 -0.00428018 0)
(-0.116794 -0.00428011 0)
(-0.103325 -0.00391057 0)
(-0.0795999 -0.00744292 0)
(-0.055031 -0.00131614 0)
(-0.0477326 0.000852677 0)
(0.00162182 0.0739308 0)
(-0.0035101 0.0838858 0)
(-0.00102732 0.111461 0)
(-0.024325 0.123834 0)
(-0.0629564 0.100972 0)
(-0.125042 0.0668297 0)
(-0.198514 0.0331229 0)
(-0.256834 0.00423556 0)
(-0.270789 -0.0154616 0)
(-0.264857 -0.0215542 0)
(-0.251528 -0.0176869 0)
(-0.232586 -0.0132376 0)
(-0.207384 -0.0163082 0)
(-0.178713 -0.01779 0)
(-0.152795 -0.0123324 0)
(-0.135343 -0.0073826 0)
(-0.122122 -0.00473805 0)
(-0.112786 -0.00613821 0)
(-0.0980826 -0.012291 0)
(-0.0722047 -0.0173728 0)
(-0.0518324 -0.0146242 0)
(-0.0291525 -0.0101529 0)
(0.0117561 -0.094999 0)
(0.012348 -0.0984372 0)
(-0.00120268 -0.0870453 0)
(-0.0356032 -0.0632827 0)
(-0.10817 0.00472446 0)
(-0.16845 0.0753162 0)
(-0.220672 0.0769071 0)
(-0.26432 0.0445644 0)
(-0.275982 0.0180192 0)
(-0.26901 0.00250147 0)
(-0.250881 -0.00996564 0)
(-0.226045 -0.0247503 0)
(-0.200904 -0.0341768 0)
(-0.177518 -0.0344993 0)
(-0.153956 -0.0281141 0)
(-0.138477 -0.0190843 0)
(-0.121488 -0.0138436 0)
(-0.107539 -0.015228 0)
(-0.0920493 -0.0229776 0)
(-0.0706505 -0.0295074 0)
(-0.0555838 -0.0222073 0)
(-0.0206387 -0.0161512 0)
(-0.0107707 0.254411 0)
(-0.0515852 0.283458 0)
(-0.107881 0.286545 0)
(-0.101186 0.217245 0)
(-0.151358 0.123701 0)
(-0.220346 0.0954936 0)
(-0.270776 0.074309 0)
(-0.289865 0.0326018 0)
(-0.292084 -0.0105109 0)
(-0.273467 -0.0313107 0)
(-0.246333 -0.0356145 0)
(-0.221277 -0.0358635 0)
(-0.199526 -0.0398943 0)
(-0.176792 -0.0408408 0)
(-0.152559 -0.0303793 0)
(-0.130805 -0.0232247 0)
(-0.10951 -0.0199415 0)
(-0.0948262 -0.0174141 0)
(-0.0857268 -0.0252079 0)
(-0.0819065 -0.0310404 0)
(-0.0756528 -0.0382866 0)
(-0.0332096 -0.0331674 0)
(-0.00879913 -0.200416 0)
(-0.0170138 -0.194923 0)
(-0.0268603 -0.163761 0)
(-0.0433758 -0.0295666 0)
(-0.174598 0.19576 0)
(-0.326387 0.163005 0)
(-0.32875 0.0938512 0)
(-0.341184 0.0469894 0)
(-0.338794 0.00776569 0)
(-0.318047 -0.0188966 0)
(-0.282986 -0.0345813 0)
(-0.245931 -0.0452921 0)
(-0.214359 -0.0521193 0)
(-0.191248 -0.0523402 0)
(-0.163068 -0.0467578 0)
(-0.131378 -0.0386633 0)
(-0.102819 -0.0332588 0)
(-0.0887155 -0.0328025 0)
(-0.0848056 -0.0375781 0)
(-0.0852675 -0.0438865 0)
(-0.0799475 -0.0516419 0)
(-0.0533827 -0.0506935 0)
(-0.0243095 0.200073 0)
(-0.0767189 0.21525 0)
(-0.159096 0.213023 0)
(-0.235722 0.184556 0)
(-0.264047 0.210914 0)
(-0.47687 0.219367 0)
(-0.448253 0.0980277 0)
(-0.415397 0.0323689 0)
(-0.389183 -0.0235661 0)
(-0.369282 -0.0530842 0)
(-0.329541 -0.0626122 0)
(-0.285043 -0.0651771 0)
(-0.247349 -0.0669766 0)
(-0.218105 -0.0675688 0)
(-0.188638 -0.0608885 0)
(-0.158281 -0.0493848 0)
(-0.128417 -0.0317545 0)
(-0.101322 -0.0143843 0)
(-0.0893122 -0.0125734 0)
(-0.0820339 -0.0193871 0)
(-0.0707524 -0.0398534 0)
(-0.050294 -0.0596902 0)
(-0.0073279 -0.0815424 0)
(-0.0233063 -0.0534413 0)
(-0.0563274 0.000869279 0)
(-0.125474 0.0989932 0)
(-0.206242 0.233361 0)
(-0.466597 0.23523 0)
(-0.557067 0.0908337 0)
(-0.533897 0.03051 0)
(-0.481956 -0.00644984 0)
(-0.42027 -0.0525481 0)
(-0.365973 -0.0945393 0)
(-0.301399 -0.108705 0)
(-0.232394 -0.109328 0)
(-0.185164 -0.102265 0)
(-0.176077 -0.0987591 0)
(-0.175673 -0.0948185 0)
(-0.169951 -0.090626 0)
(-0.137186 -0.0801708 0)
(-0.0979882 -0.0742136 0)
(-0.0756521 -0.0791553 0)
(-0.0586138 -0.099229 0)
(-0.0902365 -0.10175 0)
(-0.0169181 0.14138 0)
(-0.0518293 0.156439 0)
(-0.0876915 0.172796 0)
(-0.121039 0.203383 0)
(-0.142907 0.318811 0)
(-0.274883 0.339681 0)
(-0.495219 0.127073 0)
(-0.514398 -0.0212372 0)
(-0.488196 -0.104817 0)
(-0.447791 -0.135362 0)
(-0.389204 -0.127502 0)
(-0.296464 -0.111118 0)
(-0.175334 -0.0571343 0)
(-0.12167 0.0109642 0)
(-0.119792 0.0426766 0)
(-0.16342 0.0509718 0)
(-0.196617 0.0381797 0)
(-0.184064 0.0143034 0)
(-0.129109 0.00203388 0)
(-0.093045 -0.00720074 0)
(-0.0814397 -0.00323796 0)
(-0.155383 0.0553603 0)
(0.0195143 -0.0506856 0)
(0.0453408 -0.0111951 0)
(0.0568819 0.0688643 0)
(0.0526422 0.168814 0)
(0.049835 0.296914 0)
(0.11096 0.405355 0)
(0.0733119 0.347258 0)
(-0.0377358 0.235432 0)
(-0.157743 0.169715 0)
(-0.244087 0.064224 0)
(-0.230766 -0.0508541 0)
(-0.210949 -0.118549 0)
(-0.205891 -0.165821 0)
(-0.17938 -0.184966 0)
(-0.138969 -0.178333 0)
(-0.12333 -0.163233 0)
(-0.125221 -0.150744 0)
(-0.134091 -0.140531 0)
(-0.149212 -0.118127 0)
(-0.159959 -0.0741931 0)
(-0.157088 -0.057311 0)
(-0.075553 -0.127266 0)
(0.014669 0.09466 0)
(0.0347586 0.125005 0)
(0.0438116 0.15429 0)
(0.0444742 0.19284 0)
(0.0704558 0.25388 0)
(0.13511 0.29277 0)
(0.209328 0.236183 0)
(0.211369 0.118797 0)
(0.190447 -0.0151334 0)
(0.187704 -0.143777 0)
(0.165655 -0.209038 0)
(0.126108 -0.218417 0)
(0.116229 -0.194628 0)
(0.136686 -0.13905 0)
(0.155608 -0.0645299 0)
(0.143079 0.0116706 0)
(0.107412 0.0253558 0)
(0.055789 -0.0101944 0)
(-0.00995558 -0.0450529 0)
(-0.0559268 -0.0849939 0)
(-0.0408088 -0.133122 0)
(0.037851 -0.146751 0)
(0.0604536 -0.0722657 0)
(0.118102 -0.00284711 0)
(0.14612 0.118382 0)
(0.124474 0.184118 0)
(0.118009 0.227907 0)
(0.1348 0.226779 0)
(0.175568 0.203815 0)
(0.215412 0.15835 0)
(0.232583 0.0956084 0)
(0.234357 0.0322549 0)
(0.20423 -0.0378557 0)
(0.17695 -0.101069 0)
(0.157637 -0.14592 0)
(0.168339 -0.12885 0)
(0.182011 -0.0895169 0)
(0.172879 -0.0344731 0)
(0.117425 0.0072044 0)
(0.0486956 0.0380361 0)
(-8.44e-05 0.0561983 0)
(-0.096582 0.0227296 0)
(-0.305478 -0.106571 0)
(-0.501863 -0.117967 0)
(0.0650653 -0.133117 0)
(0.133431 0.00852598 0)
(0.118564 0.116942 0)
(0.0715851 0.172722 0)
(0.0852852 0.207317 0)
(0.0867111 0.193631 0)
(0.104263 0.151232 0)
(0.136621 0.0860892 0)
(0.161846 0.00824159 0)
(0.164915 -0.0722101 0)
(0.157829 -0.101213 0)
(0.126976 -0.12705 0)
(0.0909522 -0.22573 0)
(0.061625 -0.232104 0)
(-0.0334097 -0.146129 0)
(-0.107259 0.0280481 0)
(-0.179003 0.0874546 0)
(-0.341637 0.0463431 0)
(-0.516669 0.100263 0)
(-0.721758 0.266659 0)
(-0.854183 0.308309 0)
(-0.974585 -0.0906904 0)
(0.0255188 -0.257296 0)
(-0.0194769 -0.0169354 0)
(-0.0341062 0.222699 0)
(-0.0881453 0.232167 0)
(-0.0431145 0.236028 0)
(-0.0420017 0.227546 0)
(-0.0213212 0.180854 0)
(0.00910925 0.127104 0)
(0.0764743 0.0613027 0)
(0.151144 -0.014975 0)
(0.144662 -0.0536239 0)
(-0.150992 -0.053571 0)
(-0.882678 0.019964 0)
(-1.03924 0.0882771 0)
(-1.05421 0.0767495 0)
(-0.999415 0.171992 0)
(-1.05916 0.308312 0)
(-1.21442 0.401414 0)
(-1.29658 0.413229 0)
(-1.38946 0.328735 0)
(-1.68086 0.00367964 0)
(-1.89129 -0.212794 0)
(-0.0789917 -0.114864 0)
(-0.184026 0.0996428 0)
(-0.180593 0.211757 0)
(-0.189215 0.223333 0)
(-0.165305 0.209457 0)
(-0.118704 0.179022 0)
(-0.0758126 0.0957317 0)
(-0.103549 -0.0401101 0)
(-0.161214 -0.20235 0)
(-0.214757 -0.197762 0)
(-0.64052 0.752696 0)
(-0.894714 0.741087 0)
(-1.39578 0.208371 0)
(-1.34592 -0.0971755 0)
(-1.30133 -0.101598 0)
(-1.30522 0.127495 0)
(-1.31322 0.296455 0)
(-1.30528 0.350833 0)
(-1.32054 0.380555 0)
(-1.40186 0.453492 0)
(-1.72989 0.340932 0)
(-1.88244 0.0151095 0)
(-0.116873 -0.0317988 0)
(-0.23581 0.0870943 0)
(-0.311185 0.115602 0)
(-0.319989 0.0946294 0)
(-0.28324 0.0516631 0)
(-0.234406 0.0160669 0)
(-0.199914 0.030933 0)
(-0.142334 0.180851 0)
(-0.388039 0.900884 0)
(-1.11778 0.712265 0)
(-1.125 0.898427 0)
(-1.21318 1.63603 0)
(-1.51862 0.30293 0)
(-1.33741 -0.0443074 0)
(-1.25735 0.00209809 0)
(-1.29649 0.181992 0)
(-1.28314 0.261439 0)
(-1.26729 0.296302 0)
(-1.20902 0.43298 0)
(-1.18844 1.01893 0)
(-1.47366 1.70797 0)
(-1.79626 0.550058 0)
(-0.213255 0.115553 0)
(-0.2348 0.270996 0)
(-0.27681 0.434243 0)
(-0.313716 0.524919 0)
(-0.350101 0.636486 0)
(-0.446221 0.729443 0)
(-0.746755 0.705668 0)
(-0.881544 0.605296 0)
(-0.842235 0.444749 0)
(-0.954223 0.294332 0)
(-0.919707 0.642863 0)
(-0.936448 1.13689 0)
(-0.956332 0.44884 0)
(-1.32519 -0.176991 0)
(-1.26166 -0.0177971 0)
(-1.18265 0.150273 0)
(-1.18527 0.270009 0)
(-1.14375 0.332964 0)
(-1.03373 0.699021 0)
(-0.938478 0.900734 0)
(-1.34593 0.787222 0)
(-1.1191 0.108252 0)
(-0.275366 0.781938 0)
(-0.427194 0.813542 0)
(-0.573347 0.295536 0)
(-0.5154 0.059494 0)
(-0.449171 -0.0205717 0)
(-0.37906 -0.00132678 0)
(-0.339903 0.0971453 0)
(-0.525074 0.322678 0)
(-0.658969 0.497046 0)
(-0.745761 0.504659 0)
(-0.677411 0.73738 0)
(-0.594821 0.992289 0)
(-0.480231 0.732354 0)
(-0.832734 -0.0248257 0)
(-1.29052 -0.0601576 0)
(-1.13085 0.0795553 0)
(-1.05862 0.188996 0)
(-1.01307 0.346619 0)
(-0.777908 0.804168 0)
(-0.839221 0.882362 0)
(-1.37892 0.709579 0)
(-1.36843 -0.143666 0)
(-1.51835 -0.389762 0)
(-0.234433 0.842559 0)
(-0.31573 0.479379 0)
(-0.335351 0.285058 0)
(-0.299895 0.229134 0)
(-0.301341 0.248617 0)
(-0.338335 0.332964 0)
(-0.298119 0.452875 0)
(-0.428135 0.566822 0)
(-0.458034 0.618395 0)
(-0.535538 0.516375 0)
(-0.536195 0.564469 0)
(-0.367753 0.739444 0)
(-0.166046 0.708809 0)
(-0.207423 0.558481 0)
(-0.832163 0.125485 0)
(-1.13845 0.0386502 0)
(-1.05095 0.179169 0)
(-0.975924 0.315235 0)
(-0.774527 0.828629 0)
(-0.765781 0.995388 0)
(-1.22137 0.932131 0)
(-1.37085 0.297248 0)
(-1.57073 -0.0562265 0)
(-0.152057 0.927214 0)
(-0.0805111 0.571391 0)
(-0.180618 0.217062 0)
(-0.185097 0.061354 0)
(-0.1703 0.0493123 0)
(-0.16243 0.162464 0)
(-0.169818 0.399621 0)
(-0.190155 0.622267 0)
(-0.226845 0.672658 0)
(-0.244464 0.601973 0)
(-0.262126 0.562538 0)
(-0.140343 0.596219 0)
(-0.0423573 0.633089 0)
(0.035053 0.692218 0)
(0.0201491 0.674778 0)
(-0.363092 0.423598 0)
(-0.742967 0.213448 0)
(-0.866404 0.461772 0)
(-0.765061 0.72625 0)
(-0.53636 1.10878 0)
(-0.632254 1.23055 0)
(-0.92373 0.644995 0)
(-1.02153 -0.00567761 0)
(0.00803588 1.00643 0)
(0.0772007 0.661254 0)
(-0.0121054 0.337626 0)
(-0.0478392 0.183625 0)
(-0.118808 0.156855 0)
(-0.129448 0.241712 0)
(-0.114772 0.350261 0)
(-0.0273353 0.585543 0)
(-0.0544463 0.665363 0)
(-0.040191 0.622534 0)
(-0.0683768 0.501083 0)
(0.0194815 0.469904 0)
(0.0585143 0.536518 0)
(0.1622 0.566393 0)
(0.251382 0.619845 0)
(0.265784 0.650056 0)
(0.156848 0.582195 0)
(-0.0617445 0.49777 0)
(-0.289495 0.520651 0)
(-0.274478 0.824133 0)
(-0.134036 1.18274 0)
(-0.293443 0.983511 0)
(-0.690965 0.365384 0)
(0.0700776 0.939213 0)
(0.121235 0.652263 0)
(0.0741538 0.379113 0)
(0.0589878 0.223445 0)
(-0.0123449 0.180689 0)
(-0.0405865 0.231805 0)
(-0.0712828 0.3315 0)
(0.019865 0.554299 0)
(0.0431463 0.654155 0)
(0.0774142 0.617852 0)
(0.0900744 0.486884 0)
(0.129143 0.441228 0)
(0.147586 0.487986 0)
(0.217819 0.498471 0)
(0.280752 0.525777 0)
(0.348828 0.576525 0)
(0.395868 0.599443 0)
(0.38383 0.656013 0)
(0.292576 0.705125 0)
(0.269487 0.807503 0)
(0.193009 1.08656 0)
(0.239512 1.14162 0)
(-0.105811 0.748165 0)
(0.0520003 0.779983 0)
(0.130059 0.628797 0)
(0.107119 0.399927 0)
(0.0941927 0.253826 0)
(0.030929 0.214721 0)
(0.0147331 0.258057 0)
(-0.0226458 0.295839 0)
(0.0231428 0.486479 0)
(0.0908791 0.612442 0)
(0.148834 0.580936 0)
(0.185114 0.474271 0)
(0.188055 0.423431 0)
(0.1948 0.452855 0)
(0.234726 0.457867 0)
(0.271039 0.472612 0)
(0.329421 0.493097 0)
(0.405163 0.548426 0)
(0.476884 0.632329 0)
(0.521431 0.729761 0)
(0.586498 0.844716 0)
(0.639235 1.07106 0)
(0.739573 1.24292 0)
(0.671466 1.11992 0)
(0.0182729 0.703638 0)
(0.119858 0.592865 0)
(0.119719 0.407273 0)
(0.121374 0.289836 0)
(0.065618 0.25766 0)
(0.0444676 0.292203 0)
(0.00622997 0.305154 0)
(0.0199586 0.422849 0)
(0.0922507 0.523557 0)
(0.172915 0.521608 0)
(0.203456 0.455481 0)
(0.193574 0.415598 0)
(0.19654 0.429694 0)
(0.221135 0.423375 0)
(0.250103 0.425277 0)
(0.299338 0.434925 0)
(0.36173 0.467011 0)
(0.455737 0.560731 0)
(0.564566 0.667239 0)
(0.667096 0.765764 0)
(0.83109 0.908909 0)
(1.05689 1.15603 0)
(1.07379 1.0896 0)
(0.0289 0.639947 0)
(0.110627 0.542444 0)
(0.128685 0.400573 0)
(0.130962 0.318241 0)
(0.0867859 0.299594 0)
(0.0644178 0.323591 0)
(0.0373899 0.334245 0)
(0.0292113 0.393513 0)
(0.0861631 0.449497 0)
(0.150346 0.467809 0)
(0.188766 0.447637 0)
(0.182719 0.424798 0)
(0.184781 0.4203 0)
(0.202892 0.403824 0)
(0.22475 0.393889 0)
(0.261781 0.391274 0)
(0.310376 0.405778 0)
(0.378179 0.449794 0)
(0.504422 0.557681 0)
(0.628221 0.611398 0)
(0.781225 0.691955 0)
(1.05912 0.998087 0)
(1.14869 0.960024 0)
(0.046037 0.561017 0)
(0.0977949 0.492931 0)
(0.128592 0.393349 0)
(0.119196 0.338134 0)
(0.0902398 0.324235 0)
(0.0743997 0.338109 0)
(0.0603078 0.345476 0)
(0.0554452 0.377377 0)
(0.0846649 0.404475 0)
(0.126853 0.426105 0)
(0.160099 0.430206 0)
(0.170706 0.420687 0)
(0.178693 0.410678 0)
(0.19424 0.387619 0)
(0.208918 0.368899 0)
(0.233149 0.355177 0)
(0.264264 0.354763 0)
(0.307436 0.370557 0)
(0.39408 0.423092 0)
(0.496524 0.440607 0)
(0.61301 0.459939 0)
(0.864543 0.752344 0)
(1.0365 0.862058 0)
(0.0420022 0.494226 0)
(0.0774886 0.452238 0)
(0.110627 0.387749 0)
(0.0989645 0.353341 0)
(0.0858067 0.34094 0)
(0.079287 0.345753 0)
(0.0756208 0.349673 0)
(0.0783543 0.366111 0)
(0.0953381 0.378142 0)
(0.118513 0.395387 0)
(0.145585 0.407931 0)
(0.165864 0.406734 0)
(0.185007 0.394058 0)
(0.203557 0.372261 0)
(0.216783 0.351857 0)
(0.23231 0.333186 0)
)
;

boundaryField
{
    leftWall
    {
        type            calculated;
        value           uniform (0 0 0);
    }
    rightWall
    {
        type            calculated;
        value           nonuniform 0();
    }
    lowerWall
    {
        type            calculated;
        value           uniform (0 0 0);
    }
    atmosphere
    {
        type            calculated;
        value           nonuniform 0();
    }
    defaultFaces
    {
        type            empty;
    }
    procBoundary0to1
    {
        type            processor;
        value           nonuniform List<vector> 
26
(
(-0.0333345 -0.0121354 0)
(-0.0125959 -0.0276822 0)
(-0.00629246 -0.0301213 0)
(-0.0111912 -0.0393054 0)
(-0.016675 -0.0425849 0)
(-0.0331176 -0.0987938 0)
(-0.104372 -0.0498384 0)
(-0.171394 -0.100806 0)
(-0.0428316 -0.302827 0)
(0.076753 -0.112112 0)
(-0.408099 -0.0461158 0)
(-0.996344 -0.623978 0)
(-1.84806 -0.568855 0)
(-1.8361 -0.599244 0)
(-1.60819 -0.693314 0)
(-1.20229 -0.0934097 0)
(-1.20229 -0.0934097 0)
(-1.46951 -0.0679245 0)
(-1.63813 -0.151523 0)
(-1.3298 -0.124462 0)
(-0.980447 0.199046 0)
(-0.347902 0.147232 0)
(0.650926 0.865937 0)
(1.12143 0.950571 0)
(1.18024 0.848121 0)
(1.08474 0.80971 0)
)
;
    }
    procBoundary0to2
    {
        type            processor;
        value           nonuniform List<vector> 
24
(
(0.251708 0.321794 0)
(0.27659 0.319806 0)
(0.322685 0.342989 0)
(0.378827 0.341771 0)
(0.443706 0.336064 0)
(0.554685 0.52841 0)
(0.746884 0.69938 0)
(0.0284597 0.445339 0)
(0.0571704 0.420566 0)
(0.0822391 0.379527 0)
(0.0826782 0.358697 0)
(0.0808727 0.347314 0)
(0.0814276 0.346269 0)
(0.0840474 0.347908 0)
(0.090937 0.355989 0)
(0.1047 0.362262 0)
(0.121313 0.373443 0)
(0.144834 0.381855 0)
(0.168948 0.379907 0)
(0.193059 0.369626 0)
(0.213559 0.354289 0)
(0.229159 0.336691 0)
(0.251708 0.321794 0)
(0.243822 0.318022 0)
)
;
    }
}


// ************************************************************************* //
