/*--------------------------------*- C++ -*----------------------------------*\
| =========                 |                                                 |
| \\      /  F ield         | OpenFOAM: The Open Source CFD Toolbox           |
|  \\    /   O peration     | Version:  2.4.0                                 |
|   \\  /    A nd           | Web:      www.OpenFOAM.org                      |
|    \\/     M anipulation  |                                                 |
\*---------------------------------------------------------------------------*/
FoamFile
{
    version     2.0;
    format      ascii;
    class       volVectorField;
    location    "0.85";
    object      U.air;
}
// * * * * * * * * * * * * * * * * * * * * * * * * * * * * * * * * * * * * * //

dimensions      [0 1 -1 0 0 0 0];

internalField   nonuniform List<vector> 
575
(
(0.00189939 -0.0733616 0)
(0.00113274 -0.0792712 0)
(-0.00318643 -0.084198 0)
(-0.0422563 -0.0745902 0)
(-0.0906004 -0.0522493 0)
(-0.147568 -0.0144493 0)
(-0.211716 0.0130045 0)
(-0.254439 0.0202243 0)
(-0.26364 0.0174508 0)
(-0.257706 0.013356 0)
(-0.246019 0.0071108 0)
(-0.234126 -0.00314098 0)
(-0.211525 -0.00792903 0)
(-0.182171 -0.00976383 0)
(-0.153876 -0.00972337 0)
(-0.135865 -0.00628162 0)
(-0.125096 -0.00427997 0)
(-0.116795 -0.00427999 0)
(-0.103326 -0.00391051 0)
(-0.0796008 -0.00744291 0)
(-0.0550318 -0.00131614 0)
(-0.0477332 0.000852617 0)
(0.00161997 0.0740375 0)
(-0.00351179 0.0839392 0)
(-0.00102753 0.111464 0)
(-0.024325 0.123835 0)
(-0.0629561 0.100972 0)
(-0.125042 0.0668297 0)
(-0.198515 0.0331227 0)
(-0.256835 0.00423553 0)
(-0.27079 -0.0154615 0)
(-0.264858 -0.021554 0)
(-0.251528 -0.0176866 0)
(-0.232586 -0.0132372 0)
(-0.207384 -0.0163078 0)
(-0.178713 -0.0177896 0)
(-0.152795 -0.012332 0)
(-0.135344 -0.00738232 0)
(-0.122123 -0.00473787 0)
(-0.112787 -0.00613818 0)
(-0.0980836 -0.0122911 0)
(-0.0722057 -0.017373 0)
(-0.0518332 -0.0146246 0)
(-0.0291531 -0.0101534 0)
(0.0118438 -0.111361 0)
(0.01259 -0.109968 0)
(-0.000658393 -0.0908248 0)
(-0.0360461 -0.0616989 0)
(-0.108231 0.0049522 0)
(-0.16845 0.0753169 0)
(-0.220673 0.0769073 0)
(-0.264322 0.0445644 0)
(-0.275984 0.0180196 0)
(-0.269011 0.00250202 0)
(-0.250881 -0.00996508 0)
(-0.226045 -0.0247497 0)
(-0.200904 -0.0341762 0)
(-0.177518 -0.0344988 0)
(-0.153956 -0.0281138 0)
(-0.138477 -0.0190841 0)
(-0.121489 -0.0138435 0)
(-0.10754 -0.0152281 0)
(-0.0920504 -0.0229779 0)
(-0.0706516 -0.0295079 0)
(-0.0555847 -0.022208 0)
(-0.0206394 -0.0161522 0)
(-0.00826603 0.166974 0)
(-0.0426299 0.170153 0)
(-0.0748163 0.0978769 0)
(-0.0723996 0.0664405 0)
(-0.135964 0.0788875 0)
(-0.220348 0.0955013 0)
(-0.270997 0.0749044 0)
(-0.289868 0.0326079 0)
(-0.292085 -0.0105102 0)
(-0.273468 -0.0313098 0)
(-0.246333 -0.0356136 0)
(-0.221277 -0.0358628 0)
(-0.199526 -0.0398938 0)
(-0.176792 -0.0408406 0)
(-0.15256 -0.0303791 0)
(-0.130805 -0.0232246 0)
(-0.109511 -0.0199414 0)
(-0.0948273 -0.0174142 0)
(-0.0857281 -0.0252083 0)
(-0.0819077 -0.031041 0)
(-0.0756539 -0.0382876 0)
(-0.0332104 -0.0331687 0)
(-0.00879921 -0.200421 0)
(-0.017013 -0.194929 0)
(-0.0268463 -0.163968 0)
(-0.0430099 -0.043749 0)
(-0.16421 0.0880016 0)
(-0.306976 0.119556 0)
(-0.329075 0.0945788 0)
(-0.341301 0.047625 0)
(-0.338796 0.00778166 0)
(-0.318048 -0.018895 0)
(-0.282987 -0.03458 0)
(-0.245932 -0.0452911 0)
(-0.214359 -0.0521181 0)
(-0.191249 -0.052336 0)
(-0.163068 -0.0467526 0)
(-0.131378 -0.0386615 0)
(-0.10282 -0.033258 0)
(-0.0887167 -0.0328006 0)
(-0.0848069 -0.0375763 0)
(-0.0852689 -0.0438861 0)
(-0.0799488 -0.0516414 0)
(-0.0533837 -0.0506765 0)
(-0.0243095 0.200066 0)
(-0.076718 0.215244 0)
(-0.159093 0.213014 0)
(-0.238553 0.181643 0)
(-0.320219 0.137227 0)
(-0.454091 0.12126 0)
(-0.444644 0.0885288 0)
(-0.415621 0.0336397 0)
(-0.389206 -0.0229991 0)
(-0.369282 -0.0530396 0)
(-0.32954 -0.0625272 0)
(-0.284989 -0.0643078 0)
(-0.247241 -0.0654584 0)
(-0.218029 -0.0659189 0)
(-0.188627 -0.0592689 0)
(-0.158318 -0.0477648 0)
(-0.128471 -0.0304168 0)
(-0.101349 -0.0135048 0)
(-0.0893212 -0.0119914 0)
(-0.0820331 -0.0189617 0)
(-0.0707129 -0.0390301 0)
(-0.050198 -0.0561635 0)
(-0.00732769 -0.0815505 0)
(-0.023305 -0.0534485 0)
(-0.0563243 0.000860692 0)
(-0.126826 0.098308 0)
(-0.273764 0.168313 0)
(-0.494711 0.112607 0)
(-0.550669 0.0608095 0)
(-0.53397 0.0309935 0)
(-0.481944 -0.004991 0)
(-0.420238 -0.0509387 0)
(-0.365974 -0.0944927 0)
(-0.301917 -0.116244 0)
(-0.2343 -0.132781 0)
(-0.187512 -0.142609 0)
(-0.176974 -0.142992 0)
(-0.175493 -0.130388 0)
(-0.169408 -0.112814 0)
(-0.136845 -0.09161 0)
(-0.097839 -0.0806765 0)
(-0.0756386 -0.0842173 0)
(-0.0587459 -0.107107 0)
(-0.0912105 -0.123015 0)
(-0.0169181 0.141423 0)
(-0.0518284 0.15647 0)
(-0.0876882 0.172803 0)
(-0.121073 0.203343 0)
(-0.177558 0.277018 0)
(-0.355381 0.176651 0)
(-0.495621 0.0390019 0)
(-0.513702 -0.0455969 0)
(-0.488677 -0.120416 0)
(-0.447591 -0.162652 0)
(-0.388837 -0.184113 0)
(-0.301222 -0.22272 0)
(-0.180103 -0.238966 0)
(-0.11935 -0.183459 0)
(-0.116775 -0.151992 0)
(-0.165802 -0.144702 0)
(-0.201202 -0.149508 0)
(-0.183409 -0.151332 0)
(-0.123263 -0.148408 0)
(-0.0862668 -0.145976 0)
(-0.0775771 -0.14306 0)
(-0.164331 -0.141856 0)
(0.0195207 -0.0499855 0)
(0.0453551 -0.0107123 0)
(0.056895 0.0690241 0)
(0.0526488 0.168847 0)
(0.0416164 0.288354 0)
(0.0196284 0.297824 0)
(-0.0562863 0.190506 0)
(-0.110473 0.101785 0)
(-0.157069 0.0422884 0)
(-0.197957 -0.0513616 0)
(-0.183196 -0.170753 0)
(-0.168129 -0.260592 0)
(-0.188796 -0.260759 0)
(-0.173741 -0.257805 0)
(-0.140453 -0.22958 0)
(-0.126066 -0.197566 0)
(-0.127261 -0.180411 0)
(-0.134141 -0.169222 0)
(-0.14705 -0.14828 0)
(-0.155142 -0.107614 0)
(-0.147489 -0.0465822 0)
(0.000675576 0.0349892 0)
(0.0146881 0.0959289 0)
(0.0348023 0.125991 0)
(0.043848 0.154931 0)
(0.0444927 0.193064 0)
(0.0703613 0.253861 0)
(0.129888 0.286031 0)
(0.181752 0.205659 0)
(0.182207 0.0832444 0)
(0.171118 -0.0458826 0)
(0.176761 -0.165237 0)
(0.159232 -0.229006 0)
(0.124857 -0.230901 0)
(0.116803 -0.185355 0)
(0.136838 -0.106083 0)
(0.155696 0.0373852 0)
(0.143081 0.0988249 0)
(0.107166 0.0623645 0)
(0.0549521 -0.000998422 0)
(-0.0115145 -0.0260048 0)
(-0.0598365 -0.0270527 0)
(0.035289 0.0499706 0)
(0.224675 0.0610566 0)
(0.0605421 -0.0703526 0)
(0.118382 -0.000664214 0)
(0.146462 0.120673 0)
(0.124756 0.18559 0)
(0.118149 0.228398 0)
(0.134836 0.226908 0)
(0.17305 0.200396 0)
(0.210255 0.150852 0)
(0.225981 0.0838823 0)
(0.231195 0.0255769 0)
(0.204031 -0.0320994 0)
(0.175382 -0.0580381 0)
(0.159335 0.0501224 0)
(0.184465 0.141542 0)
(0.191145 0.309868 0)
(0.132818 0.41234 0)
(0.0631402 0.412376 0)
(0.0280239 0.297124 0)
(-0.0343133 0.0960827 0)
(-0.156826 0.177055 0)
(-0.252197 0.092835 0)
(-0.154743 0.118153 0)
(0.0651183 -0.130582 0)
(0.133367 0.00969886 0)
(0.11852 0.118305 0)
(0.0716828 0.175542 0)
(0.0855391 0.20912 0)
(0.0870207 0.194789 0)
(0.104548 0.15197 0)
(0.136761 0.0865095 0)
(0.161888 0.0739868 0)
(0.1642 0.149413 0)
(0.137429 0.270748 0)
(0.0692661 0.0844687 0)
(0.190283 -0.0804507 0)
(0.286688 0.114823 0)
(0.0867773 0.323306 0)
(-0.120493 0.509968 0)
(-0.31598 0.555186 0)
(-0.569277 0.496815 0)
(-0.703842 0.301313 0)
(-0.858527 0.612042 0)
(-0.722728 0.73281 0)
(-0.629038 0.416906 0)
(0.0234767 -0.245295 0)
(-0.0255367 -0.0300333 0)
(-0.0321665 0.206871 0)
(-0.0877954 0.229052 0)
(-0.0431416 0.237479 0)
(-0.0419475 0.229514 0)
(-0.02124 0.184707 0)
(0.0258577 0.320004 0)
(0.1776 0.415774 0)
(0.289973 0.516744 0)
(0.03823 0.468133 0)
(-0.557944 0.727682 0)
(-0.917852 0.415844 0)
(-0.691982 0.356466 0)
(-0.898576 0.340482 0)
(-1.03343 0.421263 0)
(-1.18802 0.56014 0)
(-1.38843 0.73831 0)
(-1.42063 0.858409 0)
(-1.38417 1.02227 0)
(-1.56634 0.810721 0)
(-1.84206 0.292049 0)
(-0.0687357 0.0144062 0)
(-0.176367 0.247657 0)
(-0.184033 0.428952 0)
(-0.190245 0.491903 0)
(-0.164639 0.510029 0)
(-0.119865 0.493279 0)
(-0.0192772 0.434507 0)
(0.00509355 0.465036 0)
(-0.0987137 0.120569 0)
(-0.195588 -0.0351425 0)
(-0.669508 0.821052 0)
(-1.00475 0.999913 0)
(-1.55788 0.726571 0)
(-1.37843 0.338094 0)
(-1.32161 0.135463 0)
(-1.37705 0.262195 0)
(-1.36422 0.495326 0)
(-1.23399 0.654708 0)
(-1.17605 0.80688 0)
(-1.28791 0.865726 0)
(-1.71106 0.564722 0)
(-1.92839 0.207167 0)
(-0.0111315 0.375449 0)
(-0.0953195 0.506109 0)
(-0.25999 0.512568 0)
(-0.300978 0.477498 0)
(-0.263613 0.406592 0)
(-0.213002 0.323737 0)
(-0.181774 0.268558 0)
(-0.125743 0.312548 0)
(-0.389542 0.923654 0)
(-1.11795 0.712629 0)
(-1.12516 0.898946 0)
(-1.2099 1.65817 0)
(-1.50993 0.404519 0)
(-1.38453 0.161721 0)
(-1.45026 0.227357 0)
(-1.41133 0.319127 0)
(-1.20323 0.477851 0)
(-1.11951 0.545306 0)
(-1.07 0.631133 0)
(-1.14864 1.08622 0)
(-1.47148 1.72102 0)
(-1.80216 0.586139 0)
(-0.163277 0.39153 0)
(-0.192167 0.401517 0)
(-0.261341 0.509846 0)
(-0.308562 0.584466 0)
(-0.350287 0.682441 0)
(-0.449857 0.75915 0)
(-0.750693 0.716461 0)
(-0.883183 0.608298 0)
(-0.842294 0.444859 0)
(-0.954223 0.294332 0)
(-0.919707 0.642863 0)
(-0.936356 1.137 0)
(-0.946702 0.456195 0)
(-1.29843 -0.191611 0)
(-1.40416 0.0454014 0)
(-1.31665 0.357496 0)
(-1.07004 0.421509 0)
(-0.992854 0.424393 0)
(-0.981969 0.7527 0)
(-0.937042 0.901361 0)
(-1.34592 0.78725 0)
(-1.11905 0.108375 0)
(-0.273633 0.832367 0)
(-0.427121 0.819879 0)
(-0.573445 0.296115 0)
(-0.515441 0.0596632 0)
(-0.449188 -0.0205022 0)
(-0.379065 -0.00129897 0)
(-0.339904 0.0971492 0)
(-0.525074 0.322679 0)
(-0.65897 0.497046 0)
(-0.745762 0.504659 0)
(-0.677412 0.737381 0)
(-0.594822 0.99229 0)
(-0.479962 0.732485 0)
(-0.811227 -0.0240356 0)
(-1.28133 -0.0748533 0)
(-1.18387 0.221853 0)
(-1.06983 0.353434 0)
(-0.91624 0.409633 0)
(-0.745717 0.815229 0)
(-0.839146 0.882335 0)
(-1.37892 0.709578 0)
(-1.36843 -0.143666 0)
(-1.51835 -0.389762 0)
(-0.234404 0.843044 0)
(-0.315729 0.479384 0)
(-0.335351 0.285058 0)
(-0.299896 0.229134 0)
(-0.301342 0.248618 0)
(-0.338336 0.332964 0)
(-0.298119 0.452875 0)
(-0.428135 0.566822 0)
(-0.458034 0.618396 0)
(-0.535539 0.516376 0)
(-0.536195 0.564469 0)
(-0.367754 0.739445 0)
(-0.166046 0.708809 0)
(-0.206532 0.558756 0)
(-0.808133 0.129435 0)
(-1.1302 0.0412421 0)
(-1.0617 0.25194 0)
(-0.9665 0.372605 0)
(-0.759824 0.837308 0)
(-0.765663 0.995338 0)
(-1.22137 0.93213 0)
(-1.37085 0.297248 0)
(-1.57073 -0.0562265 0)
(-0.152057 0.927215 0)
(-0.0805111 0.571391 0)
(-0.180618 0.217062 0)
(-0.185098 0.0613541 0)
(-0.1703 0.0493123 0)
(-0.16243 0.162464 0)
(-0.169818 0.399621 0)
(-0.190155 0.622267 0)
(-0.226845 0.672658 0)
(-0.244464 0.601973 0)
(-0.262127 0.562539 0)
(-0.140343 0.596219 0)
(-0.0423573 0.633089 0)
(0.0350671 0.692225 0)
(0.0228114 0.676002 0)
(-0.348641 0.430285 0)
(-0.730989 0.219539 0)
(-0.861198 0.476619 0)
(-0.761478 0.730351 0)
(-0.53607 1.10874 0)
(-0.632253 1.23055 0)
(-0.923729 0.644995 0)
(-1.02152 -0.00567761 0)
(0.00803588 1.00643 0)
(0.0772007 0.661255 0)
(-0.0121054 0.337626 0)
(-0.0478393 0.183626 0)
(-0.118808 0.156855 0)
(-0.129448 0.241712 0)
(-0.114772 0.350261 0)
(-0.0273353 0.585543 0)
(-0.0544463 0.665364 0)
(-0.040191 0.622535 0)
(-0.0683769 0.501084 0)
(0.0194815 0.469905 0)
(0.0585143 0.536518 0)
(0.1622 0.566393 0)
(0.251406 0.619854 0)
(0.266106 0.650187 0)
(0.157693 0.582527 0)
(-0.0605911 0.498129 0)
(-0.288348 0.520754 0)
(-0.273931 0.824102 0)
(-0.134035 1.18273 0)
(-0.293442 0.98351 0)
(-0.690965 0.365384 0)
(0.0700776 0.939214 0)
(0.121235 0.652263 0)
(0.0741539 0.379113 0)
(0.0589879 0.223445 0)
(-0.0123449 0.180689 0)
(-0.0405865 0.231805 0)
(-0.0712828 0.3315 0)
(0.019865 0.554299 0)
(0.0431463 0.654155 0)
(0.0774142 0.617852 0)
(0.0900744 0.486885 0)
(0.129143 0.441228 0)
(0.147586 0.487986 0)
(0.217819 0.498472 0)
(0.280752 0.525777 0)
(0.348828 0.576526 0)
(0.395869 0.599443 0)
(0.383833 0.656014 0)
(0.292649 0.705119 0)
(0.269741 0.807497 0)
(0.193029 1.08656 0)
(0.239512 1.14161 0)
(-0.105811 0.748165 0)
(0.0520004 0.779983 0)
(0.130059 0.628797 0)
(0.107119 0.399928 0)
(0.0941928 0.253826 0)
(0.030929 0.214722 0)
(0.0147331 0.258057 0)
(-0.0226458 0.295839 0)
(0.0231428 0.48648 0)
(0.0908791 0.612442 0)
(0.148834 0.580936 0)
(0.185114 0.474271 0)
(0.188055 0.423431 0)
(0.1948 0.452855 0)
(0.234726 0.457867 0)
(0.271039 0.472612 0)
(0.329421 0.493097 0)
(0.405163 0.548426 0)
(0.476884 0.632328 0)
(0.52143 0.72976 0)
(0.586506 0.844714 0)
(0.639258 1.07106 0)
(0.739576 1.24291 0)
(0.671466 1.11992 0)
(0.0182729 0.703638 0)
(0.119858 0.592865 0)
(0.119719 0.407274 0)
(0.121374 0.289836 0)
(0.0656181 0.257661 0)
(0.0444677 0.292203 0)
(0.00622997 0.305154 0)
(0.0199586 0.422849 0)
(0.0922507 0.523557 0)
(0.172915 0.521608 0)
(0.203456 0.455481 0)
(0.193574 0.415598 0)
(0.196541 0.429695 0)
(0.221135 0.423375 0)
(0.250103 0.425277 0)
(0.299339 0.434925 0)
(0.361729 0.467011 0)
(0.455736 0.560731 0)
(0.564565 0.667239 0)
(0.667095 0.765763 0)
(0.831092 0.908907 0)
(1.05689 1.15603 0)
(1.07379 1.0896 0)
(0.0289 0.639948 0)
(0.110627 0.542445 0)
(0.128685 0.400573 0)
(0.130962 0.318241 0)
(0.086786 0.299594 0)
(0.0644178 0.323592 0)
(0.0373899 0.334245 0)
(0.0292113 0.393514 0)
(0.0861631 0.449497 0)
(0.150346 0.467809 0)
(0.188766 0.447637 0)
(0.182719 0.424798 0)
(0.184781 0.4203 0)
(0.202892 0.403824 0)
(0.22475 0.393889 0)
(0.261781 0.391274 0)
(0.310376 0.405778 0)
(0.378178 0.449794 0)
(0.504421 0.557681 0)
(0.62822 0.611398 0)
(0.781223 0.691954 0)
(1.05912 0.998085 0)
(1.14869 0.960022 0)
(0.0460371 0.561018 0)
(0.097795 0.492932 0)
(0.128592 0.393349 0)
(0.119196 0.338134 0)
(0.0902398 0.324235 0)
(0.0743998 0.338109 0)
(0.0603078 0.345476 0)
(0.0554452 0.377377 0)
(0.0846649 0.404475 0)
(0.126853 0.426105 0)
(0.160099 0.430207 0)
(0.170706 0.420687 0)
(0.178693 0.410678 0)
(0.19424 0.387619 0)
(0.208918 0.368899 0)
(0.233149 0.355177 0)
(0.264264 0.354764 0)
(0.307436 0.370558 0)
(0.39408 0.423092 0)
(0.496524 0.440607 0)
(0.613009 0.459938 0)
(0.864542 0.752343 0)
(1.0365 0.862056 0)
(0.0420022 0.494227 0)
(0.0774887 0.452238 0)
(0.110627 0.38775 0)
(0.0989646 0.353341 0)
(0.0858068 0.34094 0)
(0.079287 0.345753 0)
(0.0756208 0.349673 0)
(0.0783543 0.366111 0)
(0.0953381 0.378142 0)
(0.118513 0.395387 0)
(0.145585 0.407931 0)
(0.165864 0.406734 0)
(0.185007 0.394058 0)
(0.203557 0.372262 0)
(0.216783 0.351858 0)
(0.232311 0.333186 0)
)
;

boundaryField
{
    leftWall
    {
        type            fixedValue;
        value           uniform (0 0 0);
    }
    rightWall
    {
        type            fixedValue;
        value           nonuniform 0();
    }
    lowerWall
    {
        type            fixedValue;
        value           uniform (0 0 0);
    }
    atmosphere
    {
        type            fluxCorrectedVelocity;
        value           nonuniform 0();
    }
    defaultFaces
    {
        type            empty;
    }
    procBoundary0to1
    {
        type            processor;
        value           nonuniform List<vector> 
26
(
(-0.0333348 -0.0121354 0)
(-0.0125961 -0.0276828 0)
(-0.00629271 -0.0301227 0)
(-0.0111915 -0.0393059 0)
(-0.0166725 -0.0424226 0)
(-0.0332129 -0.0980474 0)
(-0.106084 -0.119745 0)
(-0.178194 -0.285376 0)
(0.0573798 -0.031906 0)
(0.320952 0.267478 0)
(-0.0144306 0.27333 0)
(-0.682681 -0.301477 0)
(-1.97252 -0.259168 0)
(-2.03167 -0.302008 0)
(-1.63203 -0.596381 0)
(-1.20223 -0.0930105 0)
(-1.20223 -0.0930105 0)
(-1.46951 -0.0679235 0)
(-1.63812 -0.151523 0)
(-1.3298 -0.124462 0)
(-0.980446 0.199046 0)
(-0.347901 0.147232 0)
(0.650926 0.865936 0)
(1.12143 0.950569 0)
(1.18024 0.848119 0)
(1.08474 0.809708 0)
)
;
    }
    procBoundary0to2
    {
        type            processor;
        value           nonuniform List<vector> 
24
(
(0.251708 0.321794 0)
(0.276591 0.319806 0)
(0.322685 0.342989 0)
(0.378827 0.341771 0)
(0.443706 0.336063 0)
(0.554684 0.528409 0)
(0.746882 0.699379 0)
(0.0284598 0.44534 0)
(0.0571705 0.420566 0)
(0.0822391 0.379527 0)
(0.0826783 0.358697 0)
(0.0808727 0.347314 0)
(0.0814276 0.34627 0)
(0.0840474 0.347908 0)
(0.090937 0.35599 0)
(0.1047 0.362262 0)
(0.121313 0.373444 0)
(0.144834 0.381855 0)
(0.168948 0.379907 0)
(0.193059 0.369626 0)
(0.213559 0.354289 0)
(0.229159 0.336691 0)
(0.251708 0.321794 0)
(0.243822 0.318022 0)
)
;
    }
}


// ************************************************************************* //
