/*--------------------------------*- C++ -*----------------------------------*\
| =========                 |                                                 |
| \\      /  F ield         | OpenFOAM: The Open Source CFD Toolbox           |
|  \\    /   O peration     | Version:  2.4.0                                 |
|   \\  /    A nd           | Web:      www.OpenFOAM.org                      |
|    \\/     M anipulation  |                                                 |
\*---------------------------------------------------------------------------*/
FoamFile
{
    version     2.0;
    format      ascii;
    class       volVectorField;
    location    "0.85";
    object      U.oil;
}
// * * * * * * * * * * * * * * * * * * * * * * * * * * * * * * * * * * * * * //

dimensions      [0 1 -1 0 0 0 0];

internalField   nonuniform List<vector> 
575
(
(0.0018994 -0.0733619 0)
(0.00113275 -0.0792716 0)
(-0.00318641 -0.0841983 0)
(-0.0422563 -0.0745905 0)
(-0.0906003 -0.0522496 0)
(-0.147568 -0.0144495 0)
(-0.211716 0.0130044 0)
(-0.254438 0.0202242 0)
(-0.26364 0.0174508 0)
(-0.257706 0.013356 0)
(-0.246019 0.00711088 0)
(-0.234126 -0.00314075 0)
(-0.211525 -0.00792854 0)
(-0.182171 -0.00976282 0)
(-0.153876 -0.00972068 0)
(-0.135865 -0.00627468 0)
(-0.125096 -0.00426609 0)
(-0.116795 -0.00425753 0)
(-0.103326 -0.00385038 0)
(-0.079586 -0.00698043 0)
(-0.0549514 0.00180491 0)
(-0.0475938 0.00821397 0)
(0.00162068 0.0739967 0)
(-0.00351113 0.0839179 0)
(-0.00102741 0.111462 0)
(-0.0243249 0.123834 0)
(-0.0629559 0.100971 0)
(-0.125042 0.0668293 0)
(-0.198515 0.0331224 0)
(-0.256835 0.00423534 0)
(-0.27079 -0.0154616 0)
(-0.264858 -0.0215541 0)
(-0.251528 -0.0176866 0)
(-0.232586 -0.0132371 0)
(-0.207384 -0.0163074 0)
(-0.178713 -0.0177878 0)
(-0.152795 -0.0123266 0)
(-0.135344 -0.00737048 0)
(-0.122123 -0.00471819 0)
(-0.112788 -0.00610264 0)
(-0.0980837 -0.0122093 0)
(-0.0721962 -0.0170121 0)
(-0.0517491 -0.0123073 0)
(-0.0289612 -0.00314565 0)
(0.0118427 -0.11115 0)
(0.0125881 -0.10988 0)
(-0.000640473 -0.0909494 0)
(-0.035957 -0.0620163 0)
(-0.108208 0.00486818 0)
(-0.168449 0.0753157 0)
(-0.220672 0.0769066 0)
(-0.264322 0.044564 0)
(-0.275984 0.0180192 0)
(-0.269011 0.00250178 0)
(-0.250881 -0.00996513 0)
(-0.226045 -0.0247479 0)
(-0.200903 -0.0341528 0)
(-0.177518 -0.0343998 0)
(-0.153956 -0.0279673 0)
(-0.138477 -0.0189379 0)
(-0.121489 -0.013722 0)
(-0.10754 -0.015103 0)
(-0.0920508 -0.0226974 0)
(-0.070647 -0.0287755 0)
(-0.0555291 -0.0200971 0)
(-0.0204344 -0.00993173 0)
(-0.00884739 0.187267 0)
(-0.0445194 0.194059 0)
(-0.0798069 0.126355 0)
(-0.0759186 0.0848848 0)
(-0.136822 0.0813919 0)
(-0.22024 0.0952606 0)
(-0.270919 0.0746931 0)
(-0.289867 0.0326043 0)
(-0.292085 -0.010511 0)
(-0.273468 -0.0313091 0)
(-0.246333 -0.0355671 0)
(-0.221276 -0.0356572 0)
(-0.19952 -0.0391856 0)
(-0.176783 -0.0395658 0)
(-0.152555 -0.0289282 0)
(-0.130807 -0.0218164 0)
(-0.109516 -0.0188288 0)
(-0.0948334 -0.0165657 0)
(-0.0857315 -0.0241277 0)
(-0.0818837 -0.0290678 0)
(-0.0755283 -0.0345942 0)
(-0.0328614 -0.0259617 0)
(-0.00879922 -0.200421 0)
(-0.017013 -0.194929 0)
(-0.0268519 -0.163853 0)
(-0.0431453 -0.0384176 0)
(-0.165809 0.104634 0)
(-0.308048 0.121958 0)
(-0.32896 0.0943228 0)
(-0.34126 0.0474015 0)
(-0.338796 0.00777978 0)
(-0.318047 -0.018727 0)
(-0.282975 -0.0337187 0)
(-0.245876 -0.0432255 0)
(-0.21424 -0.0485467 0)
(-0.191133 -0.0479877 0)
(-0.163032 -0.0425393 0)
(-0.131403 -0.0349363 0)
(-0.102864 -0.0305139 0)
(-0.0887531 -0.0309433 0)
(-0.0848281 -0.0357282 0)
(-0.0852455 -0.0411296 0)
(-0.0797593 -0.0469542 0)
(-0.0529284 -0.0424917 0)
(-0.0243095 0.200066 0)
(-0.076718 0.215244 0)
(-0.159092 0.213015 0)
(-0.237064 0.183167 0)
(-0.309208 0.151672 0)
(-0.456696 0.132494 0)
(-0.444663 0.0885787 0)
(-0.41557 0.0333583 0)
(-0.3892 -0.0228349 0)
(-0.369261 -0.0511608 0)
(-0.329372 -0.0585431 0)
(-0.284612 -0.0592462 0)
(-0.246804 -0.0597967 0)
(-0.2178 -0.0587518 0)
(-0.188615 -0.0468432 0)
(-0.158369 -0.0293397 0)
(-0.128532 -0.00943809 0)
(-0.101405 0.00732104 0)
(-0.0893484 0.00552516 0)
(-0.0820087 -0.00691505 0)
(-0.0704678 -0.0268893 0)
(-0.0486605 -0.0144252 0)
(-0.00732771 -0.0815504 0)
(-0.0233051 -0.0534489 0)
(-0.0563242 0.000861098 0)
(-0.125984 0.0987271 0)
(-0.259245 0.182295 0)
(-0.490965 0.12894 0)
(-0.550814 0.061481 0)
(-0.533936 0.0307597 0)
(-0.481896 -0.00445246 0)
(-0.420032 -0.048303 0)
(-0.365655 -0.0904143 0)
(-0.301561 -0.111639 0)
(-0.233825 -0.126854 0)
(-0.187123 -0.126705 0)
(-0.176479 -0.109392 0)
(-0.175686 -0.0807839 0)
(-0.17074 -0.0514886 0)
(-0.138496 -0.0237286 0)
(-0.0988223 -0.0164304 0)
(-0.0757637 -0.0346513 0)
(-0.0567362 -0.0618726 0)
(-0.0860279 0.00102315 0)
(-0.016918 0.141373 0)
(-0.0518283 0.156437 0)
(-0.0876882 0.172807 0)
(-0.121051 0.203384 0)
(-0.168083 0.288459 0)
(-0.343797 0.200127 0)
(-0.49558 0.0481756 0)
(-0.51371 -0.0451033 0)
(-0.488673 -0.119579 0)
(-0.447681 -0.160546 0)
(-0.388921 -0.178371 0)
(-0.300459 -0.206202 0)
(-0.179179 -0.213624 0)
(-0.120574 -0.150164 0)
(-0.117078 -0.0958805 0)
(-0.161392 -0.032659 0)
(-0.198564 0.00804251 0)
(-0.186046 0.0412527 0)
(-0.132954 0.0474238 0)
(-0.0955526 -0.000786963 0)
(-0.0825597 -0.00231247 0)
(-0.162808 0.20678 0)
(0.0195154 -0.0501722 0)
(0.0453479 -0.00817665 0)
(0.0569012 0.0739714 0)
(0.0526751 0.172386 0)
(0.0449275 0.293734 0)
(0.0375529 0.31942 0)
(-0.0371995 0.21304 0)
(-0.0998507 0.120653 0)
(-0.157172 0.0613845 0)
(-0.205055 -0.0335644 0)
(-0.191099 -0.151178 0)
(-0.178696 -0.232778 0)
(-0.186153 -0.209095 0)
(-0.158031 -0.14166 0)
(-0.134599 -0.124517 0)
(-0.133157 -0.118532 0)
(-0.1318 -0.105323 0)
(-0.142261 -0.093834 0)
(-0.154578 -0.0726285 0)
(-0.159949 -0.0281682 0)
(-0.154414 -0.00884265 0)
(-0.0601328 -0.0695072 0)
(0.0148 0.0992313 0)
(0.0352823 0.137306 0)
(0.0448035 0.184489 0)
(0.0459019 0.209886 0)
(0.0741375 0.262687 0)
(0.137729 0.295346 0)
(0.192369 0.216758 0)
(0.190616 0.0952756 0)
(0.176593 -0.0340248 0)
(0.179322 -0.15556 0)
(0.15904 -0.193404 0)
(0.118853 -0.154194 0)
(0.1135 -0.114756 0)
(0.144745 -0.0517488 0)
(0.163956 0.0269723 0)
(0.144849 0.105989 0)
(0.100485 0.11287 0)
(0.0418031 0.0687737 0)
(-0.0278283 0.0307898 0)
(-0.0677387 -0.0128269 0)
(-0.0340261 -0.0670815 0)
(0.00649851 -0.08354 0)
(0.0643652 0.0016575 0)
(0.130554 0.0814453 0)
(0.161056 0.201066 0)
(0.142094 0.263545 0)
(0.138345 0.30086 0)
(0.156283 0.29103 0)
(0.195403 0.252778 0)
(0.230128 0.194999 0)
(0.238652 0.122298 0)
(0.226791 0.0572885 0)
(0.186047 0.0100834 0)
(0.153712 -0.0484138 0)
(0.140894 -0.0952809 0)
(0.161253 -0.0731453 0)
(0.179796 -0.0285451 0)
(0.169404 0.0293126 0)
(0.101466 0.0704975 0)
(0.0341971 0.0975523 0)
(-0.0122894 0.107124 0)
(-0.110089 0.061083 0)
(-0.335754 -0.0866263 0)
(-0.488446 -0.0956955 0)
(0.065137 -0.0674861 0)
(0.138165 0.0862404 0)
(0.118085 0.191179 0)
(0.0752948 0.244516 0)
(0.0948465 0.276406 0)
(0.103715 0.258548 0)
(0.125929 0.209041 0)
(0.153083 0.136084 0)
(0.174265 0.0593745 0)
(0.166137 -0.00993898 0)
(0.151722 -0.0311921 0)
(0.109285 -0.0638692 0)
(0.0519345 -0.184833 0)
(0.0201381 -0.197184 0)
(-0.0524138 -0.13275 0)
(-0.0906773 -0.0126246 0)
(-0.140608 0.059493 0)
(-0.327571 0.0864168 0)
(-0.52186 0.146333 0)
(-0.751229 0.309206 0)
(-0.857791 0.306591 0)
(-1.04962 -0.206274 0)
(0.0299601 -0.220913 0)
(-0.0135548 0.00291413 0)
(-0.0384391 0.260094 0)
(-0.0938696 0.286841 0)
(-0.0445254 0.299536 0)
(-0.0402687 0.292797 0)
(-0.0156525 0.243068 0)
(0.0190217 0.188193 0)
(0.0908025 0.109848 0)
(0.148106 -0.0091208 0)
(0.150822 -0.063699 0)
(-0.173966 -0.0709975 0)
(-0.907497 0.0174417 0)
(-1.08119 0.0619741 0)
(-1.06121 0.0613633 0)
(-0.988877 0.162735 0)
(-1.04248 0.305899 0)
(-1.23258 0.420689 0)
(-1.32983 0.432697 0)
(-1.42509 0.297328 0)
(-1.71304 -0.149359 0)
(-1.93519 -0.591542 0)
(-0.0763497 -0.096612 0)
(-0.179864 0.115472 0)
(-0.177256 0.229584 0)
(-0.187847 0.251744 0)
(-0.166654 0.244331 0)
(-0.115217 0.213137 0)
(-0.0701623 0.122215 0)
(-0.102431 -0.0262627 0)
(-0.176012 -0.271903 0)
(-0.253349 -0.516732 0)
(-0.204792 -0.455197 0)
(-0.620076 -0.0485216 0)
(-1.33478 -0.00972149 0)
(-1.34451 -0.118913 0)
(-1.30543 -0.103037 0)
(-1.30816 0.130282 0)
(-1.31578 0.301298 0)
(-1.3098 0.356248 0)
(-1.33536 0.362802 0)
(-1.49445 0.152351 0)
(-1.8095 -0.566285 0)
(-1.68946 -0.79966 0)
(-0.118308 -0.0294758 0)
(-0.248143 0.0540805 0)
(-0.318419 0.0706358 0)
(-0.327408 0.0201985 0)
(-0.295464 -0.0538841 0)
(-0.251007 -0.125022 0)
(-0.226957 -0.214245 0)
(-0.207034 -0.286706 0)
(-0.300198 -0.430084 0)
(-0.544181 -0.524021 0)
(-0.743814 -0.464794 0)
(-1.51969 -0.228981 0)
(-1.56089 -0.198191 0)
(-1.31302 -0.141795 0)
(-1.25056 -0.00486993 0)
(-1.29881 0.18441 0)
(-1.28578 0.261777 0)
(-1.2773 0.282179 0)
(-1.33461 0.254613 0)
(-1.80788 -0.0263553 0)
(-1.90774 -0.904839 0)
(-1.53989 -1.02177 0)
(-0.248235 -0.0647674 0)
(-0.359173 -0.10525 0)
(-0.400652 -0.159507 0)
(-0.382424 -0.239073 0)
(-0.349181 -0.324171 0)
(-0.313686 -0.37849 0)
(-0.31411 -0.494785 0)
(-0.28618 -0.493759 0)
(-0.35793 -0.47623 0)
(-0.92411 0.251446 0)
(-0.998203 0.5318 0)
(-1.9771 -0.0358673 0)
(-1.77782 -0.179282 0)
(-1.41636 -0.127007 0)
(-1.21873 -0.0364942 0)
(-1.17609 0.141104 0)
(-1.19216 0.264806 0)
(-1.20298 0.298157 0)
(-1.39405 0.325237 0)
(-2.30378 0.301362 0)
(-1.62768 -0.716887 0)
(-1.54533 -1.10141 0)
(-0.310878 -0.247134 0)
(-0.439782 -0.264746 0)
(-0.463743 -0.354752 0)
(-0.402794 -0.408729 0)
(-0.348416 -0.42575 0)
(-0.305491 -0.384127 0)
(-0.282597 -0.196596 0)
(-0.460028 0.14031 0)
(-0.655469 0.48898 0)
(-0.74578 0.503831 0)
(-0.682511 0.734582 0)
(-0.713863 0.896916 0)
(-1.94419 0.0188514 0)
(-1.62913 -0.0542161 0)
(-1.31006 -0.028701 0)
(-1.118 0.0455863 0)
(-1.05765 0.175619 0)
(-1.08058 0.303785 0)
(-1.3274 0.618175 0)
(-3.55024 1.85771 0)
(-1.35968 0.404369 0)
(-1.39064 -0.23432 0)
(-1.54361 -0.404414 0)
(-0.298909 -0.238989 0)
(-0.391044 0.0515038 0)
(-0.342745 0.230184 0)
(-0.300698 0.212834 0)
(-0.301331 0.238508 0)
(-0.338246 0.326055 0)
(-0.298171 0.448801 0)
(-0.428164 0.563603 0)
(-0.458128 0.61756 0)
(-0.535682 0.515936 0)
(-0.536755 0.563841 0)
(-0.376977 0.735658 0)
(-0.456524 0.609877 0)
(-1.83214 0.0582958 0)
(-1.42485 0.0280431 0)
(-1.16237 0.0311259 0)
(-1.03747 0.087986 0)
(-0.994631 0.201369 0)
(-1.20394 0.575901 0)
(-3.18653 2.01327 0)
(-1.22189 0.888609 0)
(-1.38559 0.277988 0)
(-1.57166 -0.0738525 0)
(-0.159658 0.824906 0)
(-0.0797874 0.559945 0)
(-0.179021 0.212764 0)
(-0.184561 0.059683 0)
(-0.170091 0.0485922 0)
(-0.16245 0.162212 0)
(-0.169901 0.399367 0)
(-0.190293 0.622003 0)
(-0.22701 0.672383 0)
(-0.244681 0.601655 0)
(-0.26251 0.56183 0)
(-0.1423 0.593855 0)
(-0.0517002 0.628649 0)
(-0.944412 0.290847 0)
(-1.17644 0.124998 0)
(-1.10698 0.0793571 0)
(-1.02361 0.070701 0)
(-0.975367 0.150896 0)
(-1.04825 0.402 0)
(-1.88542 1.26651 0)
(-0.66096 1.2186 0)
(-0.941448 0.631599 0)
(-1.02828 -0.0246464 0)
(0.00692229 0.997668 0)
(0.077104 0.65732 0)
(-0.0108304 0.335113 0)
(-0.047483 0.182379 0)
(-0.118801 0.15645 0)
(-0.129511 0.241571 0)
(-0.114874 0.349925 0)
(-0.0274955 0.585152 0)
(-0.0546658 0.665037 0)
(-0.0404463 0.622215 0)
(-0.0687652 0.500538 0)
(0.018575 0.468467 0)
(0.0548998 0.532461 0)
(0.123291 0.551123 0)
(-0.518309 0.339634 0)
(-0.863288 0.191353 0)
(-0.929436 0.155958 0)
(-0.961563 0.217073 0)
(-1.04519 0.452019 0)
(-1.28356 0.877563 0)
(-0.370284 1.26255 0)
(-0.319224 0.985669 0)
(-0.70319 0.347415 0)
(0.0689085 0.934752 0)
(0.121393 0.647939 0)
(0.0744084 0.377393 0)
(0.0591656 0.222499 0)
(-0.0123615 0.180437 0)
(-0.0406839 0.231766 0)
(-0.0714055 0.331187 0)
(0.019656 0.553719 0)
(0.0428838 0.653684 0)
(0.0771192 0.617504 0)
(0.0896663 0.486305 0)
(0.128391 0.440078 0)
(0.145949 0.485699 0)
(0.214271 0.493461 0)
(0.278303 0.520457 0)
(0.248172 0.538768 0)
(0.14818 0.5057 0)
(-0.0499407 0.559988 0)
(-0.680393 0.771404 0)
(-0.922924 0.830951 0)
(-0.637696 1.06184 0)
(0.159204 1.16044 0)
(-0.145786 0.723606 0)
(0.0518084 0.777499 0)
(0.129919 0.626222 0)
(0.107105 0.398739 0)
(0.094204 0.253171 0)
(0.0308801 0.214547 0)
(0.0146407 0.258072 0)
(-0.0227698 0.295668 0)
(0.022907 0.485833 0)
(0.0905661 0.611815 0)
(0.148492 0.580403 0)
(0.18459 0.473359 0)
(0.187247 0.422188 0)
(0.194032 0.451861 0)
(0.233665 0.456377 0)
(0.270208 0.471944 0)
(0.328524 0.491684 0)
(0.404207 0.545173 0)
(0.461282 0.619073 0)
(0.428712 0.736355 0)
(-0.10463 0.895351 0)
(-0.169336 0.983417 0)
(0.30048 1.20329 0)
(0.596647 1.1403 0)
(0.0181492 0.701338 0)
(0.119739 0.591552 0)
(0.119661 0.406497 0)
(0.121331 0.289443 0)
(0.0655585 0.257605 0)
(0.0443822 0.292245 0)
(0.00611726 0.305098 0)
(0.01976 0.4224 0)
(0.0919507 0.523029 0)
(0.172391 0.520583 0)
(0.202785 0.454308 0)
(0.19281 0.414481 0)
(0.19598 0.429222 0)
(0.220528 0.423011 0)
(0.249428 0.425083 0)
(0.298634 0.434893 0)
(0.360628 0.466476 0)
(0.451383 0.556335 0)
(0.551687 0.65758 0)
(0.598468 0.755266 0)
(0.432593 0.954729 0)
(0.736824 1.14403 0)
(0.999758 1.19289 0)
(0.028845 0.63856 0)
(0.110567 0.541736 0)
(0.128625 0.400121 0)
(0.130904 0.318078 0)
(0.0867229 0.299618 0)
(0.0643375 0.323645 0)
(0.0372872 0.334257 0)
(0.0290782 0.393402 0)
(0.0859561 0.449248 0)
(0.14995 0.467121 0)
(0.188144 0.446565 0)
(0.182185 0.4241 0)
(0.184323 0.420057 0)
(0.202364 0.403522 0)
(0.224162 0.393567 0)
(0.261187 0.39111 0)
(0.309571 0.405417 0)
(0.375817 0.44768 0)
(0.498289 0.554276 0)
(0.608626 0.60299 0)
(0.720589 0.69645 0)
(0.982543 1.05522 0)
(1.10285 1.03844 0)
(0.0460038 0.560344 0)
(0.0977572 0.492548 0)
(0.128545 0.39314 0)
(0.119151 0.338129 0)
(0.0901804 0.324287 0)
(0.0743249 0.338167 0)
(0.0602158 0.345526 0)
(0.055336 0.377418 0)
(0.0845231 0.40445 0)
(0.126658 0.425934 0)
(0.159788 0.429755 0)
(0.170414 0.420514 0)
(0.178303 0.410478 0)
(0.193608 0.387072 0)
(0.208036 0.368006 0)
(0.232266 0.354466 0)
(0.263544 0.354408 0)
(0.306424 0.369653 0)
(0.391198 0.421219 0)
(0.487994 0.437601 0)
(0.595086 0.464198 0)
(0.86319 0.807949 0)
(1.01641 0.898781 0)
(0.0419913 0.493897 0)
(0.0774663 0.45208 0)
(0.110597 0.387723 0)
(0.0989223 0.353388 0)
(0.0857509 0.340998 0)
(0.0792176 0.345816 0)
(0.0755375 0.349739 0)
(0.0782556 0.366184 0)
(0.0952205 0.378209 0)
(0.118375 0.39544 0)
(0.14542 0.407929 0)
(0.165667 0.406795 0)
(0.18472 0.393993 0)
(0.203019 0.371663 0)
(0.215736 0.350366 0)
(0.231284 0.331938 0)
)
;

boundaryField
{
    leftWall
    {
        type            fixedValue;
        value           uniform (0 0 0);
    }
    rightWall
    {
        type            fixedValue;
        value           nonuniform 0();
    }
    lowerWall
    {
        type            fixedValue;
        value           uniform (0 0 0);
    }
    atmosphere
    {
        type            fluxCorrectedVelocity;
        value           nonuniform 0();
    }
    defaultFaces
    {
        type            empty;
    }
    procBoundary0to1
    {
        type            processor;
        value           nonuniform List<vector> 
26
(
(-0.0332614 -0.00232483 0)
(-0.0124777 -0.0164335 0)
(-0.00613777 -0.0180478 0)
(-0.0109396 -0.0277021 0)
(-0.0163815 -0.0238878 0)
(-0.0323318 -0.0367359 0)
(-0.104722 0.0899349 0)
(-0.173629 0.066875 0)
(-0.0254546 -0.214875 0)
(0.0545847 -0.0526962 0)
(-0.452378 -0.0838248 0)
(-1.21864 -0.848416 0)
(-1.74036 -0.851747 0)
(-1.71337 -0.783828 0)
(-1.54649 -0.94394 0)
(-1.34137 -1.11131 0)
(-1.34137 -1.11131 0)
(-1.37889 -0.36999 0)
(-1.63803 -0.172111 0)
(-1.32582 -0.136499 0)
(-0.987161 0.177712 0)
(-0.375107 0.113373 0)
(0.589723 0.861554 0)
(1.06896 1.01882 0)
(1.1498 0.932846 0)
(1.08343 0.865663 0)
)
;
    }
    procBoundary0to2
    {
        type            processor;
        value           nonuniform List<vector> 
24
(
(0.25093 0.321159 0)
(0.275909 0.319431 0)
(0.321657 0.34219 0)
(0.375071 0.339013 0)
(0.433935 0.334902 0)
(0.549758 0.543314 0)
(0.72854 0.706964 0)
(0.0284557 0.445247 0)
(0.0571557 0.420554 0)
(0.0822118 0.379571 0)
(0.0826389 0.358752 0)
(0.0808212 0.347374 0)
(0.0813647 0.34633 0)
(0.0839716 0.347977 0)
(0.0908475 0.356066 0)
(0.104596 0.362348 0)
(0.121193 0.373541 0)
(0.144699 0.381964 0)
(0.168792 0.380027 0)
(0.192852 0.369663 0)
(0.213124 0.353798 0)
(0.228329 0.3353 0)
(0.25093 0.321159 0)
(0.242663 0.316259 0)
)
;
    }
}


// ************************************************************************* //
