/*--------------------------------*- C++ -*----------------------------------*\
| =========                 |                                                 |
| \\      /  F ield         | OpenFOAM: The Open Source CFD Toolbox           |
|  \\    /   O peration     | Version:  2.4.0                                 |
|   \\  /    A nd           | Web:      www.OpenFOAM.org                      |
|    \\/     M anipulation  |                                                 |
\*---------------------------------------------------------------------------*/
FoamFile
{
    version     2.0;
    format      ascii;
    class       volScalarField;
    location    "0.45";
    object      alpha.water;
}
// * * * * * * * * * * * * * * * * * * * * * * * * * * * * * * * * * * * * * //

dimensions      [0 0 0 0 0 0 0];

internalField   nonuniform List<scalar> 
559
(
3.62617e-18
7.60955e-18
1.44188e-17
2.46475e-17
3.64691e-17
4.72311e-17
5.83878e-17
3.93086e-14
5.9263e-14
3.03246e-14
1.90858e-14
1.20713e-14
1.59712e-14
3.25704e-14
5.21606e-14
6.04861e-14
5.47481e-14
4.38965e-14
2.76128e-14
1.12823e-14
2.72929e-15
2.4419e-16
8.15158e-20
2.22353e-19
5.48253e-19
1.24094e-18
2.59957e-18
4.92166e-18
8.17625e-18
1.23671e-17
2.60442e-21
9.37181e-20
1.70172e-18
1.77009e-17
1.11043e-16
4.37576e-16
1.09789e-15
1.74348e-15
1.69502e-15
9.79237e-16
3.71132e-16
1.20766e-16
2.22164e-17
1.96617e-18
1.99906e-21
6.94925e-21
2.12079e-20
5.86816e-20
1.50084e-19
3.51126e-19
7.37569e-19
1.35751e-18
2.25389e-18
2.85941e-37
3.38403e-35
1.64367e-33
4.5022e-32
8.40889e-31
1.17131e-29
1.27607e-28
1.13298e-27
8.44979e-27
5.49451e-26
3.24274e-25
1.76342e-24
8.90701e-24
4.14841e-23
1.76379e-22
6.72261e-22
2.3341e-21
7.37938e-21
2.09673e-20
5.26772e-20
1.15352e-19
2.19638e-19
3.81158e-19
1.53688e-38
1.26862e-36
5.11966e-35
1.34186e-33
2.55055e-32
3.74496e-31
4.44489e-30
4.39954e-29
3.76739e-28
2.89719e-27
1.98141e-26
1.22805e-25
6.92503e-25
3.49403e-24
1.56343e-23
6.27548e-23
2.29381e-22
7.5811e-22
2.2209e-21
5.79087e-21
1.34479e-20
2.80475e-20
5.39329e-20
1.7994e-40
1.86095e-38
8.95802e-37
2.66651e-35
5.54507e-34
8.73604e-33
1.11261e-31
1.20009e-30
1.142e-29
9.78039e-29
7.66034e-28
5.44001e-27
3.42923e-26
1.95004e-25
9.90616e-25
4.49412e-24
1.80564e-23
6.34286e-23
1.9822e-22
5.6116e-22
1.42238e-21
3.29429e-21
7.12031e-21
6.24967e-42
5.59444e-40
2.43187e-38
6.84834e-37
1.42386e-35
2.35546e-34
3.25641e-33
3.9073e-32
4.19663e-31
4.11231e-30
3.61849e-29
2.74598e-28
1.82526e-27
1.0801e-26
5.67936e-26
2.65929e-25
1.11405e-24
4.24617e-24
1.47829e-23
4.63572e-23
1.31894e-22
3.46785e-22
8.40521e-22
3.76031e-44
3.9551e-42
2.02811e-40
6.73895e-39
1.66322e-37
3.29229e-36
5.47892e-35
7.86471e-34
9.79574e-33
1.04839e-31
9.71999e-31
8.06221e-30
6.05145e-29
4.01257e-28
2.36972e-27
1.26564e-26
6.12685e-26
2.66163e-25
1.02228e-24
3.52854e-24
1.12881e-23
3.33335e-23
8.8605e-23
4.51838e-46
5.21635e-44
2.95727e-42
1.09669e-40
2.99996e-39
6.44908e-38
1.13462e-36
1.68926e-35
2.18092e-34
2.49255e-33
2.56818e-32
2.40124e-31
2.00816e-30
1.50567e-29
1.00164e-28
5.78226e-28
2.96673e-27
1.38246e-26
5.9399e-26
2.36218e-25
8.5847e-25
2.80675e-24
8.19604e-24
2.81754e-48
3.46847e-46
2.1029e-44
8.43145e-43
2.55332e-41
6.29396e-40
1.31517e-38
2.36939e-37
3.71014e-36
5.06829e-35
6.00521e-34
6.13394e-33
5.43847e-32
4.26943e-31
3.02326e-30
1.98962e-29
1.20732e-28
6.64891e-28
3.29332e-27
1.4527e-26
5.75471e-26
2.07571e-25
6.72431e-25
1.81365e-50
2.57197e-48
1.80085e-46
8.33343e-45
2.86965e-43
7.81825e-42
1.75331e-40
3.32463e-39
5.42172e-38
7.71782e-37
9.79232e-36
1.12972e-34
1.19015e-33
1.13269e-32
9.69117e-32
7.32453e-31
4.85218e-30
2.86708e-29
1.53515e-28
7.55352e-28
3.39541e-27
1.36604e-26
4.87516e-26
6.51744e-53
1.05018e-50
8.43391e-49
4.51954e-47
1.82414e-45
5.90759e-44
1.59058e-42
3.6363e-41
7.16493e-40
1.22936e-38
1.84147e-37
2.40271e-36
2.74221e-35
2.76828e-34
2.49473e-33
2.0363e-32
1.52687e-31
1.04595e-30
6.48791e-30
3.59923e-29
1.78154e-28
7.93402e-28
3.15716e-27
2.79316e-55
5.19171e-53
4.7593e-51
2.89132e-49
1.30921e-47
4.70521e-46
1.39415e-44
3.48974e-43
7.50023e-42
1.40094e-40
2.30235e-39
3.3735e-38
4.44665e-37
5.2808e-36
5.64755e-35
5.41904e-34
4.62966e-33
3.52062e-32
2.40064e-31
1.48046e-30
8.25159e-30
4.11796e-29
1.82869e-28
6.95153e-58
1.50699e-55
1.62426e-53
1.16614e-51
6.25802e-50
2.66569e-48
9.3364e-47
2.75179e-45
6.94257e-44
1.5188e-42
2.90774e-41
4.90138e-40
7.30438e-39
9.66814e-38
1.1426e-36
1.2115e-35
1.15856e-34
1.00138e-33
7.79733e-33
5.4433e-32
3.40162e-31
1.90338e-30
9.49901e-30
1.60522e-60
4.10901e-58
5.17164e-56
4.31341e-54
2.67336e-52
1.31008e-50
5.26964e-49
1.78252e-47
5.15643e-46
1.2906e-44
2.8188e-43
5.42261e-42
9.27381e-41
1.41648e-39
1.93488e-38
2.36585e-37
2.58943e-36
2.53673e-35
2.22775e-34
1.7564e-33
1.24197e-32
7.85416e-32
4.43079e-31
2.48403e-63
7.61341e-61
1.13944e-58
1.12807e-56
8.2874e-55
4.80614e-53
2.28238e-51
9.0818e-50
3.0788e-48
9.01113e-47
2.30092e-45
5.15985e-44
1.02118e-42
1.79268e-41
2.80436e-40
3.92058e-39
4.90807e-38
5.50777e-37
5.53775e-36
4.98303e-35
4.00963e-34
2.88387e-33
1.85442e-32
2.54944e-66
9.76417e-64
1.77619e-61
2.12047e-59
1.86881e-57
1.29643e-55
7.35521e-54
3.49218e-52
1.4098e-50
4.89476e-49
1.47435e-47
3.88323e-46
9.00659e-45
1.84892e-43
3.37163e-42
5.47623e-41
7.93776e-40
1.02784e-38
1.18949e-37
1.23018e-36
1.13648e-35
9.38075e-35
6.94759e-34
1.61542e-69
8.18802e-67
1.84697e-64
2.67155e-62
2.81481e-60
2.31437e-58
1.5546e-56
8.82992e-55
4.32207e-53
1.83763e-51
6.79891e-50
2.18898e-48
6.14321e-47
1.50957e-45
3.26542e-44
6.25121e-43
1.06289e-41
1.60893e-40
2.17043e-39
2.60986e-38
2.79796e-37
2.67978e-36
2.31786e-35
5.41008e-73
4.50941e-70
1.31387e-67
2.32184e-65
2.93669e-63
2.883e-61
2.30902e-59
1.56224e-57
9.12474e-56
4.65866e-54
2.09432e-52
8.30755e-51
2.90279e-49
8.89916e-48
2.3809e-46
5.56145e-45
1.13875e-43
2.05502e-42
3.28481e-41
4.6613e-40
5.88216e-39
6.63177e-38
6.81895e-37
1.65754e-76
2.67383e-73
1.00299e-70
2.12223e-68
3.15457e-66
3.61223e-64
3.3559e-62
2.61917e-60
1.75993e-58
1.03612e-56
5.39988e-55
2.49919e-53
1.02657e-51
3.74356e-50
1.21658e-48
3.51539e-47
8.98346e-46
2.01297e-44
3.93962e-43
6.76337e-42
1.02585e-40
1.38918e-39
1.73991e-38
2.99349e-79
5.94502e-76
2.45393e-73
5.50605e-71
8.5172e-69
1.00339e-66
9.48845e-65
7.46203e-63
5.02087e-61
2.96369e-59
1.56884e-57
7.57449e-56
3.36307e-54
1.37144e-52
5.10699e-51
1.71983e-49
5.19942e-48
1.41197e-46
3.43553e-45
7.41777e-44
1.40844e-42
2.36705e-41
3.72883e-40
6.71668e-81
9.44322e-78
3.36124e-75
6.67354e-73
9.15546e-71
9.5703e-69
8.07311e-67
5.70081e-65
3.46322e-63
1.84908e-61
8.84408e-60
3.86283e-58
1.56829e-56
6.00495e-55
2.1871e-53
7.61146e-52
2.52197e-50
7.84777e-49
2.25312e-47
5.89496e-46
1.40149e-44
3.05435e-43
6.58054e-42
3.27188e-82
3.00425e-79
8.85154e-77
1.52632e-74
1.84472e-72
1.71011e-70
1.28691e-68
8.1559e-67
4.47058e-65
2.16467e-63
9.41116e-62
3.72531e-60
1.36139e-58
4.65533e-57
1.50886e-55
4.70027e-54
1.42746e-52
4.27622e-51
1.27184e-49
3.73378e-48
1.0611e-46
2.89215e-45
8.31996e-44
4.38781e-84
3.10177e-81
8.42859e-79
1.39698e-76
1.65094e-74
1.50809e-72
1.12038e-70
7.01642e-69
3.80279e-67
1.8201e-65
7.82199e-64
3.06068e-62
1.10442e-60
3.72086e-59
1.18332e-57
3.59268e-56
1.05355e-54
3.02041e-53
8.57874e-52
2.45735e-50
7.38875e-49
2.67946e-47
1.64874e-45
1.01288e-86
7.37482e-84
2.06227e-81
3.50307e-79
4.22434e-77
3.92361e-75
2.95168e-73
1.86363e-71
1.01448e-69
4.86445e-68
2.09175e-66
8.19331e-65
2.96474e-63
1.00513e-61
3.24365e-60
1.011e-58
3.08498e-57
9.34211e-56
2.84721e-54
8.86761e-53
2.88828e-51
1.0545e-49
5.4296e-48
)
;

boundaryField
{
    leftWall
    {
        type            zeroGradient;
    }
    rightWall
    {
        type            zeroGradient;
    }
    lowerWall
    {
        type            zeroGradient;
    }
    atmosphere
    {
        type            inletOutlet;
        inletValue      uniform 0;
        value           uniform 0;
    }
    defaultFaces
    {
        type            empty;
    }
    procBoundary2to0
    {
        type            processor;
        value           nonuniform List<scalar> 
24
(
8.18951e-17
1.57694e-16
2.71901e-16
3.99957e-16
4.69141e-16
4.38943e-16
3.4936e-16
5.91573e-13
7.86605e-13
3.99859e-13
2.60315e-13
1.94884e-13
2.015e-13
2.88282e-13
3.94208e-13
4.31829e-13
3.90713e-13
3.07197e-13
1.81094e-13
6.97845e-14
1.62928e-14
1.45611e-15
1.58426e-18
1.58426e-18
)
;
    }
    procBoundary2to3
    {
        type            processor;
        value           nonuniform List<scalar> 
25
(
7.3545e-17
1.75291e-17
3.45958e-18
6.19677e-19
9.67461e-20
1.41046e-20
1.8233e-21
2.08369e-22
2.117e-23
1.90422e-24
1.5309e-25
1.10331e-26
7.15949e-28
4.19343e-29
2.22588e-30
1.07469e-31
4.73697e-33
1.91135e-34
7.03344e-36
2.34136e-37
6.82594e-39
1.8876e-40
3.60432e-42
1.87735e-43
5.38388e-46
)
;
    }
}


// ************************************************************************* //
