/*--------------------------------*- C++ -*----------------------------------*\
| =========                 |                                                 |
| \\      /  F ield         | OpenFOAM: The Open Source CFD Toolbox           |
|  \\    /   O peration     | Version:  2.4.0                                 |
|   \\  /    A nd           | Web:      www.OpenFOAM.org                      |
|    \\/     M anipulation  |                                                 |
\*---------------------------------------------------------------------------*/
FoamFile
{
    version     2.0;
    format      ascii;
    class       volScalarField;
    location    "0.45";
    object      alpha.oil;
}
// * * * * * * * * * * * * * * * * * * * * * * * * * * * * * * * * * * * * * //

dimensions      [0 0 0 0 0 0 0];

internalField   nonuniform List<scalar> 
559
(
1.19746e-07
8.74808e-08
5.31857e-08
2.66426e-08
1.02005e-08
3.23554e-09
1.41113e-09
5.17345e-17
1.25833e-15
1.26748e-14
6.31965e-14
2.04387e-13
7.40106e-13
3.49479e-12
1.44772e-11
4.63603e-11
1.31895e-10
2.36304e-10
6.39537e-10
1.39289e-08
5.05453e-08
8.70957e-08
1.03207e-07
9.49589e-08
7.28496e-08
4.604e-08
2.41863e-08
1.00887e-08
3.23521e-09
8.81518e-10
8.90627e-18
1.80721e-16
1.70844e-15
9.17507e-15
4.31106e-14
2.54085e-13
1.43485e-12
6.26967e-12
2.05077e-11
4.94789e-11
7.31026e-11
1.05445e-10
3.88e-09
2.00982e-08
3.31979e-08
5.85083e-08
5.69248e-08
4.67895e-08
3.13489e-08
1.74962e-08
7.78661e-09
2.58495e-09
6.57152e-10
1.03922e-20
8.66806e-19
2.98503e-17
5.62663e-16
6.85371e-15
5.82411e-14
3.57217e-13
1.61339e-12
5.27705e-12
1.17562e-11
1.66348e-11
2.1715e-11
3.78326e-10
3.1752e-09
1.42072e-08
1.76577e-08
2.51875e-08
2.16123e-08
1.519e-08
9.00656e-09
4.306e-09
1.48456e-09
3.7436e-10
1.59495e-21
1.00654e-19
3.0172e-18
5.56005e-17
6.96752e-16
6.21402e-15
4.03006e-14
1.90522e-13
6.57491e-13
1.68e-12
3.29438e-12
6.27137e-12
1.69375e-11
3.41937e-10
1.24831e-09
5.73805e-09
7.47489e-09
7.41238e-09
4.48349e-09
2.67336e-09
1.46394e-09
5.97844e-10
1.57354e-10
2.22001e-23
1.7801e-21
6.6432e-20
1.50506e-18
2.29601e-17
2.50027e-16
2.023e-15
1.24383e-14
5.92183e-14
2.19715e-13
6.44083e-13
1.53622e-12
3.38742e-12
9.91287e-12
5.56944e-11
4.04471e-10
1.41221e-09
1.49946e-09
1.00644e-09
4.48012e-10
2.46076e-10
1.07395e-10
3.72403e-11
5.10224e-24
3.5638e-22
1.19869e-20
2.53585e-19
3.78005e-18
4.19389e-17
3.56337e-16
2.36346e-15
1.24624e-14
5.32807e-14
1.85577e-13
5.24437e-13
1.30364e-12
3.42795e-12
1.08368e-11
3.33216e-11
9.85236e-11
1.80415e-10
1.49847e-10
6.92717e-11
2.73415e-11
1.33728e-11
7.34178e-12
3.87756e-25
2.84299e-23
9.98972e-22
2.18768e-20
3.38286e-19
3.94811e-18
3.62237e-17
2.67956e-16
1.61737e-15
7.94926e-15
3.19772e-14
1.07583e-13
3.08821e-13
7.50918e-13
1.56703e-12
2.90299e-12
5.29135e-12
1.17585e-11
1.57583e-11
1.62221e-11
1.04467e-11
4.69971e-12
1.9693e-12
3.83173e-26
2.93784e-24
1.08643e-22
2.5217e-21
4.12064e-20
5.02187e-19
4.7265e-18
3.53272e-17
2.1414e-16
1.0728e-15
4.53611e-15
1.64499e-14
5.1122e-14
1.37434e-13
3.22137e-13
6.52233e-13
1.15117e-12
1.74294e-12
2.14993e-12
2.0547e-12
1.50244e-12
8.21589e-13
3.59942e-13
4.43751e-28
3.57976e-26
1.39319e-24
3.42329e-23
6.0167e-22
8.10592e-21
8.71713e-20
7.64935e-19
5.55802e-18
3.37849e-17
1.71838e-16
7.28966e-16
2.58437e-15
7.75272e-15
1.97935e-14
4.37245e-14
8.33691e-14
1.34485e-13
1.79019e-13
1.90838e-13
1.58696e-13
1.01049e-13
5.18012e-14
4.0384e-30
3.59666e-28
1.54604e-26
4.20702e-25
8.15412e-24
1.19712e-22
1.38514e-21
1.29778e-20
1.00128e-19
6.442e-19
3.51343e-18
1.65257e-17
6.74745e-17
2.38039e-16
7.24658e-16
1.87932e-15
4.08653e-15
7.43668e-15
1.12359e-14
1.38841e-14
1.35917e-14
1.01991e-14
6.18778e-15
1.94513e-32
1.90912e-30
9.1131e-29
2.77442e-27
6.07112e-26
1.017e-24
1.35329e-23
1.4648e-22
1.31317e-21
9.89257e-21
6.31106e-20
3.41281e-19
1.56807e-18
6.15617e-18
2.06962e-17
5.97568e-17
1.4865e-16
3.1523e-16
5.59095e-16
8.07155e-16
9.24985e-16
8.29569e-16
6.10882e-16
8.64607e-35
9.45331e-33
4.99222e-31
1.68019e-29
4.05541e-28
7.48316e-27
1.09819e-25
1.31567e-24
1.30934e-23
1.0954e-22
7.78094e-22
4.74052e-21
2.4971e-20
1.13922e-19
4.49496e-19
1.52706e-18
4.42342e-18
1.08186e-17
2.21378e-17
3.73918e-17
5.09925e-17
5.52768e-17
5.02123e-17
2.22883e-37
2.74433e-35
1.6458e-33
6.33015e-32
1.75494e-30
3.73102e-29
6.3136e-28
8.71709e-27
1.00003e-25
9.6665e-25
7.95428e-24
5.60746e-23
3.39645e-22
1.77192e-21
7.97652e-21
3.09628e-20
1.03395e-19
2.95186e-19
7.11435e-19
1.42265e-18
2.32015e-18
3.07171e-18
3.48867e-18
4.47717e-40
6.31986e-38
4.31851e-36
1.89331e-34
5.97987e-33
1.44954e-31
2.80312e-30
4.43597e-29
5.84776e-28
6.50065e-27
6.14618e-26
4.98303e-25
3.49072e-24
2.11967e-23
1.11535e-22
5.07637e-22
1.99e-21
6.67299e-21
1.89738e-20
4.52204e-20
8.91865e-20
1.45611e-19
2.08158e-19
5.87444e-43
9.63195e-41
7.63425e-39
3.88786e-37
1.42859e-35
4.0348e-34
9.10043e-33
1.67977e-31
2.58241e-30
3.35217e-29
3.71304e-28
3.53348e-27
2.9016e-26
2.0632e-25
1.27303e-24
6.81348e-24
3.155e-23
1.25756e-22
4.27909e-22
1.22989e-21
2.95943e-21
5.99905e-21
1.08167e-20
4.87708e-46
9.68012e-44
9.11072e-42
5.492e-40
2.38542e-38
7.96712e-37
2.12861e-35
4.66147e-34
8.51159e-33
1.31212e-31
1.72382e-30
1.94532e-29
1.89777e-28
1.60689e-27
1.18303e-26
7.57289e-26
4.20624e-25
2.018e-24
8.30564e-24
2.90822e-23
8.61289e-23
2.17798e-22
4.94588e-22
2.44847e-49
6.19554e-47
7.10519e-45
5.14881e-43
2.67007e-41
1.05974e-39
3.36159e-38
8.80228e-37
1.94145e-35
3.64766e-34
5.87104e-33
8.1214e-32
9.68562e-31
9.99732e-30
8.9597e-29
6.98368e-28
4.72991e-27
2.77387e-26
1.40017e-25
6.04032e-25
2.21887e-24
7.02031e-24
2.00205e-23
6.37265e-53
2.45662e-50
3.5991e-48
3.1985e-46
2.00665e-44
9.58537e-43
3.65703e-41
1.15402e-39
3.0824e-38
7.06748e-37
1.40327e-35
2.42244e-34
3.63948e-33
4.75386e-32
5.37933e-31
5.26715e-30
4.45948e-29
3.25952e-28
2.0495e-27
1.10258e-26
5.065e-26
2.01103e-25
7.18498e-25
1.07303e-56
7.71943e-54
1.47209e-51
1.59219e-49
1.19806e-47
6.854e-46
3.13793e-44
1.19069e-42
3.83665e-41
1.06829e-39
2.59853e-38
5.54427e-37
1.03736e-35
1.70149e-34
2.45032e-33
3.08737e-32
3.38119e-31
3.18569e-30
2.55921e-29
1.74679e-28
1.01464e-27
5.08168e-27
2.27471e-26
3.56745e-60
3.8843e-57
8.94271e-55
1.12136e-52
9.67749e-51
6.33411e-49
3.30598e-47
1.42202e-45
5.17095e-44
1.6257e-42
4.50698e-41
1.11846e-39
2.50268e-38
5.04249e-37
9.09681e-36
1.45349e-34
2.03334e-33
2.47293e-32
2.59126e-31
2.31049e-30
1.73857e-29
1.11271e-28
6.27213e-28
9.09005e-63
8.35152e-60
1.91966e-57
2.44767e-55
2.1451e-53
1.4232e-51
7.56115e-50
3.33334e-48
1.25227e-46
4.0916e-45
1.18313e-43
3.07838e-42
7.30858e-41
1.59874e-39
3.23239e-38
6.03342e-37
1.03045e-35
1.58058e-34
2.12671e-33
2.45989e-32
2.41985e-31
2.02349e-30
1.46439e-29
8.10618e-65
5.24513e-62
1.08219e-59
1.30145e-57
1.0934e-55
7.02371e-54
3.65031e-52
1.59142e-50
5.97123e-49
1.96681e-47
5.77119e-46
1.52646e-44
3.67925e-43
8.15655e-42
1.67509e-40
3.20766e-39
5.75509e-38
9.67845e-37
1.51622e-35
2.17373e-34
2.76748e-33
3.03291e-32
2.82464e-31
4.36165e-67
2.26656e-64
4.52673e-62
5.51079e-60
4.78e-58
3.20104e-56
1.74018e-54
7.95181e-53
3.13169e-51
1.08298e-49
3.33719e-48
9.27052e-47
2.34497e-45
5.4502e-44
1.17196e-42
2.34599e-41
4.39364e-40
7.72313e-39
1.27498e-37
1.97029e-36
2.82398e-35
3.68916e-34
4.30877e-33
1.03309e-69
5.9167e-67
1.30116e-64
1.7362e-62
1.64162e-60
1.19229e-58
6.98725e-57
3.41946e-55
1.43339e-53
5.24866e-52
1.70545e-50
4.98165e-49
1.32242e-47
3.22318e-46
7.29364e-45
1.5459e-43
3.08916e-42
5.84877e-41
1.05231e-39
1.79865e-38
2.90368e-37
4.3706e-36
6.0032e-35
)
;

boundaryField
{
    leftWall
    {
        type            zeroGradient;
    }
    rightWall
    {
        type            zeroGradient;
    }
    lowerWall
    {
        type            zeroGradient;
    }
    atmosphere
    {
        type            inletOutlet;
        inletValue      uniform 0;
        value           uniform 0;
    }
    defaultFaces
    {
        type            empty;
    }
    procBoundary2to0
    {
        type            processor;
        value           nonuniform List<scalar> 
24
(
1.17229e-07
8.35659e-08
5.05255e-08
1.80528e-08
7.09927e-09
3.30828e-09
2.07811e-09
1.13242e-16
4.1681e-15
5.35245e-14
2.9104e-13
8.18896e-13
2.0404e-12
7.36953e-12
2.73233e-11
7.59015e-11
2.2481e-10
3.63227e-10
2.81055e-09
2.17682e-08
6.26657e-08
1.13061e-07
1.3709e-07
1.3709e-07
)
;
    }
    procBoundary2to3
    {
        type            processor;
        value           nonuniform List<scalar> 
25
(
7.57441e-10
3.16165e-10
1.61264e-10
9.84954e-11
4.30814e-11
1.469e-11
4.09965e-12
9.54385e-13
1.85736e-13
3.02063e-14
4.14122e-15
4.81617e-16
4.78477e-17
4.0855e-18
3.02006e-19
1.94771e-20
1.10341e-21
5.51944e-23
2.44298e-24
9.54253e-26
3.2583e-27
9.52403e-29
2.30938e-30
4.49105e-32
7.38277e-34
)
;
    }
}


// ************************************************************************* //
