/*--------------------------------*- C++ -*----------------------------------*\
| =========                 |                                                 |
| \\      /  F ield         | OpenFOAM: The Open Source CFD Toolbox           |
|  \\    /   O peration     | Version:  2.4.0                                 |
|   \\  /    A nd           | Web:      www.OpenFOAM.org                      |
|    \\/     M anipulation  |                                                 |
\*---------------------------------------------------------------------------*/
FoamFile
{
    version     2.0;
    format      ascii;
    class       volScalarField;
    location    "0.45";
    object      p;
}
// * * * * * * * * * * * * * * * * * * * * * * * * * * * * * * * * * * * * * //

dimensions      [1 -1 -2 0 0 0 0];

internalField   nonuniform List<scalar> 
559
(
3.20235
3.19255
3.18339
3.1742
3.16459
3.15426
3.14267
3.14465
3.14418
3.14328
3.14196
3.14022
3.13803
3.13537
3.13215
3.1283
3.12375
3.11838
3.11223
3.10533
3.09779
3.08953
3.08107
3.07237
3.06363
3.05494
3.04606
3.03691
3.02732
3.01687
3.00786
3.00744
3.00661
3.00532
3.00361
3.00146
2.99888
2.9958
2.99221
2.98804
2.98323
2.97775
2.97159
2.96478
2.95753
2.95009
2.94233
2.93451
2.9266
2.91835
2.91003
2.90122
2.89181
2.87145
2.87105
2.87027
2.86908
2.86748
2.86546
2.86301
2.86013
2.85676
2.85287
2.84843
2.84347
2.83805
2.83212
2.82585
2.81919
2.81232
2.80535
2.79825
2.79087
2.78336
2.77554
2.76763
2.73542
2.73503
2.73429
2.73318
2.7317
2.72983
2.72755
2.72484
2.7217
2.71811
2.71406
2.70961
2.70477
2.69951
2.69399
2.68815
2.68213
2.67598
2.66954
2.66305
2.65635
2.64966
2.64306
2.59978
2.59943
2.59873
2.59768
2.59628
2.59452
2.5924
2.58993
2.58707
2.58384
2.58029
2.57635
2.57198
2.56733
2.56242
2.55729
2.55202
2.54658
2.54096
2.53539
2.52966
2.52401
2.51849
2.46445
2.46413
2.46348
2.46251
2.46122
2.45961
2.45767
2.45541
2.45283
2.44993
2.4467
2.44316
2.43932
2.43527
2.43093
2.42643
2.4218
2.41702
2.41233
2.40747
2.40268
2.39799
2.39362
2.32942
2.32913
2.32855
2.32767
2.32651
2.32504
2.32327
2.32121
2.31886
2.31621
2.31328
2.31014
2.3068
2.30321
2.29949
2.29563
2.29159
2.28751
2.28346
2.27936
2.2754
2.27162
2.26815
2.1947
2.19443
2.1939
2.1931
2.19204
2.19071
2.18912
2.18727
2.18517
2.18283
2.18028
2.17751
2.17454
2.17141
2.16817
2.16478
2.16132
2.15788
2.15446
2.15119
2.14795
2.14493
2.14223
2.06021
2.05997
2.05949
2.05876
2.05781
2.05662
2.05521
2.05356
2.0517
2.04963
2.04736
2.04492
2.04234
2.03964
2.03681
2.03397
2.03111
2.02819
2.02535
2.02262
2.02003
2.01773
2.01576
1.92596
1.92574
1.92532
1.92467
1.92382
1.92276
1.92149
1.92003
1.91838
1.91656
1.91458
1.91246
1.91023
1.90791
1.90554
1.90313
1.90067
1.89827
1.89593
1.89376
1.89182
1.8901
1.88873
1.79193
1.79173
1.79135
1.79078
1.79002
1.78907
1.78795
1.78667
1.78523
1.78366
1.78195
1.78012
1.77819
1.7762
1.77416
1.77211
1.77011
1.76819
1.76636
1.76468
1.76321
1.76202
1.76117
1.65807
1.6579
1.65756
1.65706
1.65639
1.65557
1.65459
1.65347
1.65222
1.65085
1.64937
1.64781
1.64618
1.64451
1.64282
1.64114
1.6395
1.63794
1.63652
1.63528
1.63425
1.63349
1.63308
1.52438
1.52423
1.52394
1.52349
1.52291
1.52219
1.52134
1.52037
1.51929
1.51811
1.51686
1.51554
1.51417
1.51277
1.51137
1.51001
1.50871
1.50752
1.50646
1.50557
1.50491
1.50453
1.50448
1.39083
1.39071
1.39045
1.39007
1.38956
1.38894
1.38821
1.38738
1.38646
1.38545
1.38439
1.38328
1.38215
1.38101
1.37988
1.3788
1.37779
1.37689
1.37614
1.37557
1.37522
1.37514
1.37538
1.2574
1.25729
1.25707
1.25674
1.2563
1.25577
1.25515
1.25444
1.25366
1.25283
1.25195
1.25103
1.25011
1.2492
1.24831
1.24747
1.24672
1.24608
1.24558
1.24527
1.24517
1.24534
1.24582
1.12409
1.12399
1.1238
1.12352
1.12315
1.1227
1.12217
1.12157
1.12092
1.12023
1.1195
1.11876
1.11803
1.11731
1.11663
1.11601
1.11548
1.11506
1.11478
1.11468
1.11479
1.11515
1.11581
0.990867
0.99079
0.990633
0.990393
0.990082
0.989703
0.989266
0.988777
0.988247
0.987685
0.987105
0.986518
0.98594
0.98538
0.984864
0.984426
0.984082
0.983848
0.983752
0.983823
0.984093
0.984597
0.985374
0.857743
0.857675
0.857544
0.857338
0.857077
0.856761
0.856399
0.856
0.855574
0.855129
0.854672
0.854215
0.853768
0.853358
0.85301
0.852734
0.852541
0.852452
0.852499
0.852707
0.853096
0.8537
0.854551
0.724683
0.724621
0.724512
0.724336
0.724117
0.723852
0.723551
0.72322
0.722871
0.722513
0.722159
0.721828
0.721526
0.721266
0.721052
0.720897
0.720832
0.720876
0.721049
0.721355
0.721826
0.72249
0.72337
0.591638
0.59158
0.59149
0.591342
0.591162
0.59095
0.590712
0.590455
0.590185
0.589912
0.589648
0.589405
0.589198
0.589044
0.588959
0.588936
0.58899
0.589133
0.589385
0.589775
0.590312
0.591005
0.591878
0.458627
0.458559
0.458483
0.458365
0.458226
0.458067
0.457893
0.457713
0.457529
0.457343
0.457167
0.45701
0.456885
0.456805
0.456785
0.456857
0.457016
0.457262
0.457587
0.458008
0.458557
0.459269
0.460105
0.325764
0.325678
0.325613
0.325522
0.325419
0.325302
0.325177
0.325045
0.324919
0.324808
0.324714
0.324644
0.324605
0.324606
0.324657
0.324766
0.324947
0.325219
0.325593
0.326079
0.326662
0.327314
0.328065
0.193101
0.193044
0.192992
0.192921
0.192841
0.192751
0.192655
0.192557
0.192464
0.192384
0.192323
0.192289
0.192287
0.192327
0.192419
0.192574
0.192804
0.193116
0.193512
0.193984
0.194527
0.195144
0.195855
0.060386
0.0603734
0.0603403
0.0602849
0.0602182
0.0601426
0.0600625
0.0599845
0.0599158
0.059865
0.0598403
0.0598494
0.0598998
0.0599997
0.0601548
0.0603641
0.0606313
0.0609605
0.0613549
0.0618158
0.0623454
0.0629391
0.0635796
)
;

boundaryField
{
    leftWall
    {
        type            fixedFluxPressure;
        gradient        uniform 0;
        value           nonuniform List<scalar> 
24
(
3.14465
3.00786
2.87145
2.73542
2.59978
2.46445
2.32942
2.1947
2.06021
1.92596
1.79193
1.65807
1.52438
1.39083
1.2574
1.12409
0.990867
0.857743
0.724683
0.591638
0.458627
0.325764
0.193101
0.060386
)
;
    }
    rightWall
    {
        type            fixedFluxPressure;
        gradient        nonuniform 0();
        value           nonuniform 0();
    }
    lowerWall
    {
        type            fixedFluxPressure;
        gradient        nonuniform 0();
        value           nonuniform 0();
    }
    atmosphere
    {
        type            totalPressure;
        U               U.air;
        phi             phi.air;
        rho             rho;
        psi             none;
        gamma           1;
        p0              uniform 0;
        value           nonuniform List<scalar> 
23
(
-0.00637834
-0.00666225
-0.00668073
-0.00670735
-0.00673105
-0.006752
-0.00676585
-0.00676799
-0.00675332
-0.00671627
-0.0066515
-0.006554
-0.00641864
-0.00623899
-0.00600872
-0.00572586
-0.00538974
-0.00500028
-0.00455926
-0.00407154
-0.00354307
-0.00298352
-0.00241041
)
;
    }
    defaultFaces
    {
        type            empty;
    }
    procBoundary2to0
    {
        type            processor;
        value           nonuniform List<scalar> 
24
(
3.33125
3.32055
3.31103
3.302
3.29237
3.28151
3.26941
3.28187
3.28132
3.28035
3.27901
3.27727
3.2751
3.27235
3.269
3.26497
3.26031
3.25451
3.24785
3.24028
3.23193
3.22239
3.21233
3.21233
)
;
    }
    procBoundary2to3
    {
        type            processor;
        value           nonuniform List<scalar> 
25
(
3.13289
3.00841
2.8845
2.7615
2.63814
2.51455
2.39057
2.26585
2.14058
2.01464
1.88806
1.76087
1.63309
1.50474
1.37585
1.24644
1.11654
0.98618
0.855387
0.724202
0.592668
0.460827
0.32872
0.196415
0.0640434
)
;
    }
}


// ************************************************************************* //
