/*--------------------------------*- C++ -*----------------------------------*\
| =========                 |                                                 |
| \\      /  F ield         | OpenFOAM: The Open Source CFD Toolbox           |
|  \\    /   O peration     | Version:  2.4.0                                 |
|   \\  /    A nd           | Web:      www.OpenFOAM.org                      |
|    \\/     M anipulation  |                                                 |
\*---------------------------------------------------------------------------*/
FoamFile
{
    version     2.0;
    format      ascii;
    class       surfaceScalarField;
    location    "0.45";
    object      phi.mercury;
}
// * * * * * * * * * * * * * * * * * * * * * * * * * * * * * * * * * * * * * //

dimensions      [0 3 -1 0 0 0 0];

internalField   nonuniform List<scalar> 
1070
(
-1.53942e-05
-3.91026e-05
-1.79177e-05
-3.84639e-05
-1.932e-05
-3.73272e-05
-2.06374e-05
-3.51472e-05
-2.28187e-05
-3.3705e-05
-2.51138e-05
-3.36914e-05
-3.35153e-05
-2.76436e-07
-2.77167e-05
-5.27219e-07
-3.10645e-05
-7.97324e-07
-3.11856e-05
-1.16634e-06
-3.1367e-05
-1.66405e-06
-3.14286e-05
-2.16985e-06
-3.15738e-05
-2.64374e-06
-3.16889e-05
-3.07389e-06
-3.18488e-05
-3.34468e-06
-3.20168e-05
-3.30496e-06
-3.23466e-05
-3.30342e-06
-3.28255e-05
-3.72468e-06
-3.3625e-05
-5.02612e-06
-3.4339e-05
-6.70761e-06
-3.52456e-05
-8.90521e-06
-3.60799e-05
-1.19989e-05
-3.60588e-05
-1.5011e-05
-3.60899e-05
-1.74861e-05
-3.59885e-05
-1.95783e-05
-3.52345e-05
-2.14786e-05
-3.32465e-05
-2.38514e-05
-3.13317e-05
-2.60255e-05
-3.15165e-05
-3.19275e-05
-2.1216e-07
-2.7504e-05
-5.53062e-07
-3.07231e-05
-1.01935e-06
-3.07189e-05
-1.59819e-06
-3.07877e-05
-2.18988e-06
-3.08366e-05
-2.86632e-06
-3.0897e-05
-3.50707e-06
-3.10479e-05
-4.12613e-06
-3.12295e-05
-4.66526e-06
-3.14775e-05
-5.07781e-06
-3.19338e-05
-5.50341e-06
-3.23997e-05
-6.24428e-06
-3.28839e-05
-7.25803e-06
-3.3325e-05
-8.58552e-06
-3.39177e-05
-1.05548e-05
-3.41112e-05
-1.28001e-05
-3.38126e-05
-1.49393e-05
-3.39506e-05
-1.7011e-05
-3.39165e-05
-1.90755e-05
-3.31694e-05
-2.06968e-05
-3.16246e-05
-2.21238e-05
-2.99037e-05
-2.36065e-05
-3.00326e-05
-3.04195e-05
-2.86717e-07
-2.7217e-05
-7.80287e-07
-3.02292e-05
-1.31746e-06
-3.01814e-05
-1.80718e-06
-3.02977e-05
-2.29775e-06
-3.03458e-05
-2.79965e-06
-3.03949e-05
-3.34926e-06
-3.04982e-05
-3.99411e-06
-3.05845e-05
-4.71254e-06
-3.0759e-05
-5.47577e-06
-3.11706e-05
-6.31338e-06
-3.1562e-05
-7.31378e-06
-3.18834e-05
-8.58105e-06
-3.20577e-05
-1.00571e-05
-3.24421e-05
-1.16601e-05
-3.25074e-05
-1.30358e-05
-3.24376e-05
-1.47157e-05
-3.22704e-05
-1.68332e-05
-3.17987e-05
-1.89697e-05
-3.10322e-05
-2.08671e-05
-2.97263e-05
-2.23676e-05
-2.84021e-05
-2.37629e-05
-2.86359e-05
-2.90993e-05
-4.03558e-07
-2.68131e-05
-8.1906e-07
-2.98134e-05
-1.19372e-06
-2.98065e-05
-1.62041e-06
-2.98708e-05
-2.07081e-06
-2.98952e-05
-2.54268e-06
-2.9923e-05
-3.06669e-06
-2.99741e-05
-3.61906e-06
-3.00322e-05
-4.22128e-06
-3.01568e-05
-5.09172e-06
-3.03001e-05
-6.05176e-06
-3.0602e-05
-7.08985e-06
-3.08454e-05
-8.25837e-06
-3.08893e-05
-9.71245e-06
-3.09878e-05
-1.11812e-05
-3.10394e-05
-1.25932e-05
-3.10252e-05
-1.41146e-05
-3.0749e-05
-1.58027e-05
-3.01104e-05
-1.73736e-05
-2.94606e-05
-1.87461e-05
-2.83529e-05
-1.98832e-05
-2.72638e-05
-2.13551e-05
-2.71626e-05
-2.72281e-05
-3.22775e-07
-2.64902e-05
-7.60617e-07
-2.93754e-05
-1.23098e-06
-2.9336e-05
-1.74508e-06
-2.93566e-05
-2.26489e-06
-2.93754e-05
-2.76976e-06
-2.94181e-05
-3.27336e-06
-2.94706e-05
-3.76777e-06
-2.95378e-05
-4.31827e-06
-2.96064e-05
-4.96391e-06
-2.96546e-05
-5.83284e-06
-2.97331e-05
-6.87034e-06
-2.98079e-05
-7.82102e-06
-2.99387e-05
-8.95335e-06
-2.98559e-05
-1.02684e-05
-2.9724e-05
-1.18921e-05
-2.94022e-05
-1.37285e-05
-2.89125e-05
-1.52768e-05
-2.85618e-05
-1.66928e-05
-2.80439e-05
-1.81466e-05
-2.68983e-05
-1.93533e-05
-2.60558e-05
-2.06582e-05
-2.58565e-05
-2.52946e-05
-4.57137e-07
-2.60328e-05
-9.725e-07
-2.88599e-05
-1.46945e-06
-2.88389e-05
-1.96438e-06
-2.88616e-05
-2.46985e-06
-2.88699e-05
-3.00966e-06
-2.88783e-05
-3.58549e-06
-2.88948e-05
-4.1798e-06
-2.89436e-05
-4.78419e-06
-2.90021e-05
-5.49889e-06
-2.894e-05
-6.47048e-06
-2.87616e-05
-7.47565e-06
-2.88028e-05
-8.53927e-06
-2.88752e-05
-9.63517e-06
-2.87599e-05
-1.07874e-05
-2.85727e-05
-1.19547e-05
-2.82346e-05
-1.29988e-05
-2.78686e-05
-1.42093e-05
-2.7351e-05
-1.5672e-05
-2.65806e-05
-1.69441e-05
-2.56253e-05
-1.81025e-05
-2.48963e-05
-1.96115e-05
-2.43461e-05
-2.3484e-05
-3.27541e-07
-2.57053e-05
-7.49412e-07
-2.8438e-05
-1.20267e-06
-2.83856e-05
-1.68334e-06
-2.8381e-05
-2.18564e-06
-2.83676e-05
-2.7062e-06
-2.83578e-05
-3.25644e-06
-2.83447e-05
-3.87503e-06
-2.83252e-05
-4.61053e-06
-2.82667e-05
-5.36439e-06
-2.81862e-05
-6.01556e-06
-2.81105e-05
-6.76043e-06
-2.8058e-05
-7.81103e-06
-2.78247e-05
-8.94361e-06
-2.76279e-05
-1.00519e-05
-2.74641e-05
-1.1151e-05
-2.71362e-05
-1.24359e-05
-2.65837e-05
-1.39474e-05
-2.58393e-05
-1.52543e-05
-2.52731e-05
-1.6256e-05
-2.46228e-05
-1.73722e-05
-2.37789e-05
-1.88333e-05
-2.2884e-05
-2.20152e-05
-4.1762e-07
-2.52875e-05
-8.96281e-07
-2.79593e-05
-1.37439e-06
-2.79075e-05
-1.87546e-06
-2.78799e-05
-2.4073e-06
-2.78358e-05
-2.97528e-06
-2.77899e-05
-3.56661e-06
-2.77534e-05
-4.18786e-06
-2.77041e-05
-4.83321e-06
-2.76215e-05
-5.49907e-06
-2.75204e-05
-6.20942e-06
-2.74002e-05
-7.04152e-06
-2.7226e-05
-7.84876e-06
-2.70176e-05
-8.80104e-06
-2.66755e-05
-1.00446e-05
-2.62214e-05
-1.11987e-05
-2.59818e-05
-1.22249e-05
-2.55577e-05
-1.31022e-05
-2.49618e-05
-1.40673e-05
-2.43075e-05
-1.52142e-05
-2.34751e-05
-1.64954e-05
-2.24967e-05
-1.77599e-05
-2.16183e-05
-2.07416e-05
-3.89981e-07
-2.48977e-05
-8.36847e-07
-2.75124e-05
-1.27655e-06
-2.74678e-05
-1.71596e-06
-2.74405e-05
-2.15712e-06
-2.73947e-05
-2.62038e-06
-2.73268e-05
-3.13401e-06
-2.72399e-05
-3.70079e-06
-2.71374e-05
-4.32166e-06
-2.70008e-05
-5.04324e-06
-2.6799e-05
-5.89299e-06
-2.65505e-05
-6.80612e-06
-2.63129e-05
-7.70978e-06
-2.61141e-05
-8.55675e-06
-2.5829e-05
-9.23031e-06
-2.55476e-05
-1.00896e-05
-2.51232e-05
-1.11211e-05
-2.45262e-05
-1.22808e-05
-2.38019e-05
-1.35711e-05
-2.30167e-05
-1.47067e-05
-2.23389e-05
-1.56182e-05
-2.15842e-05
-1.66169e-05
-2.06188e-05
-1.95188e-05
-3.87875e-07
-2.45096e-05
-8.37483e-07
-2.70628e-05
-1.2972e-06
-2.70081e-05
-1.78531e-06
-2.69525e-05
-2.30423e-06
-2.68759e-05
-2.84383e-06
-2.67873e-05
-3.40097e-06
-2.66829e-05
-3.98573e-06
-2.65528e-05
-4.59083e-06
-2.63958e-05
-5.17086e-06
-2.6219e-05
-5.71475e-06
-2.60067e-05
-6.3065e-06
-2.57212e-05
-7.05027e-06
-2.53704e-05
-7.89468e-06
-2.49845e-05
-8.93372e-06
-2.45094e-05
-1.0054e-05
-2.40027e-05
-1.10449e-05
-2.35355e-05
-1.191e-05
-2.29367e-05
-1.2651e-05
-2.22752e-05
-1.35084e-05
-2.14808e-05
-1.45802e-05
-2.05116e-05
-1.5644e-05
-1.95541e-05
-1.85561e-05
-3.53e-07
-2.41568e-05
-7.49486e-07
-2.66664e-05
-1.14311e-06
-2.66145e-05
-1.54756e-06
-2.65481e-05
-1.97025e-06
-2.64532e-05
-2.42617e-06
-2.63315e-05
-2.92756e-06
-2.61816e-05
-3.4766e-06
-2.60039e-05
-4.07665e-06
-2.57958e-05
-4.74816e-06
-2.55476e-05
-5.50396e-06
-2.5251e-05
-6.29793e-06
-2.49273e-05
-7.06861e-06
-2.45998e-05
-7.8286e-06
-2.4225e-05
-8.52763e-06
-2.381e-05
-9.17904e-06
-2.3352e-05
-9.94823e-06
-2.27663e-05
-1.08222e-05
-2.20625e-05
-1.18338e-05
-2.12632e-05
-1.28544e-05
-2.04597e-05
-1.36989e-05
-1.96662e-05
-1.45372e-05
-1.87151e-05
-1.76445e-05
-3.59742e-07
-2.37969e-05
-7.68437e-07
-2.62577e-05
-1.17876e-06
-2.62042e-05
-1.60576e-06
-2.61212e-05
-2.04941e-06
-2.60097e-05
-2.51055e-06
-2.58704e-05
-2.99098e-06
-2.57013e-05
-3.49363e-06
-2.55013e-05
-4.01843e-06
-2.52711e-05
-4.55495e-06
-2.50111e-05
-5.09564e-06
-2.47103e-05
-5.66342e-06
-2.43595e-05
-6.29373e-06
-2.39696e-05
-6.9867e-06
-2.35319e-05
-7.76168e-06
-2.30358e-05
-8.64054e-06
-2.24729e-05
-9.53659e-06
-2.18704e-05
-1.03709e-05
-2.12282e-05
-1.11109e-05
-2.05229e-05
-1.18524e-05
-1.97176e-05
-1.2691e-05
-1.88271e-05
-1.35211e-05
-1.78841e-05
-1.68573e-05
-3.11439e-07
-2.34857e-05
-6.59023e-07
-2.59102e-05
-1.00976e-06
-2.58536e-05
-1.37967e-06
-2.57513e-05
-1.77415e-06
-2.56153e-05
-2.19948e-06
-2.54452e-05
-2.65886e-06
-2.52421e-05
-3.15192e-06
-2.50084e-05
-3.67826e-06
-2.47449e-05
-4.23881e-06
-2.44506e-05
-4.83198e-06
-2.41172e-05
-5.45574e-06
-2.37358e-05
-6.1036e-06
-2.33218e-05
-6.76378e-06
-2.28721e-05
-7.42647e-06
-2.23727e-05
-8.07936e-06
-2.18207e-05
-8.74586e-06
-2.12039e-05
-9.46469e-06
-2.05093e-05
-1.02408e-05
-1.97464e-05
-1.10192e-05
-1.89387e-05
-1.17594e-05
-1.80862e-05
-1.2486e-05
-1.71571e-05
-1.61389e-05
-2.94176e-07
-2.31914e-05
-6.26033e-07
-2.55783e-05
-9.59684e-07
-2.552e-05
-1.3103e-06
-2.54008e-05
-1.67835e-06
-2.52473e-05
-2.06696e-06
-2.50567e-05
-2.47958e-06
-2.48295e-05
-2.91871e-06
-2.45693e-05
-3.3884e-06
-2.42753e-05
-3.89256e-06
-2.39465e-05
-4.41942e-06
-2.35903e-05
-4.95728e-06
-2.31979e-05
-5.52025e-06
-2.27589e-05
-6.1207e-06
-2.22715e-05
-6.75605e-06
-2.17382e-05
-7.42275e-06
-2.11536e-05
-8.10994e-06
-2.0517e-05
-8.79026e-06
-1.98289e-05
-9.45428e-06
-1.90822e-05
-1.01212e-05
-1.82713e-05
-1.08035e-05
-1.74035e-05
-1.14777e-05
-1.64821e-05
-1.54886e-05
-2.46622e-07
-2.2945e-05
-5.34224e-07
-2.52908e-05
-8.25087e-07
-2.52292e-05
-1.13393e-06
-2.5092e-05
-1.46263e-06
-2.49187e-05
-1.81554e-06
-2.47039e-05
-2.19785e-06
-2.44473e-05
-2.60979e-06
-2.41575e-05
-3.04863e-06
-2.38365e-05
-3.5121e-06
-2.34831e-05
-4.00615e-06
-2.30963e-05
-4.53022e-06
-2.26739e-05
-5.07424e-06
-2.22149e-05
-5.63203e-06
-2.17142e-05
-6.20471e-06
-2.1165e-05
-6.7907e-06
-2.05683e-05
-7.38745e-06
-1.99202e-05
-7.99943e-06
-1.92168e-05
-8.62319e-06
-1.84583e-05
-9.24799e-06
-1.76462e-05
-9.86722e-06
-1.67838e-05
-1.04793e-05
-1.58697e-05
-1.48934e-05
-2.0004e-07
-2.27448e-05
-4.50428e-07
-2.50404e-05
-7.04241e-07
-2.49754e-05
-9.74337e-07
-2.4822e-05
-1.26034e-06
-2.46328e-05
-1.56493e-06
-2.43994e-05
-1.89519e-06
-2.41171e-05
-2.25601e-06
-2.37968e-05
-2.65129e-06
-2.34413e-05
-3.08157e-06
-2.30528e-05
-3.541e-06
-2.26368e-05
-4.02282e-06
-2.21921e-05
-4.5248e-06
-2.1713e-05
-5.04475e-06
-2.11941e-05
-5.58177e-06
-2.06287e-05
-6.12932e-06
-2.00205e-05
-6.68551e-06
-1.93642e-05
-7.24604e-06
-1.86564e-05
-7.80782e-06
-1.78963e-05
-8.37074e-06
-1.70831e-05
-8.93481e-06
-1.62193e-05
-9.4949e-06
-1.53091e-05
-1.43472e-05
-1.50583e-07
-2.25945e-05
-3.72566e-07
-2.48186e-05
-5.98847e-07
-2.47492e-05
-8.36573e-07
-2.45843e-05
-1.08424e-06
-2.43852e-05
-1.33758e-06
-2.41461e-05
-1.59254e-06
-2.38623e-05
-1.86351e-06
-2.35259e-05
-2.16786e-06
-2.3137e-05
-2.52023e-06
-2.27005e-05
-2.92898e-06
-2.22281e-05
-3.39044e-06
-2.17306e-05
-3.88779e-06
-2.12157e-05
-4.40334e-06
-2.06788e-05
-4.91918e-06
-2.01124e-05
-5.43625e-06
-1.95041e-05
-5.95169e-06
-1.88488e-05
-6.46753e-06
-1.81406e-05
-6.98258e-06
-1.73812e-05
-7.49634e-06
-1.65691e-05
-8.00908e-06
-1.57063e-05
-8.52011e-06
-1.47979e-05
-1.3844e-05
-9.40567e-08
-2.25003e-05
-3.20389e-07
-2.45922e-05
-5.46662e-07
-2.4523e-05
-7.73904e-07
-2.43571e-05
-1.00577e-06
-2.41534e-05
-1.24229e-06
-2.39097e-05
-1.4792e-06
-2.36254e-05
-1.71765e-06
-2.32875e-05
-1.96202e-06
-2.28927e-05
-2.21731e-06
-2.24452e-05
-2.49596e-06
-2.19495e-05
-2.81322e-06
-2.14134e-05
-3.18598e-06
-2.0843e-05
-3.63036e-06
-2.02343e-05
-4.12786e-06
-1.96157e-05
-4.64828e-06
-1.89833e-05
-5.16654e-06
-1.83309e-05
-5.66331e-06
-1.7644e-05
-6.145e-06
-1.68996e-05
-6.61738e-06
-1.60967e-05
-7.0852e-06
-1.52383e-05
-7.55195e-06
-1.43308e-05
-1.33784e-05
-7.21821e-08
-2.24284e-05
-3.504e-07
-2.43141e-05
-6.27078e-07
-2.42464e-05
-8.86584e-07
-2.40977e-05
-1.13726e-06
-2.39028e-05
-1.38185e-06
-2.36651e-05
-1.61858e-06
-2.33888e-05
-1.84509e-06
-2.3061e-05
-2.06079e-06
-2.2677e-05
-2.27136e-06
-2.22347e-05
-2.48835e-06
-2.17325e-05
-2.72032e-06
-2.11814e-05
-2.96878e-06
-2.05945e-05
-3.22394e-06
-1.99795e-05
-3.51161e-06
-1.93275e-05
-3.85642e-06
-1.86393e-05
-4.27988e-06
-1.79076e-05
-4.76247e-06
-1.71616e-05
-5.24959e-06
-1.64126e-05
-5.71091e-06
-1.56354e-05
-6.14814e-06
-1.4801e-05
-6.58046e-06
-1.38985e-05
-1.29428e-05
-1.07122e-07
-2.23211e-05
-5.03384e-07
-2.39179e-05
-8.96011e-07
-2.38538e-05
-1.253e-06
-2.37408e-05
-1.5808e-06
-2.3575e-05
-1.88703e-06
-2.3359e-05
-2.17021e-06
-2.31056e-05
-2.42262e-06
-2.28087e-05
-2.63542e-06
-2.24642e-05
-2.80217e-06
-2.2068e-05
-2.92645e-06
-2.16082e-05
-3.02897e-06
-2.10789e-05
-3.13678e-06
-2.04868e-05
-3.26521e-06
-1.98509e-05
-3.42634e-06
-1.91672e-05
-3.6151e-06
-1.84502e-05
-3.8075e-06
-1.77156e-05
-4.02953e-06
-1.69399e-05
-4.32745e-06
-1.6115e-05
-4.71635e-06
-1.52467e-05
-5.15592e-06
-1.43615e-05
-5.58486e-06
-1.34692e-05
-1.25258e-05
-2.03402e-07
-2.21178e-05
-7.66709e-07
-2.33545e-05
-1.31556e-06
-2.33049e-05
-1.82169e-06
-2.32346e-05
-2.28375e-06
-2.31129e-05
-2.69859e-06
-2.29441e-05
-3.0707e-06
-2.27335e-05
-3.39721e-06
-2.24821e-05
-3.6731e-06
-2.21883e-05
-3.88739e-06
-2.18536e-05
-4.02439e-06
-2.14712e-05
-4.07854e-06
-2.10247e-05
-4.05907e-06
-2.05063e-05
-3.99373e-06
-1.99165e-05
-3.90581e-06
-1.92546e-05
-3.83185e-06
-1.8525e-05
-3.80916e-06
-1.77387e-05
-3.84672e-06
-1.69029e-05
-3.92677e-06
-1.60354e-05
-4.03612e-06
-1.51378e-05
-4.21464e-06
-1.41831e-05
-4.52566e-06
-1.31583e-05
-1.21074e-05
-3.4051e-07
-2.17772e-05
-1.02036e-06
-2.26747e-05
-1.6781e-06
-2.26472e-05
-2.30436e-06
-2.26083e-05
-2.8878e-06
-2.25295e-05
-3.41341e-06
-2.24185e-05
-3.8805e-06
-2.22664e-05
-4.28592e-06
-2.20767e-05
-4.62604e-06
-2.18482e-05
-4.90499e-06
-2.15747e-05
-5.12031e-06
-2.12559e-05
-5.25978e-06
-2.08853e-05
-5.31468e-06
-2.04514e-05
-5.28117e-06
-1.99498e-05
-5.1531e-06
-1.93834e-05
-4.93271e-06
-1.87456e-05
-4.64656e-06
-1.80258e-05
-4.3342e-06
-1.72162e-05
-4.05715e-06
-1.63133e-05
-3.87483e-06
-1.53208e-05
-3.81071e-06
-1.42475e-05
-3.8558e-06
-1.31134e-05
-1.19482e-05
-4.29443e-07
-2.13479e-05
-1.0882e-06
-2.20161e-05
-1.73131e-06
-2.20042e-05
-2.35373e-06
-2.19861e-05
-2.94777e-06
-2.19356e-05
-3.50309e-06
-2.18633e-05
-4.0086e-06
-2.17611e-05
-4.45833e-06
-2.16271e-05
-4.84818e-06
-2.14585e-05
-5.17213e-06
-2.12509e-05
-5.42814e-06
-2.1e-05
-5.6116e-06
-2.07019e-05
-5.71704e-06
-2.03461e-05
-5.74811e-06
-1.99192e-05
-5.70086e-06
-1.94309e-05
-5.57298e-06
-1.88743e-05
-5.36469e-06
-1.82349e-05
-5.07986e-06
-1.75019e-05
-4.72801e-06
-1.66659e-05
-4.32964e-06
-1.57197e-05
-3.93237e-06
-1.46454e-05
-3.60861e-06
-1.34373e-05
-1.21147e-05
-4.13323e-07
-1.04469e-06
-1.66745e-06
-2.27499e-06
-2.85748e-06
-3.4091e-06
-3.92061e-06
-4.384e-06
-4.79239e-06
-5.13934e-06
-5.41902e-06
-5.62707e-06
-5.75404e-06
-5.78396e-06
-5.7225e-06
-5.57886e-06
-5.35817e-06
-5.06723e-06
-4.71764e-06
-4.32792e-06
-3.91671e-06
-3.51678e-06
)
;

boundaryField
{
    leftWall
    {
        type            fixedValue;
        value           uniform 0;
    }
    rightWall
    {
        type            fixedValue;
        value           nonuniform 0();
    }
    lowerWall
    {
        type            fixedValue;
        value           nonuniform 0();
    }
    atmosphere
    {
        type            calculated;
        value           nonuniform List<scalar> 
23
(
-2.09347e-05
-2.13848e-05
-2.13816e-05
-2.13787e-05
-2.13532e-05
-2.13118e-05
-2.12497e-05
-2.11638e-05
-2.10502e-05
-2.0904e-05
-2.07204e-05
-2.0494e-05
-2.02192e-05
-1.98894e-05
-1.94926e-05
-1.90182e-05
-1.84559e-05
-1.77931e-05
-1.70158e-05
-1.61097e-05
-1.50567e-05
-1.38375e-05
-1.24487e-05
)
;
    }
    defaultFaces
    {
        type            empty;
        value           nonuniform 0();
    }
    procBoundary2to0
    {
        type            processor;
        value           nonuniform List<scalar> 
24
(
4.18322e-05
4.09859e-05
3.87304e-05
3.64628e-05
3.58858e-05
3.59863e-05
3.51371e-05
2.79936e-05
3.13159e-05
3.14564e-05
3.17367e-05
3.1927e-05
3.20802e-05
3.21634e-05
3.22795e-05
3.22881e-05
3.23073e-05
3.28244e-05
3.40466e-05
3.56407e-05
3.69269e-05
3.82794e-05
1.26663e-05
3.91525e-05
)
;
    }
    procBoundary2to3
    {
        type            processor;
        value           nonuniform List<scalar> 
25
(
-2.67345e-05
-2.76111e-05
-2.51123e-05
-2.50809e-05
-2.32244e-05
-2.25896e-05
-2.14205e-05
-2.03003e-05
-1.90322e-05
-1.78381e-05
-1.66056e-05
-1.54476e-05
-1.43074e-05
-1.32033e-05
-1.21274e-05
-1.10735e-05
-1.00406e-05
-9.02264e-06
-8.01736e-06
-7.01541e-06
-6.00181e-06
-4.94352e-06
-4.01483e-06
-3.44254e-06
-3.18286e-06
)
;
    }
}


// ************************************************************************* //
