/*--------------------------------*- C++ -*----------------------------------*\
| =========                 |                                                 |
| \\      /  F ield         | OpenFOAM: The Open Source CFD Toolbox           |
|  \\    /   O peration     | Version:  2.4.0                                 |
|   \\  /    A nd           | Web:      www.OpenFOAM.org                      |
|    \\/     M anipulation  |                                                 |
\*---------------------------------------------------------------------------*/
FoamFile
{
    version     2.0;
    format      ascii;
    class       volVectorField;
    location    "0.45";
    object      U;
}
// * * * * * * * * * * * * * * * * * * * * * * * * * * * * * * * * * * * * * //

dimensions      [0 1 -1 0 0 0 0];

internalField   nonuniform List<vector> 
559
(
(-0.0768702 -0.218441 0)
(-0.0903614 -0.214732 0)
(-0.0999544 -0.205515 0)
(-0.106773 -0.191389 0)
(-0.115204 -0.185735 0)
(-0.129218 -0.183787 0)
(-0.140406 -0.180068 0)
(-0.000875448 -0.149796 0)
(-0.00217568 -0.167751 0)
(-0.00345339 -0.168791 0)
(-0.00506083 -0.170393 0)
(-0.00737053 -0.171461 0)
(-0.0102559 -0.172897 0)
(-0.0128019 -0.173481 0)
(-0.0153121 -0.174218 0)
(-0.0172964 -0.174223 0)
(-0.0179968 -0.175169 0)
(-0.0179004 -0.177966 0)
(-0.0180081 -0.184149 0)
(-0.0225506 -0.189567 0)
(-0.0308237 -0.19524 0)
(-0.0425431 -0.202447 0)
(-0.0542599 -0.204728 0)
(-0.0737454 -0.202812 0)
(-0.0892736 -0.198869 0)
(-0.099127 -0.195364 0)
(-0.109857 -0.185021 0)
(-0.122028 -0.174998 0)
(-0.134696 -0.176783 0)
(-0.144536 -0.178442 0)
(-0.000265184 -0.148416 0)
(-0.00202643 -0.166489 0)
(-0.00385549 -0.166897 0)
(-0.00709944 -0.167465 0)
(-0.0099109 -0.168043 0)
(-0.0134302 -0.168722 0)
(-0.0170413 -0.169321 0)
(-0.0203193 -0.170228 0)
(-0.023483 -0.171986 0)
(-0.0261494 -0.173883 0)
(-0.0284138 -0.175525 0)
(-0.031154 -0.177925 0)
(-0.0363583 -0.181785 0)
(-0.0418185 -0.186983 0)
(-0.0513907 -0.189007 0)
(-0.0622476 -0.186414 0)
(-0.0751845 -0.189259 0)
(-0.0861222 -0.19148 0)
(-0.0972521 -0.186733 0)
(-0.107864 -0.176103 0)
(-0.11466 -0.164847 0)
(-0.123342 -0.165145 0)
(-0.130505 -0.168532 0)
(-0.000553905 -0.147591 0)
(-0.00249629 -0.164051 0)
(-0.00591484 -0.163615 0)
(-0.00823342 -0.163992 0)
(-0.0109933 -0.16448 0)
(-0.0135552 -0.164787 0)
(-0.0162523 -0.16559 0)
(-0.019356 -0.16617 0)
(-0.0230991 -0.166814 0)
(-0.0272412 -0.16923 0)
(-0.0319011 -0.172236 0)
(-0.0360632 -0.175232 0)
(-0.0425841 -0.176663 0)
(-0.0503723 -0.178443 0)
(-0.0581921 -0.178531 0)
(-0.0666799 -0.178333 0)
(-0.0741352 -0.176899 0)
(-0.0844205 -0.174982 0)
(-0.0968462 -0.17104 0)
(-0.108017 -0.163586 0)
(-0.116418 -0.155725 0)
(-0.124993 -0.157078 0)
(-0.130537 -0.157817 0)
(-0.000961693 -0.1453 0)
(-0.00343443 -0.161573 0)
(-0.00530757 -0.161509 0)
(-0.00744608 -0.16232 0)
(-0.00980961 -0.162401 0)
(-0.012202 -0.162356 0)
(-0.0149012 -0.162614 0)
(-0.0177436 -0.162965 0)
(-0.0208 -0.164061 0)
(-0.0246469 -0.165798 0)
(-0.0304931 -0.167631 0)
(-0.0349693 -0.169416 0)
(-0.0407152 -0.169224 0)
(-0.0484671 -0.170929 0)
(-0.0561378 -0.171584 0)
(-0.0645487 -0.172191 0)
(-0.0713524 -0.171789 0)
(-0.0799639 -0.16851 0)
(-0.0899447 -0.165076 0)
(-0.0976663 -0.158775 0)
(-0.104473 -0.152596 0)
(-0.110242 -0.153142 0)
(-0.119107 -0.155772 0)
(-0.000704061 -0.143806 0)
(-0.00277644 -0.159575 0)
(-0.00531157 -0.159401 0)
(-0.00792777 -0.159465 0)
(-0.0106931 -0.159755 0)
(-0.0134849 -0.160346 0)
(-0.016112 -0.160774 0)
(-0.0187794 -0.161085 0)
(-0.0216034 -0.161067 0)
(-0.0251609 -0.161411 0)
(-0.0282911 -0.1624 0)
(-0.0341718 -0.162507 0)
(-0.0396598 -0.163772 0)
(-0.0447593 -0.163955 0)
(-0.0513049 -0.163641 0)
(-0.0591639 -0.162371 0)
(-0.0688775 -0.159646 0)
(-0.0790022 -0.156284 0)
(-0.086378 -0.153264 0)
(-0.0932081 -0.146963 0)
(-0.102448 -0.141608 0)
(-0.106855 -0.140425 0)
(-0.115627 -0.139405 0)
(-0.00112391 -0.141079 0)
(-0.00382398 -0.156576 0)
(-0.00656705 -0.156562 0)
(-0.00918872 -0.156826 0)
(-0.0118509 -0.156928 0)
(-0.0145872 -0.156939 0)
(-0.0176093 -0.157124 0)
(-0.0208297 -0.157471 0)
(-0.0242125 -0.157871 0)
(-0.0273182 -0.157287 0)
(-0.0318203 -0.157149 0)
(-0.0374676 -0.158322 0)
(-0.0430962 -0.158751 0)
(-0.0488148 -0.157565 0)
(-0.054799 -0.156864 0)
(-0.061161 -0.154811 0)
(-0.067233 -0.15257 0)
(-0.0732188 -0.152635 0)
(-0.0800617 -0.149216 0)
(-0.0885624 -0.143371 0)
(-0.0940657 -0.138495 0)
(-0.101775 -0.136973 0)
(-0.10977 -0.132416 0)
(-0.000781208 -0.139856 0)
(-0.00276683 -0.154786 0)
(-0.00523094 -0.154485 0)
(-0.00769786 -0.154465 0)
(-0.0103376 -0.15443 0)
(-0.0130957 -0.154439 0)
(-0.0159614 -0.154384 0)
(-0.0190728 -0.154389 0)
(-0.0225864 -0.154446 0)
(-0.0269516 -0.154678 0)
(-0.0309997 -0.154178 0)
(-0.0338457 -0.153852 0)
(-0.038554 -0.153237 0)
(-0.0452068 -0.152665 0)
(-0.0513438 -0.152038 0)
(-0.0564319 -0.149941 0)
(-0.0635592 -0.147901 0)
(-0.070793 -0.142764 0)
(-0.0793555 -0.138055 0)
(-0.0846146 -0.134348 0)
(-0.090313 -0.13188 0)
(-0.0975444 -0.12739 0)
(-0.105433 -0.121895 0)
(-0.0010249 -0.136981 0)
(-0.00349096 -0.15154 0)
(-0.00609754 -0.151304 0)
(-0.00867713 -0.151261 0)
(-0.0114348 -0.151156 0)
(-0.0144283 -0.151094 0)
(-0.0175567 -0.151058 0)
(-0.0207845 -0.150892 0)
(-0.0242438 -0.150487 0)
(-0.0278402 -0.149672 0)
(-0.0312235 -0.14895 0)
(-0.0355928 -0.14844 0)
(-0.0402728 -0.147031 0)
(-0.0441677 -0.145849 0)
(-0.0500669 -0.143724 0)
(-0.0577728 -0.142521 0)
(-0.0630602 -0.139578 0)
(-0.068545 -0.136713 0)
(-0.0727112 -0.135396 0)
(-0.0784444 -0.131334 0)
(-0.0849152 -0.124343 0)
(-0.0930741 -0.119057 0)
(-0.0986698 -0.116194 0)
(-0.000977907 -0.13564 0)
(-0.00324069 -0.149946 0)
(-0.00571143 -0.149695 0)
(-0.00803783 -0.149569 0)
(-0.0104136 -0.149312 0)
(-0.0127707 -0.148872 0)
(-0.015384 -0.148404 0)
(-0.0183503 -0.147978 0)
(-0.0215192 -0.147422 0)
(-0.0249007 -0.146755 0)
(-0.029199 -0.146005 0)
(-0.0342748 -0.144656 0)
(-0.0388448 -0.143686 0)
(-0.0439732 -0.141625 0)
(-0.0481609 -0.140206 0)
(-0.0512443 -0.138648 0)
(-0.0569833 -0.135958 0)
(-0.0628732 -0.13251 0)
(-0.0690575 -0.126501 0)
(-0.0768403 -0.122022 0)
(-0.081635 -0.119612 0)
(-0.0863869 -0.115194 0)
(-0.0929082 -0.108077 0)
(-0.00097561 -0.13285 0)
(-0.00322186 -0.146734 0)
(-0.00573583 -0.14646 0)
(-0.00823782 -0.146233 0)
(-0.0109497 -0.145939 0)
(-0.013818 -0.145651 0)
(-0.0167679 -0.145262 0)
(-0.0198295 -0.144646 0)
(-0.0230268 -0.143824 0)
(-0.026299 -0.142725 0)
(-0.0293448 -0.141207 0)
(-0.0320211 -0.13999 0)
(-0.0357657 -0.138677 0)
(-0.0399757 -0.137263 0)
(-0.0448527 -0.134744 0)
(-0.0510593 -0.131412 0)
(-0.0570844 -0.128598 0)
(-0.0618757 -0.12491 0)
(-0.0662837 -0.122901 0)
(-0.0695603 -0.119941 0)
(-0.0752397 -0.113401 0)
(-0.0818923 -0.107802 0)
(-0.0867955 -0.103065 0)
(-0.000915537 -0.131536 0)
(-0.00290303 -0.14523 0)
(-0.00511033 -0.14494 0)
(-0.00720813 -0.144605 0)
(-0.00942834 -0.144113 0)
(-0.0117708 -0.14348 0)
(-0.0143366 -0.142747 0)
(-0.0171539 -0.141938 0)
(-0.0202249 -0.141022 0)
(-0.0235726 -0.139994 0)
(-0.0273594 -0.138833 0)
(-0.0317639 -0.137097 0)
(-0.035918 -0.135033 0)
(-0.0400237 -0.132822 0)
(-0.044086 -0.130706 0)
(-0.0476311 -0.128879 0)
(-0.051059 -0.126291 0)
(-0.0556588 -0.122618 0)
(-0.060701 -0.117106 0)
(-0.0665596 -0.112105 0)
(-0.0714066 -0.108651 0)
(-0.0758974 -0.103721 0)
(-0.0807996 -0.097587 0)
(-0.000920157 -0.128964 0)
(-0.00297234 -0.142343 0)
(-0.00524442 -0.142066 0)
(-0.00745662 -0.141666 0)
(-0.00980323 -0.141116 0)
(-0.0122345 -0.140415 0)
(-0.0147584 -0.139533 0)
(-0.0173841 -0.138462 0)
(-0.0201335 -0.137212 0)
(-0.0230144 -0.135757 0)
(-0.0259498 -0.134076 0)
(-0.0287724 -0.132444 0)
(-0.0319865 -0.130745 0)
(-0.035584 -0.12859 0)
(-0.039465 -0.125982 0)
(-0.04392 -0.122738 0)
(-0.0489147 -0.119258 0)
(-0.0536057 -0.115969 0)
(-0.0577736 -0.112988 0)
(-0.0614706 -0.109087 0)
(-0.0657914 -0.103912 0)
(-0.0706589 -0.0986981 0)
(-0.0749593 -0.0931774 0)
(-0.000832189 -0.127811 0)
(-0.00253594 -0.141009 0)
(-0.00450389 -0.140722 0)
(-0.00638616 -0.140249 0)
(-0.00843959 -0.13961 0)
(-0.0106296 -0.138816 0)
(-0.0129989 -0.137872 0)
(-0.0155544 -0.13678 0)
(-0.0182946 -0.135538 0)
(-0.0212097 -0.134115 0)
(-0.0242676 -0.132338 0)
(-0.0275643 -0.13014 0)
(-0.0310117 -0.127846 0)
(-0.0345293 -0.125506 0)
(-0.0381043 -0.122894 0)
(-0.0416359 -0.120094 0)
(-0.0451059 -0.116958 0)
(-0.0487955 -0.113113 0)
(-0.0528795 -0.108646 0)
(-0.057108 -0.10412 0)
(-0.061141 -0.0996824 0)
(-0.0652079 -0.0946752 0)
(-0.0691868 -0.0890523 0)
(-0.000767472 -0.125567 0)
(-0.00240982 -0.138505 0)
(-0.00427874 -0.138185 0)
(-0.00606758 -0.137556 0)
(-0.00800166 -0.13674 0)
(-0.0100252 -0.135725 0)
(-0.0121695 -0.134517 0)
(-0.0144512 -0.133137 0)
(-0.0168818 -0.131593 0)
(-0.0194852 -0.129918 0)
(-0.0222812 -0.128211 0)
(-0.0251321 -0.12635 0)
(-0.0280629 -0.124137 0)
(-0.0311878 -0.121575 0)
(-0.0345098 -0.11878 0)
(-0.0380109 -0.11567 0)
(-0.041679 -0.112251 0)
(-0.0453853 -0.10867 0)
(-0.0489853 -0.104835 0)
(-0.0525131 -0.100549 0)
(-0.056123 -0.0958138 0)
(-0.0599143 -0.090804 0)
(-0.0635511 -0.0853663 0)
(-0.000657966 -0.12462 0)
(-0.00202075 -0.137471 0)
(-0.00367471 -0.137164 0)
(-0.00522463 -0.136498 0)
(-0.00694099 -0.135645 0)
(-0.00876089 -0.134581 0)
(-0.0107287 -0.133311 0)
(-0.0128589 -0.131855 0)
(-0.0151422 -0.130204 0)
(-0.0175599 -0.128329 0)
(-0.0201196 -0.126216 0)
(-0.0228599 -0.123894 0)
(-0.0257442 -0.121434 0)
(-0.0287029 -0.118797 0)
(-0.031736 -0.115887 0)
(-0.0348503 -0.112717 0)
(-0.0380205 -0.109268 0)
(-0.0412659 -0.105459 0)
(-0.0446069 -0.10132 0)
(-0.0479648 -0.0969182 0)
(-0.051282 -0.092283 0)
(-0.0546683 -0.0873353 0)
(-0.0579997 -0.0819891 0)
(-0.000506552 -0.12305 0)
(-0.00166455 -0.135529 0)
(-0.00313386 -0.13518 0)
(-0.00447008 -0.134377 0)
(-0.00597374 -0.133378 0)
(-0.00755531 -0.132156 0)
(-0.00924685 -0.130721 0)
(-0.011089 -0.129113 0)
(-0.0131104 -0.127346 0)
(-0.0153268 -0.125426 0)
(-0.0177232 -0.123346 0)
(-0.0202552 -0.121066 0)
(-0.022895 -0.118532 0)
(-0.0256439 -0.115736 0)
(-0.0284848 -0.112721 0)
(-0.0313977 -0.109464 0)
(-0.0343656 -0.105944 0)
(-0.0373706 -0.102169 0)
(-0.0403911 -0.0981087 0)
(-0.0434103 -0.0937377 0)
(-0.0464224 -0.089073 0)
(-0.0494945 -0.0841486 0)
(-0.0525471 -0.0789005 0)
(-0.000323868 -0.122391 0)
(-0.001304 -0.134629 0)
(-0.00266201 -0.13427 0)
(-0.00381716 -0.133406 0)
(-0.00514439 -0.132357 0)
(-0.00650468 -0.131065 0)
(-0.007849 -0.129439 0)
(-0.00923315 -0.127568 0)
(-0.0107564 -0.125498 0)
(-0.0124986 -0.123262 0)
(-0.0145352 -0.120915 0)
(-0.0168853 -0.11847 0)
(-0.0194739 -0.115898 0)
(-0.0222416 -0.113151 0)
(-0.0249882 -0.110078 0)
(-0.0277689 -0.106755 0)
(-0.0305412 -0.103171 0)
(-0.0333082 -0.0993208 0)
(-0.0360816 -0.0951975 0)
(-0.038847 -0.0908041 0)
(-0.0415936 -0.0861491 0)
(-0.0443706 -0.081242 0)
(-0.047164 -0.0760561 0)
(-4.80438e-05 -0.121465 0)
(-0.000978731 -0.133178 0)
(-0.0024211 -0.132801 0)
(-0.00351053 -0.131889 0)
(-0.00477867 -0.130786 0)
(-0.00602497 -0.129462 0)
(-0.00729942 -0.12795 0)
(-0.00857284 -0.126141 0)
(-0.00986255 -0.124 0)
(-0.0111967 -0.121534 0)
(-0.0126113 -0.118816 0)
(-0.014183 -0.115925 0)
(-0.0160075 -0.112965 0)
(-0.0181832 -0.109992 0)
(-0.0207581 -0.106997 0)
(-0.0235183 -0.103834 0)
(-0.0263489 -0.100439 0)
(-0.029055 -0.0966544 0)
(-0.0316844 -0.0925512 0)
(-0.0342402 -0.0881642 0)
(-0.0367559 -0.0835055 0)
(-0.0392764 -0.0785946 0)
(-0.041836 -0.0734347 0)
(0.000126329 -0.121052 0)
(-0.000927057 -0.131902 0)
(-0.00277542 -0.131529 0)
(-0.00403482 -0.130669 0)
(-0.00545048 -0.129589 0)
(-0.00676662 -0.128328 0)
(-0.00806364 -0.126845 0)
(-0.00931252 -0.12506 0)
(-0.0104949 -0.122943 0)
(-0.011627 -0.120522 0)
(-0.0127534 -0.117809 0)
(-0.0139505 -0.114869 0)
(-0.0152598 -0.111708 0)
(-0.0166053 -0.108208 0)
(-0.0180211 -0.104636 0)
(-0.0196744 -0.101014 0)
(-0.0216858 -0.0973618 0)
(-0.024216 -0.0937448 0)
(-0.0268823 -0.0899168 0)
(-0.0294262 -0.0857236 0)
(-0.0318134 -0.0811013 0)
(-0.0341497 -0.0761876 0)
(-0.0365127 -0.0710283 0)
(0.000173669 -0.120876 0)
(-0.00136277 -0.130452 0)
(-0.00396201 -0.130085 0)
(-0.00575134 -0.129373 0)
(-0.00766133 -0.128396 0)
(-0.00931873 -0.127148 0)
(-0.0109221 -0.125683 0)
(-0.0123653 -0.12396 0)
(-0.0136342 -0.121985 0)
(-0.0146605 -0.119693 0)
(-0.0154251 -0.117033 0)
(-0.015996 -0.114022 0)
(-0.0165109 -0.110744 0)
(-0.0171235 -0.10732 0)
(-0.0179081 -0.103701 0)
(-0.018855 -0.0998825 0)
(-0.0199608 -0.0958116 0)
(-0.0209515 -0.0915763 0)
(-0.0222698 -0.087297 0)
(-0.0241145 -0.0829991 0)
(-0.0264763 -0.0786078 0)
(-0.0288428 -0.0738971 0)
(-0.0311035 -0.0687324 0)
(5.91918e-05 -0.120709 0)
(-0.00231794 -0.128572 0)
(-0.00580774 -0.128253 0)
(-0.00842038 -0.127742 0)
(-0.011094 -0.126912 0)
(-0.013406 -0.125772 0)
(-0.0155401 -0.124425 0)
(-0.0174082 -0.122856 0)
(-0.0190394 -0.121019 0)
(-0.0203812 -0.118966 0)
(-0.0213484 -0.116618 0)
(-0.0218548 -0.11389 0)
(-0.0219171 -0.110771 0)
(-0.0216533 -0.107314 0)
(-0.0211923 -0.103492 0)
(-0.0207088 -0.0994104 0)
(-0.0203699 -0.0951762 0)
(-0.0204631 -0.0907909 0)
(-0.0208036 -0.0862376 0)
(-0.0213809 -0.0814849 0)
(-0.0219716 -0.0765066 0)
(-0.0231313 -0.0713186 0)
(-0.0254184 -0.0661298 0)
(-0.000398964 -0.118753 0)
(-0.00338779 -0.12461 0)
(-0.00742083 -0.124399 0)
(-0.0106898 -0.124091 0)
(-0.0139929 -0.12352 0)
(-0.0169789 -0.122731 0)
(-0.0196378 -0.121677 0)
(-0.0220015 -0.120405 0)
(-0.0239917 -0.118933 0)
(-0.0256493 -0.117224 0)
(-0.0269916 -0.115297 0)
(-0.0279633 -0.113089 0)
(-0.0284978 -0.110545 0)
(-0.028561 -0.107647 0)
(-0.0281293 -0.104353 0)
(-0.0271671 -0.1006 0)
(-0.0257564 -0.0964105 0)
(-0.0240772 -0.0917705 0)
(-0.0223937 -0.0867483 0)
(-0.0210456 -0.081389 0)
(-0.0204414 -0.0759209 0)
(-0.0204612 -0.0703013 0)
(-0.0209949 -0.0645133 0)
(-0.000799344 -0.114686 0)
(-0.00390879 -0.118327 0)
(-0.00768609 -0.118254 0)
(-0.0109591 -0.118167 0)
(-0.0142761 -0.117918 0)
(-0.0173761 -0.117564 0)
(-0.0202336 -0.117053 0)
(-0.0228026 -0.116377 0)
(-0.0250635 -0.115515 0)
(-0.0269838 -0.114439 0)
(-0.0285406 -0.113119 0)
(-0.0297301 -0.111549 0)
(-0.0305201 -0.109665 0)
(-0.0308877 -0.107451 0)
(-0.0308335 -0.104869 0)
(-0.0303587 -0.101873 0)
(-0.0294486 -0.0984031 0)
(-0.0281088 -0.0943937 0)
(-0.0263723 -0.0897918 0)
(-0.024329 -0.084575 0)
(-0.0220901 -0.0785655 0)
(-0.0200689 -0.0718877 0)
(-0.0185253 -0.0648496 0)
(-0.000752914 -0.112954 0)
(-0.00373179 -0.11541 0)
(-0.00741414 -0.115392 0)
(-0.0105752 -0.115374 0)
(-0.0138149 -0.115233 0)
(-0.0168575 -0.115005 0)
(-0.0197203 -0.114664 0)
(-0.0223411 -0.114195 0)
(-0.0246861 -0.113575 0)
(-0.0267174 -0.112779 0)
(-0.0284029 -0.111781 0)
(-0.0297212 -0.110553 0)
(-0.0306308 -0.109065 0)
(-0.0310491 -0.10728 0)
(-0.0309559 -0.105134 0)
(-0.0304019 -0.102569 0)
(-0.0294169 -0.0995291 0)
(-0.0280308 -0.0959482 0)
(-0.026291 -0.0917505 0)
(-0.0242772 -0.0868598 0)
(-0.0220827 -0.0811794 0)
(-0.0198478 -0.0746045 0)
(-0.0176147 -0.0671152 0)
)
;

boundaryField
{
    leftWall
    {
        type            calculated;
        value           uniform (0 0 0);
    }
    rightWall
    {
        type            calculated;
        value           nonuniform 0();
    }
    lowerWall
    {
        type            calculated;
        value           nonuniform 0();
    }
    atmosphere
    {
        type            calculated;
        value           nonuniform List<vector> 
23
(
(-0.000752914 -0.112914 0)
(-0.00373179 -0.115342 0)
(-0.00741414 -0.115324 0)
(-0.0105752 -0.115309 0)
(-0.0138149 -0.115171 0)
(-0.0168575 -0.114948 0)
(-0.0197203 -0.114612 0)
(-0.0223411 -0.114149 0)
(-0.0246861 -0.113536 0)
(-0.0267174 -0.112747 0)
(-0.0284029 -0.111756 0)
(-0.0297212 -0.110534 0)
(-0.0306308 -0.109051 0)
(-0.0310491 -0.107271 0)
(-0.0309559 -0.105129 0)
(-0.0304019 -0.102568 0)
(-0.0294169 -0.099534 0)
(-0.0280308 -0.0959581 0)
(-0.026291 -0.091765 0)
(-0.0242772 -0.0868776 0)
(-0.0220827 -0.081198 0)
(-0.0198478 -0.074621 0)
(-0.0176147 -0.0671287 0)
)
;
    }
    defaultFaces
    {
        type            empty;
    }
    procBoundary2to0
    {
        type            processor;
        value           nonuniform List<vector> 
24
(
(-0.108221 -0.232181 0)
(-0.11463 -0.227671 0)
(-0.116243 -0.213038 0)
(-0.118203 -0.202518 0)
(-0.126638 -0.200602 0)
(-0.131919 -0.203119 0)
(-0.135204 -0.198444 0)
(2.49212e-05 -0.152452 0)
(-0.00247506 -0.170622 0)
(-0.00488556 -0.170891 0)
(-0.00658565 -0.172048 0)
(-0.00900824 -0.173358 0)
(-0.0106117 -0.173964 0)
(-0.0118698 -0.174437 0)
(-0.0121865 -0.174482 0)
(-0.0120243 -0.174602 0)
(-0.0113549 -0.173028 0)
(-0.0103804 -0.177082 0)
(-0.0129111 -0.184763 0)
(-0.0171648 -0.19595 0)
(-0.0293122 -0.202699 0)
(-0.0460364 -0.21024 0)
(-0.0597431 -0.217172 0)
(-0.0597431 -0.217172 0)
)
;
    }
    procBoundary2to3
    {
        type            processor;
        value           nonuniform List<vector> 
25
(
(-0.145297 -0.17774 0)
(-0.149938 -0.175199 0)
(-0.136961 -0.164611 0)
(-0.136568 -0.152517 0)
(-0.126898 -0.150076 0)
(-0.123227 -0.135159 0)
(-0.116695 -0.126864 0)
(-0.110399 -0.119345 0)
(-0.103511 -0.110771 0)
(-0.0970894 -0.104845 0)
(-0.0903213 -0.0985076 0)
(-0.0840528 -0.0934266 0)
(-0.077816 -0.0887633 0)
(-0.0718002 -0.0847235 0)
(-0.0659345 -0.0810809 0)
(-0.0602002 -0.0777954 0)
(-0.0545886 -0.0747968 0)
(-0.049068 -0.0720313 0)
(-0.0436282 -0.0694637 0)
(-0.0382137 -0.0670755 0)
(-0.0327501 -0.0647809 0)
(-0.0270986 -0.0623733 0)
(-0.0217923 -0.060299 0)
(-0.0183993 -0.0598176 0)
(-0.0167576 -0.0614791 0)
)
;
    }
}


// ************************************************************************* //
