/*--------------------------------*- C++ -*----------------------------------*\
| =========                 |                                                 |
| \\      /  F ield         | OpenFOAM: The Open Source CFD Toolbox           |
|  \\    /   O peration     | Version:  2.4.0                                 |
|   \\  /    A nd           | Web:      www.OpenFOAM.org                      |
|    \\/     M anipulation  |                                                 |
\*---------------------------------------------------------------------------*/
FoamFile
{
    version     2.0;
    format      ascii;
    class       volVectorField;
    location    "0.45";
    object      U.oil;
}
// * * * * * * * * * * * * * * * * * * * * * * * * * * * * * * * * * * * * * //

dimensions      [0 1 -1 0 0 0 0];

internalField   nonuniform List<vector> 
559
(
(-0.0769994 -0.220599 0)
(-0.0904438 -0.216337 0)
(-0.0999949 -0.206537 0)
(-0.106785 -0.19192 0)
(-0.115205 -0.186005 0)
(-0.12922 -0.183946 0)
(-0.140411 -0.180194 0)
(-0.000874136 -0.149808 0)
(-0.00217164 -0.167763 0)
(-0.00344659 -0.168803 0)
(-0.00505144 -0.170406 0)
(-0.0073587 -0.171475 0)
(-0.0102417 -0.172912 0)
(-0.0127854 -0.173496 0)
(-0.0152934 -0.174236 0)
(-0.0172758 -0.174243 0)
(-0.0179744 -0.175193 0)
(-0.0178763 -0.177995 0)
(-0.0179827 -0.184196 0)
(-0.0225368 -0.189859 0)
(-0.0308511 -0.196171 0)
(-0.0426173 -0.204013 0)
(-0.054352 -0.20666 0)
(-0.0738343 -0.204574 0)
(-0.0893403 -0.200234 0)
(-0.0991644 -0.196259 0)
(-0.109873 -0.185533 0)
(-0.122033 -0.175261 0)
(-0.134699 -0.17693 0)
(-0.144539 -0.17855 0)
(-0.000263829 -0.148428 0)
(-0.00202246 -0.166501 0)
(-0.00384903 -0.166909 0)
(-0.00709062 -0.167478 0)
(-0.00989983 -0.168056 0)
(-0.013417 -0.168736 0)
(-0.0170262 -0.169337 0)
(-0.0203025 -0.170245 0)
(-0.0234647 -0.172005 0)
(-0.0261298 -0.173905 0)
(-0.0283929 -0.175551 0)
(-0.0311321 -0.177957 0)
(-0.0363399 -0.181922 0)
(-0.0418156 -0.187464 0)
(-0.0514067 -0.189807 0)
(-0.0622892 -0.187561 0)
(-0.0752293 -0.190396 0)
(-0.0861592 -0.192416 0)
(-0.0972753 -0.187377 0)
(-0.107875 -0.176493 0)
(-0.114664 -0.165063 0)
(-0.123345 -0.16527 0)
(-0.130507 -0.168625 0)
(-0.000552715 -0.147603 0)
(-0.00249268 -0.164064 0)
(-0.00590887 -0.163628 0)
(-0.00822525 -0.164005 0)
(-0.0109831 -0.164494 0)
(-0.0135432 -0.164802 0)
(-0.0162387 -0.165606 0)
(-0.019341 -0.166188 0)
(-0.023083 -0.166834 0)
(-0.0272241 -0.169252 0)
(-0.0318832 -0.172261 0)
(-0.0360447 -0.175261 0)
(-0.0425656 -0.176715 0)
(-0.0503579 -0.178601 0)
(-0.0581888 -0.178865 0)
(-0.0666845 -0.17883 0)
(-0.0741485 -0.177477 0)
(-0.084433 -0.175486 0)
(-0.0968557 -0.171406 0)
(-0.108023 -0.163827 0)
(-0.116421 -0.155875 0)
(-0.124995 -0.157177 0)
(-0.130538 -0.157895 0)
(-0.000960503 -0.145313 0)
(-0.00343097 -0.161586 0)
(-0.00530202 -0.161523 0)
(-0.00743854 -0.162334 0)
(-0.00980029 -0.162415 0)
(-0.0121912 -0.162372 0)
(-0.014889 -0.162631 0)
(-0.0177304 -0.162984 0)
(-0.0207859 -0.164082 0)
(-0.0246322 -0.165821 0)
(-0.030478 -0.167656 0)
(-0.0349539 -0.169445 0)
(-0.0407 -0.169257 0)
(-0.0484528 -0.170981 0)
(-0.0561264 -0.171698 0)
(-0.064544 -0.17237 0)
(-0.0713515 -0.172027 0)
(-0.0799658 -0.168736 0)
(-0.0899468 -0.165247 0)
(-0.0976685 -0.158902 0)
(-0.104475 -0.152691 0)
(-0.110244 -0.153218 0)
(-0.119108 -0.155838 0)
(-0.000703068 -0.14382 0)
(-0.00277342 -0.159589 0)
(-0.00530656 -0.159415 0)
(-0.00792096 -0.15948 0)
(-0.0106847 -0.159771 0)
(-0.0134752 -0.160363 0)
(-0.0161013 -0.160792 0)
(-0.0187678 -0.161105 0)
(-0.0215913 -0.161088 0)
(-0.0251485 -0.161434 0)
(-0.0282784 -0.162426 0)
(-0.0341591 -0.162535 0)
(-0.0396475 -0.163803 0)
(-0.0447484 -0.16399 0)
(-0.0512956 -0.163684 0)
(-0.0591575 -0.162441 0)
(-0.0688751 -0.159737 0)
(-0.0790024 -0.15638 0)
(-0.0863797 -0.153345 0)
(-0.0932105 -0.147033 0)
(-0.10245 -0.141671 0)
(-0.106857 -0.140484 0)
(-0.115628 -0.139461 0)
(-0.00112291 -0.141094 0)
(-0.00382111 -0.156591 0)
(-0.0065625 -0.156578 0)
(-0.00918262 -0.156842 0)
(-0.0118435 -0.156945 0)
(-0.0145787 -0.156957 0)
(-0.0175999 -0.157143 0)
(-0.0208198 -0.157491 0)
(-0.0242023 -0.157894 0)
(-0.0273078 -0.157311 0)
(-0.0318098 -0.157175 0)
(-0.0374573 -0.15835 0)
(-0.0430865 -0.158781 0)
(-0.048806 -0.157598 0)
(-0.0547927 -0.1569 0)
(-0.0611577 -0.154851 0)
(-0.0672322 -0.152619 0)
(-0.0732207 -0.152687 0)
(-0.080065 -0.149268 0)
(-0.0885663 -0.143422 0)
(-0.0940692 -0.138545 0)
(-0.101777 -0.137023 0)
(-0.10977 -0.132465 0)
(-0.000780426 -0.139872 0)
(-0.00276443 -0.154802 0)
(-0.00522696 -0.154502 0)
(-0.00769249 -0.154482 0)
(-0.0103311 -0.154448 0)
(-0.0130883 -0.154458 0)
(-0.0159534 -0.154404 0)
(-0.0190644 -0.15441 0)
(-0.0225778 -0.154469 0)
(-0.026943 -0.154703 0)
(-0.0309912 -0.154204 0)
(-0.0338374 -0.15388 0)
(-0.0385462 -0.153267 0)
(-0.0452007 -0.152697 0)
(-0.0513396 -0.152072 0)
(-0.0564303 -0.149978 0)
(-0.0635609 -0.14794 0)
(-0.0707968 -0.142805 0)
(-0.0793603 -0.138098 0)
(-0.0846196 -0.134391 0)
(-0.090317 -0.131924 0)
(-0.0975471 -0.127434 0)
(-0.105433 -0.121939 0)
(-0.0010241 -0.136999 0)
(-0.00348869 -0.151558 0)
(-0.006094 -0.151322 0)
(-0.00867244 -0.15128 0)
(-0.0114292 -0.151176 0)
(-0.014422 -0.151114 0)
(-0.0175499 -0.15108 0)
(-0.0207774 -0.150915 0)
(-0.0242367 -0.150511 0)
(-0.0278332 -0.149697 0)
(-0.0312166 -0.148977 0)
(-0.0355862 -0.148468 0)
(-0.0402669 -0.147061 0)
(-0.044163 -0.14588 0)
(-0.0500646 -0.143757 0)
(-0.0577733 -0.142556 0)
(-0.0630631 -0.139614 0)
(-0.06855 -0.13675 0)
(-0.0727171 -0.135434 0)
(-0.0784499 -0.131373 0)
(-0.0849197 -0.124382 0)
(-0.0930768 -0.119097 0)
(-0.0986698 -0.116234 0)
(-0.000977328 -0.135658 0)
(-0.00323889 -0.149965 0)
(-0.00570843 -0.149714 0)
(-0.0080338 -0.149589 0)
(-0.0104088 -0.149333 0)
(-0.0127653 -0.148894 0)
(-0.0153783 -0.148426 0)
(-0.0183445 -0.148002 0)
(-0.0215134 -0.147446 0)
(-0.024895 -0.14678 0)
(-0.0291935 -0.146032 0)
(-0.0342696 -0.144684 0)
(-0.0388403 -0.143716 0)
(-0.0439703 -0.141656 0)
(-0.0481598 -0.140238 0)
(-0.0512456 -0.138681 0)
(-0.0569874 -0.135992 0)
(-0.0628789 -0.132545 0)
(-0.0690639 -0.126537 0)
(-0.0768462 -0.122058 0)
(-0.0816395 -0.119648 0)
(-0.0863896 -0.11523 0)
(-0.0929078 -0.108113 0)
(-0.000974991 -0.13287 0)
(-0.00322014 -0.146754 0)
(-0.00573319 -0.14648 0)
(-0.00823437 -0.146253 0)
(-0.0109456 -0.145961 0)
(-0.0138135 -0.145674 0)
(-0.0167631 -0.145285 0)
(-0.0198247 -0.14467 0)
(-0.0230221 -0.143849 0)
(-0.0262945 -0.142751 0)
(-0.0293404 -0.141235 0)
(-0.0320171 -0.140018 0)
(-0.0357624 -0.138706 0)
(-0.0399734 -0.137293 0)
(-0.0448528 -0.134776 0)
(-0.0510617 -0.131444 0)
(-0.0570887 -0.12863 0)
(-0.0618818 -0.124943 0)
(-0.0662903 -0.122934 0)
(-0.0695663 -0.119974 0)
(-0.0752443 -0.113434 0)
(-0.0818948 -0.107835 0)
(-0.0867951 -0.103098 0)
(-0.000915134 -0.131557 0)
(-0.00290174 -0.145251 0)
(-0.00510816 -0.144961 0)
(-0.00720524 -0.144627 0)
(-0.00942491 -0.144135 0)
(-0.011767 -0.143503 0)
(-0.0143327 -0.142771 0)
(-0.0171501 -0.141962 0)
(-0.0202212 -0.141048 0)
(-0.023569 -0.140021 0)
(-0.027356 -0.13886 0)
(-0.0317608 -0.137125 0)
(-0.0359154 -0.135062 0)
(-0.0400227 -0.132852 0)
(-0.0440865 -0.130737 0)
(-0.0476336 -0.128909 0)
(-0.051064 -0.126322 0)
(-0.055665 -0.122648 0)
(-0.0607075 -0.117137 0)
(-0.0665655 -0.112136 0)
(-0.0714109 -0.108682 0)
(-0.0758997 -0.103752 0)
(-0.0807988 -0.0976173 0)
(-0.000919688 -0.128986 0)
(-0.00297108 -0.142365 0)
(-0.00524253 -0.142088 0)
(-0.00745418 -0.141688 0)
(-0.00980037 -0.141139 0)
(-0.0122314 -0.140439 0)
(-0.0147552 -0.139557 0)
(-0.017381 -0.138488 0)
(-0.0201305 -0.137238 0)
(-0.0230116 -0.135783 0)
(-0.0259472 -0.134103 0)
(-0.0287701 -0.132472 0)
(-0.0319848 -0.130774 0)
(-0.0355831 -0.128619 0)
(-0.039466 -0.126012 0)
(-0.0439231 -0.122767 0)
(-0.0489192 -0.119287 0)
(-0.0536117 -0.115999 0)
(-0.0577799 -0.113017 0)
(-0.0614762 -0.109115 0)
(-0.0657955 -0.103941 0)
(-0.0706609 -0.0987265 0)
(-0.0749587 -0.0932058 0)
(-0.000831926 -0.127834 0)
(-0.00253506 -0.141032 0)
(-0.00450238 -0.140746 0)
(-0.00638416 -0.140273 0)
(-0.00843724 -0.139634 0)
(-0.0106271 -0.138841 0)
(-0.0129963 -0.137897 0)
(-0.0155519 -0.136805 0)
(-0.0182923 -0.135564 0)
(-0.0212076 -0.134142 0)
(-0.0242656 -0.132365 0)
(-0.0275624 -0.130168 0)
(-0.0310103 -0.127875 0)
(-0.0345291 -0.125534 0)
(-0.0381053 -0.122922 0)
(-0.0416385 -0.120123 0)
(-0.0451106 -0.116986 0)
(-0.0488011 -0.113141 0)
(-0.0528854 -0.108674 0)
(-0.0571132 -0.104147 0)
(-0.0611447 -0.0997094 0)
(-0.0652098 -0.0947021 0)
(-0.0691858 -0.089079 0)
(-0.000767126 -0.125591 0)
(-0.00240891 -0.138529 0)
(-0.00427742 -0.138209 0)
(-0.00606591 -0.13758 0)
(-0.00799973 -0.136765 0)
(-0.0100231 -0.13575 0)
(-0.0121674 -0.134542 0)
(-0.0144492 -0.133164 0)
(-0.01688 -0.13162 0)
(-0.0194835 -0.129945 0)
(-0.0222796 -0.128239 0)
(-0.0251307 -0.126378 0)
(-0.0280619 -0.124165 0)
(-0.0311873 -0.121603 0)
(-0.034511 -0.118808 0)
(-0.0380137 -0.115698 0)
(-0.041683 -0.112278 0)
(-0.0453906 -0.108697 0)
(-0.0489908 -0.104861 0)
(-0.0525179 -0.100575 0)
(-0.0561266 -0.0958396 0)
(-0.059916 -0.0908297 0)
(-0.0635503 -0.0853919 0)
(-0.000657815 -0.124645 0)
(-0.00202019 -0.137496 0)
(-0.0036737 -0.137189 0)
(-0.00522327 -0.136523 0)
(-0.00693941 -0.13567 0)
(-0.00875922 -0.134607 0)
(-0.0107271 -0.133337 0)
(-0.0128573 -0.131881 0)
(-0.0151408 -0.130231 0)
(-0.0175585 -0.128356 0)
(-0.0201182 -0.126244 0)
(-0.0228587 -0.123922 0)
(-0.0257432 -0.121462 0)
(-0.0287029 -0.118824 0)
(-0.0317368 -0.115915 0)
(-0.0348524 -0.112744 0)
(-0.0380244 -0.109295 0)
(-0.0412705 -0.105485 0)
(-0.0446118 -0.101345 0)
(-0.0479693 -0.0969433 0)
(-0.0512852 -0.0923079 0)
(-0.0546699 -0.08736 0)
(-0.0579987 -0.0820138 0)
(-0.000506291 -0.123075 0)
(-0.0016639 -0.135554 0)
(-0.00313296 -0.135206 0)
(-0.00446895 -0.134402 0)
(-0.00597245 -0.133404 0)
(-0.00755395 -0.132182 0)
(-0.00924549 -0.130748 0)
(-0.0110877 -0.12914 0)
(-0.0131091 -0.127373 0)
(-0.0153256 -0.125454 0)
(-0.0177221 -0.123374 0)
(-0.020254 -0.121094 0)
(-0.0228941 -0.11856 0)
(-0.0256433 -0.115764 0)
(-0.0284854 -0.112748 0)
(-0.0313997 -0.109491 0)
(-0.0343684 -0.10597 0)
(-0.0373746 -0.102194 0)
(-0.0403955 -0.0981337 0)
(-0.0434144 -0.0937623 0)
(-0.0464255 -0.0890973 0)
(-0.0494959 -0.0841727 0)
(-0.0525465 -0.0789246 0)
(-0.000323795 -0.122417 0)
(-0.00130366 -0.134655 0)
(-0.00266135 -0.134296 0)
(-0.00381626 -0.133432 0)
(-0.00514335 -0.132384 0)
(-0.00650358 -0.131092 0)
(-0.0078479 -0.129466 0)
(-0.0092321 -0.127595 0)
(-0.0107554 -0.125525 0)
(-0.0124976 -0.123289 0)
(-0.0145341 -0.120943 0)
(-0.0168842 -0.118498 0)
(-0.0194728 -0.115925 0)
(-0.0222412 -0.113179 0)
(-0.0249883 -0.110105 0)
(-0.0277699 -0.106782 0)
(-0.0305438 -0.103197 0)
(-0.0333116 -0.0993461 0)
(-0.0360855 -0.0952221 0)
(-0.0388507 -0.0908283 0)
(-0.0415963 -0.086173 0)
(-0.0443721 -0.0812659 0)
(-0.0471631 -0.07608 0)
(-4.78471e-05 -0.121491 0)
(-0.000978263 -0.133204 0)
(-0.00242049 -0.132828 0)
(-0.00350978 -0.131915 0)
(-0.00477783 -0.130814 0)
(-0.00602408 -0.129489 0)
(-0.00729853 -0.127977 0)
(-0.00857197 -0.126168 0)
(-0.00986168 -0.124027 0)
(-0.0111958 -0.121562 0)
(-0.0126102 -0.118843 0)
(-0.0141819 -0.115953 0)
(-0.0160064 -0.112993 0)
(-0.0181819 -0.110019 0)
(-0.0207578 -0.107024 0)
(-0.023519 -0.10386 0)
(-0.0263504 -0.100465 0)
(-0.0290578 -0.0966795 0)
(-0.0316878 -0.0925758 0)
(-0.0342436 -0.0881883 0)
(-0.0367587 -0.0835295 0)
(-0.0392778 -0.0786185 0)
(-0.0418356 -0.0734589 0)
(0.000126356 -0.121079 0)
(-0.000926865 -0.131929 0)
(-0.00277499 -0.131556 0)
(-0.00403423 -0.130697 0)
(-0.0054498 -0.129616 0)
(-0.0067659 -0.128356 0)
(-0.0080629 -0.126872 0)
(-0.00931178 -0.125088 0)
(-0.0104941 -0.122971 0)
(-0.0116262 -0.12055 0)
(-0.0127523 -0.117837 0)
(-0.0139492 -0.114897 0)
(-0.0152583 -0.111735 0)
(-0.0166042 -0.108236 0)
(-0.0180199 -0.104663 0)
(-0.0196739 -0.101041 0)
(-0.0216868 -0.0973878 0)
(-0.0242181 -0.0937701 0)
(-0.0268852 -0.0899416 0)
(-0.0294294 -0.0857481 0)
(-0.031816 -0.0811256 0)
(-0.0341514 -0.0762121 0)
(-0.0365122 -0.071053 0)
(0.000173834 -0.120904 0)
(-0.00136242 -0.13048 0)
(-0.00396159 -0.130113 0)
(-0.00575085 -0.129401 0)
(-0.00766077 -0.128424 0)
(-0.00931814 -0.127176 0)
(-0.0109215 -0.125711 0)
(-0.0123647 -0.123989 0)
(-0.0136335 -0.122014 0)
(-0.0146597 -0.119721 0)
(-0.0154241 -0.117062 0)
(-0.0159947 -0.11405 0)
(-0.0165095 -0.110773 0)
(-0.0171216 -0.107349 0)
(-0.0179067 -0.103728 0)
(-0.0188542 -0.0999097 0)
(-0.0199606 -0.095838 0)
(-0.0209529 -0.0916021 0)
(-0.0222722 -0.0873223 0)
(-0.0241174 -0.0830241 0)
(-0.0264792 -0.078633 0)
(-0.0288445 -0.0739224 0)
(-0.0311035 -0.0687578 0)
(5.91725e-05 -0.120737 0)
(-0.00231788 -0.128599 0)
(-0.0058075 -0.12828 0)
(-0.00842002 -0.12777 0)
(-0.0110936 -0.12694 0)
(-0.0134055 -0.1258 0)
(-0.0155396 -0.124454 0)
(-0.0174076 -0.122884 0)
(-0.0190387 -0.121047 0)
(-0.0203804 -0.118994 0)
(-0.0213474 -0.116647 0)
(-0.0218535 -0.113919 0)
(-0.0219154 -0.110799 0)
(-0.0216516 -0.107343 0)
(-0.0211901 -0.10352 0)
(-0.0207068 -0.0994383 0)
(-0.0203694 -0.0952038 0)
(-0.0204639 -0.0908179 0)
(-0.0208056 -0.0862642 0)
(-0.0213837 -0.0815112 0)
(-0.0219743 -0.0765329 0)
(-0.0231332 -0.0713446 0)
(-0.0254185 -0.0661563 0)
(-0.000398904 -0.118781 0)
(-0.00338765 -0.124638 0)
(-0.00742064 -0.124427 0)
(-0.0106896 -0.124119 0)
(-0.0139926 -0.123548 0)
(-0.0169785 -0.12276 0)
(-0.0196374 -0.121705 0)
(-0.0220011 -0.120433 0)
(-0.0239912 -0.118962 0)
(-0.0256487 -0.117252 0)
(-0.0269908 -0.115326 0)
(-0.0279622 -0.113118 0)
(-0.0284964 -0.110574 0)
(-0.0285587 -0.107677 0)
(-0.0281269 -0.104382 0)
(-0.0271653 -0.10063 0)
(-0.0257554 -0.0964402 0)
(-0.0240777 -0.0918 0)
(-0.0223954 -0.0867775 0)
(-0.0210481 -0.0814177 0)
(-0.0204439 -0.0759488 0)
(-0.020463 -0.070329 0)
(-0.0209954 -0.0645405 0)
(-0.000799294 -0.114715 0)
(-0.00390868 -0.118355 0)
(-0.00768597 -0.118282 0)
(-0.0109589 -0.118196 0)
(-0.0142759 -0.117947 0)
(-0.0173759 -0.117592 0)
(-0.0202334 -0.117082 0)
(-0.0228024 -0.116405 0)
(-0.0250632 -0.115544 0)
(-0.0269835 -0.114468 0)
(-0.0285401 -0.113148 0)
(-0.0297293 -0.111578 0)
(-0.0305189 -0.109695 0)
(-0.0308862 -0.107482 0)
(-0.0308318 -0.104901 0)
(-0.0303571 -0.101905 0)
(-0.0294479 -0.0984359 0)
(-0.0281091 -0.0944266 0)
(-0.0263735 -0.0898243 0)
(-0.0243306 -0.0846066 0)
(-0.0220917 -0.078596 0)
(-0.0200699 -0.0719173 0)
(-0.0185251 -0.0648787 0)
(-0.000752899 -0.112983 0)
(-0.00373176 -0.115439 0)
(-0.0074141 -0.115421 0)
(-0.0105751 -0.115403 0)
(-0.0138148 -0.115263 0)
(-0.0168574 -0.115035 0)
(-0.0197202 -0.114694 0)
(-0.0223411 -0.114224 0)
(-0.024686 -0.113604 0)
(-0.0267173 -0.112809 0)
(-0.0284027 -0.111812 0)
(-0.0297209 -0.110584 0)
(-0.0306304 -0.109096 0)
(-0.0310485 -0.107312 0)
(-0.0309552 -0.105167 0)
(-0.0304013 -0.102603 0)
(-0.0294167 -0.0995644 0)
(-0.0280309 -0.0959835 0)
(-0.0262914 -0.0917852 0)
(-0.0242777 -0.0868935 0)
(-0.0220831 -0.081212 0)
(-0.0198479 -0.074636 0)
(-0.0176142 -0.0671464 0)
)
;

boundaryField
{
    leftWall
    {
        type            fixedValue;
        value           uniform (0 0 0);
    }
    rightWall
    {
        type            fixedValue;
        value           nonuniform 0();
    }
    lowerWall
    {
        type            fixedValue;
        value           nonuniform 0();
    }
    atmosphere
    {
        type            fluxCorrectedVelocity;
        value           nonuniform List<vector> 
23
(
(-0.000752899 -0.112914 0)
(-0.00373176 -0.115342 0)
(-0.0074141 -0.115324 0)
(-0.0105751 -0.115309 0)
(-0.0138148 -0.115171 0)
(-0.0168574 -0.114948 0)
(-0.0197202 -0.114612 0)
(-0.0223411 -0.114149 0)
(-0.024686 -0.113536 0)
(-0.0267173 -0.112747 0)
(-0.0284027 -0.111756 0)
(-0.0297209 -0.110534 0)
(-0.0306304 -0.109051 0)
(-0.0310485 -0.107271 0)
(-0.0309552 -0.105129 0)
(-0.0304013 -0.102568 0)
(-0.0294167 -0.099534 0)
(-0.0280309 -0.0959581 0)
(-0.0262914 -0.091765 0)
(-0.0242777 -0.0868776 0)
(-0.0220831 -0.081198 0)
(-0.0198479 -0.074621 0)
(-0.0176142 -0.0671287 0)
)
;
    }
    defaultFaces
    {
        type            empty;
    }
    procBoundary2to0
    {
        type            processor;
        value           nonuniform List<vector> 
24
(
(-0.108356 -0.23429 0)
(-0.114705 -0.229244 0)
(-0.116271 -0.214006 0)
(-0.118196 -0.203 0)
(-0.126628 -0.20087 0)
(-0.131917 -0.203311 0)
(-0.135207 -0.198612 0)
(2.65854e-05 -0.152464 0)
(-0.00247037 -0.170634 0)
(-0.00487814 -0.170904 0)
(-0.00657564 -0.172062 0)
(-0.00899566 -0.173372 0)
(-0.0105966 -0.173978 0)
(-0.0118523 -0.174453 0)
(-0.0121665 -0.1745 0)
(-0.0120019 -0.174622 0)
(-0.01133 -0.173054 0)
(-0.0103537 -0.177115 0)
(-0.0128847 -0.184848 0)
(-0.0171586 -0.196369 0)
(-0.0293613 -0.203864 0)
(-0.0461631 -0.212372 0)
(-0.0599005 -0.219636 0)
(-0.0599005 -0.219636 0)
)
;
    }
    procBoundary2to3
    {
        type            processor;
        value           nonuniform List<vector> 
25
(
(-0.145296 -0.177857 0)
(-0.149935 -0.175295 0)
(-0.136955 -0.164694 0)
(-0.136562 -0.152589 0)
(-0.126891 -0.150139 0)
(-0.12322 -0.135214 0)
(-0.116688 -0.126912 0)
(-0.110392 -0.119389 0)
(-0.103504 -0.11081 0)
(-0.0970827 -0.10488 0)
(-0.0903152 -0.0985401 0)
(-0.0840465 -0.0934568 0)
(-0.0778104 -0.0887914 0)
(-0.0717945 -0.0847503 0)
(-0.0659296 -0.0811065 0)
(-0.0601953 -0.0778203 0)
(-0.0545846 -0.0748209 0)
(-0.049064 -0.0720554 0)
(-0.0436254 -0.0694879 0)
(-0.0382107 -0.0671004 0)
(-0.0327482 -0.0648067 0)
(-0.0270966 -0.0623999 0)
(-0.0217913 -0.0603265 0)
(-0.0183984 -0.0598464 0)
(-0.0167572 -0.061511 0)
)
;
    }
}


// ************************************************************************* //
