/*--------------------------------*- C++ -*----------------------------------*\
| =========                 |                                                 |
| \\      /  F ield         | OpenFOAM: The Open Source CFD Toolbox           |
|  \\    /   O peration     | Version:  2.4.0                                 |
|   \\  /    A nd           | Web:      www.OpenFOAM.org                      |
|    \\/     M anipulation  |                                                 |
\*---------------------------------------------------------------------------*/
FoamFile
{
    version     2.0;
    format      ascii;
    class       volScalarField;
    location    "0.65";
    object      alpha.air;
}
// * * * * * * * * * * * * * * * * * * * * * * * * * * * * * * * * * * * * * //

dimensions      [0 0 0 0 0 0 0];

internalField   nonuniform List<scalar> 
559
(
1.18229e-15
8.03403e-15
2.69623e-14
5.12785e-14
7.91147e-14
1.19988e-13
3.15515e-13
5.33464e-13
3.53976e-06
3.53556e-06
2.99807e-06
1.31697e-06
1.31699e-06
1.31701e-06
2.70684e-06
6.84905e-06
5.38851e-06
7.48705e-06
5.53569e-05
0.000154801
0.00013582
7.2099e-05
4.04582e-05
1.44448e-05
1.17139e-05
1.1714e-05
2.07902e-05
5.90069e-05
0.000396577
0.000103391
1.07828e-05
2.10498e-06
1.31706e-06
1.53611e-06
1.01488e-06
1.015e-06
1.18971e-06
2.35907e-06
5.26205e-06
6.58388e-05
0.000311651
0.000316851
9.81205e-05
1.40258e-05
1.68285e-05
4.3723e-05
0.00152929
0.0059785
0.00182746
0.000323512
9.56837e-05
0.000127248
5.74283e-05
6.2104e-06
2.38152e-06
4.945e-06
1.2107e-06
1.14268e-06
1.04286e-05
7.45569e-05
0.000158022
0.000664876
0.000176529
0.000145125
4.01715e-05
0.00116885
0.00948361
0.00948345
0.00497806
0.00636685
0.0177631
0.0160623
0.00354396
0.000815926
0.000153601
1.21492e-05
1.01743e-06
1.01478e-06
1.4539e-06
8.01649e-06
0.00121777
0.0016436
0.000145752
4.01834e-05
0.000273038
0.00036565
0.00563401
0.0111205
0.049952
0.0929842
0.0928802
0.0524594
0.00649176
0.000178746
4.11239e-05
1.90501e-06
1.01478e-06
1.01479e-06
1.6914e-06
0.000307001
0.00165633
0.000126372
0.000125091
6.48493e-05
0.000309702
0.000472183
0.00197163
0.0178032
0.0736934
0.0929842
0.0293627
0.0020566
2.64506e-05
2.74642e-06
2.10636e-06
2.60335e-06
3.04223e-06
2.70576e-06
3.17828e-05
0.00165729
0.000916217
0.000184226
0.00142883
0.000922599
0.000478947
0.000497046
0.000816007
0.0200355
0.0597038
0.0330769
0.00400162
8.7813e-05
5.16712e-06
2.32481e-05
3.45194e-05
1.35677e-05
2.78087e-06
9.34624e-06
0.00165633
0.00165729
0.000214549
0.00988232
0.00291437
0.000486393
0.000493789
0.000507141
0.00101997
0.0174778
0.09149
0.0347076
0.00132887
3.09335e-05
4.84848e-05
3.41958e-05
7.47792e-06
2.79033e-06
4.0219e-06
0.000954699
0.00165635
0.000617143
2.09308e-08
5.06088e-06
7.43206e-05
0.0232896
0.396174
0.989436
0.999991
0.999998
1.22639e-07
3.96394e-07
1.43126e-06
2.53223e-06
2.08849e-05
6.19705e-05
0.000202003
0.000349576
0.000237088
0.000639723
0.00206797
0.00525469
0.0438261
0.0791725
0.149796
0.248491
0.505256
0.604347
0.762133
0.904156
0.999706
0.999668
0.99875
0.998566
0.999991
0.999992
0.999993
0.999993
0.999994
0.999993
0.999993
0.999994
0.999996
0.999994
0.999993
0.999995
0.999996
0.999995
0.999995
0.999996
0.999998
0.999997
0.999995
0.999997
0.999997
0.999996
0.999997
0.999997
0.999999
0.999998
0.999996
0.999998
0.999998
0.999996
0.999998
0.999997
0.999998
0.999999
0.999996
0.999998
0.999998
0.999996
0.999997
0.999996
0.999996
0.999999
0.999997
0.999998
0.00175233
0.00691465
0.00210057
0.00153963
0.000820504
0.000804867
0.0138393
0.101728
0.10186
0.0264065
0.000897057
6.41999e-05
0.00352563
0.133823
0.0161185
5.09203e-06
9.8867e-05
0.000897326
0.00375143
0.000944554
0.0208315
0.071806
0.133321
0.0935759
0.028118
0.0209404
0.0187747
0.0293727
0.0164864
0.00140027
0.000173152
0.0789499
0.510405
0.478401
0.0547433
0.000270655
0.000557545
0.00721743
0.04116
0.295425
0.591963
0.859231
0.814461
0.555806
0.263059
0.0392867
0.00680132
0.00357881
0.00153971
0.000311641
0.115073
0.505801
0.525641
0.366659
0.0299445
0.00152804
0.00197179
0.493191
0.75618
0.892637
0.886933
0.851889
0.860518
0.727419
0.413639
0.287137
0.0530216
0.00136612
0.000305405
0.0400556
0.166628
0.218102
0.195426
0.0664939
0.00307614
0.00167653
0.986085
0.971625
0.739976
0.285521
0.197502
0.225738
0.304442
0.534988
0.556882
0.538728
0.297634
0.038595
0.0138879
0.0149595
0.0300226
0.0379076
0.0190855
0.00279074
0.00181282
0.999735
0.99028
0.746468
0.186404
0.0308971
0.0167304
0.0163096
0.0244036
0.0869461
0.460278
0.560401
0.540147
0.144873
0.015233
0.00200891
0.00201307
0.0248482
0.0622628
0.0968838
0.99999
0.998071
0.948628
0.704616
0.334272
0.11116
0.0144178
0.00069982
0.000643213
0.00588935
0.407552
0.552196
0.415874
0.22477
0.0246816
0.0040718
0.274104
0.645962
0.691767
0.999995
0.999825
0.998007
0.985159
0.913391
0.672229
0.267305
0.0191101
0.0005437
0.000480647
0.00860522
0.384375
0.861146
0.538898
0.223176
0.0220144
0.71914
0.914623
0.891413
0.999997
0.999992
0.999968
0.999898
0.999258
0.986064
0.815797
0.222439
0.0109149
0.000456395
0.0172564
0.379961
0.937662
0.918614
0.368773
0.0857509
0.800524
0.915156
0.611257
0.999998
1
1
1
1
0.999961
0.982834
0.595244
0.0490409
0.000771813
0.027307
0.401879
0.939016
0.968462
0.755236
0.263666
0.609114
0.900317
0.295805
0.999999
1
1
1
1
1
0.993013
0.720267
0.0769928
0.00172657
0.0385883
0.395569
0.911505
0.968488
0.957093
0.520269
0.281084
0.561576
0.103759
0.999999
1
1
1
1
0.999884
0.977687
0.635624
0.0692687
0.00288923
0.0865502
0.556947
0.933358
0.968523
0.968533
0.865644
0.281807
0.128285
0.0105615
0.999999
1
1
1
1
0.998525
0.913242
0.407144
0.0307317
0.00384656
0.122601
0.680271
0.964349
0.968473
0.968523
0.966585
0.503966
0.00774398
0.000161457
0.999999
0.999999
1
0.999999
0.999997
0.996834
0.868803
0.304884
0.0171432
0.00366748
0.0749641
0.594199
0.964154
0.968467
0.968486
0.964011
0.510371
0.00133109
4.49116e-05
0.999997
0.999999
0.999997
0.999999
0.999995
0.997135
0.892966
0.445244
0.0645214
0.0052459
0.0176641
0.244634
0.844807
0.968496
0.96853
0.753594
0.140483
0.000497256
4.46922e-05
0.999998
0.999997
0.999998
0.999997
0.999997
0.999887
0.992175
0.865043
0.410077
0.0637019
0.016637
0.0201312
0.160395
0.347869
0.228887
0.0516953
0.0121647
0.000100223
3.46679e-05
0.999997
0.999998
0.999996
0.999999
0.999997
0.999999
0.999923
0.993178
0.880631
0.427065
0.0631903
0.0107078
0.00423606
0.00476355
0.00286687
0.000540593
0.000141552
3.84549e-05
3.82488e-05
)
;

boundaryField
{
    leftWall
    {
        type            alphaContactAngle;
        thetaProperties 
6
(

(
water
mercury
)
 90 0 0 0

(
water
air
)
 90 0 0 0

(
water
oil
)
 90 0 0 0

(
mercury
air
)
 90 0 0 0

(
oil
mercury
)
 90 0 0 0

(
oil
air
)
 90 0 0 0
);
        value           nonuniform 0();
    }
    rightWall
    {
        type            alphaContactAngle;
        thetaProperties 
6
(

(
water
mercury
)
 90 0 0 0

(
water
air
)
 90 0 0 0

(
water
oil
)
 90 0 0 0

(
mercury
air
)
 90 0 0 0

(
oil
mercury
)
 90 0 0 0

(
oil
air
)
 90 0 0 0
);
        value           nonuniform List<scalar> 
25
(
2.07902e-05
4.3723e-05
4.01715e-05
4.01834e-05
0.000125091
0.000184226
0.000214549
0.000617143
0.00375143
0.00721743
0.00197179
0.00167653
0.00181282
0.0968838
0.691767
0.891413
0.611257
0.295805
0.103759
0.0105615
0.000161457
4.49116e-05
4.46922e-05
3.46679e-05
3.82488e-05
)
;
    }
    lowerWall
    {
        type            alphaContactAngle;
        thetaProperties 
6
(

(
water
mercury
)
 90 0 0 0

(
water
air
)
 90 0 0 0

(
water
oil
)
 90 0 0 0

(
mercury
air
)
 90 0 0 0

(
oil
mercury
)
 90 0 0 0

(
oil
air
)
 90 0 0 0
);
        value           nonuniform List<scalar> 
40
(
1.18229e-15
1.18229e-15
8.03403e-15
2.69623e-14
5.12785e-14
7.91147e-14
1.19988e-13
3.15515e-13
5.33464e-13
1.22639e-07
3.96394e-07
1.43126e-06
2.53223e-06
3.53976e-06
5.90069e-05
0.00152929
0.00116885
0.000273038
6.48493e-05
0.00142883
0.00988232
3.53976e-06
3.53556e-06
2.99807e-06
1.31697e-06
1.31699e-06
1.31701e-06
2.70684e-06
6.84905e-06
5.38851e-06
7.48705e-06
5.53569e-05
0.000154801
0.00013582
7.2099e-05
4.04582e-05
1.44448e-05
1.17139e-05
1.1714e-05
2.07902e-05
)
;
    }
    atmosphere
    {
        type            inletOutlet;
        inletValue      nonuniform 0();
        value           nonuniform 0();
    }
    defaultFaces
    {
        type            empty;
    }
    procBoundary1to0
    {
        type            processor;
        value           nonuniform List<scalar> 
26
(
1.99343e-15
1.35431e-14
6.33708e-14
1.63118e-13
3.0114e-13
5.07875e-13
8.91696e-13
7.52377e-13
5.11518e-09
7.00409e-07
7.94165e-06
0.00574346
0.249821
0.90806
0.999995
1
0.999998
0.999998
0.999999
0.999998
0.999999
0.999999
0.999999
0.999999
0.999998
0.999999
)
;
    }
    procBoundary1to3
    {
        type            processor;
        value           nonuniform List<scalar> 
23
(
0.999999
0.999998
0.999999
0.999996
0.999998
0.999996
0.999998
0.999996
0.999999
0.999998
1
0.999957
0.995982
0.908703
0.49019
0.0852071
0.00839917
0.000587838
0.000516314
0.000567563
0.00309519
0.00495908
0.00339277
)
;
    }
}


// ************************************************************************* //
