/*--------------------------------*- C++ -*----------------------------------*\
| =========                 |                                                 |
| \\      /  F ield         | OpenFOAM: The Open Source CFD Toolbox           |
|  \\    /   O peration     | Version:  2.4.0                                 |
|   \\  /    A nd           | Web:      www.OpenFOAM.org                      |
|    \\/     M anipulation  |                                                 |
\*---------------------------------------------------------------------------*/
FoamFile
{
    version     2.0;
    format      ascii;
    class       volScalarField;
    location    "0.65";
    object      alpha.water;
}
// * * * * * * * * * * * * * * * * * * * * * * * * * * * * * * * * * * * * * //

dimensions      [0 0 0 0 0 0 0];

internalField   nonuniform List<scalar> 
559
(
2.45443e-10
4.42578e-10
2.08034e-09
7.52995e-09
1.9766e-08
4.67747e-08
6.26329e-07
0.00020188
1.48248e-05
0.000143045
0.000487919
0.000103449
2.15257e-05
6.74089e-06
3.73108e-06
2.44716e-06
1.99953e-06
2.00554e-06
2.11337e-06
2.34738e-06
3.24351e-06
8.65426e-06
4.4902e-05
0.000185115
0.000386251
0.000457018
0.000497103
2.30974e-05
0.00129647
0.0119538
0.00535264
0.00196001
0.000406269
4.23702e-05
2.87996e-06
7.90236e-07
6.77035e-07
6.60782e-07
7.81906e-07
1.58846e-06
8.03083e-06
4.55904e-05
0.000211089
0.000479761
0.000652918
0.000600514
1.70347e-05
0.00357193
0.0603737
0.0750861
0.0564712
0.0220363
0.0047303
0.000568057
3.75549e-05
3.9751e-06
7.91249e-07
8.20742e-07
7.96572e-06
7.61037e-05
0.000333709
0.000858239
0.000740927
0.000730486
0.000683025
1.1565e-05
0.0202614
0.162447
0.345726
0.366938
0.265322
0.131997
0.0510172
0.0108844
0.00180022
0.000207188
1.90951e-05
4.71614e-05
0.000285486
0.00111103
0.00196274
0.00161215
0.000887591
0.000852498
0.000826404
0.094335
0.351722
0.673361
0.755593
0.701433
0.592114
0.447199
0.229988
0.0677138
0.0174337
0.00132551
0.000227116
0.00065621
0.00271281
0.0037826
0.00317612
0.00173721
0.00308027
0.0459155
0.278458
0.581801
0.817151
0.826732
0.816663
0.775718
0.741366
0.599056
0.341874
0.0936956
0.0219316
0.00228569
0.00265887
0.00641484
0.00568693
0.00514543
0.00460136
0.0108558
0.327021
0.472165
0.732733
0.826732
0.826739
0.826739
0.808864
0.801708
0.6933
0.464373
0.190621
0.0494006
0.0181553
0.0136383
0.0117522
0.0060695
0.0081739
0.00963407
0.0194344
0.524189
0.6654
0.79387
0.810136
0.819848
0.82673
0.826725
0.741874
0.691294
0.535559
0.297383
0.116166
0.0547512
0.0336726
0.01448
0.00607935
0.0124183
0.0164752
0.0228899
0.205794
0.874837
0.931891
0.623551
0.153733
0.000366523
9.58338e-09
1.639e-09
0.229208
0.246652
0.285799
0.319555
0.860792
0.85227
0.846697
0.845317
0.889798
0.851031
0.804802
0.756824
0.552337
0.502044
0.431505
0.332744
0.0947757
0.0533147
0.0163656
0.00257061
3.61019e-06
6.29367e-06
8.88555e-06
3.01619e-06
4.21668e-09
2.91169e-09
3.72265e-09
1.35654e-09
2.8756e-09
1.42362e-09
1.01799e-09
6.13108e-10
2.97131e-10
5.94965e-10
7.16229e-10
5.88886e-10
1.99096e-11
5.42415e-11
2.38828e-10
4.04745e-10
4.26913e-12
1.67449e-11
7.18199e-11
2.50949e-10
3.20999e-12
1.15725e-11
4.01992e-11
1.17092e-10
2.17749e-12
5.90165e-12
1.59981e-11
3.76362e-11
6.95913e-13
1.67292e-12
3.93308e-12
8.6393e-12
1.13598e-13
2.6363e-13
5.84492e-13
1.21288e-12
1.12872e-14
2.69576e-14
6.25493e-14
1.4054e-13
9.48197e-16
2.58402e-15
7.45384e-15
2.19954e-14
0.517715
0.715724
0.722547
0.679005
0.673416
0.714991
0.771864
0.717855
0.679153
0.617296
0.455098
0.283776
0.174397
0.0552829
0.0129201
0.011124
0.0170711
0.0182458
0.0244464
0.803407
0.711962
0.554435
0.421775
0.459937
0.524767
0.531154
0.629599
0.67896
0.678892
0.602447
0.441605
0.350612
0.107771
0.0437939
0.0832326
0.0480445
0.0244084
0.0302691
0.623809
0.369997
0.127995
0.0301767
0.0218396
0.0417014
0.158193
0.381964
0.477151
0.598749
0.603582
0.595345
0.517022
0.220621
0.198121
0.268583
0.225624
0.103343
0.0560588
0.153784
0.0118969
0.000223334
4.70592e-05
2.19936e-05
5.09026e-05
0.000788812
0.00761914
0.134884
0.368665
0.472419
0.513832
0.53854
0.526247
0.508928
0.531589
0.481484
0.258011
0.112876
0.00132931
9.58863e-05
3.86973e-06
4.12007e-06
4.23515e-06
5.88499e-06
7.67835e-06
2.57958e-05
0.00051955
0.0126342
0.136775
0.393054
0.451552
0.506804
0.562061
0.577674
0.566727
0.349537
0.141267
1.10178e-06
1.31783e-07
1.04956e-06
6.31098e-06
1.03027e-05
1.03121e-05
8.66395e-06
8.9334e-06
1.75256e-05
3.77871e-05
0.0312475
0.0783087
0.273296
0.40249
0.43967
0.531697
0.540354
0.369896
0.111628
6.81341e-10
8.44703e-09
5.66653e-07
2.97609e-06
4.80483e-06
5.97162e-06
9.58671e-06
2.17825e-05
3.39292e-05
3.3152e-05
0.000171331
0.0400022
0.0506118
0.192644
0.392614
0.441363
0.397243
0.158702
0.027258
6.18506e-10
1.21066e-09
4.21354e-08
1.15433e-07
3.04564e-07
7.36961e-07
3.99761e-06
3.48852e-05
9.91979e-05
0.000126343
0.000121778
0.00188798
0.00174257
0.0177821
0.194229
0.410267
0.168218
0.0254838
0.0335478
6.25596e-10
6.92779e-10
4.59226e-09
2.70146e-09
1.12796e-09
8.34807e-09
1.80877e-06
5.89333e-05
0.000262165
0.000345872
0.000279348
0.000111507
7.07055e-05
0.000331314
0.0638738
0.346734
0.102
0.0250023
0.175632
6.3963e-10
1.01049e-09
2.21198e-09
2.31288e-09
9.55718e-10
6.67669e-10
7.50814e-07
8.79037e-05
0.000676065
0.000958725
0.000751293
0.000387648
6.8001e-05
7.75941e-05
0.0181977
0.168585
0.135129
0.0414158
0.320983
6.1189e-10
1.48041e-09
2.5294e-09
2.73091e-09
1.61127e-09
6.74357e-10
3.47956e-07
0.000116684
0.00123012
0.0018957
0.00167006
0.000698534
8.91509e-05
5.14916e-05
0.00118571
0.0514142
0.211742
0.264938
0.341707
3.42847e-10
9.12354e-10
1.42419e-09
1.29663e-09
8.30793e-10
9.62346e-10
2.2899e-06
0.000256422
0.00192377
0.00292763
0.00280408
0.000914514
9.52535e-05
4.84895e-05
6.03551e-05
0.00693799
0.153886
0.341707
0.341707
8.41047e-11
2.56675e-10
3.11957e-10
2.4185e-10
2.59168e-10
1.75132e-08
1.40022e-05
0.000592593
0.00299807
0.00427157
0.00396049
0.00137223
7.43323e-05
4.84554e-05
5.15291e-05
0.000650054
0.061339
0.314987
0.326984
1.68386e-11
4.12113e-11
4.66723e-11
5.69782e-11
8.42803e-11
4.94164e-08
2.29421e-05
0.000787245
0.00403098
0.0069452
0.00792781
0.00354719
0.000136729
4.84489e-05
5.04389e-05
0.000408533
0.0381966
0.229839
0.291197
2.25691e-12
5.10545e-12
8.70471e-12
2.27205e-11
4.66612e-11
5.39064e-08
2.20866e-05
0.000745736
0.00445323
0.00895546
0.0125754
0.0127905
0.00339449
0.000180384
8.92157e-05
0.00161753
0.0460446
0.174135
0.255491
2.96528e-13
9.77204e-13
3.56408e-12
1.46931e-11
5.33176e-11
1.71933e-09
1.26568e-06
0.000147964
0.00246682
0.00986821
0.0161156
0.0252119
0.0284537
0.0253441
0.0354291
0.0688285
0.108383
0.172766
0.22608
6.23214e-14
3.25918e-13
1.66151e-12
7.94392e-12
3.13315e-11
8.72466e-11
3.04064e-09
3.65311e-06
0.00036023
0.00502018
0.01708
0.0288564
0.0356553
0.0664621
0.0882957
0.106681
0.130202
0.164456
0.183335
)
;

boundaryField
{
    leftWall
    {
        type            zeroGradient;
    }
    rightWall
    {
        type            zeroGradient;
    }
    lowerWall
    {
        type            zeroGradient;
    }
    atmosphere
    {
        type            inletOutlet;
        inletValue      nonuniform 0();
        value           nonuniform 0();
    }
    defaultFaces
    {
        type            empty;
    }
    procBoundary1to0
    {
        type            processor;
        value           nonuniform List<scalar> 
26
(
1.11634e-09
1.73427e-09
6.83799e-09
4.31553e-08
1.24681e-07
3.94537e-07
1.61777e-06
0.0022773
0.253484
0.88852
0.966763
0.718896
0.253712
0.00250655
3.10794e-08
2.32503e-09
3.7259e-11
3.7259e-11
3.8072e-12
1.52858e-12
7.63249e-13
5.02009e-13
1.70262e-13
2.85052e-14
2.79793e-15
2.47846e-16
)
;
    }
    procBoundary1to3
    {
        type            processor;
        value           nonuniform List<scalar> 
23
(
1.21399e-16
4.28209e-16
1.72281e-15
6.81297e-15
2.47503e-14
1.61378e-13
9.06848e-13
4.41588e-12
1.78886e-11
5.50491e-11
1.35005e-10
1.11552e-09
3.12248e-06
0.000348544
0.00492412
0.0173183
0.0311027
0.0395521
0.0559642
0.0690073
0.073948
0.0753579
0.0740685
)
;
    }
}


// ************************************************************************* //
