/*--------------------------------*- C++ -*----------------------------------*\
| =========                 |                                                 |
| \\      /  F ield         | OpenFOAM: The Open Source CFD Toolbox           |
|  \\    /   O peration     | Version:  2.4.0                                 |
|   \\  /    A nd           | Web:      www.OpenFOAM.org                      |
|    \\/     M anipulation  |                                                 |
\*---------------------------------------------------------------------------*/
FoamFile
{
    version     2.0;
    format      ascii;
    class       surfaceScalarField;
    location    "0.65";
    object      phi.water;
}
// * * * * * * * * * * * * * * * * * * * * * * * * * * * * * * * * * * * * * //

dimensions      [0 3 -1 0 0 0 0];

internalField   nonuniform List<scalar> 
1061
(
-3.10592e-06
-5.47315e-06
-5.71216e-06
-6.08296e-06
-6.83552e-06
-8.96321e-06
-2.29683e-06
1.26548e-05
-2.45365e-05
-1.33824e-05
-1.92822e-05
2.19962e-06
5.78402e-06
3.69761e-06
2.89511e-05
7.73199e-06
4.50099e-05
1.46487e-05
5.5586e-05
3.57466e-07
6.35549e-05
-1.50892e-05
6.82333e-05
-1.6943e-05
6.96454e-05
-1.62393e-05
6.91621e-05
-1.64942e-05
6.76304e-05
-1.63601e-05
6.41621e-05
-1.42923e-05
5.77017e-05
-1.04048e-05
5.1269e-05
-9.17417e-06
4.30255e-05
-4.6376e-06
2.83944e-05
1.90833e-05
6.06933e-06
4.07977e-05
-5.61785e-06
3.38663e-05
9.37882e-06
-8.08648e-06
6.86601e-06
-2.27368e-07
-2.79203e-05
1.91835e-05
-1.46425e-05
4.13561e-05
9.51307e-07
4.54757e-05
1.09273e-05
4.98227e-05
1.43868e-05
6.11229e-05
1.14634e-05
6.6268e-05
-1.19753e-05
6.90702e-05
-2.37427e-05
7.16645e-05
-2.35539e-05
7.493e-05
-2.29176e-05
7.53291e-05
-1.70447e-05
7.20006e-05
-7.90225e-06
6.54308e-05
-6.72113e-06
5.75409e-05
-4.28107e-06
4.29332e-05
2.43189e-05
1.70995e-05
5.98988e-05
2.64382e-08
4.33142e-05
1.01984e-05
5.44427e-06
1.7292e-05
2.01559e-05
-4.30607e-05
3.34428e-05
-4.29142e-05
5.12544e-05
-1.66923e-05
5.81902e-05
3.35868e-06
6.13345e-05
1.60887e-05
5.03363e-05
1.75361e-05
4.49004e-05
6.18715e-06
5.82148e-05
4.63812e-06
6.00009e-05
-9.81974e-06
6.0523e-05
-2.71968e-05
6.04041e-05
-3.17509e-05
5.69167e-05
-2.41792e-05
4.84514e-05
-1.83072e-05
4.69386e-05
-1.48992e-05
3.57546e-05
1.9884e-05
1.12515e-05
8.40892e-05
-5.24107e-06
7.12456e-05
1.36124e-05
2.12084e-05
1.1823e-05
3.86163e-05
-6.63406e-05
4.51965e-05
-6.11826e-05
5.71787e-05
-4.15268e-05
6.02008e-05
-2.22719e-05
6.28085e-05
-1.11841e-05
6.22077e-05
-6.68283e-06
5.70777e-05
-1.2954e-06
5.03933e-05
-2.68315e-07
4.06284e-05
-6.2674e-06
4.34538e-05
-9.04096e-06
4.646e-05
-1.48917e-05
3.87479e-05
-2.7249e-05
3.46648e-05
-2.70315e-05
3.37937e-05
-1.66646e-05
2.21831e-05
1.71052e-05
1.89248e-06
8.99405e-05
-1.01133e-05
9.1623e-05
1.46423e-05
3.3412e-05
7.93951e-06
4.40634e-05
-7.06724e-05
4.56063e-05
-6.9795e-05
5.27709e-05
-6.20077e-05
6.00051e-05
-4.11418e-05
6.3595e-05
-2.72769e-05
6.24078e-05
-2.10955e-05
6.04974e-05
-1.61796e-05
5.92192e-05
-9.90196e-06
5.48702e-05
-5.76792e-06
4.55527e-05
-5.21863e-06
3.87216e-05
-9.08053e-06
3.68106e-05
-1.4792e-05
3.2547e-05
-1.40009e-05
2.93462e-05
2.32431e-06
1.83389e-05
3.01884e-05
-7.3031e-06
9.91623e-05
-1.67429e-05
9.65816e-05
7.00049e-06
3.92341e-05
-8.51836e-06
4.43789e-05
-6.79575e-05
4.49069e-05
-7.75607e-05
4.44561e-05
-6.85099e-05
4.99547e-05
-4.84518e-05
5.42111e-05
-3.19365e-05
5.59059e-05
-2.18579e-05
5.76187e-05
-1.45961e-05
5.88299e-05
-7.63953e-06
5.71745e-05
-3.97065e-06
5.10685e-05
-3.12309e-06
4.27261e-05
-1.57367e-06
4.09756e-05
-5.27239e-06
3.11932e-05
6.94607e-06
2.30419e-05
1.91746e-05
1.2318e-05
4.41243e-05
-8.68859e-06
0.000109065
-1.59644e-05
8.67003e-05
-1.15378e-05
3.23678e-05
-4.02089e-05
4.05677e-05
-7.53779e-05
4.33535e-05
-8.60551e-05
4.28123e-05
-7.22385e-05
4.26023e-05
-5.10404e-05
4.49443e-05
-3.20926e-05
4.79829e-05
-2.19684e-05
4.9181e-05
-1.74129e-05
5.14288e-05
-9.05582e-06
5.1281e-05
5.75725e-07
4.79554e-05
3.59033e-06
4.41449e-05
5.58557e-07
4.14528e-05
1.55325e-06
3.01777e-05
2.26337e-05
2.0427e-05
2.93351e-05
1.0101e-05
5.17969e-05
-6.94686e-06
0.000119691
-1.21432e-05
8.30467e-05
-3.19596e-05
3.14224e-05
-8.75798e-05
4.10487e-05
-9.21892e-05
4.27466e-05
-9.1698e-05
4.22634e-05
-7.46312e-05
4.0549e-05
-5.1005e-05
4.13109e-05
-3.37154e-05
4.28545e-05
-2.26217e-05
4.30246e-05
-1.99887e-05
4.44862e-05
-1.25167e-05
4.66016e-05
8.2916e-07
4.73666e-05
7.95711e-06
4.50498e-05
7.34842e-06
4.08214e-05
7.19815e-06
2.63542e-05
2.52542e-05
1.36227e-05
3.56163e-05
5.69471e-06
5.69073e-05
-7.70318e-06
0.000129251
-7.11232e-06
7.97204e-05
-4.30965e-05
-7.10201e-07
1.63419e-05
-3.80881e-05
5.32642e-05
-5.53064e-05
0.000101234
-8.97665e-05
9.36889e-05
-0.00016412
4.86084e-05
-9.07706e-05
5.27206e-05
-1.58882e-05
-0.000200358
-8.65586e-05
3.53741e-05
-3.38397e-06
5.23545e-05
-3.71073e-06
7.33108e-05
-8.05076e-06
-1.15897e-05
9.66514e-05
6.04882e-05
-2.05334e-05
6.94887e-05
-2.21705e-05
7.87998e-05
-2.67038e-05
-3.0818e-05
8.93122e-05
0.000107569
-3.00228e-05
0.000115013
-3.3473e-05
0.000122366
-3.93242e-05
-4.59197e-05
0.000128789
9.5376e-05
-4.99109e-05
9.70076e-05
-5.99892e-05
9.83096e-05
-7.33012e-05
-8.41697e-05
9.78581e-05
3.98738e-05
-8.79764e-05
2.86009e-05
-6.17025e-05
3.17184e-05
-5.00459e-05
-3.42328e-05
4.13454e-05
-2.36597e-05
-4.75791e-05
-9.18336e-05
-5.04766e-06
-0.000141248
8.21655e-06
5.00835e-05
-0.000188315
-0.000195693
2.92469e-05
-0.000208694
6.56863e-05
-0.000221424
9.15217e-05
0.000111352
-0.00021929
-9.00198e-05
3.26879e-05
-7.93454e-05
5.50361e-05
-5.86006e-05
7.08872e-05
8.32994e-05
-3.04554e-05
-3.81866e-05
3.00162e-05
-2.31564e-05
3.99854e-05
-1.002e-06
4.87965e-05
5.59966e-05
2.63283e-05
-1.65345e-05
2.61907e-05
-7.50709e-06
3.10307e-05
6.00134e-06
3.52983e-05
3.89385e-05
2.31073e-05
-8.98932e-06
2.31578e-05
-3.55692e-06
2.55778e-05
3.93429e-06
2.78691e-05
2.92632e-05
1.36479e-05
-1.45745e-05
1.91131e-05
-9.41359e-06
2.04666e-05
-3.23765e-06
2.172e-05
2.22477e-05
3.82025e-06
-1.4234e-05
1.56878e-05
-1.02529e-05
1.6482e-05
-5.73635e-06
1.72514e-05
1.73517e-05
-8.08263e-07
-1.13871e-05
1.32974e-05
-8.79052e-06
1.39212e-05
-5.84712e-06
1.43305e-05
1.44455e-05
-2.90587e-06
-9.65408e-06
1.17271e-05
-7.76542e-06
1.20333e-05
-5.64309e-06
1.22476e-05
1.24148e-05
-3.59009e-06
-6.69999e-06
1.0395e-05
-5.30449e-06
1.06734e-05
-3.9243e-06
1.08855e-05
1.11573e-05
-2.63475e-06
-4.75214e-06
-3.43179e-06
-2.23111e-06
-1.07456e-06
8.37456e-05
-8.50265e-05
9.46996e-05
-0.000112084
9.69302e-05
-0.000105201
9.26001e-05
-8.58719e-05
8.98282e-05
-6.06943e-05
8.51819e-05
-3.4768e-05
8.21417e-05
-2.36749e-05
8.14393e-05
-1.78886e-05
7.81e-05
-1.01234e-05
8.27301e-05
-3.37951e-06
8.32761e-05
1.19162e-05
6.83805e-05
2.34995e-05
4.91053e-05
2.16093e-05
2.6804e-05
1.81568e-05
-3.31787e-06
1.35179e-05
5.53532e-06
4.25688e-05
-6.32827e-06
0.000132035
1.5134e-06
7.81987e-05
-3.53495e-05
9.85522e-05
-0.000102301
0.000113812
-0.000137657
0.000130954
-0.000163239
0.000125659
-0.000170473
0.000102827
-0.000155869
8.37323e-05
-0.000100828
7.79492e-05
-4.74828e-05
7.83093e-05
-2.20095e-05
7.08089e-05
-2.73314e-06
6.23234e-05
5.86795e-06
5.70815e-05
1.97336e-05
5.08295e-05
3.39557e-05
3.52326e-05
3.23122e-05
2.03854e-05
2.96912e-05
1.01229e-05
1.55409e-05
1.4032e-05
2.2216e-05
2.55121e-05
9.56902e-05
2.57655e-05
8.48091e-05
3.10434e-07
0.000126304
-0.000140739
0.000127118
-0.000191069
0.00014077
-0.000242933
0.000146145
-0.000140866
0.000151578
-0.000133223
0.000132987
-0.000122243
9.43293e-05
-8.45923e-05
8.31924e-05
-7.29199e-05
7.81714e-05
-2.16739e-05
7.60593e-05
5.09074e-07
6.40555e-05
2.93237e-05
5.20886e-05
4.66784e-05
3.81463e-05
5.64214e-05
4.43453e-05
5.41671e-05
5.76271e-05
4.78823e-05
5.78565e-05
3.8423e-05
7.09254e-05
6.46042e-05
5.0839e-05
9.02541e-05
4.74491e-05
9.16218e-05
-0.000194101
4.17766e-05
-0.000152167
-5.32815e-05
-0.000164039
-0.000111724
-0.000141799
-0.000101121
-0.000176803
7.83044e-06
-0.000143712
7.86221e-05
-8.45684e-05
8.81092e-05
-0.000112104
8.80186e-05
-0.000100017
8.67726e-05
-5.89896e-05
7.87827e-05
1.48845e-05
7.25737e-05
4.95921e-05
6.49637e-05
6.92036e-05
7.42176e-05
7.74974e-05
8.34349e-05
7.40877e-05
8.46959e-05
5.77185e-05
8.94171e-05
6.74613e-05
7.03571e-05
0.000107375
9.3193e-05
-8.00165e-06
-7.12189e-05
-7.02171e-05
-4.09213e-05
-0.000164395
-0.000196198
-0.000131201
-0.000214895
-0.000104435
-0.000201388
-8.43122e-05
-0.000201993
-5.29555e-05
-0.000204372
1.99748e-06
-0.000175279
7.93576e-05
-0.000108115
0.000117418
-8.42872e-05
0.000107624
-1.25044e-05
7.87466e-05
2.61482e-05
7.0963e-05
6.33267e-05
7.46658e-05
7.74986e-05
8.45614e-05
7.13845e-05
9.15766e-05
5.7195e-05
9.2969e-05
6.8401e-05
8.04885e-05
0.000116862
0.000130546
-0.000183214
0.00015197
-0.000153164
-4.02805e-06
-0.000116798
-0.000224688
-0.000127882
-0.000221056
-0.000117873
-0.000219751
-9.80984e-05
-0.000216512
-7.56922e-05
-0.000213751
-4.30106e-05
-0.000197891
-1.15801e-05
-0.000182144
5.86072e-05
-0.000153241
0.000128605
-4.04554e-05
0.000110985
3.18877e-06
8.27333e-05
4.20787e-05
7.0888e-05
6.91878e-05
7.89743e-05
5.91705e-05
8.78789e-05
4.56871e-05
8.72522e-05
4.99295e-05
7.98063e-05
8.73907e-05
0.000123256
-0.000143116
0.000274617
-0.000105364
8.10713e-05
-0.000131996
-0.000185216
-0.000138579
-0.000218294
-0.000131697
-0.000223273
-0.000113099
-0.000232683
-9.09581e-05
-0.000235871
-6.66577e-05
-0.000227873
-4.37205e-05
-0.00019291
8.76117e-06
-0.000148221
7.19481e-05
-0.000108398
0.00012162
-2.26648e-05
0.000115926
-5.38747e-06
7.46286e-05
5.3119e-05
5.73249e-05
4.81335e-05
5.15301e-05
3.90856e-05
6.13675e-05
5.29606e-05
7.8857e-05
4.79353e-05
5.64076e-05
2.3485e-05
0.000217014
-7.17711e-06
0.000156924
-0.000144213
-5.70951e-05
-0.00019119
-0.00022133
-0.000163107
-0.000302889
-0.000108846
-0.000311914
-6.72328e-05
-0.000267662
-6.27018e-05
-0.000246247
-5.27959e-05
-0.000217121
-3.69743e-05
-0.000173947
3.42505e-05
-0.00012163
0.000110867
-4.74954e-05
0.000113961
-2.13375e-05
9.0005e-05
2.46897e-05
2.81927e-05
4.35608e-05
1.00619e-05
5.0713e-05
4.86213e-05
7.61456e-05
8.57546e-05
2.23671e-05
1.53414e-05
9.04657e-05
0.000152843
0.000119497
0.000134806
4.82997e-05
4.33228e-05
-5.70566e-05
-7.10586e-05
-0.000179737
-0.000175652
-0.000151785
-0.000334895
-6.10406e-05
-0.000292301
-6.18724e-05
-0.000248237
-6.12828e-05
-0.000215424
-5.33039e-05
-0.000176899
-4.78675e-05
-0.00012417
-6.66417e-06
-5.91622e-05
7.32563e-05
9.75954e-06
5.6288e-05
2.8168e-05
-5.36813e-06
4.01683e-05
-1.34371e-05
6.24853e-05
3.86787e-05
9.50013e-05
8.02666e-05
6.49704e-05
4.85295e-05
7.34146e-05
0.000102582
0.000112174
9.61085e-05
0.000113873
4.34898e-05
8.68847e-05
-3.76082e-05
4.71159e-05
-0.000122315
-0.000103732
-0.000208461
-5.32619e-05
-0.000272639
-7.62634e-05
-0.000240686
-7.63136e-05
-0.000213194
-7.52504e-05
-0.000177462
-6.84451e-05
-0.000119939
-3.02574e-05
-4.96192e-05
1.59592e-05
3.50601e-05
1.03074e-05
5.13342e-05
-9.55325e-06
3.92044e-05
-2.19087e-05
6.52562e-05
6.78067e-06
0.000103464
4.67317e-05
0.000122432
8.72147e-05
4.35992e-05
7.26937e-05
7.85343e-05
6.12375e-05
9.46564e-05
2.73518e-05
8.76624e-05
-3.06512e-05
6.60072e-05
-0.000100655
-3.60688e-05
-0.000175246
-7.16782e-05
-0.000223625
-8.85455e-05
-0.000228099
-9.16315e-05
-0.000199271
-9.37688e-05
-0.000169306
-8.78472e-05
-0.000112918
-4.6731e-05
-3.42919e-05
1.12368e-05
6.10742e-05
2.41676e-05
7.24317e-05
1.36837e-06
4.68685e-05
-1.38449e-05
6.11479e-05
-7.08262e-06
9.56064e-05
2.38586e-05
0.000140224
0.000110942
2.35176e-05
5.30469e-05
4.34104e-05
4.13677e-05
5.46837e-05
1.60484e-05
4.81962e-05
-2.41923e-05
1.33372e-05
-7.33483e-05
-0.000117629
-0.000171858
-7.4971e-05
-0.000176819
-0.000106374
-0.000198656
-0.000109349
-0.000178765
-0.000113263
-0.000161442
-0.00010783
-0.000106089
-5.56578e-05
-1.74579e-05
-7.38381e-07
8.68157e-05
2.98951e-05
7.79922e-05
2.65379e-05
5.74123e-05
1.0496e-05
6.712e-05
2.85518e-06
9.0762e-05
1.36506e-05
0.000141443
0.00012192
1.19648e-05
4.03143e-05
2.16579e-05
3.16945e-05
2.20591e-05
1.56576e-05
6.3054e-06
-8.43717e-06
-6.13742e-05
-3.62018e-05
-9.50715e-05
-0.000134431
-0.000118214
-0.000181842
-0.000131792
-0.000184212
-0.000130928
-0.000168805
-0.000133946
-0.000145172
-0.000130607
-9.82676e-05
-7.50703e-05
-9.80804e-06
-9.58421e-06
0.000117875
2.84271e-05
9.44245e-05
3.31309e-05
6.74624e-05
2.16212e-05
9.30362e-05
7.96339e-06
0.000100742
6.85068e-06
0.000129998
0.00012738
3.99631e-06
3.34431e-05
7.10437e-06
2.86195e-05
1.5452e-06
2.12298e-05
-1.8033e-05
1.11222e-05
-8.20945e-05
8.04296e-07
-9.89778e-05
-9.13066e-05
-0.000144494
-0.000169001
-0.000156742
-0.000163735
-0.000153871
-0.00016051
-0.000152546
-0.000136615
-0.000146753
-9.47442e-05
-0.000109274
-1.41453e-05
-3.78044e-05
0.000112245
2.21107e-05
0.000154761
2.97923e-05
0.000141374
1.76759e-05
0.000115081
2.09044e-06
0.000103833
2.24936e-06
0.000112566
0.000128594
4.06443e-07
2.94896e-05
1.02658e-06
2.80154e-05
-4.99387e-06
2.72792e-05
-2.25255e-05
2.86127e-05
-8.57783e-05
3.74192e-05
-0.000104037
-2.97084e-05
-0.000162818
-0.000115823
-0.000180239
-0.000152558
-0.000177346
-0.00015136
-0.00017245
-0.000133574
-0.000158193
-9.85846e-05
-0.000119295
-3.50976e-05
-5.84037e-05
6.28602e-05
-1.07897e-05
0.000145724
2.07326e-05
0.000143873
1.70443e-05
0.000110028
-9.77467e-06
8.26071e-05
-9.77413e-06
0.000105712
0.00011671
-3.35239e-07
2.72023e-05
2.52576e-08
2.76874e-05
-2.34628e-06
2.96544e-05
-8.12256e-06
3.44072e-05
-2.01137e-05
4.59853e-05
-0.000107486
5.48574e-05
-0.000129579
-5.48999e-05
-0.000195338
-9.94915e-05
-0.000206266
-0.000119179
-0.000189456
-0.000116905
-0.000178246
-0.000100094
-0.00014594
-5.64271e-05
-0.000107549
6.76294e-06
-8.63576e-05
3.4232e-05
-8.17164e-05
3.57483e-05
-7.76447e-05
3.87903e-05
-5.88669e-05
5.51713e-05
-3.05246e-05
7.64958e-05
8.3283e-05
1.42998e-06
2.99634e-06
3.96352e-06
5.32939e-06
1.00762e-05
1.37777e-05
-0.000104555
-0.000157253
-0.0002065
-0.000213948
-0.000195089
-0.000187295
-0.000161605
-0.000146311
-0.000137155
-0.000121511
-9.05153e-05
-4.69512e-05
)
;

boundaryField
{
    leftWall
    {
        type            fixedValue;
        value           nonuniform 0();
    }
    rightWall
    {
        type            fixedValue;
        value           uniform 0;
    }
    lowerWall
    {
        type            fixedValue;
        value           uniform 0;
    }
    atmosphere
    {
        type            calculated;
        value           nonuniform 0();
    }
    defaultFaces
    {
        type            empty;
        value           nonuniform 0();
    }
    procBoundary1to0
    {
        type            processor;
        value           nonuniform List<scalar> 
26
(
3.10626e-06
2.36784e-06
2.41081e-07
3.75213e-07
7.64054e-07
2.20908e-06
2.53667e-06
2.39886e-06
-2.88264e-06
-3.74274e-05
-8.99271e-05
-8.61917e-05
-5.18903e-05
-3.88391e-05
0.000222287
5.07024e-05
2.06631e-05
4.09096e-05
2.04015e-05
1.20228e-05
1.86473e-05
1.76581e-05
1.37986e-05
1.12327e-05
8.04871e-06
6.06666e-06
)
;
    }
    procBoundary1to3
    {
        type            processor;
        value           nonuniform List<scalar> 
23
(
9.12304e-06
9.35482e-06
9.70624e-06
1.00055e-05
2.47233e-05
2.61173e-05
2.87077e-05
3.30386e-05
4.12616e-05
5.32993e-05
4.90688e-05
-6.56986e-05
-7.90361e-05
-8.92997e-05
-8.21155e-05
-5.55811e-05
-1.88256e-05
2.94624e-06
1.17614e-05
1.73435e-05
2.16488e-05
3.07182e-05
3.37348e-05
)
;
    }
}


// ************************************************************************* //
