/*--------------------------------*- C++ -*----------------------------------*\
| =========                 |                                                 |
| \\      /  F ield         | OpenFOAM: The Open Source CFD Toolbox           |
|  \\    /   O peration     | Version:  2.4.0                                 |
|   \\  /    A nd           | Web:      www.OpenFOAM.org                      |
|    \\/     M anipulation  |                                                 |
\*---------------------------------------------------------------------------*/
FoamFile
{
    version     2.0;
    format      ascii;
    class       surfaceScalarField;
    location    "0.65";
    object      phi.mercury;
}
// * * * * * * * * * * * * * * * * * * * * * * * * * * * * * * * * * * * * * //

dimensions      [0 3 -1 0 0 0 0];

internalField   nonuniform List<scalar> 
1061
(
-3.10626e-06
-5.47408e-06
-5.71509e-06
-6.08999e-06
-6.8523e-06
-9.05273e-06
-1.15875e-05
-1.54416e-05
-2.54253e-05
-4.23011e-05
-1.68937e-05
-4.85592e-05
9.11636e-06
-5.09645e-05
2.95428e-05
-4.03781e-05
4.46898e-05
-3.21087e-05
5.51641e-05
-2.63656e-05
6.3193e-05
-2.45363e-05
6.805e-05
-2.36786e-05
6.95973e-05
-2.5127e-05
6.91674e-05
-2.67355e-05
6.7629e-05
-2.70858e-05
6.4217e-05
-2.49227e-05
5.79215e-05
-2.05085e-05
5.26118e-05
-1.90695e-05
4.70337e-05
-1.71177e-05
3.34121e-05
-6.97953e-06
1.03115e-05
2.85619e-06
-3.70257e-06
-5.33965e-06
-2.0756e-05
-8.20468e-06
-2.56329e-05
1.05909e-05
-7.63062e-05
2.43322e-05
-8.20136e-05
3.73611e-05
-6.11367e-05
4.82504e-05
-4.7487e-05
5.54616e-05
-3.68881e-05
6.15959e-05
-3.57739e-05
6.59707e-05
-3.46923e-05
6.88581e-05
-3.4628e-05
7.15138e-05
-3.55177e-05
7.48726e-05
-3.52809e-05
7.53314e-05
-2.90503e-05
7.22896e-05
-1.81599e-05
6.69381e-05
-1.5771e-05
6.18046e-05
-1.93194e-05
4.87668e-05
2.91915e-06
2.36564e-05
3.5018e-05
3.33654e-06
2.49279e-05
-1.13996e-05
8.36029e-06
-2.16875e-05
2.63215e-05
-9.11057e-05
3.65303e-05
-0.000106198
4.78425e-05
-9.31204e-05
5.25667e-05
-7.8416e-05
5.3492e-05
-6.93055e-05
5.43698e-05
-7.23793e-05
5.58156e-05
-7.2029e-05
5.81686e-05
-6.75499e-05
5.93303e-05
-6.75528e-05
5.97386e-05
-6.27684e-05
5.99507e-05
-5.90902e-05
5.94671e-05
-5.5423e-05
5.61707e-05
-5.65023e-05
5.2754e-05
-6.90924e-05
4.28561e-05
-4.74093e-05
2.00091e-05
4.12605e-05
-8.32383e-07
3.80383e-05
-1.84085e-05
2.12455e-05
-6.94401e-06
3.53482e-05
-9.68519e-05
4.28233e-05
-0.000117068
5.03878e-05
-0.000124887
5.24809e-05
-0.00012551
5.2974e-05
-0.000122737
5.29016e-05
-0.000130937
5.23375e-05
-0.000140717
5.13247e-05
-0.00013985
4.88768e-05
-0.000132201
4.6031e-05
-0.000105706
4.55015e-05
-8.22441e-05
4.56908e-05
-7.59375e-05
4.16538e-05
-7.96754e-05
3.55134e-05
-9.53147e-05
3.20111e-05
-8.15843e-05
9.916e-06
3.64404e-05
-5.72509e-06
4.73191e-05
-2.87199e-05
3.3383e-05
-2.70206e-05
3.91507e-05
-0.000102959
4.178e-05
-0.000126323
4.54316e-05
-0.000150334
5.00322e-05
-0.000154185
5.48998e-05
-0.000156187
6.0707e-05
-0.000165681
6.82298e-05
-0.000154565
6.78509e-05
-0.000122253
5.595e-05
-0.000116144
4.45857e-05
-0.000192975
4.39829e-05
-0.000110514
4.54412e-05
-9.02112e-05
3.96763e-05
-9.7664e-05
3.11858e-05
-0.000101318
2.54789e-05
-8.16307e-05
-7.77992e-07
2.1652e-05
-9.08641e-06
4.32879e-05
-5.59742e-05
3.66766e-05
-5.97238e-05
4.00633e-05
-0.000109535
4.12294e-05
-0.000136619
4.24073e-05
-0.000167136
4.38394e-05
-0.000176378
4.34321e-05
-0.000165817
4.00544e-05
-0.000168655
4.66453e-05
-0.000113552
6.26264e-05
-4.47395e-05
7.46641e-05
-3.34631e-05
6.9569e-05
-0.000143152
4.62577e-05
-0.000147541
4.17707e-05
-0.000106856
3.23317e-05
-0.000117992
2.25646e-05
-0.000106838
1.47148e-05
-7.21634e-05
-4.67588e-06
2.0865e-06
-3.68348e-06
2.46939e-05
-8.4712e-05
3.45204e-05
-8.7842e-05
3.84307e-05
-0.000118755
4.21989e-05
-0.000149466
4.58683e-05
-0.000177079
4.53958e-05
-0.000191911
4.41609e-05
-0.000159918
3.99909e-05
-0.000135263
4.39069e-05
-8.96111e-05
5.03268e-05
-4.61876e-05
5.71588e-05
-2.39162e-05
5.48537e-05
-2.78013e-05
5.65149e-05
-0.000128654
4.18859e-05
-0.000138544
2.96447e-05
-0.000144174
2.06664e-05
-0.000116224
1.68989e-05
-6.9366e-05
6.24836e-06
-3.96627e-06
6.6725e-06
2.97364e-06
-9.62822e-05
3.54054e-05
-0.000101526
4.1919e-05
-0.000131006
4.57865e-05
-0.000166094
4.77446e-05
-0.00018243
4.65976e-05
-0.000175606
4.3872e-05
-0.000125111
4.01177e-05
-8.12152e-05
4.28071e-05
-7.01335e-05
4.27536e-05
-5.1659e-05
4.80554e-05
-2.69471e-05
5.43248e-05
-1.25509e-05
5.5922e-05
-5.54078e-05
4.38251e-05
-0.000120273
2.68765e-05
-0.000160631
2.00217e-05
-0.000131481
1.71933e-05
-8.20942e-05
1.50493e-05
-2.21848e-06
1.72298e-05
-7.61339e-06
-9.57794e-05
-5.61125e-05
1.49509e-05
-9.89545e-05
3.73048e-05
-7.33273e-05
9.82246e-05
-6.96064e-05
9.30458e-05
-0.000105123
5.20723e-05
-4.72955e-05
-3.82521e-05
-1.4999e-05
-0.000201373
-8.65765e-05
2.7993e-05
-2.89102e-05
4.08473e-05
-2.85821e-05
5.69978e-05
-3.37273e-05
-3.61643e-05
7.33053e-05
4.41455e-05
-4.60923e-05
5.16334e-05
-4.6412e-05
5.79632e-05
-4.94927e-05
-5.14116e-05
6.50371e-05
0.000105746
-3.69824e-05
0.000112767
-3.86504e-05
0.000119591
-4.19077e-05
-4.58157e-05
0.000125827
9.44236e-05
-3.59291e-05
9.56668e-05
-4.0036e-05
9.59747e-05
-4.55281e-05
-4.61371e-05
9.30176e-05
4.98407e-05
-5.71471e-05
4.33665e-05
-5.63466e-05
3.53402e-05
-4.76683e-05
-3.04118e-05
1.40756e-05
-0.000126023
2.7294e-05
-0.000165145
4.16846e-05
-0.000195083
5.62497e-05
7.78951e-05
-0.00024336
-0.000195695
2.927e-05
-0.000208903
6.56991e-05
-0.000221671
9.16406e-05
0.000111338
-0.000219274
-9.00466e-05
3.27614e-05
-7.92966e-05
5.50481e-05
-5.85278e-05
7.08829e-05
8.32964e-05
-3.0425e-05
-3.81854e-05
3.00151e-05
-2.31511e-05
3.99801e-05
-9.87337e-07
4.87876e-05
5.59806e-05
2.63478e-05
-1.6534e-05
2.61905e-05
-7.50681e-06
3.10302e-05
6.00523e-06
3.52953e-05
3.89311e-05
2.31211e-05
-8.98921e-06
2.31577e-05
-3.55633e-06
2.55775e-05
3.93631e-06
2.7868e-05
2.92606e-05
1.36627e-05
-1.45743e-05
1.9113e-05
-9.41285e-06
2.04663e-05
-3.23543e-06
2.17197e-05
2.22476e-05
3.8325e-06
-1.42339e-05
1.56878e-05
-1.02525e-05
1.64819e-05
-5.73531e-06
1.72512e-05
1.73514e-05
-8.0281e-07
-1.13871e-05
1.32973e-05
-8.7904e-06
1.39212e-05
-5.84685e-06
1.43304e-05
1.44451e-05
-2.9047e-06
-9.65407e-06
1.17271e-05
-7.76539e-06
1.20333e-05
-5.64304e-06
1.22476e-05
1.24147e-05
-3.58987e-06
-6.69998e-06
1.0395e-05
-5.30448e-06
1.06734e-05
-3.9243e-06
1.08855e-05
1.11572e-05
-2.63473e-06
-4.75214e-06
-3.43179e-06
-2.23111e-06
-1.07455e-06
7.72664e-05
-0.00012084
9.0527e-05
-0.000163308
0.000103281
-0.000195537
9.27499e-05
-0.000163761
8.55481e-05
-0.000114005
8.92894e-05
-6.27992e-05
8.24443e-05
-3.77591e-05
8.39782e-05
-4.00913e-05
8.04958e-05
-3.51697e-05
8.32832e-05
-2.47157e-05
8.06247e-05
-5.7906e-06
5.6095e-05
6.64424e-06
4.25205e-05
-1.61648e-05
6.49894e-05
-0.000157161
5.47324e-05
-0.000183449
4.97737e-05
-0.00014115
5.23809e-05
-2.58193e-05
5.66033e-05
-2.47154e-05
-8.10497e-05
7.48323e-05
-0.000135207
8.27182e-05
-0.00016019
8.9426e-05
-0.000172813
0.000104251
-0.000170403
0.000102144
-0.000121464
8.63869e-05
-7.17503e-05
8.00179e-05
-4.60823e-05
8.01811e-05
-3.1386e-05
7.21679e-05
-1.29143e-05
6.50506e-05
-8.58267e-06
5.96359e-05
3.90183e-06
5.18326e-05
1.86039e-05
3.14603e-05
1.38119e-05
6.7942e-05
-0.000108594
9.19725e-05
-0.000168245
7.86191e-05
-0.000138159
8.12603e-05
-7.19708e-05
7.51774e-05
-5.15803e-05
-6.23405e-05
0.000128416
-0.000116717
0.000115712
-0.000111843
9.78856e-05
-0.000112914
8.06154e-05
-0.000121405
8.84435e-05
-0.000147304
9.07374e-05
-0.000154126
8.35533e-05
-0.000117324
8.45143e-05
-6.13437e-05
8.08519e-05
-2.88586e-05
7.99213e-05
-1.28722e-05
6.89871e-05
1.21771e-05
5.70916e-05
3.09004e-05
4.34875e-05
3.98818e-05
7.06373e-05
-6.13342e-06
0.000110367
-4.04498e-05
0.00011517
-3.86585e-05
0.000102128
-9.80575e-05
8.71722e-05
-7.76469e-05
-4.65152e-05
4.16201e-05
-0.000137299
-0.000140461
-0.000117704
-0.000247381
-0.000163078
-0.000170117
-0.000220452
-0.000129614
-0.000185702
-8.92774e-05
-0.00018611
-2.4381e-05
-0.000187105
4.60778e-05
-0.000172416
8.5631e-05
-0.000105333
8.88021e-05
-5.38007e-05
8.24484e-05
5.19036e-06
7.68861e-05
3.59731e-05
7.12202e-05
5.40995e-05
8.00229e-05
6.05629e-05
9.09258e-05
5.48687e-05
8.75877e-05
3.92932e-05
0.000107787
-3.78845e-05
0.000102082
-7.68377e-05
-3.85691e-05
-0.000144727
6.59919e-05
-0.000215346
-4.15487e-05
-0.000159037
-0.000208097
-9.86473e-05
-0.000214063
-9.06373e-05
-0.000211518
-7.90347e-05
-0.000209953
-6.35178e-05
-0.000205321
-2.87939e-05
-0.000196804
3.42264e-05
-0.00017679
9.47327e-05
-0.000123941
0.000107212
-3.29875e-05
8.22322e-05
1.7547e-05
7.46007e-05
5.33511e-05
7.72052e-05
6.4924e-05
8.51983e-05
5.70089e-05
8.92878e-05
4.01129e-05
9.24978e-05
3.65311e-05
0.000101385
-5.65526e-05
-4.82123e-05
-0.000186129
0.000289531
-0.00015666
-3.79895e-06
-0.000106061
-0.000220138
-9.99859e-05
-0.000222769
-9.87085e-05
-0.000230315
-8.85458e-05
-0.000229855
-7.32066e-05
-0.000225679
-5.1005e-05
-0.000215602
-2.5979e-05
-0.00019262
3.9117e-05
-0.00015119
0.000107182
-9.07512e-05
0.000106176
-5.47455e-06
8.57604e-05
4.49433e-05
7.44887e-05
6.27235e-05
7.89793e-05
4.77955e-05
8.16947e-05
3.32332e-05
6.40353e-05
2.66715e-05
9.59381e-05
-5.85467e-05
-8.58103e-05
-0.000143431
0.000274616
-0.000110203
8.15278e-05
-0.000114674
-0.00018926
-0.000101414
-0.00021843
-0.000111649
-0.000216433
-0.000106611
-0.00025183
-9.23715e-05
-0.000246464
-7.14717e-05
-0.000238122
-4.92321e-05
-0.000217234
-2.50708e-05
-0.000178144
3.92622e-05
-0.000129475
0.000114942
-4.44995e-05
0.000102198
2.0174e-05
7.72158e-05
5.71527e-05
5.69461e-05
4.33102e-05
4.63967e-05
3.22941e-05
5.42455e-05
1.04676e-05
0.000108085
-5.46471e-05
-8.26148e-05
2.352e-05
0.000216976
-6.21054e-06
0.000157062
-0.000144583
-5.59951e-05
-0.000139166
-0.000217019
-0.000119371
-0.000204046
-0.000113022
-0.000197339
-8.61349e-05
-0.000262976
-7.50136e-05
-0.000246591
-6.12797e-05
-0.000229954
-4.51356e-05
-0.000191168
-1.37652e-05
-0.000138555
3.04911e-05
-7.6482e-05
8.02083e-05
2.01369e-05
5.59953e-05
7.99227e-05
2.7081e-05
4.68189e-05
2.62996e-05
4.521e-05
6.00227e-05
1.37765e-05
8.09839e-05
-5.31008e-05
-3.89253e-05
9.05029e-05
0.000152764
0.000119498
0.000134703
4.75958e-05
4.36696e-05
-5.88373e-05
-7.06185e-05
-0.000160765
-0.000175153
-9.92964e-05
-0.000278406
-9.35666e-05
-0.000220436
-7.67676e-05
-0.000247126
-6.81357e-05
-0.000233279
-6.00219e-05
-0.000194057
-5.0947e-05
-0.000133628
-3.41074e-06
-7.13498e-05
6.27983e-05
1.97342e-05
5.38739e-05
7.73342e-05
1.33252e-06
5.69348e-05
7.28752e-06
5.34105e-05
5.70298e-05
5.10767e-05
7.57923e-05
-4.94887e-05
-5.31117e-08
7.35556e-05
0.000102541
0.000112197
9.59725e-05
0.000113798
4.35466e-05
8.70632e-05
-3.71744e-05
4.64295e-05
-0.000121287
-8.39557e-05
-0.000207972
-6.67307e-05
-0.000255115
-8.60323e-05
-0.000235029
-8.04235e-05
-0.000225023
-7.95164e-05
-0.00018835
-6.61571e-05
-0.000124624
-2.3872e-05
-5.19041e-05
2.4492e-05
9.38233e-06
2.78513e-05
7.32866e-05
-4.69488e-06
5.8543e-05
-1.07792e-05
5.64989e-05
3.97144e-05
8.84221e-05
6.76658e-05
1.39742e-05
3.3411e-05
4.37698e-05
7.26834e-05
7.88174e-05
6.12763e-05
9.46456e-05
2.75214e-05
8.81118e-05
-3.04609e-05
6.5905e-05
-0.000100393
-3.28958e-05
-0.000175488
-6.95058e-05
-0.000237775
-9.41024e-05
-0.000213756
-9.23755e-05
-0.000201367
-9.71032e-05
-0.000177399
-8.48847e-05
-0.000111285
-4.58613e-05
-3.13471e-05
6.89981e-06
3.39292e-05
2.58551e-05
8.16448e-05
1.12387e-05
6.37269e-05
-3.92911e-06
6.05706e-05
1.30733e-05
8.03096e-05
4.0651e-05
9.08876e-05
5.85461e-05
2.36194e-05
5.30504e-05
4.35841e-05
4.13848e-05
5.47575e-05
1.60275e-05
4.86272e-05
-2.43677e-05
1.43973e-05
-7.37706e-05
-0.000120206
-0.000173198
-6.88075e-05
-0.000194916
-0.000103514
-0.000199012
-0.00010906
-0.000178545
-0.000115809
-0.000163146
-9.88488e-05
-9.7809e-05
-4.74482e-05
-2.73789e-06
1.13473e-07
7.4365e-05
2.29339e-05
8.3876e-05
2.50757e-05
5.98124e-05
2.06964e-05
5.90658e-05
2.00932e-05
6.7866e-05
3.28732e-05
0.000112171
7.74183e-05
1.20024e-05
4.0314e-05
2.17085e-05
3.16822e-05
2.20737e-05
1.55737e-05
6.30859e-06
-8.74013e-06
-5.99079e-05
-3.69241e-05
-0.000121935
-0.000134785
-0.000105121
-0.000178364
-0.000121929
-0.000181006
-0.000129458
-0.000167006
-0.000134924
-0.000148846
-0.000115533
-9.02749e-05
-5.79854e-05
1.58192e-05
-7.56497e-06
0.000112544
2.1316e-05
9.14269e-05
2.7596e-05
6.4292e-05
3.29708e-05
6.36202e-05
2.44428e-05
6.65603e-05
2.82649e-05
0.000111303
9.3382e-05
4.0045e-06
3.34412e-05
7.11056e-06
2.86079e-05
1.51635e-06
2.11734e-05
-1.81158e-05
1.09223e-05
-8.17375e-05
2.87277e-07
-0.000106401
-9.12679e-05
-0.000130994
-0.000160803
-0.000146263
-0.00015986
-0.000154389
-0.000157225
-0.000156697
-0.00014008
-0.000137029
-9.12222e-05
-8.35021e-05
7.08765e-06
-2.50072e-05
0.000121779
1.41277e-05
0.000112938
2.40829e-05
8.68954e-05
2.98454e-05
5.93046e-05
2.61614e-05
7.40437e-05
3.26824e-05
0.000115875
0.000105839
4.07607e-07
2.94887e-05
1.02512e-06
2.8011e-05
-5.02809e-06
2.72579e-05
-2.25893e-05
2.85085e-05
-8.54042e-05
3.72278e-05
-0.000119963
-2.89186e-05
-0.000145745
-0.000125025
-0.000168946
-0.000144125
-0.000176191
-0.000144059
-0.000178139
-0.000133174
-0.000160148
-9.66836e-05
-0.00010001
-2.14097e-05
-3.45762e-05
8.18539e-05
-1.19261e-06
0.000109561
2.14736e-05
9.85017e-05
2.73757e-05
7.67528e-05
2.49409e-05
9.28484e-05
3.05023e-05
0.00012758
0.000110732
-3.35091e-07
2.7202e-05
2.42835e-08
2.76857e-05
-2.3571e-06
2.96468e-05
-8.18011e-06
3.4376e-05
-2.01068e-05
4.58893e-05
-0.000107756
5.50309e-05
-0.000117844
-4.94988e-05
-0.000181536
-8.48672e-05
-0.000188784
-0.000120676
-0.000189628
-0.000115322
-0.000181939
-9.36996e-05
-0.000143398
-4.41244e-05
-9.22902e-05
2.15119e-05
-6.38901e-05
4.80362e-05
-4.5123e-05
4.84379e-05
-2.02844e-05
6.72445e-05
7.15372e-06
0.000109277
2.49661e-05
0.000126374
0.000107865
1.43004e-06
2.99623e-06
3.96177e-06
5.32068e-06
1.00542e-05
1.37223e-05
-9.51592e-05
-0.000119985
-0.000185042
-0.000193465
-0.000193669
-0.000187625
-0.000153691
-0.000121503
-0.000100312
-5.49288e-05
-8.06342e-06
1.7379e-05
)
;

boundaryField
{
    leftWall
    {
        type            fixedValue;
        value           nonuniform 0();
    }
    rightWall
    {
        type            fixedValue;
        value           uniform 0;
    }
    lowerWall
    {
        type            fixedValue;
        value           uniform 0;
    }
    atmosphere
    {
        type            calculated;
        value           nonuniform 0();
    }
    defaultFaces
    {
        type            empty;
        value           nonuniform 0();
    }
    procBoundary1to0
    {
        type            processor;
        value           nonuniform List<scalar> 
26
(
3.10623e-06
2.36782e-06
2.41018e-07
3.749e-07
7.62302e-07
2.20042e-06
2.53388e-06
2.00007e-06
-3.31014e-06
-2.50746e-05
-8.69112e-05
-8.53647e-05
-5.06015e-05
-8.97422e-06
0.000227819
5.07452e-05
2.07871e-05
4.0906e-05
2.04012e-05
1.20228e-05
1.86472e-05
1.7658e-05
1.37985e-05
1.12327e-05
8.04871e-06
6.06666e-06
)
;
    }
    procBoundary1to3
    {
        type            processor;
        value           nonuniform List<scalar> 
23
(
9.12304e-06
9.35482e-06
9.70623e-06
1.00055e-05
2.47232e-05
2.61167e-05
2.87052e-05
3.30283e-05
4.12305e-05
5.3271e-05
4.9179e-05
-5.51648e-05
-6.38227e-05
-8.73463e-05
-7.65952e-05
-4.64052e-05
-4.29549e-06
2.40088e-05
3.9231e-05
6.09199e-05
9.75457e-05
0.000112778
9.96941e-05
)
;
    }
}


// ************************************************************************* //
