/*--------------------------------*- C++ -*----------------------------------*\
| =========                 |                                                 |
| \\      /  F ield         | OpenFOAM: The Open Source CFD Toolbox           |
|  \\    /   O peration     | Version:  2.4.0                                 |
|   \\  /    A nd           | Web:      www.OpenFOAM.org                      |
|    \\/     M anipulation  |                                                 |
\*---------------------------------------------------------------------------*/
FoamFile
{
    version     2.0;
    format      ascii;
    class       surfaceScalarField;
    location    "0.65";
    object      phi.oil;
}
// * * * * * * * * * * * * * * * * * * * * * * * * * * * * * * * * * * * * * //

dimensions      [0 3 -1 0 0 0 0];

internalField   nonuniform List<scalar> 
1061
(
-9.87187e-07
-3.2169e-06
-3.59975e-06
-3.96903e-06
-4.59546e-06
-6.49634e-06
-1.0387e-05
-3.61427e-06
-2.92369e-05
7.29333e-05
-3.14352e-05
3.49073e-05
5.69422e-06
9.89303e-06
3.50936e-05
1.66678e-05
5.13898e-05
2.33415e-05
6.00672e-05
2.87493e-05
6.65386e-05
3.18548e-05
6.96212e-05
3.66591e-05
7.00101e-05
4.2213e-05
6.91222e-05
4.57142e-05
6.76487e-05
4.84667e-05
6.38403e-05
5.16889e-05
5.68243e-05
5.5534e-05
4.98378e-05
5.37815e-05
4.23479e-05
5.3884e-05
2.513e-05
6.46412e-05
3.24923e-06
7.14854e-05
-7.18116e-06
5.79795e-05
3.47685e-05
-2.23905e-05
5.60002e-05
-9.68246e-06
-6.55e-06
1.96818e-05
-2.1653e-05
4.08391e-05
-5.03559e-07
5.27272e-05
9.45849e-06
5.90519e-05
1.64958e-05
6.47569e-05
1.79251e-05
6.85247e-05
2.03116e-05
7.02056e-05
2.23513e-05
7.24104e-05
2.24196e-05
7.52059e-05
2.1558e-05
7.5315e-05
2.55244e-05
7.09188e-05
3.10179e-05
6.45515e-05
3.30872e-05
5.87877e-05
3.62979e-05
4.1203e-05
5.57439e-05
1.51064e-05
7.49988e-05
-1.82139e-06
5.05388e-05
1.82444e-05
-1.12806e-05
5.9896e-05
1.05951e-05
-3.29348e-05
3.2689e-05
-4.49781e-05
5.13556e-05
-2.13458e-05
5.72088e-05
-1.1031e-06
5.7747e-05
9.89589e-06
5.85884e-05
9.16586e-06
5.91936e-05
1.12557e-05
6.00827e-05
1.21694e-05
6.18539e-05
1.28821e-05
6.25067e-05
1.27031e-05
6.16265e-05
1.85773e-05
5.79877e-05
2.79525e-05
5.38543e-05
3.15935e-05
4.85082e-05
3.34036e-05
2.91922e-05
6.50835e-05
7.43194e-06
9.84412e-05
-7.0898e-06
8.26626e-05
2.65289e-05
7.41361e-06
5.25378e-05
2.93167e-05
-5.43412e-05
4.55534e-05
-6.13814e-05
5.84341e-05
-4.7969e-05
5.88811e-05
-1.53065e-05
5.90147e-05
-6.21431e-06
5.6991e-05
-3.1311e-06
5.46415e-05
1.42831e-06
5.23314e-05
5.76378e-06
5.05039e-05
6.60799e-06
5.00904e-05
6.60393e-06
4.84877e-05
1.2584e-05
4.54727e-05
2.22496e-05
4.15505e-05
2.69589e-05
3.3433e-05
3.20351e-05
1.72218e-05
6.29778e-05
-1.74404e-06
0.000105809
-1.14395e-05
9.84478e-05
1.87737e-05
3.20301e-05
2.94863e-05
4.05278e-05
-5.74793e-05
4.98128e-05
-7.0594e-05
5.50944e-05
-4.60893e-05
6.33367e-05
-1.41745e-05
6.44008e-05
-3.08278e-06
6.36403e-05
-7.97415e-08
6.22797e-05
2.7025e-06
5.71572e-05
8.82326e-06
4.91411e-05
9.80813e-06
4.24161e-05
8.80245e-06
3.95703e-05
1.18495e-05
3.84335e-05
2.10923e-05
3.38821e-05
2.95292e-05
2.58701e-05
3.79336e-05
1.43145e-05
7.14496e-05
-9.06615e-06
0.000118315
-1.69693e-05
0.000101313
6.44489e-06
4.04235e-05
1.96012e-09
4.78913e-05
-5.99085e-05
4.78001e-05
-6.99523e-05
4.49275e-05
-4.36226e-05
5.13296e-05
-2.15704e-05
5.49418e-05
-9.2764e-06
5.68855e-05
-4.08453e-06
5.88336e-05
2.36609e-06
5.96635e-05
1.32846e-05
5.56936e-05
1.87931e-05
4.55454e-05
1.84824e-05
3.85687e-05
1.75811e-05
3.62989e-05
2.29827e-05
2.84635e-05
3.69136e-05
1.99795e-05
4.5646e-05
1.07216e-05
8.04675e-05
-8.70475e-06
0.000130675
-1.74449e-05
9.33801e-05
-1.3458e-05
3.44413e-05
-4.3368e-05
4.2913e-05
-7.57303e-05
4.30233e-05
-7.03161e-05
4.21993e-05
-4.86818e-05
4.19735e-05
-2.93107e-05
4.47383e-05
-1.18188e-05
4.8844e-05
-4.29974e-06
5.04284e-05
7.7118e-07
5.22385e-05
8.95052e-06
5.04666e-05
2.06546e-05
4.52862e-05
2.59658e-05
4.02141e-05
2.22646e-05
3.68443e-05
2.51004e-05
2.57892e-05
4.6645e-05
1.69618e-05
5.42644e-05
8.62768e-06
8.88225e-05
-5.43194e-06
0.000142062
-1.48942e-05
8.83269e-05
-3.05052e-05
2.83292e-05
-8.5921e-05
4.0439e-05
-7.28519e-05
4.19808e-05
-7.22453e-05
4.14512e-05
-5.14997e-05
3.9897e-05
-2.98462e-05
4.08782e-05
-1.41389e-05
4.30086e-05
-4.34149e-06
4.37374e-05
-1.62098e-06
4.51049e-05
4.44903e-06
4.5762e-05
1.84511e-05
4.5242e-05
2.78419e-05
4.34608e-05
2.55114e-05
3.93732e-05
2.85987e-05
2.32417e-05
5.74073e-05
9.29418e-06
6.73686e-05
5.35119e-06
9.30889e-05
-3.89081e-06
0.000151016
-8.74258e-06
8.64252e-05
-3.98641e-05
1.48985e-05
1.67946e-05
-3.06876e-05
6.3628e-05
-4.65733e-05
0.000102894
-7.68026e-05
9.11243e-05
-0.000148366
5.45544e-05
-0.000106097
4.47439e-05
-2.5571e-05
-0.000179302
-8.60587e-05
3.6266e-05
6.43827e-06
5.3415e-05
5.86022e-06
7.40333e-05
1.15208e-07
-5.05004e-06
8.96044e-05
7.01141e-05
-1.81749e-05
7.77752e-05
-2.051e-05
8.52996e-05
-2.51208e-05
-2.88681e-05
9.35812e-05
0.000108725
-2.62166e-05
0.000115849
-2.99003e-05
0.000122452
-3.58606e-05
-4.22493e-05
0.00012871
9.26912e-05
-4.16017e-05
9.47002e-05
-4.93878e-05
9.49981e-05
-6.08685e-05
-6.79323e-05
9.36792e-05
5.54138e-05
-8.84424e-05
5.07581e-05
-8.5892e-05
4.43202e-05
-6.53084e-05
-6.56185e-05
3.82528e-05
5.03474e-05
-5.2945e-05
3.66268e-05
-4.33007e-05
3.31077e-05
-9.83916e-06
-1.66104e-05
3.87552e-05
-0.000194911
2.49415e-05
-0.000188108
6.24268e-05
-0.000160726
7.20091e-05
6.4011e-05
-0.000139781
-8.98202e-05
3.23903e-05
-8.1992e-05
5.48993e-05
-6.61668e-05
6.99755e-05
8.03749e-05
-3.9956e-05
-3.8221e-05
2.98773e-05
-2.33901e-05
3.98642e-05
-1.48553e-06
4.86787e-05
5.57346e-05
2.67955e-05
-1.66349e-05
2.60446e-05
-7.59777e-06
3.09276e-05
5.89879e-06
3.51867e-05
3.87609e-05
2.3367e-05
-9.06198e-06
2.30574e-05
-3.6062e-06
2.55229e-05
3.89683e-06
2.77852e-05
2.9171e-05
1.3731e-05
-1.45984e-05
1.91085e-05
-9.38082e-06
2.0439e-05
-3.22975e-06
2.16872e-05
2.21932e-05
3.90306e-06
-1.42274e-05
1.5677e-05
-1.02372e-05
1.6466e-05
-5.71531e-06
1.7223e-05
1.73232e-05
-7.85798e-07
-1.13844e-05
1.32884e-05
-8.78254e-06
1.39087e-05
-5.84979e-06
1.43145e-05
1.44251e-05
-2.88897e-06
-9.65325e-06
1.17235e-05
-7.76545e-06
1.20288e-05
-5.6429e-06
1.22422e-05
1.24073e-05
-3.5902e-06
-6.70011e-06
1.03937e-05
-5.30479e-06
1.06719e-05
-3.92484e-06
1.08835e-05
1.11548e-05
-2.63492e-06
-4.75228e-06
-3.43193e-06
-2.23134e-06
-1.07465e-06
7.66053e-05
-7.15916e-05
8.90339e-05
-9.5988e-05
9.27688e-05
-8.75267e-05
8.88902e-05
-6.20329e-05
8.8266e-05
-3.48895e-05
8.4181e-05
-1.23415e-05
8.07713e-05
-1.36842e-06
7.98294e-05
3.47737e-07
7.70771e-05
6.20076e-06
8.18657e-05
1.34145e-05
8.18821e-05
3.04899e-05
7.02014e-05
4.16016e-05
5.71356e-05
4.02364e-05
2.32272e-05
5.71649e-05
-1.27718e-05
6.44292e-05
6.51496e-06
7.03092e-05
8.30197e-06
0.000149451
4.43218e-06
8.50529e-05
-3.41363e-05
9.97007e-05
-0.000100238
0.000106038
-0.000133384
0.000119209
-0.00016532
0.000115511
-0.000168133
9.24239e-05
-0.000130827
7.46645e-05
-5.73309e-05
7.14424e-05
-1.75584e-05
7.49541e-05
-2.99121e-06
6.83004e-05
1.61169e-05
6.02888e-05
2.18778e-05
5.47948e-05
3.60004e-05
4.87507e-05
5.01948e-05
3.78405e-05
4.8261e-05
1.47021e-05
5.96753e-05
-6.78775e-06
6.3036e-05
8.30224e-06
4.76636e-05
3.34317e-05
0.000123291
2.5425e-05
8.934e-05
-5.74283e-06
0.000110032
-0.000125145
5.82275e-05
-0.000179246
3.39884e-05
-0.000230559
4.29423e-05
-0.000214037
5.92136e-05
-0.000195231
7.85136e-05
-0.000159413
7.3412e-05
-0.000114553
7.69829e-05
-4.18551e-05
7.30745e-05
1.3383e-06
7.23109e-05
2.10255e-05
6.01249e-05
4.86388e-05
4.70549e-05
6.58129e-05
3.43172e-05
7.39626e-05
3.25814e-05
7.4246e-05
3.52638e-05
6.99576e-05
4.14873e-05
5.62432e-05
5.9342e-05
9.55659e-05
3.99809e-05
0.000109889
3.63549e-05
3.45594e-06
-0.000171188
-0.000166081
-0.000164517
-0.000205678
-0.0002001
-0.000145363
-0.000230432
-0.000123372
-0.000220865
-8.96643e-05
-0.000219458
-1.96043e-05
-0.000207443
4.6494e-05
-0.0001451
7.9927e-05
-8.70829e-05
8.31391e-05
-2.4099e-05
7.41734e-05
3.63728e-05
6.73643e-05
6.94691e-05
5.78634e-05
8.86155e-05
6.87707e-05
9.78104e-05
7.99862e-05
9.41236e-05
8.15999e-05
7.63646e-05
8.25932e-05
9.0716e-05
5.80891e-05
0.000139068
9.88971e-05
-4.92579e-05
-0.000132474
-0.000175689
-0.000202535
-0.000162547
-0.000217049
-0.000131584
-0.000216138
-0.000104816
-0.000205748
-8.46626e-05
-0.000203395
-6.43274e-05
-0.000202779
-2.5303e-05
-0.000191613
5.01521e-05
-0.000163654
0.000109593
-9.67207e-05
0.000110396
-9.25299e-06
7.46281e-05
4.84202e-05
6.63437e-05
8.99511e-05
7.04009e-05
9.98956e-05
8.25611e-05
9.08186e-05
9.17446e-05
7.68888e-05
9.11269e-05
9.34892e-05
7.17841e-05
0.00015716
0.000168282
-4.72009e-05
-7.51191e-05
-0.000135503
-0.000210021
-0.000123382
-0.000219354
-0.000129365
-0.000225296
-0.00011851
-0.000223312
-9.83233e-05
-0.000217673
-7.55541e-05
-0.000211687
-4.48973e-05
-0.000200157
-1.32099e-05
-0.000181768
4.78123e-05
-0.000151185
0.000111975
-6.92621e-05
0.000111352
2.90508e-05
7.99789e-05
8.42262e-05
6.57376e-05
9.75852e-05
7.76431e-05
7.88285e-05
9.3079e-05
6.39701e-05
9.22402e-05
6.68088e-05
7.47864e-05
0.00012518
0.00017193
-9.51299e-05
6.91807e-05
-0.000116758
-0.000162815
-0.000134173
-0.000213294
-0.000137931
-0.000253368
-0.000131652
-0.000254517
-0.000114132
-0.000256332
-9.47799e-05
-0.000243329
-6.833e-05
-0.00022658
-4.18722e-05
-0.000204668
-1.19451e-05
-0.000164401
5.65042e-05
-0.000112208
0.000131782
-1.35871e-05
0.000112463
5.19184e-05
7.16171e-05
9.36089e-05
5.82505e-05
7.54106e-05
5.85203e-05
5.22057e-05
6.72898e-05
6.16196e-05
6.96671e-05
0.000117098
0.000114683
-4.67708e-05
0.000206301
-0.000125547
-3.96616e-06
-0.000178856
-0.000206807
-0.000192898
-0.000325763
-0.000159714
-0.000350526
-0.000114988
-0.000329663
-8.48549e-05
-0.000269188
-7.05726e-05
-0.000247676
-5.12205e-05
-0.000224596
-3.16038e-05
-0.000183977
3.45665e-07
-0.00013097
6.06514e-05
-5.80597e-05
8.79487e-05
1.43864e-05
6.15677e-05
8.23641e-05
2.18206e-05
7.11908e-05
1.53248e-05
5.95372e-05
4.28727e-05
9.19957e-05
6.84315e-05
0.000106092
4.33392e-05
3.89946e-05
0.000153064
-4.70135e-05
8.88067e-05
-0.000221873
-7.79718e-05
-0.000313828
-0.000208514
-0.000285836
-0.000271403
-0.000184143
-0.000422247
-9.67733e-05
-0.000288927
-6.93566e-05
-0.000250504
-5.66282e-05
-0.000236101
-4.6099e-05
-0.000194784
-4.53645e-05
-0.000134827
2.0504e-06
-6.43612e-05
7.18791e-05
2.57897e-05
5.35663e-05
5.37262e-05
-9.31692e-06
6.80982e-05
-1.93808e-05
7.41286e-05
1.97596e-05
0.000118616
6.44158e-05
0.000122242
5.33288e-05
7.08349e-05
0.000102985
8.49445e-05
9.74515e-05
9.16934e-05
4.62513e-05
5.50302e-05
-3.63332e-05
-0.000149347
-0.000146776
-0.000218031
-0.000326209
-0.000115935
-0.000274811
-7.78771e-05
-0.000232976
-6.56961e-05
-0.000228956
-6.68437e-05
-0.000193498
-6.7278e-05
-0.000130573
-3.00829e-05
-4.36797e-05
3.9158e-05
4.93307e-05
4.03119e-05
3.86092e-05
-1.36268e-05
5.87379e-05
-3.58095e-05
7.3929e-05
4.38693e-06
0.000123624
5.33531e-05
0.000155634
9.09267e-05
4.35282e-05
7.26169e-05
6.82311e-05
6.19885e-05
9.05104e-05
2.97863e-05
8.98487e-05
-1.98908e-05
1.79841e-05
-7.91236e-05
-0.000123118
-0.000245748
-0.000127228
-0.000248108
-8.47596e-05
-0.000213782
-7.67737e-05
-0.000203819
-8.54603e-05
-0.000184278
-8.88958e-05
-0.000120802
-5.52913e-05
-2.4978e-05
1.55848e-05
7.16858e-05
4.46167e-05
4.83709e-05
9.93363e-06
4.72032e-05
-2.58207e-05
6.96372e-05
-1.59905e-05
0.000109283
2.28361e-05
0.000158825
0.000115728
2.43467e-05
5.2986e-05
4.3969e-05
4.12317e-05
5.50832e-05
1.47141e-05
4.97265e-05
-2.41624e-05
-0.000156419
-8.9867e-05
-0.000220905
-0.00025698
-0.000133713
-0.000224742
-9.99096e-05
-0.000192312
-9.44841e-05
-0.000180565
-0.000107275
-0.000171502
-0.000108228
-0.00011103
-6.75697e-05
1.53645e-06
7.89513e-06
9.91671e-05
5.23235e-05
6.21599e-05
3.84302e-05
4.36129e-05
7.35694e-06
6.11908e-05
-4.87642e-06
9.11856e-05
9.80319e-06
0.000151141
0.000125471
1.21667e-05
4.02141e-05
2.199e-05
3.14702e-05
2.25116e-05
1.49182e-05
-1.33974e-05
-9.85217e-06
-0.000170412
-9.7135e-05
-0.000186963
-0.000213728
-0.000149001
-0.000185035
-0.000124596
-0.000178206
-0.000118215
-0.000172107
-0.000129263
-0.000161057
-0.000127454
-0.000106088
-7.57521e-05
1.47712e-05
1.11557e-05
0.000132405
5.65604e-05
8.52221e-05
5.40494e-05
6.25571e-05
2.79279e-05
7.07059e-05
9.80513e-07
8.46035e-05
1.40677e-06
0.000131209
0.00012683
4.0235e-06
3.33672e-05
7.14876e-06
2.84724e-05
1.02376e-06
2.08589e-05
-6.19829e-05
8.85544e-06
-0.000139192
-9.01019e-05
-0.000186685
-0.000189197
-0.000166139
-0.000163622
-0.000152462
-0.000162584
-0.000146682
-0.000167603
-0.000151534
-0.000156604
-0.000147051
-0.000110306
-0.000103793
-3.79465e-06
-1.15913e-05
0.000153036
5.16329e-05
0.00014192
4.98916e-05
0.000106636
2.14395e-05
7.21929e-05
-5.95931e-06
7.01904e-05
-5.89686e-06
0.000104141
0.000121164
4.1545e-07
2.94635e-05
1.02393e-06
2.79493e-05
-6.88085e-06
2.71256e-05
-6.63579e-05
2.60084e-05
-0.000145898
-2.66626e-05
-0.000198402
-0.000185231
-0.000187894
-0.000156191
-0.000178782
-0.000146957
-0.000170957
-0.000154025
-0.000172811
-0.000153344
-0.000162953
-0.000121498
-0.000117828
-4.56297e-05
-5.23984e-05
8.21499e-05
-2.62172e-06
0.000105079
1.7878e-05
8.26687e-05
3.54825e-07
5.33866e-05
-2.62887e-05
5.63577e-05
-2.04064e-05
9.30559e-05
0.000101416
-3.35401e-07
2.71925e-05
1.74368e-08
2.76637e-05
-2.60983e-06
2.95895e-05
-1.98685e-05
3.38242e-05
-0.000110531
2.17439e-05
-0.000200504
-6.26819e-05
-0.000208873
-0.000115204
-0.000206341
-0.000127056
-0.000188287
-0.000132782
-0.000184539
-0.000132562
-0.000181418
-0.000123309
-0.000155521
-7.60373e-05
-0.000114217
-6.91485e-06
-9.5331e-05
1.15812e-05
-8.95257e-05
1.26952e-05
-9.26592e-05
1.83917e-05
-7.72252e-05
3.52969e-05
-4.1979e-05
5.61415e-05
6.08837e-05
1.43031e-06
2.9941e-06
3.94681e-06
4.41301e-06
2.25509e-06
-8.51637e-05
-0.000185432
-0.000211197
-0.00020987
-0.000193253
-0.000196784
-0.000196892
-0.000172335
-0.000158688
-0.000150338
-0.000136204
-0.000106319
-5.64546e-05
)
;

boundaryField
{
    leftWall
    {
        type            fixedValue;
        value           nonuniform 0();
    }
    rightWall
    {
        type            fixedValue;
        value           uniform 0;
    }
    lowerWall
    {
        type            fixedValue;
        value           uniform 0;
    }
    atmosphere
    {
        type            calculated;
        value           nonuniform 0();
    }
    defaultFaces
    {
        type            empty;
        value           nonuniform 0();
    }
    procBoundary1to0
    {
        type            processor;
        value           nonuniform List<scalar> 
26
(
3.10517e-06
2.36365e-06
2.36707e-07
3.69457e-07
7.42635e-07
2.16682e-06
2.49731e-06
2.00664e-06
-2.90497e-06
-4.86303e-05
-9.20823e-05
-8.29729e-05
-4.90878e-05
-1.44384e-05
0.00016514
5.03393e-05
1.97957e-05
4.08418e-05
2.04541e-05
1.2041e-05
1.86645e-05
1.7661e-05
1.37964e-05
1.12316e-05
8.04877e-06
6.06682e-06
)
;
    }
    procBoundary1to3
    {
        type            processor;
        value           nonuniform List<scalar> 
23
(
9.12252e-06
9.35431e-06
9.70565e-06
1.00048e-05
2.47201e-05
2.61086e-05
2.86847e-05
3.29582e-05
3.93925e-05
3.79102e-05
-2.58742e-05
-9.26446e-05
-0.000109048
-0.00011
-9.80915e-05
-7.53464e-05
-3.51421e-05
-1.1791e-05
-1.59539e-06
3.09522e-06
5.05783e-06
7.18121e-06
7.42506e-06
)
;
    }
}


// ************************************************************************* //
