/*--------------------------------*- C++ -*----------------------------------*\
| =========                 |                                                 |
| \\      /  F ield         | OpenFOAM: The Open Source CFD Toolbox           |
|  \\    /   O peration     | Version:  2.4.0                                 |
|   \\  /    A nd           | Web:      www.OpenFOAM.org                      |
|    \\/     M anipulation  |                                                 |
\*---------------------------------------------------------------------------*/
FoamFile
{
    version     2.0;
    format      ascii;
    class       volScalarField;
    location    "0.65";
    object      rho;
}
// * * * * * * * * * * * * * * * * * * * * * * * * * * * * * * * * * * * * * //

dimensions      [1 -3 0 0 0 0 0];

internalField   nonuniform List<scalar> 
559
(
13528.9
13528.8
13528.8
13528.8
13528.8
13528.8
13528.8
13526.4
8513.51
9519.92
9601.14
9622.94
9642.64
9650.97
9655.3
9664.77
9683.44
9698.64
9707.55
9707.55
9715.52
9726.62
9738.83
9745.45
9749.17
9751.84
9753.6
2930.11
4062.98
8214.94
9540.82
9599.63
9636.88
9559.3
9036.34
8117.23
7540.14
7484
7672.31
8084.04
8435.27
8784.13
9434.28
9752.48
9764.01
9767.39
1291.24
3348.99
6439.4
8009.95
7970.87
7659.49
6753.81
5678.83
4800.92
4404.73
4122.58
3973.23
4001.7
4076.81
3880.71
4768.32
8808.31
9777.62
9781.23
1473.27
4684.44
6212.36
5291.66
4068.25
3343.61
2554.26
1953.24
1874.67
1914.99
2023.52
1983.25
1707.54
1705.99
1507.47
1348.22
6103.78
9784.1
9782.23
3267.88
5790.93
5611.32
3252.06
1802.61
1377.8
1046.43
749.087
638.277
585.459
836.991
1028.85
1063.35
1147.51
1103.22
946.602
3134.18
9203.64
8570.59
5833.82
6066.15
4298.43
1982.33
1636.55
1024.85
884.81
860.158
799.343
671.764
550.527
748.99
986.858
982.108
954.723
938.999
1437.6
6045.58
5461.04
6539.86
6149.52
2885.01
1373.86
1032.19
1048.61
893.832
887.275
845.801
732.982
596.133
544.562
787.378
836.621
863.593
927.327
954.039
2394.72
4041.2
6186.56
4316.02
2085.19
1049.94
923.223
915.772
909.323
827.309
829.977
768.236
649.501
559.521
544.54
615.484
825.758
934.654
928.619
1195.3
3506.87
10945.4
2374.45
969.299
800.289
379.194
6.45396
1.0012
1.00003
10645.7
10419.9
9907.73
9452.57
2386.81
2312.5
2098.75
1806.82
946.99
927.124
903.074
877.272
754.424
711.635
641.111
542.46
295.281
225.1
127.884
50.1125
1.14543
1.16541
1.626
1.71546
1.00036
1.00023
1.00072
1.00148
1.00002
1.00003
1.0001
1.00015
1.00002
1.00001
1.00002
1.00002
1.00002
1.00001
1.00002
1.00004
1.00002
1.00002
1.00002
1.00004
1.00001
1.00001
1.00002
1.00003
1.00001
1.00001
1.00001
1.00002
1
1
1.00001
1.00001
1
1
0.999999
1
0.999999
0.999997
0.999999
0.999998
0.999996
0.999999
0.999997
0.999999
6493.43
2480.43
1141.48
863.63
840.25
858.113
879.692
809.598
790.336
796.622
727.929
642.699
587.034
502.552
631.024
867.777
929.631
987.84
3006.2
1258.55
901.29
749.575
645.734
683.754
748.721
755.445
805.821
825.259
831.847
801.217
721.398
636.639
322.194
298.597
587.022
838.446
916.018
2416.08
792.751
538.396
268.947
86.4203
104.542
243.571
447.999
671.756
735.63
798.196
801.747
798.241
701.739
360.068
339.44
455.268
701.381
705.911
1758.82
330.837
128.624
54.6894
57.4492
74.9267
70.6441
137.451
297.505
424.483
658.461
736.08
757.316
749.906
680.471
646.124
668.876
719.404
655.583
1257.71
8.60728
15.207
130.755
357.533
401.501
387.493
348.265
233.189
222.506
237.647
420.121
677.742
719.33
746.44
766.651
770.682
775.003
679.434
912.601
1.13154
5.85003
127.514
406.999
484.657
491.848
492.161
488.175
456.943
270.476
236.117
269.773
564.715
694.102
719.338
765.414
758.576
665.967
618.655
1.00335
1.96216
26.6367
148.405
333.247
444.689
493.086
500.025
500.115
497.527
296.982
244.646
317.924
484.485
684.5
719.157
562.684
277.177
186.103
1.00019
1.08685
1.9965
8.40858
44.2256
164.6
366.761
490.787
500.196
500.302
496.265
309.451
71.1946
240.049
486.187
694.582
226.693
89.1006
302.334
1.00012
1.00369
1.0174
1.0542
1.37277
7.95723
92.9509
389.258
495.116
500.459
492.075
310.929
32.167
41.8023
348.101
631.01
152.422
85.7583
703.206
1.00011
1.00035
1.00179
1.00285
1.00285
1.0214
9.57111
203.134
476.312
500.657
487.354
300.268
31.5787
16.8005
132.312
453.138
264.029
77.8841
923.891
1.00008
1.00038
1.00154
1.00189
1.00157
1.00205
4.49001
140.723
462.63
500.677
482.227
303.628
45.5577
16.7791
23.0307
266.3
466.118
354.169
960.529
1.00006
1.00017
1.00053
1.00033
1.00038
1.05963
12.1394
183.046
466.836
500.621
458.873
223.204
34.4684
16.7585
16.7596
71.5704
437.068
608.67
905.844
1.00003
1.00006
1.0001
1.0001
1.00075
1.73763
44.3087
297.277
486.631
500.808
441.427
161.737
18.8873
16.7831
16.7599
18.0292
279.797
655.097
840.667
1.00002
1.00002
1.00004
1.00007
1.00185
2.58135
66.4914
348.427
493.947
502.267
467.222
205.796
19.0222
16.7857
16.7777
19.1955
265.249
617.16
799.213
1
1.00001
1.00001
1.0001
1.00237
2.43094
54.4303
278.332
470.506
502.522
498.199
385.044
80.4551
16.8605
16.7952
125.015
454.645
597.697
767.78
1
1
1.00001
1.00005
1.00129
1.05708
4.90748
68.4505
296.891
473.845
500.599
503.528
435.258
339.957
404.451
510.896
554.167
612.208
741.049
0.999998
1
1
1.00001
1.00014
1.00137
1.03946
4.40909
60.7934
289.829
477.997
510.279
516.86
532.611
545.355
556.735
573.947
620.468
700.315
)
;

boundaryField
{
    leftWall
    {
        type            calculated;
        value           nonuniform 0();
    }
    rightWall
    {
        type            calculated;
        value           nonuniform List<scalar> 
25
(
9753.6
9767.39
9781.23
9782.23
8570.59
5461.04
4041.2
3506.87
3006.2
2416.08
1758.82
1257.71
912.601
618.655
186.103
302.334
703.206
923.891
960.529
905.844
840.667
799.213
767.78
741.049
700.315
)
;
    }
    lowerWall
    {
        type            calculated;
        value           nonuniform List<scalar> 
40
(
13528.9
13528.9
13528.8
13528.8
13528.8
13528.8
13528.8
13528.8
13526.4
10645.7
10419.9
9907.73
9452.57
8513.51
2930.11
1291.24
1473.27
3267.88
5833.82
6539.86
6186.56
8513.51
9519.92
9601.14
9622.94
9642.64
9650.97
9655.3
9664.77
9683.44
9698.64
9707.55
9707.55
9715.52
9726.62
9738.83
9745.45
9749.17
9751.84
9753.6
)
;
    }
    atmosphere
    {
        type            calculated;
        value           nonuniform 0();
    }
    defaultFaces
    {
        type            empty;
    }
    procBoundary1to0
    {
        type            processor;
        value           nonuniform List<scalar> 
26
(
13529
13529
13529
13529
13529
13529
13528.9
13500.4
10347.7
2311.21
989.406
856.741
502.213
48.1312
1.00066
1.00003
1.00002
1.00002
1.00002
1.00003
1.00002
1.00001
1
1
0.999998
0.999999
)
;
    }
    procBoundary1to3
    {
        type            processor;
        value           nonuniform List<scalar> 
23
(
0.999999
0.999998
0.999999
0.999996
0.999998
0.999997
1
1
1.00003
1.00024
1.00088
1.0229
3.00939
46.765
258.3
467.491
513.275
521.433
530.198
541.302
558.744
596.714
645.523
)
;
    }
}


// ************************************************************************* //
