/*--------------------------------*- C++ -*----------------------------------*\
| =========                 |                                                 |
| \\      /  F ield         | OpenFOAM: The Open Source CFD Toolbox           |
|  \\    /   O peration     | Version:  2.4.0                                 |
|   \\  /    A nd           | Web:      www.OpenFOAM.org                      |
|    \\/     M anipulation  |                                                 |
\*---------------------------------------------------------------------------*/
FoamFile
{
    version     2.0;
    format      ascii;
    class       volVectorField;
    location    "0.65";
    object      U.mercury;
}
// * * * * * * * * * * * * * * * * * * * * * * * * * * * * * * * * * * * * * //

dimensions      [0 1 -1 0 0 0 0];

internalField   nonuniform List<vector> 
559
(
(-0.0347174 -0.00617314 0)
(-0.0239694 -0.0280045 0)
(0.00467378 -0.0306336 0)
(0.00219983 -0.0306934 0)
(0.00575776 -0.034734 0)
(-0.00156409 -0.0397081 0)
(-0.00299424 -0.0564013 0)
(0.00273804 -0.0609852 0)
(-0.313568 -0.469836 0)
(-0.306757 -0.34066 0)
(-0.0215308 -0.303604 0)
(0.210652 -0.269314 0)
(0.418185 -0.249159 0)
(0.565958 -0.237344 0)
(0.684746 -0.236423 0)
(0.766258 -0.251912 0)
(0.80112 -0.285656 0)
(0.80058 -0.310747 0)
(0.786855 -0.32422 0)
(0.76364 -0.346444 0)
(0.695629 -0.365795 0)
(0.620313 -0.357428 0)
(0.567066 -0.325722 0)
(0.487523 -0.270862 0)
(0.317573 -0.201472 0)
(-0.0765965 -0.23131 0)
(-0.0055569 -0.297894 0)
(-0.246344 -0.0219022 0)
(0.0499027 -0.204631 0)
(0.230548 -0.265746 0)
(0.325297 -0.177291 0)
(0.477002 -0.111997 0)
(0.587843 -0.0648372 0)
(0.663065 -0.04863 0)
(0.739395 -0.027561 0)
(0.780563 -0.0134374 0)
(0.797024 -0.00813327 0)
(0.831196 -0.00136612 0)
(0.874973 0.0438262 0)
(0.857156 0.11035 0)
(0.805873 0.118524 0)
(0.714827 0.109743 0)
(0.653702 0.170522 0)
(0.494698 0.210521 0)
(0.0783984 0.152884 0)
(0.00514864 0.0492372 0)
(-0.0693459 -0.174124 0)
(0.274543 -0.464124 0)
(0.370994 -0.490629 0)
(0.483757 -0.410382 0)
(0.559478 -0.328843 0)
(0.600733 -0.270967 0)
(0.606884 -0.272105 0)
(0.62488 -0.275618 0)
(0.654029 -0.280218 0)
(0.672183 -0.288976 0)
(0.672753 -0.291878 0)
(0.684318 -0.278232 0)
(0.692782 -0.24647 0)
(0.6745 -0.234504 0)
(0.591082 -0.258674 0)
(0.554779 -0.130571 0)
(0.451659 0.172921 0)
(0.0502635 0.136823 0)
(-0.0721045 -0.13051 0)
(0.103965 -0.022761 0)
(0.385988 -0.442781 0)
(0.465452 -0.523906 0)
(0.523537 -0.525241 0)
(0.587696 -0.481005 0)
(0.598446 -0.436496 0)
(0.602675 -0.457627 0)
(0.604342 -0.443975 0)
(0.591688 -0.39235 0)
(0.577678 -0.377165 0)
(0.532025 -0.324047 0)
(0.51573 -0.300412 0)
(0.528214 -0.294318 0)
(0.515332 -0.308874 0)
(0.427308 -0.394163 0)
(0.341228 -0.330184 0)
(0.340775 0.205054 0)
(-0.0802729 0.206929 0)
(-0.0451581 -0.0698548 0)
(0.329281 -0.036358 0)
(0.426377 -0.465052 0)
(0.481379 -0.600937 0)
(0.485706 -0.684148 0)
(0.52607 -0.697748 0)
(0.600915 -0.725872 0)
(0.635033 -0.788956 0)
(0.739906 -0.90539 0)
(0.819153 -0.954022 0)
(0.727485 -0.899841 0)
(0.539869 -0.695595 0)
(0.484578 -0.486751 0)
(0.522601 -0.431717 0)
(0.506812 -0.448682 0)
(0.392369 -0.499412 0)
(0.321991 -0.41927 0)
(0.200756 0.158904 0)
(-0.219359 0.21879 0)
(0.0391324 -0.224384 0)
(0.413783 -0.211943 0)
(0.42065 -0.518103 0)
(0.473834 -0.643166 0)
(0.491504 -0.753521 0)
(0.477602 -0.764579 0)
(0.487461 -0.77095 0)
(0.498117 -0.809231 0)
(0.500406 -0.610882 0)
(0.694006 -0.250594 0)
(0.770122 -0.215884 0)
(1.06087 -1.15521 0)
(0.563931 -0.577537 0)
(0.48793 -0.439661 0)
(0.455751 -0.491095 0)
(0.288293 -0.479058 0)
(0.239608 -0.376019 0)
(0.101105 0.0590517 0)
(-0.226469 0.198574 0)
(0.16713 -0.349479 0)
(0.396026 -0.404277 0)
(0.409485 -0.579975 0)
(0.451496 -0.697549 0)
(0.516183 -0.839552 0)
(0.531219 -0.932506 0)
(0.496897 -0.838406 0)
(0.50657 -0.834168 0)
(0.504578 -0.512249 0)
(0.570291 -0.206373 0)
(0.618012 -0.127332 0)
(0.698612 -0.220214 0)
(0.731336 -0.848079 0)
(0.543896 -0.592264 0)
(0.400149 -0.64782 0)
(0.285248 -0.556404 0)
(0.191844 -0.334607 0)
(0.217522 -0.0372517 0)
(-0.109109 0.0562522 0)
(0.300136 -0.447357 0)
(0.411857 -0.471607 0)
(0.431274 -0.604164 0)
(0.483652 -0.735243 0)
(0.534491 -0.85356 0)
(0.557874 -0.925328 0)
(0.547585 -0.734364 0)
(0.469865 -0.493763 0)
(0.515696 -0.363151 0)
(0.489324 -0.244363 0)
(0.531576 -0.108634 0)
(0.581754 -0.0605917 0)
(0.707538 -0.390936 0)
(0.660623 -0.758076 0)
(0.327016 -0.759243 0)
(0.276022 -0.576705 0)
(0.179207 -0.343875 0)
(0.23707 -0.00352977 0)
(0.0652216 -0.0241453 0)
(0.383753 -0.456292 0)
(0.0511047 -0.163087 0)
(0.162474 -0.473706 0)
(0.501431 -0.533563 0)
(0.487272 -0.437417 0)
(0.282558 -0.526814 0)
(0.00424044 -0.382498 0)
(-1.20963 -0.122774 0)
(-0.338973 -0.116288 0)
(0.102899 -0.254421 0)
(0.197235 -0.241763 0)
(0.24707 -0.305985 0)
(0.357255 -0.306622 0)
(0.214204 -0.463428 0)
(0.259979 -0.466752 0)
(0.287116 -0.525383 0)
(0.323147 -0.565993 0)
(0.544463 -0.538545 0)
(0.592254 -0.55879 0)
(0.618998 -0.590279 0)
(0.665456 -0.641887 0)
(0.513257 -0.486619 0)
(0.5134 -0.527427 0)
(0.519513 -0.608149 0)
(0.513995 -0.682563 0)
(0.279481 -0.588469 0)
(0.253737 -0.680461 0)
(0.197728 -0.765861 0)
(0.197002 -0.666081 0)
(-0.46045 0.506581 0)
(-0.909307 0.498471 0)
(-1.03571 0.562873 0)
(-1.10029 0.840034 0)
(-1.00773 0.345009 0)
(-0.991967 0.729179 0)
(-1.22402 1.03481 0)
(-1.18445 1.35979 0)
(-0.462835 0.201714 0)
(-0.465168 0.560657 0)
(-0.375374 0.796946 0)
(-0.229976 0.99 0)
(-0.218477 0.441748 0)
(-0.169007 0.571395 0)
(-0.0708626 0.688029 0)
(0.0681576 0.783327 0)
(-0.104043 0.310495 0)
(-0.0674152 0.404872 0)
(-0.00754118 0.483905 0)
(0.0741557 0.546945 0)
(-0.0587665 0.266402 0)
(-0.0362766 0.304996 0)
(-0.000682908 0.342702 0)
(0.0429773 0.372599 0)
(-0.0906859 0.257813 0)
(-0.0646559 0.275906 0)
(-0.0340308 0.292549 0)
(-0.000216135 0.300528 0)
(-0.0865044 0.196002 0)
(-0.0652751 0.208558 0)
(-0.0429606 0.219382 0)
(-0.0185234 0.222532 0)
(-0.0677742 0.159167 0)
(-0.0539849 0.168015 0)
(-0.0389099 0.174497 0)
(-0.0241088 0.175929 0)
(-0.0562417 0.144382 0)
(-0.0467995 0.149003 0)
(-0.0354663 0.151934 0)
(-0.0255207 0.152678 0)
(-0.0393426 0.126147 0)
(-0.0318677 0.129211 0)
(-0.0242865 0.130857 0)
(-0.0181107 0.1336 0)
(-0.0291056 0.11063 0)
(-0.0215698 0.113495 0)
(-0.0146904 0.116541 0)
(-0.00965384 0.119411 0)
(0.424053 -0.4698 0)
(0.454248 -0.627515 0)
(0.532905 -0.866048 0)
(0.542366 -0.917681 0)
(0.512802 -0.70339 0)
(0.492229 -0.355252 0)
(0.46676 -0.209751 0)
(0.460321 -0.264706 0)
(0.446902 -0.24715 0)
(0.44447 -0.16217 0)
(0.473898 -0.0474844 0)
(0.424531 0.00784548 0)
(0.18606 -0.160401 0)
(0.322712 -0.835715 0)
(0.356005 -0.781863 0)
(0.240366 -0.525063 0)
(0.317233 -0.0310805 0)
(0.207911 -0.0461853 0)
(0.445709 -0.423019 0)
(0.372096 -0.716363 0)
(0.418657 -0.876085 0)
(0.493084 -0.977004 0)
(0.575226 -0.831685 0)
(0.622886 -0.551765 0)
(0.510361 -0.292102 0)
(0.428575 -0.150674 0)
(0.431414 -0.129115 0)
(0.417927 -0.0849827 0)
(0.370074 -0.0752111 0)
(0.342617 -0.00880069 0)
(0.321374 0.0630262 0)
(0.226871 0.0227815 0)
(0.174792 -0.69439 0)
(0.552063 -1.00474 0)
(0.428601 -0.842897 0)
(0.450134 -0.227699 0)
(0.373641 -0.183495 0)
(0.478236 -0.338736 0)
(0.691681 -0.720223 0)
(0.69634 -0.84561 0)
(0.53301 -0.956091 0)
(0.52928 -0.916845 0)
(0.406027 -0.790312 0)
(0.516692 -0.516982 0)
(0.507406 -0.326538 0)
(0.457361 -0.181936 0)
(0.434004 -0.0474019 0)
(0.446987 -0.00220285 0)
(0.398208 0.0526012 0)
(0.345093 0.117702 0)
(0.274511 0.119632 0)
(0.241713 -0.283555 0)
(0.514394 -0.581122 0)
(0.694059 -0.486685 0)
(0.578928 -0.4949 0)
(0.471722 -0.329186 0)
(0.500402 -0.25915 0)
(0.469509 -0.849571 0)
(-0.290396 -0.930268 0)
(-1.46411 -0.861262 0)
(-1.08211 -0.909854 0)
(-0.837882 -0.989983 0)
(-0.677605 -0.986643 0)
(-0.357163 -0.923635 0)
(0.0859024 -0.510436 0)
(0.427405 -0.220729 0)
(0.474368 -0.131027 0)
(0.457771 0.0510675 0)
(0.440666 0.20038 0)
(0.394836 0.262364 0)
(0.390767 0.255765 0)
(0.473275 0.234315 0)
(0.499045 0.166531 0)
(0.57575 -0.465548 0)
(0.564704 -0.448916 0)
(0.535774 -0.200742 0)
(-0.599902 0.164724 0)
(-1.14476 -0.00290998 0)
(-0.955425 -0.964433 0)
(-0.786425 -1.12411 0)
(-0.621862 -1.03827 0)
(-0.50025 -1.0389 0)
(-0.39052 -1.02474 0)
(-0.266048 -0.959257 0)
(-0.0285821 -0.786485 0)
(0.383196 -0.399027 0)
(0.624978 0.00894157 0)
(0.50755 0.123439 0)
(0.407667 0.25559 0)
(0.401946 0.323127 0)
(0.441325 0.294169 0)
(0.467599 0.203652 0)
(0.500215 0.169464 0)
(0.578209 -0.283429 0)
(0.558304 -0.192576 0)
(-1.64873 1.50181 0)
(-1.19865 -0.0160626 0)
(-0.714531 -1.08716 0)
(-0.697826 -1.0951 0)
(-0.635546 -1.08487 0)
(-0.5357 -1.06426 0)
(-0.429933 -1.04102 0)
(-0.325635 -0.982198 0)
(-0.19123 -0.889245 0)
(-0.0767698 -0.766938 0)
(0.456954 -0.315531 0)
(0.63767 0.0842406 0)
(0.522617 0.264677 0)
(0.421527 0.300321 0)
(0.412219 0.267445 0)
(0.417101 0.18476 0)
(0.420433 0.163715 0)
(0.392129 -0.272213 0)
(0.665202 -0.318575 0)
(-1.16508 1.47238 0)
(-0.679281 0.276388 0)
(-0.675276 -0.999287 0)
(-0.729889 -1.11139 0)
(-0.71913 -1.16874 0)
(-0.633671 -1.20483 0)
(-0.532 -1.18412 0)
(-0.432359 -1.12856 0)
(-0.349132 -1.00159 0)
(-0.189439 -0.803577 0)
(-0.0648592 -0.557966 0)
(0.509353 -0.137881 0)
(0.684284 0.224877 0)
(0.531857 0.311415 0)
(0.355153 0.192579 0)
(0.237488 0.140565 0)
(0.237315 0.112518 0)
(0.415872 -0.275593 0)
(0.756294 -0.531828 0)
(-0.0847565 1.18053 0)
(0.231119 0.811595 0)
(-0.310297 -0.57893 0)
(-1.01853 -1.06191 0)
(-0.914432 -1.23469 0)
(-0.718923 -1.31587 0)
(-0.5207 -1.28586 0)
(-0.419525 -1.20619 0)
(-0.367883 -1.11689 0)
(-0.298452 -0.913106 0)
(-0.211545 -0.674294 0)
(0.0837829 -0.278278 0)
(0.318081 -0.00412661 0)
(0.488069 0.328363 0)
(0.254948 0.218606 0)
(0.0379621 0.184921 0)
(0.228294 0.00167787 0)
(0.417737 -0.253934 0)
(0.486526 -0.280908 0)
(0.284214 0.908824 0)
(0.606611 0.773619 0)
(0.550871 0.199003 0)
(0.0562629 -0.505281 0)
(-0.568148 -1.0592 0)
(-0.970026 -1.53483 0)
(-0.594647 -1.32996 0)
(-0.450108 -1.22737 0)
(-0.392269 -1.14544 0)
(-0.353268 -0.959247 0)
(-0.327255 -0.671533 0)
(-0.227263 -0.417256 0)
(0.211974 0.212905 0)
(0.411625 0.412111 0)
(0.0927044 0.243879 0)
(-0.0698622 0.242068 0)
(0.136946 0.143301 0)
(0.430131 -0.257321 0)
(0.408411 -0.0914281 0)
(0.239245 0.619651 0)
(0.506417 0.600051 0)
(0.634659 0.247751 0)
(0.545839 -0.161634 0)
(0.472601 -0.586249 0)
(-0.111568 -1.09093 0)
(-0.384818 -1.44612 0)
(-0.540584 -1.19584 0)
(-0.446824 -1.11938 0)
(-0.450256 -0.937782 0)
(-0.441487 -0.637126 0)
(-0.292396 -0.286418 0)
(0.0396154 0.0324163 0)
(0.257713 0.37216 0)
(0.0142078 0.261555 0)
(-0.0688375 0.253631 0)
(-0.0374165 0.396482 0)
(0.409164 -0.197308 0)
(0.340766 0.0958651 0)
(0.143657 0.411617 0)
(0.305384 0.363432 0)
(0.496816 0.192387 0)
(0.489136 -0.160923 0)
(0.537895 -0.517926 0)
(0.00821216 -0.866285 0)
(-0.171199 -1.24556 0)
(-0.55885 -1.0811 0)
(-0.513865 -1.0272 0)
(-0.53086 -0.8909 0)
(-0.546575 -0.581493 0)
(-0.395235 -0.215021 0)
(-0.0935666 0.0695719 0)
(0.173814 0.363727 0)
(0.0775182 0.338142 0)
(-0.000352859 0.275078 0)
(-0.0403371 0.450513 0)
(0.157763 0.366622 0)
(0.298449 0.240482 0)
(0.0694101 0.304569 0)
(0.170844 0.233239 0)
(0.280211 0.076697 0)
(0.276583 -0.148142 0)
(0.31502 -0.423831 0)
(-0.266317 -0.805049 0)
(-0.500281 -1.07838 0)
(-0.591627 -0.987453 0)
(-0.59299 -0.915576 0)
(-0.644184 -0.810061 0)
(-0.638448 -0.49417 0)
(-0.454832 -0.0839057 0)
(-0.0665824 0.268515 0)
(0.0648216 0.425812 0)
(0.163315 0.307205 0)
(0.0799967 0.296399 0)
(0.113151 0.336025 0)
(0.0938589 0.52002 0)
(0.272997 0.341889 0)
(0.0297764 0.221169 0)
(0.090344 0.164949 0)
(0.129424 0.0595479 0)
(0.0942657 -0.0973333 0)
(-0.00787384 -0.277943 0)
(-0.581915 -0.816677 0)
(-0.776968 -1.01193 0)
(-0.732426 -0.916867 0)
(-0.71072 -0.84733 0)
(-0.753053 -0.755942 0)
(-0.738221 -0.436721 0)
(-0.531355 0.0632269 0)
(-0.129064 0.462401 0)
(0.0574631 0.391113 0)
(0.162989 0.274302 0)
(0.10697 0.303654 0)
(0.19307 0.307631 0)
(0.0537064 0.56711 0)
(0.252908 0.426535 0)
(0.00411553 0.173586 0)
(0.0340999 0.138775 0)
(0.0346982 0.0809808 0)
(-0.020954 0.00129237 0)
(-0.168537 -0.0973647 0)
(-0.709258 -0.600124 0)
(-0.918984 -0.893731 0)
(-0.878716 -0.836114 0)
(-0.860064 -0.787084 0)
(-0.870785 -0.703406 0)
(-0.855659 -0.433211 0)
(-0.648314 0.0912686 0)
(-0.274414 0.622967 0)
(0.00832259 0.501836 0)
(0.14303 0.350307 0)
(0.0851455 0.285839 0)
(0.177073 0.336447 0)
(0.105405 0.584947 0)
(0.238776 0.503196 0)
(-0.00629391 0.151431 0)
(0.00961602 0.135083 0)
(-0.000204152 0.115107 0)
(-0.0538413 0.0966239 0)
(-0.187812 0.0967773 0)
(-0.715399 -0.34559 0)
(-1.03077 -0.779008 0)
(-1.02409 -0.761395 0)
(-0.99394 -0.730857 0)
(-0.983269 -0.664866 0)
(-0.957061 -0.451943 0)
(-0.793297 -0.0267931 0)
(-0.3136 0.5444 0)
(-0.0756056 0.640074 0)
(0.0596014 0.519895 0)
(0.151031 0.323047 0)
(0.131959 0.373595 0)
(0.129847 0.612816 0)
(0.19218 0.551466 0)
(-0.00651758 0.136168 0)
(0.00210504 0.13295 0)
(-0.00155403 0.139214 0)
(-0.0206148 0.160416 0)
(-0.0535357 0.22785 0)
(-0.156076 0.242066 0)
(-0.823275 -0.435619 0)
(-1.10031 -0.679292 0)
(-1.0919 -0.649429 0)
(-1.05989 -0.605142 0)
(-1.02279 -0.473006 0)
(-0.940518 -0.168482 0)
(-0.636725 0.220934 0)
(-0.388792 0.325629 0)
(-0.315874 0.294748 0)
(-0.208348 0.38248 0)
(-0.0310969 0.576056 0)
(0.095238 0.638347 0)
(0.164902 0.553715 0)
(0.00185369 0.124777 0)
(0.0135803 0.130979 0)
(0.020226 0.142554 0)
(0.0252782 0.165313 0)
(0.0375799 0.217378 0)
(0.0771747 0.308601 0)
(0.0254999 0.24165 0)
(-0.775739 -0.495081 0)
(-1.11018 -0.578874 0)
(-1.0918 -0.516505 0)
(-1.06541 -0.413822 0)
(-1.04556 -0.237565 0)
(-0.96939 -0.00627193 0)
(-0.739905 0.15529 0)
(-0.636676 0.218078 0)
(-0.483119 0.311951 0)
(-0.148283 0.518351 0)
(0.0480864 0.610655 0)
(0.136776 0.520898 0)
)
;

boundaryField
{
    leftWall
    {
        type            fixedValue;
        value           nonuniform 0();
    }
    rightWall
    {
        type            fixedValue;
        value           uniform (0 0 0);
    }
    lowerWall
    {
        type            fixedValue;
        value           uniform (0 0 0);
    }
    atmosphere
    {
        type            fluxCorrectedVelocity;
        value           nonuniform 0();
    }
    defaultFaces
    {
        type            empty;
    }
    procBoundary1to0
    {
        type            processor;
        value           nonuniform List<vector> 
26
(
(-0.0374011 -0.000703919 0)
(-0.031098 -0.00770715 0)
(-0.0103949 -0.0154648 0)
(-0.0112941 -0.030193 0)
(-0.0238559 -0.0469287 0)
(-0.0494998 -0.0647863 0)
(-0.0550839 -0.0798444 0)
(-0.0451325 -0.0982498 0)
(-0.0122575 -0.226746 0)
(0.108954 -0.494222 0)
(0.447742 -0.529185 0)
(0.443366 -0.398972 0)
(0.265837 -0.453676 0)
(0.0360525 -0.672154 0)
(-1.21956 -0.114822 0)
(-0.1655 -0.306784 0)
(-0.181427 0.289165 0)
(-0.181427 0.289165 0)
(-0.102119 0.188233 0)
(-0.064434 0.208374 0)
(-0.112283 0.224923 0)
(-0.10733 0.174995 0)
(-0.0847336 0.148918 0)
(-0.0675598 0.135032 0)
(-0.0498338 0.115702 0)
(-0.0386375 0.102288 0)
)
;
    }
    procBoundary1to3
    {
        type            processor;
        value           nonuniform List<vector> 
23
(
(-0.015508 0.0986508 0)
(-0.00981674 0.101335 0)
(-0.00419673 0.106292 0)
(-0.000271749 0.11001 0)
(0.00978004 0.115347 0)
(0.0208566 0.123186 0)
(0.0336049 0.135765 0)
(0.0504274 0.156082 0)
(0.0767622 0.188422 0)
(0.127138 0.230875 0)
(0.203343 0.259558 0)
(0.131931 0.204435 0)
(-0.651403 -0.448572 0)
(-1.05843 -0.470704 0)
(-1.03735 -0.370633 0)
(-0.98228 -0.225946 0)
(-0.944699 -0.0351321 0)
(-0.873314 0.091357 0)
(-0.712299 0.174226 0)
(-0.522338 0.290403 0)
(-0.235022 0.433596 0)
(-0.0518715 0.47577 0)
(0.074016 0.43279 0)
)
;
    }
}


// ************************************************************************* //
