/*--------------------------------*- C++ -*----------------------------------*\
| =========                 |                                                 |
| \\      /  F ield         | OpenFOAM: The Open Source CFD Toolbox           |
|  \\    /   O peration     | Version:  2.4.0                                 |
|   \\  /    A nd           | Web:      www.OpenFOAM.org                      |
|    \\/     M anipulation  |                                                 |
\*---------------------------------------------------------------------------*/
FoamFile
{
    version     2.0;
    format      ascii;
    class       volVectorField;
    location    "0.65";
    object      U.water;
}
// * * * * * * * * * * * * * * * * * * * * * * * * * * * * * * * * * * * * * //

dimensions      [0 1 -1 0 0 0 0];

internalField   nonuniform List<vector> 
559
(
(-0.0347175 -0.00617188 0)
(-0.0239695 -0.0280011 0)
(0.00467362 -0.0306232 0)
(0.00219933 -0.0306664 0)
(0.00575634 -0.0346694 0)
(-0.00156825 -0.0394473 0)
(-0.00299664 -0.0379628 0)
(0.00423754 0.019345 0)
(-0.318846 -0.429696 0)
(-0.338294 -0.251816 0)
(-0.0518309 -0.148829 0)
(0.21088 -0.181676 0)
(0.426355 -0.184057 0)
(0.572239 -0.192278 0)
(0.690078 -0.209473 0)
(0.769586 -0.228627 0)
(0.802305 -0.261474 0)
(0.80083 -0.285868 0)
(0.786855 -0.29865 0)
(0.763479 -0.320492 0)
(0.694501 -0.339341 0)
(0.616797 -0.32926 0)
(0.557418 -0.285675 0)
(0.460086 -0.191591 0)
(0.273889 -0.088571 0)
(-0.11002 -0.113123 0)
(-0.0178107 -0.184062 0)
(-0.280588 0.152481 0)
(-0.0916412 0.0535236 0)
(0.130272 0.0386522 0)
(0.325215 0.0961551 0)
(0.525016 0.141279 0)
(0.611657 0.077628 0)
(0.671518 0.0232577 0)
(0.743664 0.0234296 0)
(0.784154 0.0327154 0)
(0.799148 0.0431774 0)
(0.832435 0.0508853 0)
(0.875134 0.0937617 0)
(0.855932 0.155282 0)
(0.801948 0.163664 0)
(0.707042 0.172498 0)
(0.628882 0.285894 0)
(0.44216 0.360649 0)
(0.0220614 0.293664 0)
(-0.0147964 0.1828 0)
(-0.181713 0.0491225 0)
(0.151696 -0.210554 0)
(0.297539 -0.17345 0)
(0.489318 -0.0965903 0)
(0.605023 -0.0178765 0)
(0.65272 0.0220262 0)
(0.66819 0.0263786 0)
(0.661829 -0.0963782 0)
(0.665314 -0.181403 0)
(0.678778 -0.193313 0)
(0.681428 -0.197319 0)
(0.692714 -0.182446 0)
(0.692399 -0.152631 0)
(0.664497 -0.13076 0)
(0.572347 -0.1124 0)
(0.478085 0.0539464 0)
(0.359207 0.324516 0)
(-0.0320553 0.259006 0)
(-0.0968774 -0.00736644 0)
(-0.0128386 0.142145 0)
(0.392828 -0.250239 0)
(0.462614 -0.254228 0)
(0.566286 -0.153163 0)
(0.658266 -0.0368078 0)
(0.674705 0.0239404 0)
(0.686503 0.033452 0)
(0.688219 0.0480819 0)
(0.682057 0.0304303 0)
(0.649935 -0.0774854 0)
(0.571192 -0.139341 0)
(0.536246 -0.1316 0)
(0.536667 -0.0900258 0)
(0.509862 -0.0796887 0)
(0.437651 -0.0681472 0)
(0.249734 0.137149 0)
(0.214761 0.432189 0)
(-0.160452 0.385717 0)
(-0.0729352 0.101067 0)
(0.347965 0.0925216 0)
(0.467193 -0.303657 0)
(0.525745 -0.344416 0)
(0.549312 -0.26597 0)
(0.627391 -0.111526 0)
(0.698861 -0.0826891 0)
(0.721764 -0.0604531 0)
(0.721528 -0.0373971 0)
(0.719634 -0.0151943 0)
(0.6937 -0.0042773 0)
(0.643239 -0.0259663 0)
(0.573514 -0.114171 0)
(0.486863 -0.136394 0)
(0.4644 -0.141188 0)
(0.384119 -0.0604228 0)
(0.279541 0.0900344 0)
(0.0707971 0.478636 0)
(-0.306614 0.45354 0)
(-0.0169713 0.0264951 0)
(0.430813 0.0240443 0)
(0.461101 -0.333955 0)
(0.536178 -0.373183 0)
(0.537605 -0.290283 0)
(0.507498 -0.230671 0)
(0.591922 -0.134776 0)
(0.638383 -0.113966 0)
(0.659915 -0.0955039 0)
(0.704897 -0.0640529 0)
(0.705844 -0.0377331 0)
(0.652727 -0.0168256 0)
(0.577092 -0.0127026 0)
(0.502462 -0.0710039 0)
(0.454582 -0.0254805 0)
(0.29905 0.0742148 0)
(0.257853 0.189342 0)
(0.0252149 0.55697 0)
(-0.304346 0.466044 0)
(0.0509677 -0.00293361 0)
(0.388636 -0.148245 0)
(0.404831 -0.383916 0)
(0.49414 -0.395028 0)
(0.515056 -0.330047 0)
(0.478736 -0.237458 0)
(0.484046 -0.170413 0)
(0.539405 -0.119013 0)
(0.560924 -0.0773883 0)
(0.611872 -0.0319403 0)
(0.622472 -0.0155804 0)
(0.594707 -0.0111785 0)
(0.523713 -0.00521959 0)
(0.489493 0.000297185 0)
(0.432736 0.0746695 0)
(0.276684 0.116376 0)
(0.211803 0.21611 0)
(0.0634805 0.565925 0)
(-0.294599 0.457632 0)
(0.138474 -0.101737 0)
(0.413232 -0.323253 0)
(0.393209 -0.398733 0)
(0.474709 -0.409476 0)
(0.500375 -0.337544 0)
(0.47399 -0.230535 0)
(0.457059 -0.153982 0)
(0.481947 -0.106006 0)
(0.496006 -0.0880736 0)
(0.521523 -0.0512862 0)
(0.54155 0.0237069 0)
(0.536656 0.0421533 0)
(0.528308 0.0102994 0)
(0.48986 0.0115956 0)
(0.412949 0.129325 0)
(0.211555 0.166457 0)
(0.0970974 0.281603 0)
(0.0697602 0.599697 0)
(-0.31552 0.421668 0)
(0.234032 -0.176408 0)
(0.0507664 0.0283346 0)
(0.238975 -0.0578495 0)
(0.511915 -0.225136 0)
(0.492079 -0.429855 0)
(0.287852 -0.550872 0)
(0.254795 -1.08566 0)
(-1.19258 -0.135086 0)
(-0.338893 -0.116412 0)
(0.12444 -0.102316 0)
(0.24674 -0.0969685 0)
(0.318826 -0.171192 0)
(0.458961 -0.187729 0)
(0.297718 -0.051767 0)
(0.349843 -0.0579001 0)
(0.385468 -0.112153 0)
(0.443099 -0.160618 0)
(0.551416 -0.271266 0)
(0.604685 -0.305042 0)
(0.62974 -0.353951 0)
(0.682118 -0.420359 0)
(0.517461 -0.489882 0)
(0.520116 -0.539848 0)
(0.526203 -0.629505 0)
(0.528031 -0.712072 0)
(0.248258 -0.649193 0)
(0.173996 -0.788465 0)
(0.122103 -0.946617 0)
(0.216784 -1.07328 0)
(0.193737 -1.0234 0)
(-0.458963 -0.209904 0)
(-0.610153 0.06597 0)
(-1.07349 0.771942 0)
(-1.00758 0.343746 0)
(-0.992128 0.725426 0)
(-1.22126 1.02762 0)
(-1.18445 1.35675 0)
(-0.462632 0.201397 0)
(-0.465099 0.560512 0)
(-0.375895 0.79703 0)
(-0.230114 0.989991 0)
(-0.218495 0.441686 0)
(-0.169027 0.571334 0)
(-0.0709054 0.687986 0)
(0.0681254 0.783323 0)
(-0.104045 0.310496 0)
(-0.0674158 0.404871 0)
(-0.00754061 0.48391 0)
(0.0741859 0.546975 0)
(-0.0587665 0.266403 0)
(-0.0362758 0.304999 0)
(-0.000677883 0.342712 0)
(0.0430005 0.372628 0)
(-0.0906859 0.257815 0)
(-0.0646555 0.27591 0)
(-0.0340284 0.29256 0)
(-0.000207124 0.300556 0)
(-0.0865044 0.196003 0)
(-0.0652749 0.208561 0)
(-0.0429599 0.21939 0)
(-0.0185213 0.222552 0)
(-0.0677742 0.159168 0)
(-0.0539849 0.168017 0)
(-0.0389096 0.174502 0)
(-0.0241083 0.17594 0)
(-0.0562417 0.144382 0)
(-0.0467995 0.149004 0)
(-0.0354663 0.151936 0)
(-0.0255205 0.152683 0)
(-0.0393426 0.126147 0)
(-0.0318676 0.129212 0)
(-0.0242865 0.130858 0)
(-0.0181106 0.133602 0)
(-0.0291056 0.11063 0)
(-0.0215698 0.113495 0)
(-0.0146904 0.116542 0)
(-0.00965381 0.119412 0)
(0.534279 -0.423423 0)
(0.498667 -0.449013 0)
(0.517629 -0.428813 0)
(0.51551 -0.337367 0)
(0.489117 -0.207718 0)
(0.464956 -0.137541 0)
(0.44615 -0.104868 0)
(0.44995 -0.0897099 0)
(0.425376 -0.0625662 0)
(0.435994 -0.0330601 0)
(0.475466 0.0430854 0)
(0.451934 0.102788 0)
(0.258329 0.101309 0)
(0.242311 0.0903199 0)
(0.0339566 0.140255 0)
(-0.0679425 0.252903 0)
(0.152123 0.665268 0)
(-0.260076 0.401594 0)
(0.299264 -0.203749 0)
(0.524159 -0.405158 0)
(0.5888 -0.568447 0)
(0.669014 -0.627593 0)
(0.6957 -0.584241 0)
(0.647606 -0.462961 0)
(0.499357 -0.240438 0)
(0.414486 -0.113126 0)
(0.418404 -0.0765521 0)
(0.405027 -0.0300399 0)
(0.354453 -0.00287926 0)
(0.328196 0.0671628 0)
(0.312358 0.132913 0)
(0.220559 0.124044 0)
(0.132922 0.113455 0)
(0.0819893 0.0159062 0)
(0.00301362 0.119137 0)
(0.187377 0.575618 0)
(0.0175163 0.394044 0)
(0.323802 -0.103557 0)
(0.688836 -0.52662 0)
(0.709941 -0.69457 0)
(0.678295 -0.916106 0)
(0.775238 -0.911846 0)
(0.796387 -0.892374 0)
(0.817162 -0.716144 0)
(0.58609 -0.379285 0)
(0.450619 -0.150371 0)
(0.42037 -0.000613292 0)
(0.428962 0.0688837 0)
(0.370549 0.136756 0)
(0.319745 0.196934 0)
(0.246643 0.197907 0)
(0.182509 0.184038 0)
(0.27226 0.148744 0)
(0.304153 0.137219 0)
(0.394343 0.355863 0)
(0.278785 0.387607 0)
(0.342632 0.110336 0)
(0.4907 -0.925375 0)
(0.506536 -1.09849 0)
(-0.241745 -1.45539 0)
(-0.467719 -0.830197 0)
(-0.805856 -0.925342 0)
(-0.39437 -0.834572 0)
(0.365762 -0.475941 0)
(0.495838 -0.576936 0)
(0.453162 -0.216526 0)
(0.466819 -0.0689273 0)
(0.442165 0.119945 0)
(0.419606 0.26859 0)
(0.366764 0.337988 0)
(0.358645 0.348135 0)
(0.428843 0.32921 0)
(0.446032 0.248642 0)
(0.504711 0.313822 0)
(0.402676 0.480546 0)
(0.411376 0.347235 0)
(0.206596 -0.82217 0)
(-0.352352 -0.289065 0)
(-0.940606 -0.96278 0)
(-0.785794 -1.10842 0)
(-0.632152 -1.00099 0)
(-0.515782 -0.988665 0)
(-0.407657 -0.977238 0)
(-0.255103 -0.919525 0)
(0.229283 -0.749786 0)
(0.58368 -0.462834 0)
(0.604329 0.0252016 0)
(0.498728 0.181054 0)
(0.386032 0.319935 0)
(0.385268 0.38807 0)
(0.431169 0.369578 0)
(0.463566 0.29013 0)
(0.510052 0.336035 0)
(0.460279 0.541248 0)
(0.452568 0.558788 0)
(-1.20062 0.874342 0)
(-1.20131 -0.0232142 0)
(-0.714298 -1.08776 0)
(-0.699223 -1.08709 0)
(-0.648287 -1.05861 0)
(-0.5597 -1.01459 0)
(-0.449619 -0.980543 0)
(-0.320568 -0.915999 0)
(-0.152758 -0.824562 0)
(-0.00132832 -0.718891 0)
(0.69689 -0.131657 0)
(0.591265 0.091511 0)
(0.501059 0.28751 0)
(0.398397 0.353574 0)
(0.402597 0.327905 0)
(0.43308 0.252054 0)
(0.46361 0.278446 0)
(0.445293 0.488565 0)
(0.475206 0.631622 0)
(-1.16517 1.47015 0)
(-0.678552 0.274425 0)
(-0.672017 -0.998134 0)
(-0.732311 -1.11294 0)
(-0.733208 -1.16137 0)
(-0.649038 -1.18814 0)
(-0.539439 -1.14228 0)
(-0.428475 -1.07277 0)
(-0.320401 -0.946626 0)
(-0.151374 -0.756762 0)
(0.203698 -0.418955 0)
(0.613794 -0.0621615 0)
(0.668292 0.0824689 0)
(0.504449 0.299493 0)
(0.338461 0.241594 0)
(0.252547 0.187925 0)
(0.248514 0.222279 0)
(0.379689 0.351409 0)
(0.540329 0.535011 0)
(-0.0849227 1.18054 0)
(0.231096 0.811463 0)
(-0.310641 -0.578444 0)
(-1.02637 -1.06089 0)
(-0.962371 -1.23923 0)
(-0.725015 -1.30792 0)
(-0.50657 -1.26318 0)
(-0.400298 -1.19608 0)
(-0.338767 -1.11 0)
(-0.249066 -0.896224 0)
(-0.182317 -0.637529 0)
(0.456877 -0.193755 0)
(0.650937 -0.140518 0)
(0.607118 0.155271 0)
(0.273751 0.19968 0)
(0.0289186 0.206361 0)
(0.0609432 0.319501 0)
(0.440497 0.0773031 0)
(0.495188 0.0251507 0)
(0.284213 0.908846 0)
(0.606705 0.773519 0)
(0.550907 0.198768 0)
(0.0552393 -0.505649 0)
(-0.565838 -1.05673 0)
(-0.980971 -1.53356 0)
(-0.608399 -1.34701 0)
(-0.423796 -1.24728 0)
(-0.371947 -1.16925 0)
(-0.323269 -0.961143 0)
(-0.29889 -0.667807 0)
(-0.237326 -0.369075 0)
(0.141197 -0.00893272 0)
(0.599367 0.117891 0)
(0.0451838 0.182542 0)
(-0.0965438 0.279027 0)
(-0.0512262 0.420575 0)
(0.449065 0.128425 0)
(0.391094 0.122769 0)
(0.239361 0.619682 0)
(0.506774 0.599666 0)
(0.634771 0.246746 0)
(0.545352 -0.162916 0)
(0.471437 -0.588322 0)
(-0.116077 -1.0922 0)
(-0.369732 -1.44542 0)
(-0.51593 -1.2311 0)
(-0.449684 -1.14394 0)
(-0.434468 -0.937176 0)
(-0.428147 -0.639157 0)
(-0.319247 -0.287074 0)
(-0.0151346 0.115582 0)
(0.152682 0.199992 0)
(-0.00813644 0.203393 0)
(-0.0966767 0.284844 0)
(-0.122568 0.489199 0)
(0.185236 0.487802 0)
(0.286489 0.347353 0)
(0.143735 0.411653 0)
(0.305625 0.363168 0)
(0.496798 0.191272 0)
(0.487941 -0.162924 0)
(0.53733 -0.520365 0)
(0.00511312 -0.868828 0)
(-0.169642 -1.2473 0)
(-0.581336 -1.13054 0)
(-0.541854 -1.03934 0)
(-0.518267 -0.875698 0)
(-0.537212 -0.591178 0)
(-0.421396 -0.219837 0)
(-0.0881242 0.245585 0)
(0.191047 0.312112 0)
(0.0397898 0.231403 0)
(-0.0230398 0.307991 0)
(-0.112291 0.493714 0)
(0.0389898 0.661862 0)
(0.208758 0.503228 0)
(0.0694348 0.304626 0)
(0.170854 0.233318 0)
(0.279949 0.076593 0)
(0.275307 -0.148429 0)
(0.31387 -0.423932 0)
(-0.269466 -0.807729 0)
(-0.523701 -1.09947 0)
(-0.671401 -1.04624 0)
(-0.635577 -0.922688 0)
(-0.624366 -0.79668 0)
(-0.642373 -0.532011 0)
(-0.516366 -0.119148 0)
(-0.114327 0.350489 0)
(0.100778 0.388825 0)
(0.191321 0.286054 0)
(0.074719 0.331691 0)
(0.0236662 0.401076 0)
(0.00405366 0.687069 0)
(0.149218 0.583501 0)
(0.0297794 0.221217 0)
(0.0903179 0.165109 0)
(0.129243 0.0598861 0)
(0.0936242 -0.0966281 0)
(-0.00953062 -0.276781 0)
(-0.582712 -0.817342 0)
(-0.828699 -1.05748 0)
(-0.821073 -0.966268 0)
(-0.759171 -0.85491 0)
(-0.74128 -0.738853 0)
(-0.750361 -0.471598 0)
(-0.64573 -0.0455027 0)
(-0.210377 0.486471 0)
(0.104789 0.372798 0)
(0.189121 0.267796 0)
(0.145613 0.406296 0)
(0.0870016 0.438023 0)
(-0.0166139 0.670331 0)
(0.100472 0.621762 0)
(0.00411594 0.173615 0)
(0.03409 0.138875 0)
(0.0346362 0.0812354 0)
(-0.0211863 0.00195859 0)
(-0.16928 -0.0961201 0)
(-0.710536 -0.600527 0)
(-0.993606 -0.938194 0)
(-0.964498 -0.876965 0)
(-0.898396 -0.796823 0)
(-0.852963 -0.687482 0)
(-0.849372 -0.458845 0)
(-0.74285 -0.0437414 0)
(-0.451375 0.66338 0)
(0.0403383 0.560393 0)
(0.189986 0.397703 0)
(0.113801 0.444265 0)
(0.0505409 0.518763 0)
(-0.0326563 0.60883 0)
(0.0628085 0.645802 0)
(-0.00629358 0.151441 0)
(0.00961552 0.135122 0)
(-0.000210959 0.115231 0)
(-0.0538631 0.0970603 0)
(-0.187911 0.0976683 0)
(-0.718862 -0.348689 0)
(-1.10661 -0.829622 0)
(-1.10418 -0.79811 0)
(-1.03119 -0.740654 0)
(-0.970386 -0.658978 0)
(-0.925145 -0.455934 0)
(-0.831428 -0.101635 0)
(-0.478314 0.433816 0)
(-0.163913 1.02083 0)
(0.0484687 0.986097 0)
(0.159199 0.6607 0)
(0.000340145 0.433522 0)
(-0.0891169 0.531165 0)
(-0.00898359 0.630991 0)
(-0.00651733 0.136171 0)
(0.00210608 0.132964 0)
(-0.00154844 0.139269 0)
(-0.0205739 0.160633 0)
(-0.0532572 0.22857 0)
(-0.156228 0.242036 0)
(-0.861973 -0.460423 0)
(-1.20426 -0.71652 0)
(-1.18894 -0.668515 0)
(-1.07915 -0.622086 0)
(-1.00805 -0.486089 0)
(-0.939283 -0.221626 0)
(-0.704134 0.129021 0)
(-0.495394 0.286016 0)
(-0.446406 0.287524 0)
(-0.431592 0.302999 0)
(-0.353002 0.404612 0)
(-0.241858 0.507251 0)
(-0.0650277 0.542928 0)
(0.0018538 0.124778 0)
(0.013581 0.130984 0)
(0.0202302 0.142576 0)
(0.0253044 0.165404 0)
(0.0377427 0.217691 0)
(0.0777959 0.309144 0)
(0.0253661 0.240481 0)
(-0.914366 -0.526381 0)
(-1.25611 -0.590643 0)
(-1.18868 -0.509047 0)
(-1.08365 -0.441854 0)
(-1.04293 -0.288802 0)
(-0.974907 -0.06759 0)
(-0.834173 0.041348 0)
(-0.784773 0.0869277 0)
(-0.71306 0.115614 0)
(-0.561646 0.170656 0)
(-0.339794 0.278332 0)
(-0.137968 0.301915 0)
)
;

boundaryField
{
    leftWall
    {
        type            fixedValue;
        value           nonuniform 0();
    }
    rightWall
    {
        type            fixedValue;
        value           uniform (0 0 0);
    }
    lowerWall
    {
        type            fixedValue;
        value           uniform (0 0 0);
    }
    atmosphere
    {
        type            fluxCorrectedVelocity;
        value           nonuniform 0();
    }
    defaultFaces
    {
        type            empty;
    }
    procBoundary1to0
    {
        type            processor;
        value           nonuniform List<vector> 
26
(
(-0.0374016 -0.000700132 0)
(-0.0310985 -0.00769841 0)
(-0.010396 -0.0154241 0)
(-0.0112984 -0.0300475 0)
(-0.023868 -0.0464781 0)
(-0.0495341 -0.0640252 0)
(-0.0550985 -0.0436823 0)
(-0.0467032 0.0671218 0)
(-0.0116494 -0.0300687 0)
(0.161713 -0.0829488 0)
(0.450874 -0.206667 0)
(0.446851 -0.380877 0)
(0.275217 -0.468587 0)
(0.16065 -0.88601 0)
(-1.18835 -0.134722 0)
(-0.16543 -0.307124 0)
(-0.181427 0.289147 0)
(-0.181427 0.289147 0)
(-0.102119 0.188233 0)
(-0.064434 0.208374 0)
(-0.112283 0.224924 0)
(-0.10733 0.174996 0)
(-0.0847336 0.148918 0)
(-0.0675598 0.135032 0)
(-0.0498338 0.115702 0)
(-0.0386375 0.102288 0)
)
;
    }
    procBoundary1to3
    {
        type            processor;
        value           nonuniform List<vector> 
23
(
(-0.015508 0.0986508 0)
(-0.00981674 0.101335 0)
(-0.00419673 0.106292 0)
(-0.000271738 0.11001 0)
(0.00978008 0.115348 0)
(0.0208569 0.123188 0)
(0.0336069 0.135774 0)
(0.0504387 0.156119 0)
(0.076832 0.188563 0)
(0.127414 0.231194 0)
(0.203905 0.259816 0)
(0.131644 0.202772 0)
(-0.825596 -0.441187 0)
(-1.22497 -0.440504 0)
(-1.14536 -0.341085 0)
(-1.03547 -0.25301 0)
(-1.00895 -0.105728 0)
(-0.980167 -0.00415926 0)
(-0.901626 0.0435528 0)
(-0.855048 0.0690575 0)
(-0.702142 0.0735979 0)
(-0.427051 0.0712758 0)
(-0.190995 0.0835659 0)
)
;
    }
}


// ************************************************************************* //
