/*--------------------------------*- C++ -*----------------------------------*\
| =========                 |                                                 |
| \\      /  F ield         | OpenFOAM: The Open Source CFD Toolbox           |
|  \\    /   O peration     | Version:  2.4.0                                 |
|   \\  /    A nd           | Web:      www.OpenFOAM.org                      |
|    \\/     M anipulation  |                                                 |
\*---------------------------------------------------------------------------*/
FoamFile
{
    version     2.0;
    format      ascii;
    class       volScalarField;
    location    "0.35";
    object      alpha.mercury;
}
// * * * * * * * * * * * * * * * * * * * * * * * * * * * * * * * * * * * * * //

dimensions      [0 0 0 0 0 0 0];

internalField   nonuniform List<scalar> 
559
(
6.03694e-20
1.38768e-19
3.05603e-19
6.68906e-19
1.45794e-18
3.21712e-18
7.50368e-18
5.40094e-39
1.1223e-36
9.15077e-35
4.22315e-33
1.3028e-31
2.93691e-30
5.28221e-29
7.95376e-28
1.02314e-26
1.10069e-25
9.3846e-25
6.25248e-24
3.36272e-23
1.50425e-22
5.56657e-22
1.78506e-21
5.24193e-21
1.46158e-20
3.85868e-20
9.7315e-20
2.36385e-19
5.45247e-19
1.17394e-18
6.92175e-40
9.15706e-38
5.99167e-36
2.55155e-34
7.62158e-33
1.68175e-31
2.88336e-30
3.97743e-29
4.47651e-28
4.16622e-27
3.26694e-26
2.21828e-25
1.32642e-24
6.85972e-24
3.09847e-23
1.24012e-22
4.36405e-22
1.3905e-21
4.09136e-21
1.12544e-20
2.94155e-20
7.18235e-20
1.59261e-19
1.9508e-41
2.9749e-39
2.07441e-37
8.77473e-36
2.55981e-34
5.59755e-33
9.57523e-32
1.3292e-30
1.53301e-29
1.49805e-28
1.2807e-27
9.60735e-27
6.27011e-26
3.62167e-25
1.8786e-24
8.69495e-24
3.60421e-23
1.341e-22
4.5754e-22
1.44491e-21
4.16619e-21
1.06692e-20
2.42925e-20
1.04015e-42
1.38995e-40
8.84654e-39
3.61535e-37
1.07452e-35
2.4714e-34
4.55643e-33
6.86888e-32
8.63159e-31
9.27027e-30
8.53343e-29
6.75567e-28
4.7084e-27
2.88573e-26
1.55394e-25
7.45365e-25
3.24266e-24
1.28824e-23
4.65912e-23
1.52489e-22
4.52627e-22
1.21303e-21
2.96604e-21
1.62868e-44
2.50193e-42
1.82304e-40
8.41029e-39
2.76555e-37
6.90926e-36
1.37221e-34
2.23161e-33
3.03885e-32
3.4899e-31
3.41418e-30
2.93745e-29
2.23961e-28
1.5062e-27
8.92702e-27
4.6931e-26
2.22279e-25
9.53759e-25
3.68708e-24
1.29339e-23
4.12436e-23
1.20624e-22
3.29052e-22
5.82168e-46
8.3506e-44
5.74471e-42
2.54706e-40
8.18897e-39
2.03383e-37
4.0616e-36
6.72502e-35
9.46651e-34
1.15866e-32
1.24681e-31
1.16313e-30
9.36304e-30
6.68e-29
4.26444e-28
2.41956e-27
1.22679e-26
5.63562e-26
2.37408e-25
9.22929e-25
3.2876e-24
1.07796e-23
3.33878e-23
6.65502e-48
1.00166e-45
7.27508e-44
3.42698e-42
1.18281e-40
3.20119e-39
7.08554e-38
1.31689e-36
2.08475e-35
2.8206e-34
3.26663e-33
3.258e-32
2.85455e-31
2.21144e-30
1.52607e-29
9.60049e-29
5.55126e-28
2.9338e-27
1.40956e-26
6.10073e-26
2.42291e-25
9.0312e-25
3.16516e-24
7.77039e-50
1.28553e-47
1.02524e-45
5.2834e-44
1.977e-42
5.71143e-41
1.32287e-39
2.52438e-38
4.05884e-37
5.61787e-36
6.85051e-35
7.51024e-34
7.43466e-33
6.61804e-32
5.3094e-31
3.79994e-30
2.40838e-29
1.37685e-28
7.23752e-28
3.53851e-27
1.61909e-26
6.86733e-26
2.67553e-25
6.3069e-52
1.09844e-49
9.26083e-48
5.07801e-46
2.04346e-44
6.44776e-43
1.66259e-41
3.59905e-40
6.65543e-39
1.06329e-37
1.47629e-36
1.79092e-35
1.90646e-34
1.8011e-33
1.5256e-32
1.17767e-31
8.44109e-31
5.61639e-30
3.44241e-29
1.93455e-28
9.88664e-28
4.65896e-27
2.02705e-26
4.39486e-54
8.26815e-52
7.5218e-50
4.45115e-48
1.93093e-46
6.55335e-45
1.81286e-43
4.20333e-42
8.33164e-41
1.43314e-39
2.16867e-38
2.92258e-37
3.54946e-36
3.90777e-35
3.91382e-34
3.5645e-33
2.93414e-32
2.18115e-31
1.4769e-30
9.21339e-30
5.32281e-29
2.82575e-28
1.36866e-27
2.07161e-56
4.34057e-54
4.41267e-52
2.93211e-50
1.43449e-48
5.50596e-47
1.72394e-45
4.52126e-44
1.01319e-42
1.97191e-41
3.37669e-40
5.13592e-39
6.97003e-38
8.48412e-37
9.32484e-36
9.31675e-35
8.52603e-34
7.18514e-33
5.57337e-32
3.95974e-31
2.57155e-30
1.52776e-29
8.2784e-29
8.43689e-59
1.95754e-56
2.19948e-54
1.61595e-52
8.74509e-51
3.72049e-49
1.29615e-47
3.80144e-46
9.57109e-45
2.09754e-43
4.04298e-42
6.92418e-41
1.06495e-39
1.48102e-38
1.86914e-37
2.14658e-36
2.24722e-35
2.14623e-34
1.8744e-33
1.50087e-32
1.10164e-31
7.3817e-31
4.49327e-30
2.61367e-61
6.79288e-59
8.58944e-57
7.12074e-55
4.35776e-53
2.09883e-51
8.27883e-50
2.74845e-48
7.83532e-47
1.94823e-45
4.27667e-44
8.35889e-43
1.46366e-41
2.30954e-40
3.30251e-39
4.29804e-38
5.10734e-37
5.55453e-36
5.53195e-35
5.04135e-34
4.19666e-33
3.18174e-32
2.18692e-31
6.05247e-64
1.79777e-61
2.59027e-59
2.44922e-57
1.71066e-55
9.41108e-54
4.2444e-52
1.61235e-50
5.2603e-49
1.49569e-47
3.74997e-46
8.37128e-45
1.67738e-43
3.03478e-42
4.97864e-41
7.43129e-40
1.01186e-38
1.25881e-37
1.4321e-36
1.48966e-35
1.41415e-34
1.22043e-33
9.52526e-33
1.05247e-66
3.58244e-64
5.93356e-62
6.45814e-60
5.19594e-58
3.2947e-56
1.71357e-54
7.51056e-53
2.82909e-51
9.29521e-50
2.69459e-48
6.9541e-47
1.60917e-45
3.35842e-44
6.35236e-43
1.0929e-41
1.71468e-40
2.45717e-39
3.2176e-38
3.8472e-37
4.19095e-36
4.14277e-35
3.69526e-34
1.24263e-69
4.98324e-67
9.67977e-65
1.23537e-62
1.16528e-60
8.66148e-59
5.27869e-57
2.70903e-55
1.19348e-53
4.58026e-52
1.54908e-50
4.66056e-49
1.25675e-47
3.05543e-46
6.72793e-45
1.34643e-43
2.45503e-42
4.08436e-41
6.20211e-40
8.58834e-39
1.08184e-37
1.23428e-36
1.2677e-35
9.39622e-73
4.54689e-70
1.05611e-67
1.60818e-65
1.80809e-63
1.60138e-61
1.16291e-59
7.10869e-58
3.72688e-56
1.69965e-54
6.81875e-53
2.42874e-51
7.73845e-50
2.21907e-48
5.75472e-47
1.35451e-45
2.90092e-44
5.6613e-43
1.00702e-41
1.63089e-40
2.3984e-39
3.18806e-38
3.80536e-37
3.96943e-76
2.43548e-73
6.95508e-71
1.29081e-68
1.76265e-66
1.89348e-64
1.66813e-62
1.23893e-60
7.90924e-59
4.39592e-57
2.14571e-55
9.26477e-54
3.5636e-52
1.22877e-50
3.81827e-49
1.07366e-47
2.73997e-46
6.35784e-45
1.34203e-43
2.57414e-42
4.47414e-41
7.01263e-40
9.84224e-39
8.27574e-80
6.9456e-77
2.49132e-74
5.65977e-72
9.36123e-70
1.21415e-67
1.29693e-65
1.18132e-63
9.37807e-62
6.57028e-60
4.08251e-58
2.24923e-56
1.0975e-54
4.7487e-53
1.82948e-51
6.31416e-50
1.964e-48
5.52746e-47
1.41e-45
3.25852e-44
6.80572e-43
1.27825e-41
2.14269e-40
9.2398e-84
1.20939e-80
5.62004e-78
1.58846e-75
3.24252e-73
5.17947e-71
6.77161e-69
7.49197e-67
7.176e-65
6.06069e-63
4.58035e-61
3.12539e-59
1.93096e-57
1.07857e-55
5.41757e-54
2.42993e-52
9.69205e-51
3.44175e-49
1.09398e-47
3.12682e-46
8.0382e-45
1.85065e-43
3.78702e-42
2.35481e-87
4.59767e-84
2.55742e-81
8.24146e-79
1.88527e-76
3.34896e-74
4.84158e-72
5.87783e-70
6.14845e-68
5.66225e-66
4.68223e-64
3.53685e-62
2.46707e-60
1.59745e-58
9.61803e-57
5.37698e-55
2.77358e-53
1.30325e-51
5.48836e-50
2.04957e-48
6.77662e-47
1.98302e-45
5.12061e-44
5.65413e-90
9.77607e-87
5.13288e-84
1.57377e-81
3.40914e-79
5.71133e-77
7.82519e-75
9.08182e-73
9.17106e-71
8.23232e-69
6.6851e-67
4.99402e-65
3.48841e-63
2.30582e-61
1.45354e-59
8.78182e-58
5.09573e-56
2.83681e-54
1.50587e-52
7.5026e-51
3.41622e-49
1.38066e-47
4.80588e-46
4.00844e-92
4.83566e-89
2.19731e-86
6.07925e-84
1.20457e-81
1.85888e-79
2.3591e-77
2.55265e-75
2.41563e-73
2.03853e-71
1.55857e-69
1.09429e-67
7.15319e-66
4.41617e-64
2.61005e-62
1.49793e-60
8.46081e-59
4.75763e-57
2.68434e-55
1.52202e-53
8.58812e-52
4.69908e-50
2.38116e-48
8.53494e-95
9.96312e-92
4.57844e-89
1.29121e-86
2.60804e-84
4.08884e-82
5.22603e-80
5.63941e-78
5.27282e-76
4.35887e-74
3.23895e-72
2.19407e-70
1.372e-68
8.02348e-67
4.45265e-65
2.37721e-63
1.23796e-61
6.38353e-60
3.31427e-58
1.76446e-56
9.81382e-55
5.78937e-53
3.6129e-51
)
;

boundaryField
{
    leftWall
    {
        type            zeroGradient;
    }
    rightWall
    {
        type            zeroGradient;
    }
    lowerWall
    {
        type            zeroGradient;
    }
    atmosphere
    {
        type            inletOutlet;
        inletValue      uniform 0;
        value           uniform 0;
    }
    defaultFaces
    {
        type            empty;
    }
    procBoundary2to0
    {
        type            processor;
        value           nonuniform List<scalar> 
24
(
3.98191e-19
1.11721e-18
2.99258e-18
7.96294e-18
2.08586e-17
5.34233e-17
1.32697e-16
2.83919e-39
1.69857e-36
3.20592e-34
2.37775e-32
9.3683e-31
2.41062e-29
4.5407e-28
6.9442e-27
9.37382e-26
1.12489e-24
1.1684e-23
9.23067e-23
5.30042e-22
2.35236e-21
8.31501e-21
2.40221e-20
2.40221e-20
)
;
    }
    procBoundary2to3
    {
        type            processor;
        value           nonuniform List<scalar> 
25
(
1.80395e-17
2.37335e-18
3.25417e-19
5.11454e-20
6.81306e-21
8.47386e-22
9.71801e-23
1.02236e-23
9.56573e-25
8.01766e-26
6.01488e-27
4.0599e-28
2.4706e-29
1.3548e-30
6.68371e-32
2.95523e-33
1.1639e-34
4.04727e-36
1.22635e-37
3.1751e-39
6.81186e-41
1.15392e-42
1.41764e-44
1.04378e-46
2.26656e-49
)
;
    }
}


// ************************************************************************* //
