/*--------------------------------*- C++ -*----------------------------------*\
| =========                 |                                                 |
| \\      /  F ield         | OpenFOAM: The Open Source CFD Toolbox           |
|  \\    /   O peration     | Version:  2.4.0                                 |
|   \\  /    A nd           | Web:      www.OpenFOAM.org                      |
|    \\/     M anipulation  |                                                 |
\*---------------------------------------------------------------------------*/
FoamFile
{
    version     2.0;
    format      ascii;
    class       volScalarField;
    location    "0.35";
    object      p;
}
// * * * * * * * * * * * * * * * * * * * * * * * * * * * * * * * * * * * * * //

dimensions      [1 -1 -2 0 0 0 0];

internalField   nonuniform List<scalar> 
559
(
2.86312
2.83315
2.80388
2.77518
2.74732
2.72297
2.70424
2.9469
2.94558
2.94297
2.93912
2.9341
2.92806
2.92104
2.91288
2.90374
2.89347
2.88029
2.86471
2.84649
2.82556
2.80177
2.77628
2.7504
2.72302
2.69679
2.67229
2.64808
2.62594
2.60737
2.81215
2.81092
2.80847
2.80483
2.80004
2.79419
2.7872
2.77907
2.76981
2.75902
2.74633
2.73169
2.71488
2.69604
2.67504
2.65293
2.62994
2.60605
2.58253
2.55997
2.53808
2.51843
2.50146
2.67851
2.67736
2.67506
2.6716
2.66706
2.6614
2.65465
2.64681
2.63776
2.62718
2.61511
2.60119
2.58535
2.56768
2.54855
2.52874
2.50813
2.48725
2.46642
2.44585
2.42589
2.40746
2.3908
2.54589
2.54478
2.5426
2.53936
2.53505
2.52966
2.52319
2.51562
2.50682
2.49668
2.48507
2.47197
2.45746
2.44154
2.42437
2.40601
2.38713
2.36796
2.34878
2.32973
2.31149
2.29395
2.27811
2.41434
2.41332
2.41127
2.40819
2.40407
2.39891
2.39269
2.38537
2.37685
2.36708
2.35609
2.34392
2.33048
2.31568
2.30004
2.28347
2.26617
2.24851
2.23057
2.21276
2.19541
2.17829
2.16262
2.28383
2.28284
2.28088
2.27794
2.27401
2.26907
2.26313
2.25614
2.24808
2.23894
2.22871
2.21733
2.20478
2.19114
2.17662
2.16122
2.14523
2.12882
2.11194
2.09542
2.07884
2.06225
2.04634
2.15411
2.15318
2.15133
2.14855
2.14484
2.14019
2.13458
2.128
2.1204
2.11176
2.10206
2.09136
2.07969
2.06718
2.05367
2.0395
2.02464
2.00907
1.99328
1.97739
1.96121
1.94502
1.92912
2.02533
2.02446
2.02271
2.02009
2.01659
2.0122
2.0069
2.00068
1.99351
1.98539
1.97635
1.9664
1.95553
1.9438
1.93132
1.91809
1.90405
1.88947
1.87457
1.85914
1.84353
1.8276
1.81151
1.89745
1.89662
1.89498
1.8925
1.8892
1.88505
1.88006
1.87421
1.86753
1.86001
1.85161
1.84228
1.83211
1.82114
1.80942
1.79695
1.78385
1.77013
1.75588
1.74113
1.72584
1.71015
1.69398
1.77029
1.76952
1.76799
1.76567
1.76259
1.75872
1.75406
1.74862
1.74238
1.73534
1.72746
1.71878
1.70937
1.6992
1.68825
1.67657
1.66422
1.65118
1.63755
1.62336
1.60854
1.59305
1.57685
1.64383
1.64312
1.64169
1.63954
1.63667
1.63308
1.62875
1.62368
1.61788
1.61133
1.60403
1.59602
1.58725
1.57773
1.56749
1.55656
1.54496
1.53272
1.51978
1.50613
1.49174
1.47655
1.46044
1.51812
1.51747
1.51615
1.51417
1.51151
1.50819
1.50419
1.49951
1.49413
1.48806
1.48131
1.47389
1.46578
1.45697
1.44748
1.43729
1.42642
1.41485
1.40258
1.38954
1.37566
1.36085
1.345
1.39296
1.39235
1.39114
1.38932
1.38688
1.38383
1.38016
1.37587
1.37096
1.36542
1.35925
1.35243
1.34496
1.33684
1.32806
1.31862
1.30849
1.29765
1.28607
1.27368
1.2604
1.24612
1.2307
1.26845
1.26789
1.26679
1.26513
1.26291
1.26014
1.2568
1.25289
1.24842
1.24337
1.23774
1.23153
1.22471
1.21727
1.20922
1.20052
1.19116
1.18109
1.17027
1.15863
1.14606
1.13246
1.11767
1.14448
1.14399
1.143
1.1415
1.1395
1.137
1.134
1.13048
1.12645
1.12189
1.11681
1.11119
1.10502
1.09828
1.09096
1.08303
1.07446
1.06521
1.05522
1.04441
1.03268
1.01992
1.00596
1.02099
1.02055
1.01967
1.01834
1.01656
1.01433
1.01166
1.00852
1.00493
1.00088
0.996358
0.991347
0.985834
0.979805
0.97324
0.966106
0.958372
0.94999
0.940899
0.931024
0.920264
0.9085
0.895582
0.897947
0.897558
0.896789
0.895622
0.894066
0.892113
0.889761
0.887013
0.883867
0.880319
0.876356
0.87196
0.867114
0.86181
0.856022
0.849721
0.842863
0.835408
0.827295
0.818448
0.808775
0.798161
0.786466
0.775286
0.774951
0.774293
0.773288
0.77195
0.770271
0.768258
0.765909
0.763218
0.760181
0.756781
0.752988
0.748811
0.744249
0.739267
0.733822
0.727884
0.721414
0.714351
0.706624
0.698148
0.688819
0.678518
0.652967
0.652678
0.65213
0.651284
0.650168
0.648778
0.647115
0.645164
0.64292
0.640364
0.637502
0.63435
0.630908
0.62712
0.622955
0.618376
0.61338
0.60795
0.602002
0.59547
0.588292
0.58037
0.571596
0.530889
0.53064
0.530202
0.529513
0.528613
0.527491
0.526147
0.524584
0.522797
0.520772
0.518515
0.516019
0.513246
0.510182
0.506835
0.503216
0.499299
0.494972
0.49017
0.484894
0.4791
0.472679
0.465554
0.409006
0.408784
0.408453
0.407924
0.407243
0.406399
0.405389
0.404209
0.402858
0.401346
0.399663
0.397805
0.395762
0.393536
0.391098
0.388432
0.38546
0.382188
0.378654
0.374791
0.370459
0.365605
0.360206
0.28743
0.287211
0.28698
0.28662
0.28617
0.285613
0.284945
0.284164
0.28327
0.282266
0.281149
0.279916
0.278564
0.277087
0.275505
0.273783
0.271901
0.269832
0.267532
0.264931
0.262062
0.258947
0.255405
0.1663
0.166154
0.166014
0.165804
0.165552
0.165243
0.164878
0.164459
0.163987
0.163465
0.162893
0.162272
0.161601
0.160879
0.160102
0.159273
0.158389
0.157435
0.15639
0.155239
0.153958
0.152468
0.150744
0.0451927
0.045171
0.0451336
0.0450617
0.0449802
0.0448914
0.0448049
0.0447273
0.0446641
0.0446194
0.0445962
0.0445974
0.0446277
0.0446919
0.0447848
0.0449083
0.0450647
0.0452541
0.045475
0.0457232
0.0459812
0.0462377
0.0464694
)
;

boundaryField
{
    leftWall
    {
        type            fixedFluxPressure;
        gradient        uniform 0;
        value           nonuniform List<scalar> 
24
(
2.9469
2.81215
2.67851
2.54589
2.41434
2.28383
2.15411
2.02533
1.89745
1.77029
1.64383
1.51812
1.39296
1.26845
1.14448
1.02099
0.897947
0.775286
0.652967
0.530889
0.409006
0.28743
0.1663
0.0451927
)
;
    }
    rightWall
    {
        type            fixedFluxPressure;
        gradient        nonuniform 0();
        value           nonuniform 0();
    }
    lowerWall
    {
        type            fixedFluxPressure;
        gradient        nonuniform 0();
        value           nonuniform 0();
    }
    atmosphere
    {
        type            totalPressure;
        U               U.air;
        phi             phi.air;
        rho             rho;
        psi             none;
        gamma           1;
        p0              uniform 0;
        value           nonuniform List<scalar> 
23
(
-0.0160534
-0.0164804
-0.016443
-0.0163894
-0.0162972
-0.0161692
-0.016001
-0.015788
-0.0155271
-0.0152147
-0.0148472
-0.0144213
-0.013933
-0.0133783
-0.0127546
-0.0120605
-0.0112962
-0.0104631
-0.00956409
-0.00860354
-0.00758569
-0.00651264
-0.00540082
)
;
    }
    defaultFaces
    {
        type            empty;
    }
    procBoundary2to0
    {
        type            processor;
        value           nonuniform List<scalar> 
24
(
2.98471
2.95342
2.92397
2.89664
2.87157
2.84903
2.83158
3.08295
3.08173
3.07882
3.07478
3.06954
3.06308
3.05578
3.04773
3.03906
3.0298
3.01666
2.9998
2.97892
2.95445
2.92609
2.89452
2.89452
)
;
    }
    procBoundary2to3
    {
        type            processor;
        value           nonuniform List<scalar> 
25
(
2.69519
2.59645
2.49112
2.38042
2.26783
2.15205
2.03538
1.91769
1.79968
1.68178
1.56439
1.44785
1.33245
1.21837
1.10576
0.994669
0.885088
0.776946
0.670112
0.564433
0.459718
0.355774
0.252407
0.149302
0.0465405
)
;
    }
}


// ************************************************************************* //
