/*--------------------------------*- C++ -*----------------------------------*\
| =========                 |                                                 |
| \\      /  F ield         | OpenFOAM: The Open Source CFD Toolbox           |
|  \\    /   O peration     | Version:  2.4.0                                 |
|   \\  /    A nd           | Web:      www.OpenFOAM.org                      |
|    \\/     M anipulation  |                                                 |
\*---------------------------------------------------------------------------*/
FoamFile
{
    version     2.0;
    format      ascii;
    class       surfaceScalarField;
    location    "0.35";
    object      phi;
}
// * * * * * * * * * * * * * * * * * * * * * * * * * * * * * * * * * * * * * //

dimensions      [0 3 -1 0 0 0 0];

internalField   nonuniform List<scalar> 
1070
(
-4.74208e-05
-4.92829e-05
-4.70108e-05
-4.54218e-05
-4.53682e-05
-4.173e-05
-4.3386e-05
-3.59522e-05
-4.22747e-05
-3.14783e-05
-4.14478e-05
-2.95235e-05
-2.5731e-05
-6.87961e-07
-4.66698e-05
-1.58834e-06
-4.9602e-05
-2.52471e-06
-4.97554e-05
-3.52259e-06
-5.01839e-05
-4.61258e-06
-5.04973e-05
-5.60344e-06
-5.07487e-05
-6.56092e-06
-5.09199e-05
-7.52372e-06
-5.11135e-05
-8.70321e-06
-5.11637e-05
-1.05238e-05
-5.10767e-05
-1.29348e-05
-5.11714e-05
-1.57283e-05
-5.15247e-05
-1.95042e-05
-5.20508e-05
-2.46469e-05
-5.18904e-05
-2.9558e-05
-5.13309e-05
-3.34295e-05
-4.9847e-05
-3.55432e-05
-4.71692e-05
-3.74031e-05
-4.3562e-05
-3.88425e-05
-4.02906e-05
-3.88889e-05
-3.59058e-05
-3.9323e-05
-3.10442e-05
-4.11803e-05
-2.76662e-05
-2.47788e-05
-8.09102e-07
-4.58607e-05
-1.60224e-06
-4.88088e-05
-2.42119e-06
-4.89365e-05
-3.45089e-06
-4.91542e-05
-4.65633e-06
-4.92918e-05
-5.92737e-06
-4.94776e-05
-7.21304e-06
-4.96343e-05
-8.5894e-06
-4.97371e-05
-9.98453e-06
-4.97686e-05
-1.13233e-05
-4.97379e-05
-1.26989e-05
-4.97958e-05
-1.45124e-05
-4.97111e-05
-1.72906e-05
-4.92726e-05
-2.04498e-05
-4.87312e-05
-2.39333e-05
-4.78474e-05
-2.80072e-05
-4.5773e-05
-3.13948e-05
-4.37817e-05
-3.36296e-05
-4.13271e-05
-3.50524e-05
-3.88678e-05
-3.53302e-05
-3.5628e-05
-3.54769e-05
-3.08976e-05
-3.62867e-05
-2.68564e-05
-2.45536e-05
-7.11826e-07
-4.51488e-05
-1.63914e-06
-4.78815e-05
-2.72184e-06
-4.78538e-05
-3.92081e-06
-4.79552e-05
-5.16633e-06
-4.80463e-05
-6.52671e-06
-4.81172e-05
-7.95101e-06
-4.821e-05
-9.45602e-06
-4.82321e-05
-1.10256e-05
-4.8199e-05
-1.24707e-05
-4.82928e-05
-1.41219e-05
-4.81446e-05
-1.61617e-05
-4.76713e-05
-1.82111e-05
-4.72231e-05
-2.03173e-05
-4.6625e-05
-2.28532e-05
-4.53114e-05
-2.53285e-05
-4.32978e-05
-2.79111e-05
-4.11991e-05
-2.98961e-05
-3.93421e-05
-3.1458e-05
-3.73058e-05
-3.28536e-05
-3.42324e-05
-3.41625e-05
-2.95886e-05
-3.48926e-05
-2.61264e-05
-2.48277e-05
-9.10782e-07
-4.42381e-05
-1.92829e-06
-4.6864e-05
-2.96176e-06
-4.68203e-05
-4.02992e-06
-4.68871e-05
-5.16896e-06
-4.69072e-05
-6.41436e-06
-4.68718e-05
-7.82272e-06
-4.68016e-05
-9.36342e-06
-4.66914e-05
-1.09244e-05
-4.66381e-05
-1.27241e-05
-4.64931e-05
-1.47065e-05
-4.61622e-05
-1.65835e-05
-4.57943e-05
-1.87624e-05
-4.50443e-05
-2.11289e-05
-4.42585e-05
-2.32241e-05
-4.32162e-05
-2.48462e-05
-4.16757e-05
-2.62608e-05
-3.97844e-05
-2.78418e-05
-3.77611e-05
-2.9537e-05
-3.56107e-05
-3.07047e-05
-3.30647e-05
-3.10846e-05
-2.92088e-05
-3.09818e-05
-2.62291e-05
-2.51574e-05
-7.77285e-07
-4.34608e-05
-1.67727e-06
-4.5964e-05
-2.64431e-06
-4.58532e-05
-3.69198e-06
-4.58394e-05
-4.81493e-06
-4.57843e-05
-5.98086e-06
-4.57059e-05
-7.20385e-06
-4.55786e-05
-8.49068e-06
-4.54046e-05
-9.96675e-06
-4.5162e-05
-1.15988e-05
-4.48611e-05
-1.30951e-05
-4.46659e-05
-1.46901e-05
-4.41993e-05
-1.64341e-05
-4.33003e-05
-1.84225e-05
-4.22702e-05
-2.04847e-05
-4.1154e-05
-2.22784e-05
-3.9882e-05
-2.38938e-05
-3.81691e-05
-2.55273e-05
-3.61276e-05
-2.68209e-05
-3.43171e-05
-2.79693e-05
-3.19163e-05
-2.83153e-05
-2.88628e-05
-2.80621e-05
-2.64823e-05
-2.53153e-05
-9.6164e-07
-4.24991e-05
-1.99552e-06
-4.49302e-05
-3.0241e-06
-4.48247e-05
-4.07973e-06
-4.47838e-05
-5.1742e-06
-4.46898e-05
-6.31798e-06
-4.45621e-05
-7.49623e-06
-4.44004e-05
-8.69186e-06
-4.42089e-05
-9.8788e-06
-4.39751e-05
-1.11468e-05
-4.35931e-05
-1.28057e-05
-4.3007e-05
-1.46779e-05
-4.23271e-05
-1.62204e-05
-4.17578e-05
-1.76945e-05
-4.0796e-05
-1.93493e-05
-3.94993e-05
-2.09848e-05
-3.82464e-05
-2.2372e-05
-3.67819e-05
-2.34126e-05
-3.5087e-05
-2.43291e-05
-3.34005e-05
-2.52046e-05
-3.10409e-05
-2.56446e-05
-2.84228e-05
-2.54471e-05
-2.66797e-05
-2.52927e-05
-8.64737e-07
-4.16344e-05
-1.81498e-06
-4.39799e-05
-2.77703e-06
-4.38626e-05
-3.75727e-06
-4.38035e-05
-4.7478e-06
-4.36993e-05
-5.75449e-06
-4.35554e-05
-6.79591e-06
-4.3359e-05
-7.91187e-06
-4.3093e-05
-9.17291e-06
-4.2714e-05
-1.0584e-05
-4.2182e-05
-1.20869e-05
-4.1504e-05
-1.35185e-05
-4.08955e-05
-1.50831e-05
-4.01932e-05
-1.66293e-05
-3.92498e-05
-1.78287e-05
-3.82999e-05
-1.89268e-05
-3.71482e-05
-2.00757e-05
-3.5633e-05
-2.13008e-05
-3.3862e-05
-2.27343e-05
-3.19669e-05
-2.34834e-05
-3.02918e-05
-2.34965e-05
-2.84098e-05
-2.34686e-05
-2.67076e-05
-2.50756e-05
-8.43665e-07
-4.07907e-05
-1.7716e-06
-4.3052e-05
-2.72473e-06
-4.29095e-05
-3.72726e-06
-4.2801e-05
-4.78932e-06
-4.26372e-05
-5.91632e-06
-4.24284e-05
-7.09691e-06
-4.21784e-05
-8.30612e-06
-4.18838e-05
-9.4955e-06
-4.15246e-05
-1.05907e-05
-4.10869e-05
-1.15722e-05
-4.05225e-05
-1.26211e-05
-3.98466e-05
-1.38215e-05
-3.89928e-05
-1.50582e-05
-3.80132e-05
-1.65311e-05
-3.6827e-05
-1.81325e-05
-3.55468e-05
-1.93683e-05
-3.43972e-05
-2.02019e-05
-3.30284e-05
-2.07225e-05
-3.14464e-05
-2.1089e-05
-2.99252e-05
-2.1467e-05
-2.80318e-05
-2.18517e-05
-2.63229e-05
-2.49661e-05
-8.20481e-07
-3.99702e-05
-1.70057e-06
-4.21719e-05
-2.57814e-06
-4.20319e-05
-3.46388e-06
-4.19153e-05
-4.35857e-06
-4.17425e-05
-5.27189e-06
-4.15151e-05
-6.22455e-06
-4.12257e-05
-7.24369e-06
-4.08646e-05
-8.35033e-06
-4.0418e-05
-9.56882e-06
-3.98684e-05
-1.08726e-05
-3.92187e-05
-1.22329e-05
-3.84863e-05
-1.351e-05
-3.77157e-05
-1.46965e-05
-3.68267e-05
-1.5662e-05
-3.58615e-05
-1.63649e-05
-3.48439e-05
-1.71335e-05
-3.36286e-05
-1.79826e-05
-3.21792e-05
-1.88133e-05
-3.06157e-05
-1.97051e-05
-2.90335e-05
-2.00792e-05
-2.76577e-05
-2.01945e-05
-2.62076e-05
-2.47346e-05
-8.02488e-07
-3.91678e-05
-1.67147e-06
-4.13029e-05
-2.54566e-06
-4.11577e-05
-3.43937e-06
-4.10216e-05
-4.35191e-06
-4.083e-05
-5.28169e-06
-4.05853e-05
-6.22682e-06
-4.02806e-05
-7.18629e-06
-3.99051e-05
-8.15413e-06
-3.94502e-05
-9.10816e-06
-3.89144e-05
-1.00426e-05
-3.82842e-05
-1.09595e-05
-3.75695e-05
-1.19045e-05
-3.67707e-05
-1.28665e-05
-3.58647e-05
-1.38837e-05
-3.48443e-05
-1.50241e-05
-3.37034e-05
-1.61441e-05
-3.25087e-05
-1.70414e-05
-3.12819e-05
-1.76317e-05
-3.00254e-05
-1.80041e-05
-2.86611e-05
-1.84232e-05
-2.72386e-05
-1.87859e-05
-2.58448e-05
-2.45219e-05
-7.30785e-07
-3.8437e-05
-1.51735e-06
-4.05163e-05
-2.30454e-06
-4.03705e-05
-3.10873e-06
-4.02174e-05
-3.93701e-06
-4.00017e-05
-4.79685e-06
-3.97255e-05
-5.69177e-06
-3.93857e-05
-6.61712e-06
-3.89798e-05
-7.561e-06
-3.85063e-05
-8.51534e-06
-3.796e-05
-9.47553e-06
-3.7324e-05
-1.04604e-05
-3.65847e-05
-1.14493e-05
-3.57818e-05
-1.23986e-05
-3.49154e-05
-1.32733e-05
-3.39696e-05
-1.40329e-05
-3.29438e-05
-1.47037e-05
-3.1838e-05
-1.53611e-05
-3.06245e-05
-1.60537e-05
-2.93328e-05
-1.66766e-05
-2.80382e-05
-1.71243e-05
-2.6791e-05
-1.7442e-05
-2.55272e-05
-2.42582e-05
-6.98413e-07
-3.77386e-05
-1.45064e-06
-3.97641e-05
-2.20054e-06
-3.96206e-05
-2.96274e-06
-3.94552e-05
-3.73594e-06
-3.92285e-05
-4.52073e-06
-3.89407e-05
-5.31849e-06
-3.85879e-05
-6.13236e-06
-3.81659e-05
-6.96808e-06
-3.76706e-05
-7.82769e-06
-3.71004e-05
-8.68727e-06
-3.64644e-05
-9.5135e-06
-3.57584e-05
-1.0326e-05
-3.49693e-05
-1.11447e-05
-3.40967e-05
-1.1964e-05
-3.31503e-05
-1.27746e-05
-3.21332e-05
-1.35614e-05
-3.10512e-05
-1.42647e-05
-2.99211e-05
-1.48516e-05
-2.8746e-05
-1.5351e-05
-2.75388e-05
-1.58107e-05
-2.63312e-05
-1.62025e-05
-2.51354e-05
-2.39472e-05
-6.4152e-07
-3.7097e-05
-1.32898e-06
-3.90767e-05
-2.01521e-06
-3.89344e-05
-2.7139e-06
-3.87565e-05
-3.42762e-06
-3.85148e-05
-4.15813e-06
-3.82102e-05
-4.90451e-06
-3.78415e-05
-5.66288e-06
-3.74076e-05
-6.42749e-06
-3.6906e-05
-7.19473e-06
-3.63332e-05
-7.97195e-06
-3.56872e-05
-8.76103e-06
-3.49693e-05
-9.54436e-06
-3.41859e-05
-1.03038e-05
-3.33372e-05
-1.1035e-05
-3.24192e-05
-1.17323e-05
-3.14358e-05
-1.2389e-05
-3.03945e-05
-1.30116e-05
-2.92985e-05
-1.35969e-05
-2.81607e-05
-1.41316e-05
-2.70042e-05
-1.46077e-05
-2.58551e-05
-1.50271e-05
-2.4716e-05
-2.35804e-05
-5.80837e-07
-3.65162e-05
-1.20779e-06
-3.84497e-05
-1.83161e-06
-3.83106e-05
-2.46728e-06
-3.81208e-05
-3.11557e-06
-3.78665e-05
-3.77799e-06
-3.75478e-05
-4.45526e-06
-3.71642e-05
-5.14691e-06
-3.67159e-05
-5.8503e-06
-3.62026e-05
-6.55935e-06
-3.56241e-05
-7.26601e-06
-3.49805e-05
-7.9645e-06
-3.42709e-05
-8.65691e-06
-3.34935e-05
-9.34393e-06
-3.26502e-05
-1.00178e-05
-3.17453e-05
-1.06711e-05
-3.07825e-05
-1.12988e-05
-2.97668e-05
-1.18909e-05
-2.87065e-05
-1.24418e-05
-2.76097e-05
-1.29563e-05
-2.64897e-05
-1.34427e-05
-2.53688e-05
-1.38987e-05
-2.426e-05
-2.3158e-05
-5.23793e-07
-3.59924e-05
-1.0856e-06
-3.78879e-05
-1.64578e-06
-3.77504e-05
-2.21756e-06
-3.7549e-05
-2.80115e-06
-3.72829e-05
-3.39756e-06
-3.69514e-05
-4.00706e-06
-3.65547e-05
-4.62812e-06
-3.60949e-05
-5.2583e-06
-3.55724e-05
-5.89504e-06
-3.49874e-05
-6.53594e-06
-3.43396e-05
-7.17755e-06
-3.36292e-05
-7.81393e-06
-3.28571e-05
-8.43955e-06
-3.20246e-05
-9.05158e-06
-3.11333e-05
-9.64711e-06
-3.0187e-05
-1.02228e-05
-2.91912e-05
-1.0777e-05
-2.81522e-05
-1.13086e-05
-2.70782e-05
-1.18183e-05
-2.598e-05
-1.23117e-05
-2.48753e-05
-1.27934e-05
-2.37784e-05
-2.26873e-05
-4.53931e-07
-3.55385e-05
-9.48428e-07
-3.73934e-05
-1.44151e-06
-3.72573e-05
-1.9465e-06
-3.7044e-05
-2.46363e-06
-3.67658e-05
-2.99433e-06
-3.64207e-05
-3.53992e-06
-3.60092e-05
-4.0991e-06
-3.55357e-05
-4.66869e-06
-3.50028e-05
-5.24436e-06
-3.44117e-05
-5.82178e-06
-3.37622e-05
-6.39778e-06
-3.30533e-05
-6.97035e-06
-3.22846e-05
-7.53715e-06
-3.14578e-05
-8.09518e-06
-3.05752e-05
-8.64188e-06
-2.96403e-05
-9.1755e-06
-2.86576e-05
-9.69508e-06
-2.76326e-05
-1.02014e-05
-2.65718e-05
-1.06981e-05
-2.54833e-05
-1.11927e-05
-2.43807e-05
-1.16927e-05
-2.32784e-05
-2.21784e-05
-3.81298e-07
-3.51572e-05
-8.08061e-07
-3.69666e-05
-1.23412e-06
-3.68313e-05
-1.67102e-06
-3.66071e-05
-2.1184e-06
-3.63184e-05
-2.57777e-06
-3.59613e-05
-3.05283e-06
-3.55341e-05
-3.54398e-06
-3.50445e-05
-4.04921e-06
-3.44976e-05
-4.56457e-06
-3.38963e-05
-5.08534e-06
-3.32414e-05
-5.60742e-06
-3.25312e-05
-6.12726e-06
-3.17647e-05
-6.64139e-06
-3.09437e-05
-7.14848e-06
-3.00682e-05
-7.64785e-06
-2.91409e-05
-8.139e-06
-2.81664e-05
-8.62293e-06
-2.71487e-05
-9.10243e-06
-2.60924e-05
-9.58218e-06
-2.50036e-05
-1.00707e-05
-2.38922e-05
-1.05781e-05
-2.27711e-05
-2.1645e-05
-3.00952e-07
-3.48562e-05
-6.662e-07
-3.66014e-05
-1.03023e-06
-3.64672e-05
-1.401e-06
-3.62364e-05
-1.77726e-06
-3.59421e-05
-2.15771e-06
-3.55809e-05
-2.54442e-06
-3.51474e-05
-2.94363e-06
-3.46453e-05
-3.36582e-06
-3.40754e-05
-3.81603e-06
-3.34461e-05
-4.28921e-06
-3.27683e-05
-4.77124e-06
-3.20491e-05
-5.25197e-06
-3.1284e-05
-5.72736e-06
-3.04683e-05
-6.19491e-06
-2.96006e-05
-6.65478e-06
-2.86811e-05
-7.10719e-06
-2.7714e-05
-7.55456e-06
-2.67014e-05
-8.00289e-06
-2.5644e-05
-8.45875e-06
-2.45477e-05
-8.93218e-06
-2.34187e-05
-9.43545e-06
-2.22678e-05
-2.11015e-05
-2.21235e-07
-3.4635e-05
-5.48275e-07
-3.62743e-05
-8.71715e-07
-3.61438e-05
-1.1929e-06
-3.59152e-05
-1.50938e-06
-3.56257e-05
-1.81547e-06
-3.52748e-05
-2.1065e-06
-3.48564e-05
-2.38953e-06
-3.43623e-05
-2.6767e-06
-3.37882e-05
-2.98759e-06
-3.31352e-05
-3.34283e-06
-3.2413e-05
-3.75382e-06
-3.16381e-05
-4.21176e-06
-3.08261e-05
-4.69387e-06
-2.99862e-05
-5.17115e-06
-2.91233e-05
-5.62469e-06
-2.82275e-05
-6.05526e-06
-2.72835e-05
-6.47366e-06
-2.6283e-05
-6.89128e-06
-2.52264e-05
-7.31745e-06
-2.41216e-05
-7.76559e-06
-2.29706e-05
-8.25185e-06
-2.17816e-05
-2.05642e-05
-1.62489e-07
-3.44725e-05
-5.02216e-07
-3.59346e-05
-8.35344e-07
-3.58107e-05
-1.15198e-06
-3.55985e-05
-1.45752e-06
-3.53201e-05
-1.75598e-06
-3.49763e-05
-2.0383e-06
-3.4574e-05
-2.303e-06
-3.40976e-05
-2.54382e-06
-3.35474e-05
-2.76009e-06
-3.2919e-05
-2.96173e-06
-3.22114e-05
-3.16615e-06
-3.14337e-05
-3.39204e-06
-3.06002e-05
-3.66524e-06
-2.9713e-05
-4.00979e-06
-2.87788e-05
-4.42487e-06
-2.78125e-05
-4.87845e-06
-2.68299e-05
-5.32445e-06
-2.5837e-05
-5.74061e-06
-2.48103e-05
-6.14262e-06
-2.37196e-05
-6.56053e-06
-2.25527e-05
-7.01693e-06
-2.13252e-05
-2.00467e-05
-1.60795e-07
-3.43117e-05
-5.89092e-07
-3.55063e-05
-1.0042e-06
-3.53956e-05
-1.38237e-06
-3.52204e-05
-1.73053e-06
-3.4972e-05
-2.05897e-06
-3.46479e-05
-2.36684e-06
-3.42662e-05
-2.64371e-06
-3.38207e-05
-2.88161e-06
-3.33095e-05
-3.06954e-06
-3.27311e-05
-3.20423e-06
-3.20767e-05
-3.3011e-06
-3.13369e-05
-3.37936e-06
-3.05219e-05
-3.45144e-06
-2.96409e-05
-3.52867e-06
-2.87016e-05
-3.63207e-06
-2.77091e-05
-3.79948e-06
-2.66625e-05
-4.07005e-06
-2.55664e-05
-4.44022e-06
-2.44401e-05
-4.85877e-06
-2.3301e-05
-5.28879e-06
-2.21227e-05
-5.72199e-06
-2.0892e-05
-1.9564e-05
-2.53224e-07
-3.40585e-05
-8.21124e-07
-3.49384e-05
-1.36808e-06
-3.48486e-05
-1.87688e-06
-3.47116e-05
-2.34443e-06
-3.45044e-05
-2.7607e-06
-3.42316e-05
-3.13011e-06
-3.38968e-05
-3.446e-06
-3.35048e-05
-3.70284e-06
-3.30527e-05
-3.89676e-06
-3.25371e-05
-4.01778e-06
-3.19557e-05
-4.05836e-06
-3.12963e-05
-4.03289e-06
-3.05474e-05
-3.96078e-06
-2.9713e-05
-3.85844e-06
-2.88039e-05
-3.74282e-06
-2.78247e-05
-3.62933e-06
-2.6776e-05
-3.53864e-06
-2.56571e-05
-3.50908e-06
-2.44697e-05
-3.59605e-06
-2.3214e-05
-3.84004e-06
-2.18787e-05
-4.26378e-06
-2.04683e-05
-1.90323e-05
-4.10702e-07
-3.36478e-05
-1.06241e-06
-3.42867e-05
-1.6962e-06
-3.42148e-05
-2.29964e-06
-3.41081e-05
-2.86254e-06
-3.39415e-05
-3.36877e-06
-3.37254e-05
-3.81601e-06
-3.34495e-05
-4.20437e-06
-3.31165e-05
-4.53155e-06
-3.27255e-05
-4.79399e-06
-3.22747e-05
-4.98787e-06
-3.17618e-05
-5.10062e-06
-3.11835e-05
-5.11976e-06
-3.05282e-05
-5.04412e-06
-2.97886e-05
-4.87031e-06
-2.89777e-05
-4.60998e-06
-2.8085e-05
-4.2859e-06
-2.71001e-05
-3.92749e-06
-2.60155e-05
-3.57306e-06
-2.48241e-05
-3.26946e-06
-2.35176e-05
-3.06258e-06
-2.20856e-05
-3.01207e-06
-2.05188e-05
-1.88324e-05
-4.35559e-07
-1.07861e-06
-1.70994e-06
-2.31963e-06
-2.89865e-06
-3.44197e-06
-3.93783e-06
-4.37923e-06
-4.76019e-06
-5.07517e-06
-5.31928e-06
-5.48816e-06
-5.57001e-06
-5.55045e-06
-5.43467e-06
-5.22677e-06
-4.92992e-06
-4.55099e-06
-4.10373e-06
-3.61103e-06
-3.1097e-06
-2.66534e-06
)
;

boundaryField
{
    leftWall
    {
        type            calculated;
        value           uniform 0;
    }
    rightWall
    {
        type            calculated;
        value           nonuniform 0();
    }
    lowerWall
    {
        type            calculated;
        value           nonuniform 0();
    }
    atmosphere
    {
        type            calculated;
        value           nonuniform List<scalar> 
23
(
-3.32122e-05
-3.36437e-05
-3.35835e-05
-3.34984e-05
-3.33625e-05
-3.31821e-05
-3.29537e-05
-3.26751e-05
-3.23445e-05
-3.19597e-05
-3.15177e-05
-3.10146e-05
-3.04464e-05
-2.98082e-05
-2.90935e-05
-2.82929e-05
-2.73969e-05
-2.63944e-05
-2.52713e-05
-2.40103e-05
-2.25869e-05
-2.09631e-05
-1.91113e-05
)
;
    }
    defaultFaces
    {
        type            empty;
        value           nonuniform 0();
    }
    procBoundary2to0
    {
        type            processor;
        value           nonuniform List<scalar> 
24
(
5.01028e-05
4.50119e-05
4.00874e-05
3.397e-05
3.0367e-05
2.86965e-05
2.54632e-05
4.73577e-05
5.05024e-05
5.06918e-05
5.11818e-05
5.15872e-05
5.17395e-05
5.18774e-05
5.20763e-05
5.23432e-05
5.28972e-05
5.35825e-05
5.43181e-05
5.58267e-05
5.70331e-05
5.6242e-05
4.66008e-05
5.37185e-05
)
;
    }
    procBoundary2to3
    {
        type            processor;
        value           nonuniform List<scalar> 
25
(
-4.118e-05
-4.21325e-05
-3.65119e-05
-3.46184e-05
-3.06522e-05
-2.79042e-05
-2.54697e-05
-2.36857e-05
-2.19612e-05
-2.0426e-05
-1.89987e-05
-1.77057e-05
-1.65135e-05
-1.53939e-05
-1.43211e-05
-1.32641e-05
-1.22015e-05
-1.11115e-05
-9.97895e-06
-8.7892e-06
-7.53437e-06
-6.20474e-06
-4.79547e-06
-3.21193e-06
-2.38646e-06
)
;
    }
}


// ************************************************************************* //
