/*--------------------------------*- C++ -*----------------------------------*\
| =========                 |                                                 |
| \\      /  F ield         | OpenFOAM: The Open Source CFD Toolbox           |
|  \\    /   O peration     | Version:  2.4.0                                 |
|   \\  /    A nd           | Web:      www.OpenFOAM.org                      |
|    \\/     M anipulation  |                                                 |
\*---------------------------------------------------------------------------*/
FoamFile
{
    version     2.0;
    format      ascii;
    class       surfaceScalarField;
    location    "0.35";
    object      phi.water;
}
// * * * * * * * * * * * * * * * * * * * * * * * * * * * * * * * * * * * * * //

dimensions      [0 3 -1 0 0 0 0];

internalField   nonuniform List<scalar> 
1070
(
-4.74218e-05
-4.9283e-05
-4.7012e-05
-4.5422e-05
-4.53694e-05
-4.17302e-05
-4.33874e-05
-3.59524e-05
-4.2276e-05
-3.14785e-05
-4.1449e-05
-2.95237e-05
-2.5731e-05
-6.88066e-07
-4.66705e-05
-1.58857e-06
-4.96027e-05
-2.52508e-06
-4.97561e-05
-3.52308e-06
-5.01846e-05
-4.61318e-06
-5.04979e-05
-5.60414e-06
-5.07493e-05
-6.56169e-06
-5.09205e-05
-7.52455e-06
-5.11139e-05
-8.70408e-06
-5.11641e-05
-1.05247e-05
-5.1077e-05
-1.29357e-05
-5.11717e-05
-1.57292e-05
-5.15249e-05
-1.9505e-05
-5.2051e-05
-2.46477e-05
-5.18906e-05
-2.95589e-05
-5.13311e-05
-3.34304e-05
-4.98472e-05
-3.55442e-05
-4.71694e-05
-3.74042e-05
-4.35621e-05
-3.88437e-05
-4.02907e-05
-3.88902e-05
-3.59059e-05
-3.93243e-05
-3.10443e-05
-4.11815e-05
-2.76663e-05
-2.47788e-05
-8.09216e-07
-4.58614e-05
-1.60247e-06
-4.88096e-05
-2.42153e-06
-4.89372e-05
-3.45134e-06
-4.91549e-05
-4.65688e-06
-4.92925e-05
-5.92801e-06
-4.94782e-05
-7.21375e-06
-4.96348e-05
-8.59017e-06
-4.97376e-05
-9.98534e-06
-4.9769e-05
-1.13241e-05
-4.97383e-05
-1.26997e-05
-4.97961e-05
-1.45132e-05
-4.97114e-05
-1.72914e-05
-4.92729e-05
-2.04506e-05
-4.87314e-05
-2.39341e-05
-4.78476e-05
-2.80082e-05
-4.57733e-05
-3.13958e-05
-4.37818e-05
-3.36307e-05
-4.13272e-05
-3.50536e-05
-3.88679e-05
-3.53314e-05
-3.56281e-05
-3.5478e-05
-3.08976e-05
-3.62877e-05
-2.68564e-05
-2.45535e-05
-7.11926e-07
-4.51495e-05
-1.63935e-06
-4.78822e-05
-2.72215e-06
-4.78544e-05
-3.92122e-06
-4.79559e-05
-5.16684e-06
-4.80469e-05
-6.52729e-06
-4.81178e-05
-7.95166e-06
-4.82105e-05
-9.45673e-06
-4.82326e-05
-1.10263e-05
-4.81994e-05
-1.24714e-05
-4.82932e-05
-1.41227e-05
-4.81449e-05
-1.61625e-05
-4.76716e-05
-1.82119e-05
-4.72234e-05
-2.03181e-05
-4.66253e-05
-2.28541e-05
-4.53117e-05
-2.53294e-05
-4.3298e-05
-2.79121e-05
-4.11993e-05
-2.98972e-05
-3.93422e-05
-3.14592e-05
-3.73059e-05
-3.28547e-05
-3.42325e-05
-3.41636e-05
-2.95886e-05
-3.48935e-05
-2.61263e-05
-2.48276e-05
-9.10883e-07
-4.42387e-05
-1.92849e-06
-4.68647e-05
-2.96205e-06
-4.68209e-05
-4.0303e-06
-4.68877e-05
-5.16943e-06
-4.69078e-05
-6.4149e-06
-4.68724e-05
-7.82333e-06
-4.68021e-05
-9.36408e-06
-4.66918e-05
-1.09251e-05
-4.66385e-05
-1.27248e-05
-4.64935e-05
-1.47072e-05
-4.61625e-05
-1.65843e-05
-4.57946e-05
-1.87632e-05
-4.50445e-05
-2.11297e-05
-4.42588e-05
-2.32249e-05
-4.32165e-05
-2.48471e-05
-4.16759e-05
-2.62618e-05
-3.97846e-05
-2.78429e-05
-3.77612e-05
-2.95381e-05
-3.56108e-05
-3.07058e-05
-3.30648e-05
-3.10856e-05
-2.92087e-05
-3.09827e-05
-2.6229e-05
-2.51572e-05
-7.7737e-07
-4.34614e-05
-1.67745e-06
-4.59647e-05
-2.64458e-06
-4.58539e-05
-3.69233e-06
-4.584e-05
-4.81536e-06
-4.57849e-05
-5.98136e-06
-4.57064e-05
-7.20441e-06
-4.55791e-05
-8.4913e-06
-4.5405e-05
-9.96741e-06
-4.51624e-05
-1.15995e-05
-4.48614e-05
-1.30958e-05
-4.46662e-05
-1.46909e-05
-4.41996e-05
-1.64349e-05
-4.33005e-05
-1.84233e-05
-4.22704e-05
-2.04856e-05
-4.11542e-05
-2.22794e-05
-3.98821e-05
-2.38948e-05
-3.81693e-05
-2.55284e-05
-3.61277e-05
-2.6822e-05
-3.43172e-05
-2.79704e-05
-3.19164e-05
-2.83163e-05
-2.88628e-05
-2.8063e-05
-2.64822e-05
-2.53151e-05
-9.61727e-07
-4.24998e-05
-1.99569e-06
-4.49308e-05
-3.02435e-06
-4.48253e-05
-4.08006e-06
-4.47843e-05
-5.1746e-06
-4.46904e-05
-6.31844e-06
-4.45626e-05
-7.49675e-06
-4.44008e-05
-8.69243e-06
-4.42094e-05
-9.87941e-06
-4.39754e-05
-1.11474e-05
-4.35935e-05
-1.28064e-05
-4.30073e-05
-1.46786e-05
-4.23274e-05
-1.62211e-05
-4.1758e-05
-1.76953e-05
-4.07962e-05
-1.93501e-05
-3.94995e-05
-2.09857e-05
-3.82466e-05
-2.2373e-05
-3.67821e-05
-2.34136e-05
-3.50872e-05
-2.43302e-05
-3.34006e-05
-2.52056e-05
-3.10409e-05
-2.56455e-05
-2.84228e-05
-2.5448e-05
-2.66797e-05
-2.52926e-05
-8.6481e-07
-4.1635e-05
-1.81513e-06
-4.39805e-05
-2.77726e-06
-4.38632e-05
-3.75757e-06
-4.38041e-05
-4.74816e-06
-4.36998e-05
-5.75492e-06
-4.35559e-05
-6.79639e-06
-4.33594e-05
-7.9124e-06
-4.30934e-05
-9.17348e-06
-4.27144e-05
-1.05846e-05
-4.21824e-05
-1.20876e-05
-4.15043e-05
-1.35192e-05
-4.08958e-05
-1.50838e-05
-4.01934e-05
-1.663e-05
-3.925e-05
-1.78295e-05
-3.83001e-05
-1.89277e-05
-3.71484e-05
-2.00767e-05
-3.56331e-05
-2.13018e-05
-3.38621e-05
-2.27354e-05
-3.1967e-05
-2.34844e-05
-3.02918e-05
-2.34974e-05
-2.84098e-05
-2.34695e-05
-2.67076e-05
-2.50755e-05
-8.43739e-07
-4.07913e-05
-1.77174e-06
-4.30525e-05
-2.72494e-06
-4.291e-05
-3.72753e-06
-4.28015e-05
-4.78966e-06
-4.26377e-05
-5.91672e-06
-4.24289e-05
-7.09735e-06
-4.21788e-05
-8.30661e-06
-4.18842e-05
-9.49603e-06
-4.1525e-05
-1.05912e-05
-4.10872e-05
-1.15728e-05
-4.05228e-05
-1.26217e-05
-3.98469e-05
-1.38222e-05
-3.8993e-05
-1.50589e-05
-3.80134e-05
-1.65318e-05
-3.68271e-05
-1.81333e-05
-3.5547e-05
-1.93692e-05
-3.43973e-05
-2.02029e-05
-3.30285e-05
-2.07235e-05
-3.14465e-05
-2.109e-05
-2.99253e-05
-2.14679e-05
-2.80318e-05
-2.18525e-05
-2.63229e-05
-2.49661e-05
-8.20542e-07
-3.99708e-05
-1.7007e-06
-4.21724e-05
-2.57834e-06
-4.20324e-05
-3.46413e-06
-4.19158e-05
-4.35888e-06
-4.1743e-05
-5.27225e-06
-4.15156e-05
-6.22496e-06
-4.12261e-05
-7.24414e-06
-4.0865e-05
-8.35082e-06
-4.04183e-05
-9.56936e-06
-3.98687e-05
-1.08732e-05
-3.92189e-05
-1.22335e-05
-3.84866e-05
-1.35106e-05
-3.77159e-05
-1.46972e-05
-3.68269e-05
-1.56627e-05
-3.58617e-05
-1.63657e-05
-3.4844e-05
-1.71343e-05
-3.36287e-05
-1.79835e-05
-3.21793e-05
-1.88142e-05
-3.06158e-05
-1.9706e-05
-2.90335e-05
-2.00801e-05
-2.76577e-05
-2.01953e-05
-2.62076e-05
-2.47347e-05
-8.02551e-07
-3.91683e-05
-1.67159e-06
-4.13034e-05
-2.54584e-06
-4.11582e-05
-3.4396e-06
-4.1022e-05
-4.3522e-06
-4.08304e-05
-5.28203e-06
-4.05858e-05
-6.2272e-06
-4.0281e-05
-7.18671e-06
-3.99055e-05
-8.15459e-06
-3.94505e-05
-9.10865e-06
-3.89146e-05
-1.00432e-05
-3.82844e-05
-1.096e-05
-3.75697e-05
-1.19051e-05
-3.67709e-05
-1.28672e-05
-3.58649e-05
-1.38843e-05
-3.48445e-05
-1.50249e-05
-3.37035e-05
-1.61449e-05
-3.25088e-05
-1.70422e-05
-3.1282e-05
-1.76326e-05
-3.00254e-05
-1.8005e-05
-2.86611e-05
-1.8424e-05
-2.72386e-05
-1.87867e-05
-2.58449e-05
-2.45219e-05
-7.30836e-07
-3.84374e-05
-1.51746e-06
-4.05168e-05
-2.3047e-06
-4.0371e-05
-3.10894e-06
-4.02178e-05
-3.93727e-06
-4.00021e-05
-4.79716e-06
-3.97259e-05
-5.69212e-06
-3.9386e-05
-6.61751e-06
-3.89801e-05
-7.56142e-06
-3.85066e-05
-8.5158e-06
-3.79603e-05
-9.47602e-06
-3.73242e-05
-1.04609e-05
-3.65849e-05
-1.14498e-05
-3.5782e-05
-1.23992e-05
-3.49155e-05
-1.3274e-05
-3.39698e-05
-1.40336e-05
-3.29439e-05
-1.47044e-05
-3.18381e-05
-1.53619e-05
-3.06245e-05
-1.60546e-05
-2.93328e-05
-1.66775e-05
-2.80382e-05
-1.71251e-05
-2.6791e-05
-1.74428e-05
-2.55272e-05
-2.42582e-05
-6.98466e-07
-3.7739e-05
-1.45074e-06
-3.97646e-05
-2.20068e-06
-3.96211e-05
-2.96293e-06
-3.94556e-05
-3.73618e-06
-3.92289e-05
-4.52101e-06
-3.89411e-05
-5.31881e-06
-3.85883e-05
-6.13271e-06
-3.81663e-05
-6.96847e-06
-3.76709e-05
-7.82812e-06
-3.71007e-05
-8.68773e-06
-3.64647e-05
-9.51399e-06
-3.57586e-05
-1.03265e-05
-3.49694e-05
-1.11453e-05
-3.40968e-05
-1.19646e-05
-3.31504e-05
-1.27753e-05
-3.21333e-05
-1.35621e-05
-3.10513e-05
-1.42655e-05
-2.99212e-05
-1.48524e-05
-2.8746e-05
-1.53518e-05
-2.75388e-05
-1.58116e-05
-2.63312e-05
-1.62034e-05
-2.51354e-05
-2.39472e-05
-6.41562e-07
-3.70975e-05
-1.32907e-06
-3.90771e-05
-2.01534e-06
-3.89348e-05
-2.71407e-06
-3.87569e-05
-3.42784e-06
-3.85152e-05
-4.15839e-06
-3.82106e-05
-4.9048e-06
-3.78419e-05
-5.66321e-06
-3.74079e-05
-6.42785e-06
-3.69062e-05
-7.19512e-06
-3.63334e-05
-7.97237e-06
-3.56874e-05
-8.76148e-06
-3.49695e-05
-9.54485e-06
-3.41861e-05
-1.03043e-05
-3.33373e-05
-1.10356e-05
-3.24193e-05
-1.1733e-05
-3.14359e-05
-1.23897e-05
-3.03945e-05
-1.30124e-05
-2.92985e-05
-1.35978e-05
-2.81606e-05
-1.41324e-05
-2.70041e-05
-1.46085e-05
-2.58551e-05
-1.50279e-05
-2.4716e-05
-2.35804e-05
-5.80881e-07
-3.65166e-05
-1.20787e-06
-3.84501e-05
-1.83173e-06
-3.8311e-05
-2.46744e-06
-3.81212e-05
-3.11577e-06
-3.78669e-05
-3.77822e-06
-3.75481e-05
-4.45553e-06
-3.71646e-05
-5.14721e-06
-3.67162e-05
-5.85063e-06
-3.62028e-05
-6.55971e-06
-3.56243e-05
-7.2664e-06
-3.49808e-05
-7.96492e-06
-3.4271e-05
-8.65736e-06
-3.34937e-05
-9.34445e-06
-3.26503e-05
-1.00183e-05
-3.17454e-05
-1.06717e-05
-3.07826e-05
-1.12995e-05
-2.97668e-05
-1.18916e-05
-2.87065e-05
-1.24426e-05
-2.76096e-05
-1.29571e-05
-2.64896e-05
-1.34435e-05
-2.53687e-05
-1.38996e-05
-2.42599e-05
-2.31579e-05
-5.23825e-07
-3.59928e-05
-1.08567e-06
-3.78883e-05
-1.64588e-06
-3.77508e-05
-2.2177e-06
-3.75494e-05
-2.80132e-06
-3.72833e-05
-3.39776e-06
-3.69517e-05
-4.0073e-06
-3.65551e-05
-4.62839e-06
-3.60952e-05
-5.2586e-06
-3.55726e-05
-5.89536e-06
-3.49876e-05
-6.5363e-06
-3.43398e-05
-7.17794e-06
-3.36294e-05
-7.81436e-06
-3.28573e-05
-8.44e-06
-3.20247e-05
-9.05212e-06
-3.11333e-05
-9.64768e-06
-3.0187e-05
-1.02234e-05
-2.91912e-05
-1.07777e-05
-2.81522e-05
-1.13093e-05
-2.70781e-05
-1.18191e-05
-2.59799e-05
-1.23126e-05
-2.48752e-05
-1.27943e-05
-2.37782e-05
-2.26872e-05
-4.53966e-07
-3.55389e-05
-9.48493e-07
-3.73938e-05
-1.44161e-06
-3.72577e-05
-1.94663e-06
-3.70444e-05
-2.46378e-06
-3.67661e-05
-2.99452e-06
-3.6421e-05
-3.54013e-06
-3.60095e-05
-4.09934e-06
-3.5536e-05
-4.66896e-06
-3.5003e-05
-5.24465e-06
-3.44119e-05
-5.82211e-06
-3.37624e-05
-6.39813e-06
-3.30534e-05
-6.97073e-06
-3.22847e-05
-7.5376e-06
-3.14579e-05
-8.09565e-06
-3.05753e-05
-8.64243e-06
-2.96403e-05
-9.17612e-06
-2.86576e-05
-9.69574e-06
-2.76326e-05
-1.02021e-05
-2.65717e-05
-1.06988e-05
-2.54832e-05
-1.11936e-05
-2.43805e-05
-1.16936e-05
-2.32782e-05
-2.21782e-05
-3.81322e-07
-3.51575e-05
-8.08115e-07
-3.6967e-05
-1.2342e-06
-3.68316e-05
-1.67113e-06
-3.66075e-05
-2.11854e-06
-3.63187e-05
-2.57793e-06
-3.59616e-05
-3.05301e-06
-3.55344e-05
-3.54419e-06
-3.50448e-05
-4.04944e-06
-3.44978e-05
-4.56483e-06
-3.38965e-05
-5.08563e-06
-3.32416e-05
-5.60774e-06
-3.25313e-05
-6.12762e-06
-3.17648e-05
-6.64177e-06
-3.09437e-05
-7.14894e-06
-3.00682e-05
-7.64835e-06
-2.91409e-05
-8.13957e-06
-2.81664e-05
-8.62355e-06
-2.71486e-05
-9.1031e-06
-2.60922e-05
-9.58291e-06
-2.50034e-05
-1.00715e-05
-2.38919e-05
-1.05789e-05
-2.27708e-05
-2.16447e-05
-3.00979e-07
-3.48566e-05
-6.66249e-07
-3.66017e-05
-1.0303e-06
-3.64676e-05
-1.40109e-06
-3.62367e-05
-1.77737e-06
-3.59425e-05
-2.15785e-06
-3.55812e-05
-2.54459e-06
-3.51477e-05
-2.94381e-06
-3.46456e-05
-3.36603e-06
-3.40756e-05
-3.81626e-06
-3.34463e-05
-4.28946e-06
-3.27684e-05
-4.77153e-06
-3.20493e-05
-5.25229e-06
-3.12841e-05
-5.72774e-06
-3.04683e-05
-6.1953e-06
-2.96006e-05
-6.65527e-06
-2.86811e-05
-7.10771e-06
-2.7714e-05
-7.55514e-06
-2.67013e-05
-8.00351e-06
-2.56439e-05
-8.45942e-06
-2.45475e-05
-8.93291e-06
-2.34184e-05
-9.4363e-06
-2.22675e-05
-2.1101e-05
-2.21251e-07
-3.46353e-05
-5.48314e-07
-3.62747e-05
-8.71775e-07
-3.61441e-05
-1.19298e-06
-3.59155e-05
-1.50948e-06
-3.5626e-05
-1.81559e-06
-3.52751e-05
-2.10664e-06
-3.48566e-05
-2.38969e-06
-3.43625e-05
-2.67688e-06
-3.37884e-05
-2.98779e-06
-3.31354e-05
-3.34305e-06
-3.24132e-05
-3.75406e-06
-3.16383e-05
-4.21205e-06
-3.08261e-05
-4.69417e-06
-2.99862e-05
-5.17156e-06
-2.91234e-05
-5.62511e-06
-2.82275e-05
-6.05573e-06
-2.72834e-05
-6.47417e-06
-2.62829e-05
-6.89182e-06
-2.52262e-05
-7.31804e-06
-2.41213e-05
-7.76626e-06
-2.29702e-05
-8.25259e-06
-2.17811e-05
-2.05636e-05
-1.62508e-07
-3.44729e-05
-5.0225e-07
-3.5935e-05
-8.35394e-07
-3.5811e-05
-1.15204e-06
-3.55989e-05
-1.4576e-06
-3.53204e-05
-1.75608e-06
-3.49766e-05
-2.03841e-06
-3.45743e-05
-2.30313e-06
-3.40978e-05
-2.54397e-06
-3.35476e-05
-2.76025e-06
-3.29192e-05
-2.96191e-06
-3.22115e-05
-3.16636e-06
-3.14338e-05
-3.39228e-06
-3.06002e-05
-3.66555e-06
-2.9713e-05
-4.01011e-06
-2.87787e-05
-4.42527e-06
-2.78125e-05
-4.87887e-06
-2.68298e-05
-5.32489e-06
-2.58369e-05
-5.74107e-06
-2.48101e-05
-6.14311e-06
-2.37193e-05
-6.56105e-06
-2.25522e-05
-7.01763e-06
-2.13247e-05
-2.0046e-05
-1.60805e-07
-3.4312e-05
-5.89116e-07
-3.55067e-05
-1.00423e-06
-3.53959e-05
-1.38242e-06
-3.52207e-05
-1.73059e-06
-3.49723e-05
-2.05904e-06
-3.46482e-05
-2.36693e-06
-3.42664e-05
-2.64381e-06
-3.3821e-05
-2.88172e-06
-3.33097e-05
-3.06966e-06
-3.27312e-05
-3.20438e-06
-3.20768e-05
-3.30127e-06
-3.1337e-05
-3.37957e-06
-3.0522e-05
-3.45167e-06
-2.96409e-05
-3.529e-06
-2.87016e-05
-3.63241e-06
-2.7709e-05
-3.79983e-06
-2.66624e-05
-4.07041e-06
-2.55662e-05
-4.44058e-06
-2.44398e-05
-4.85913e-06
-2.33006e-05
-5.28923e-06
-2.21222e-05
-5.72252e-06
-2.08914e-05
-1.95632e-05
-2.53233e-07
-3.40588e-05
-8.21142e-07
-3.49388e-05
-1.36811e-06
-3.48489e-05
-1.87692e-06
-3.47119e-05
-2.34447e-06
-3.45047e-05
-2.76076e-06
-3.42319e-05
-3.13017e-06
-3.3897e-05
-3.44607e-06
-3.35051e-05
-3.70292e-06
-3.30529e-05
-3.89686e-06
-3.25373e-05
-4.01789e-06
-3.19558e-05
-4.05849e-06
-3.12964e-05
-4.03304e-06
-3.05474e-05
-3.96101e-06
-2.9713e-05
-3.85868e-06
-2.88038e-05
-3.74311e-06
-2.78245e-05
-3.62961e-06
-2.67758e-05
-3.53891e-06
-2.56568e-05
-3.50934e-06
-2.44692e-05
-3.5963e-06
-2.32135e-05
-3.84036e-06
-2.18781e-05
-4.26418e-06
-2.04675e-05
-1.90315e-05
-4.10709e-07
-3.36481e-05
-1.06242e-06
-3.4287e-05
-1.69622e-06
-3.42151e-05
-2.29967e-06
-3.41084e-05
-2.86257e-06
-3.39418e-05
-3.3688e-06
-3.37256e-05
-3.81605e-06
-3.34498e-05
-4.20441e-06
-3.31167e-05
-4.53159e-06
-3.27257e-05
-4.79405e-06
-3.22748e-05
-4.98794e-06
-3.17619e-05
-5.1007e-06
-3.11836e-05
-5.11987e-06
-3.05283e-05
-5.04425e-06
-2.97886e-05
-4.87049e-06
-2.89775e-05
-4.61016e-06
-2.80847e-05
-4.28608e-06
-2.70997e-05
-3.92766e-06
-2.6015e-05
-3.5732e-06
-2.48235e-05
-3.26964e-06
-2.35169e-05
-3.06276e-06
-2.20847e-05
-3.01238e-06
-2.05178e-05
-1.88313e-05
-4.35561e-07
-1.07861e-06
-1.70995e-06
-2.31963e-06
-2.89866e-06
-3.44198e-06
-3.93784e-06
-4.37924e-06
-4.76021e-06
-5.07518e-06
-5.31931e-06
-5.48819e-06
-5.57005e-06
-5.5505e-06
-5.43473e-06
-5.22683e-06
-4.92998e-06
-4.55104e-06
-4.10379e-06
-3.61108e-06
-3.10978e-06
-2.66546e-06
)
;

boundaryField
{
    leftWall
    {
        type            fixedValue;
        value           uniform 0;
    }
    rightWall
    {
        type            fixedValue;
        value           nonuniform 0();
    }
    lowerWall
    {
        type            fixedValue;
        value           nonuniform 0();
    }
    atmosphere
    {
        type            calculated;
        value           nonuniform List<scalar> 
23
(
-3.32125e-05
-3.3644e-05
-3.35838e-05
-3.34987e-05
-3.33628e-05
-3.31823e-05
-3.29539e-05
-3.26753e-05
-3.23447e-05
-3.19598e-05
-3.15178e-05
-3.10147e-05
-3.04464e-05
-2.98081e-05
-2.90933e-05
-2.82926e-05
-2.73965e-05
-2.63939e-05
-2.52707e-05
-2.40095e-05
-2.2586e-05
-2.09621e-05
-1.91101e-05
)
;
    }
    defaultFaces
    {
        type            empty;
        value           nonuniform 0();
    }
    procBoundary2to0
    {
        type            processor;
        value           nonuniform List<scalar> 
24
(
5.01029e-05
4.50119e-05
4.00875e-05
3.39702e-05
3.03673e-05
2.86967e-05
2.54634e-05
4.73584e-05
5.0503e-05
5.06924e-05
5.11824e-05
5.15878e-05
5.174e-05
5.18779e-05
5.20767e-05
5.23435e-05
5.28975e-05
5.35827e-05
5.43183e-05
5.58269e-05
5.70332e-05
5.62422e-05
4.66017e-05
5.37186e-05
)
;
    }
    procBoundary2to3
    {
        type            processor;
        value           nonuniform List<scalar> 
25
(
-4.1181e-05
-4.21336e-05
-3.65129e-05
-3.46193e-05
-3.0653e-05
-2.79049e-05
-2.54704e-05
-2.36864e-05
-2.19618e-05
-2.04266e-05
-1.89994e-05
-1.77064e-05
-1.65143e-05
-1.53947e-05
-1.4322e-05
-1.3265e-05
-1.22025e-05
-1.11125e-05
-9.97985e-06
-8.79012e-06
-7.53512e-06
-6.20545e-06
-4.79597e-06
-3.2123e-06
-2.38666e-06
)
;
    }
}


// ************************************************************************* //
