/*--------------------------------*- C++ -*----------------------------------*\
| =========                 |                                                 |
| \\      /  F ield         | OpenFOAM: The Open Source CFD Toolbox           |
|  \\    /   O peration     | Version:  2.4.0                                 |
|   \\  /    A nd           | Web:      www.OpenFOAM.org                      |
|    \\/     M anipulation  |                                                 |
\*---------------------------------------------------------------------------*/
FoamFile
{
    version     2.0;
    format      ascii;
    class       volVectorField;
    location    "0.35";
    object      U;
}
// * * * * * * * * * * * * * * * * * * * * * * * * * * * * * * * * * * * * * //

dimensions      [0 1 -1 0 0 0 0];

internalField   nonuniform List<vector> 
559
(
(-0.256893 -0.269956 0)
(-0.253862 -0.249017 0)
(-0.248909 -0.22663 0)
(-0.235238 -0.193105 0)
(-0.228656 -0.174508 0)
(-0.225203 -0.169741 0)
(-0.221217 -0.147298 0)
(-0.00149812 -0.254364 0)
(-0.00583045 -0.269991 0)
(-0.0113133 -0.270442 0)
(-0.0158912 -0.272478 0)
(-0.0218771 -0.275469 0)
(-0.0272265 -0.277004 0)
(-0.0323259 -0.278319 0)
(-0.0375197 -0.280019 0)
(-0.0422671 -0.280154 0)
(-0.049423 -0.279208 0)
(-0.0630541 -0.282753 0)
(-0.0773732 -0.283633 0)
(-0.0921316 -0.287958 0)
(-0.117008 -0.28477 0)
(-0.149133 -0.277623 0)
(-0.170765 -0.270885 0)
(-0.186435 -0.251989 0)
(-0.199201 -0.230099 0)
(-0.205268 -0.211711 0)
(-0.209073 -0.18218 0)
(-0.208649 -0.1522 0)
(-0.216288 -0.136655 0)
(-0.225565 -0.121607 0)
(-0.00196649 -0.248252 0)
(-0.00676634 -0.264394 0)
(-0.0104993 -0.265673 0)
(-0.0155269 -0.268338 0)
(-0.0213906 -0.26992 0)
(-0.0281188 -0.271451 0)
(-0.0349552 -0.272009 0)
(-0.041856 -0.272629 0)
(-0.0492144 -0.273503 0)
(-0.0567306 -0.273795 0)
(-0.0659841 -0.271932 0)
(-0.0713448 -0.274964 0)
(-0.0846646 -0.275393 0)
(-0.100676 -0.273989 0)
(-0.120138 -0.272662 0)
(-0.137576 -0.263319 0)
(-0.161059 -0.255536 0)
(-0.178289 -0.239546 0)
(-0.185647 -0.223357 0)
(-0.189205 -0.205864 0)
(-0.190108 -0.182223 0)
(-0.191071 -0.159825 0)
(-0.19709 -0.142932 0)
(-0.00163874 -0.245281 0)
(-0.00596715 -0.260675 0)
(-0.0116568 -0.260778 0)
(-0.0177024 -0.261173 0)
(-0.0240873 -0.262192 0)
(-0.0311363 -0.263413 0)
(-0.0385041 -0.264724 0)
(-0.0461317 -0.264974 0)
(-0.0543362 -0.264064 0)
(-0.0638908 -0.263144 0)
(-0.0705269 -0.2634 0)
(-0.0813209 -0.260286 0)
(-0.0926219 -0.258952 0)
(-0.102829 -0.256839 0)
(-0.115965 -0.249978 0)
(-0.128815 -0.237513 0)
(-0.14347 -0.223584 0)
(-0.15623 -0.211639 0)
(-0.165786 -0.199451 0)
(-0.173584 -0.181923 0)
(-0.180844 -0.15474 0)
(-0.186586 -0.133708 0)
(-0.188541 -0.126066 0)
(-0.00225198 -0.240259 0)
(-0.00760057 -0.254564 0)
(-0.0131058 -0.25435 0)
(-0.0185968 -0.255007 0)
(-0.0244826 -0.255309 0)
(-0.0307532 -0.255014 0)
(-0.0377439 -0.254681 0)
(-0.0455355 -0.254357 0)
(-0.0543565 -0.254499 0)
(-0.0631954 -0.254999 0)
(-0.0742 -0.253568 0)
(-0.08392 -0.25236 0)
(-0.0937589 -0.248379 0)
(-0.107879 -0.244718 0)
(-0.119562 -0.237417 0)
(-0.129327 -0.228123 0)
(-0.137481 -0.217979 0)
(-0.14395 -0.210266 0)
(-0.154739 -0.202188 0)
(-0.164672 -0.185961 0)
(-0.16517 -0.161865 0)
(-0.168234 -0.145749 0)
(-0.165248 -0.139037 0)
(-0.00191184 -0.237232 0)
(-0.00647366 -0.251041 0)
(-0.0114749 -0.250619 0)
(-0.0168715 -0.250737 0)
(-0.0226854 -0.250648 0)
(-0.028814 -0.250511 0)
(-0.035104 -0.250043 0)
(-0.0418227 -0.249322 0)
(-0.0492331 -0.248352 0)
(-0.0582889 -0.247118 0)
(-0.0668407 -0.246273 0)
(-0.0739152 -0.244419 0)
(-0.0831295 -0.23993 0)
(-0.0933428 -0.234422 0)
(-0.104135 -0.229067 0)
(-0.115264 -0.222274 0)
(-0.124023 -0.212705 0)
(-0.133269 -0.199053 0)
(-0.142544 -0.18396 0)
(-0.146613 -0.172145 0)
(-0.153799 -0.156129 0)
(-0.152256 -0.140574 0)
(-0.150014 -0.135492 0)
(-0.00241669 -0.230544 0)
(-0.00795453 -0.243851 0)
(-0.0134493 -0.243341 0)
(-0.0190073 -0.243295 0)
(-0.0247516 -0.243003 0)
(-0.0307092 -0.242501 0)
(-0.0369498 -0.241769 0)
(-0.0434553 -0.240686 0)
(-0.0501467 -0.23909 0)
(-0.0563603 -0.236794 0)
(-0.0633245 -0.234894 0)
(-0.0738021 -0.231469 0)
(-0.0837419 -0.227202 0)
(-0.0908397 -0.222398 0)
(-0.0985353 -0.215657 0)
(-0.108713 -0.207792 0)
(-0.116637 -0.199006 0)
(-0.123947 -0.190837 0)
(-0.129075 -0.186271 0)
(-0.132817 -0.173241 0)
(-0.137968 -0.155051 0)
(-0.138428 -0.143436 0)
(-0.136649 -0.137476 0)
(-0.0021932 -0.227607 0)
(-0.0071314 -0.240544 0)
(-0.0123258 -0.239987 0)
(-0.0175161 -0.239771 0)
(-0.0228164 -0.239302 0)
(-0.028156 -0.238602 0)
(-0.0336312 -0.237593 0)
(-0.0394085 -0.23628 0)
(-0.045707 -0.234676 0)
(-0.0528224 -0.232469 0)
(-0.0609979 -0.228968 0)
(-0.0687183 -0.225485 0)
(-0.076254 -0.222684 0)
(-0.0853065 -0.216619 0)
(-0.0932936 -0.211021 0)
(-0.0981365 -0.20614 0)
(-0.104756 -0.198258 0)
(-0.111653 -0.188512 0)
(-0.11789 -0.175065 0)
(-0.125315 -0.161935 0)
(-0.127112 -0.153487 0)
(-0.126442 -0.146333 0)
(-0.126814 -0.135697 0)
(-0.00214203 -0.221377 0)
(-0.00696343 -0.23374 0)
(-0.012036 -0.233015 0)
(-0.0172469 -0.232522 0)
(-0.022767 -0.231755 0)
(-0.0286532 -0.230792 0)
(-0.0348919 -0.229661 0)
(-0.0413874 -0.228297 0)
(-0.0479012 -0.22641 0)
(-0.0541731 -0.223693 0)
(-0.0595198 -0.2201 0)
(-0.0646794 -0.217114 0)
(-0.0709618 -0.212336 0)
(-0.0771711 -0.208043 0)
(-0.0842131 -0.202249 0)
(-0.0928978 -0.193668 0)
(-0.101859 -0.186013 0)
(-0.10683 -0.177717 0)
(-0.110379 -0.170999 0)
(-0.111937 -0.166239 0)
(-0.113647 -0.153398 0)
(-0.117621 -0.14184 0)
(-0.11828 -0.135543 0)
(-0.00210787 -0.218638 0)
(-0.0067376 -0.230707 0)
(-0.0115012 -0.229961 0)
(-0.0162108 -0.22939 0)
(-0.0209911 -0.228524 0)
(-0.0258297 -0.227367 0)
(-0.0308291 -0.225891 0)
(-0.0361036 -0.224078 0)
(-0.0417722 -0.221944 0)
(-0.0478665 -0.219491 0)
(-0.0546815 -0.216538 0)
(-0.0620911 -0.212091 0)
(-0.0690871 -0.20762 0)
(-0.0758387 -0.202228 0)
(-0.081869 -0.19658 0)
(-0.0863415 -0.191922 0)
(-0.0894122 -0.186698 0)
(-0.0944069 -0.179025 0)
(-0.098375 -0.168002 0)
(-0.103821 -0.156664 0)
(-0.107447 -0.150082 0)
(-0.108404 -0.142912 0)
(-0.109418 -0.134123 0)
(-0.00204802 -0.212478 0)
(-0.00660565 -0.224147 0)
(-0.0113188 -0.223371 0)
(-0.0160441 -0.222672 0)
(-0.020897 -0.221667 0)
(-0.0258546 -0.220368 0)
(-0.0308981 -0.218728 0)
(-0.0360068 -0.216686 0)
(-0.0411586 -0.21417 0)
(-0.0463514 -0.211124 0)
(-0.0514423 -0.207625 0)
(-0.0562865 -0.204372 0)
(-0.0612568 -0.200427 0)
(-0.066368 -0.195678 0)
(-0.0716066 -0.190237 0)
(-0.0773556 -0.183472 0)
(-0.0839145 -0.175981 0)
(-0.0895423 -0.168951 0)
(-0.0934365 -0.16334 0)
(-0.0954074 -0.15721 0)
(-0.0975418 -0.148631 0)
(-0.100518 -0.14031 0)
(-0.101932 -0.133074 0)
(-0.00191047 -0.210245 0)
(-0.00598371 -0.221667 0)
(-0.0102737 -0.220901 0)
(-0.014508 -0.220159 0)
(-0.018885 -0.219105 0)
(-0.0234087 -0.21775 0)
(-0.0281176 -0.216073 0)
(-0.0330069 -0.214047 0)
(-0.0380314 -0.211642 0)
(-0.0431134 -0.208786 0)
(-0.0481974 -0.2052 0)
(-0.0534065 -0.200721 0)
(-0.0587683 -0.196182 0)
(-0.0640265 -0.19152 0)
(-0.0689991 -0.186332 0)
(-0.0733888 -0.180873 0)
(-0.0771179 -0.175158 0)
(-0.0805812 -0.168322 0)
(-0.0843201 -0.160409 0)
(-0.0879148 -0.152596 0)
(-0.0907857 -0.145852 0)
(-0.0931008 -0.138926 0)
(-0.0947397 -0.131703 0)
(-0.00180164 -0.204638 0)
(-0.00573403 -0.215634 0)
(-0.00980894 -0.214836 0)
(-0.0138469 -0.213936 0)
(-0.0179705 -0.212698 0)
(-0.0221506 -0.211125 0)
(-0.0263899 -0.209204 0)
(-0.0306978 -0.206927 0)
(-0.0351032 -0.204293 0)
(-0.0396431 -0.201341 0)
(-0.0442937 -0.198204 0)
(-0.0488262 -0.194773 0)
(-0.0531828 -0.190636 0)
(-0.0575519 -0.185841 0)
(-0.0619525 -0.180689 0)
(-0.0663466 -0.175099 0)
(-0.070694 -0.169035 0)
(-0.0747959 -0.162922 0)
(-0.078238 -0.15676 0)
(-0.0810112 -0.150302 0)
(-0.0835655 -0.143522 0)
(-0.0862013 -0.136792 0)
(-0.088172 -0.130149 0)
(-0.00169619 -0.202398 0)
(-0.00523802 -0.21328 0)
(-0.00898879 -0.212532 0)
(-0.0126725 -0.211644 0)
(-0.0164606 -0.210424 0)
(-0.0203299 -0.208869 0)
(-0.0242885 -0.206958 0)
(-0.0283243 -0.204666 0)
(-0.0324085 -0.201956 0)
(-0.0365062 -0.198789 0)
(-0.04063 -0.195141 0)
(-0.0448371 -0.191075 0)
(-0.0490857 -0.186768 0)
(-0.053238 -0.182193 0)
(-0.0572412 -0.177201 0)
(-0.0610842 -0.171831 0)
(-0.0647202 -0.166154 0)
(-0.0681603 -0.160062 0)
(-0.071441 -0.153664 0)
(-0.0744211 -0.147207 0)
(-0.0770903 -0.1409 0)
(-0.0797131 -0.134621 0)
(-0.0819458 -0.128295 0)
(-0.00152796 -0.198223 0)
(-0.00475041 -0.208717 0)
(-0.00816799 -0.207947 0)
(-0.0115144 -0.206935 0)
(-0.0149571 -0.205573 0)
(-0.0184669 -0.203873 0)
(-0.0220545 -0.201839 0)
(-0.0257209 -0.199476 0)
(-0.0294599 -0.19679 0)
(-0.0332513 -0.193778 0)
(-0.0370548 -0.190428 0)
(-0.040823 -0.1867 0)
(-0.0445476 -0.182538 0)
(-0.0482531 -0.17796 0)
(-0.0519164 -0.173044 0)
(-0.0554863 -0.167808 0)
(-0.0589376 -0.162268 0)
(-0.0622343 -0.156505 0)
(-0.0653226 -0.150545 0)
(-0.0681561 -0.144434 0)
(-0.0708002 -0.138293 0)
(-0.0734952 -0.132214 0)
(-0.0759837 -0.126144 0)
(-0.00139911 -0.195744 0)
(-0.00426147 -0.206109 0)
(-0.00734077 -0.205374 0)
(-0.01034 -0.204333 0)
(-0.0134386 -0.202945 0)
(-0.0165976 -0.201205 0)
(-0.0198281 -0.199108 0)
(-0.0231257 -0.196653 0)
(-0.0264791 -0.193837 0)
(-0.0298748 -0.190658 0)
(-0.0333005 -0.187124 0)
(-0.0367437 -0.18325 0)
(-0.0401785 -0.179058 0)
(-0.0435684 -0.174551 0)
(-0.0468927 -0.169715 0)
(-0.0501398 -0.16457 0)
(-0.0532899 -0.159149 0)
(-0.0563351 -0.153478 0)
(-0.059272 -0.14761 0)
(-0.0620619 -0.141622 0)
(-0.064717 -0.135619 0)
(-0.0674428 -0.129664 0)
(-0.0701291 -0.123715 0)
(-0.00121114 -0.192854 0)
(-0.003698 -0.202961 0)
(-0.0064265 -0.202224 0)
(-0.00905996 -0.201102 0)
(-0.0118022 -0.19963 0)
(-0.0146057 -0.197804 0)
(-0.0174876 -0.195627 0)
(-0.0204483 -0.19312 0)
(-0.0234749 -0.190293 0)
(-0.0265473 -0.187148 0)
(-0.0296415 -0.183679 0)
(-0.032736 -0.179876 0)
(-0.0358174 -0.175734 0)
(-0.0388771 -0.171264 0)
(-0.0418999 -0.166485 0)
(-0.0448693 -0.16142 0)
(-0.0477751 -0.156091 0)
(-0.0506119 -0.150536 0)
(-0.0533826 -0.144787 0)
(-0.0560782 -0.138893 0)
(-0.0587117 -0.132935 0)
(-0.0614497 -0.126996 0)
(-0.0642782 -0.121058 0)
(-0.0010112 -0.190714 0)
(-0.00311511 -0.200625 0)
(-0.0055002 -0.199896 0)
(-0.00776284 -0.198714 0)
(-0.0101372 -0.197182 0)
(-0.0125621 -0.195283 0)
(-0.0150612 -0.193023 0)
(-0.0176482 -0.190433 0)
(-0.0203174 -0.187528 0)
(-0.023055 -0.184314 0)
(-0.0258373 -0.180791 0)
(-0.0286377 -0.176957 0)
(-0.0314351 -0.172814 0)
(-0.0342111 -0.168368 0)
(-0.0369538 -0.163625 0)
(-0.0396582 -0.158603 0)
(-0.0423207 -0.153325 0)
(-0.0449445 -0.147818 0)
(-0.0475436 -0.142109 0)
(-0.0501265 -0.136238 0)
(-0.0527087 -0.130264 0)
(-0.0554222 -0.124262 0)
(-0.0583215 -0.118234 0)
(-0.000761958 -0.188797 0)
(-0.00250043 -0.198414 0)
(-0.00458977 -0.197686 0)
(-0.00649396 -0.196449 0)
(-0.00850273 -0.194872 0)
(-0.0105392 -0.192935 0)
(-0.012585 -0.190613 0)
(-0.0146709 -0.187936 0)
(-0.0168525 -0.184937 0)
(-0.019185 -0.181653 0)
(-0.021678 -0.178112 0)
(-0.0242597 -0.174296 0)
(-0.0268401 -0.170171 0)
(-0.0294125 -0.165746 0)
(-0.0319471 -0.161026 0)
(-0.0344364 -0.15603 0)
(-0.0368863 -0.150783 0)
(-0.0393041 -0.145298 0)
(-0.0417163 -0.139593 0)
(-0.0441515 -0.133698 0)
(-0.0466379 -0.127654 0)
(-0.0492822 -0.121522 0)
(-0.0521792 -0.115319 0)
(-0.000470548 -0.187328 0)
(-0.00193894 -0.19652 0)
(-0.00388176 -0.195804 0)
(-0.00551946 -0.194555 0)
(-0.00724509 -0.192971 0)
(-0.00893364 -0.191026 0)
(-0.010515 -0.188674 0)
(-0.0120427 -0.185925 0)
(-0.0135501 -0.182772 0)
(-0.0151264 -0.179267 0)
(-0.0168719 -0.175465 0)
(-0.0189163 -0.171467 0)
(-0.0212746 -0.167313 0)
(-0.0238345 -0.162981 0)
(-0.0264539 -0.158435 0)
(-0.0289536 -0.153599 0)
(-0.0313083 -0.148445 0)
(-0.0335877 -0.142993 0)
(-0.0358303 -0.137269 0)
(-0.038098 -0.131316 0)
(-0.0404417 -0.125156 0)
(-0.0429617 -0.118843 0)
(-0.0457762 -0.112397 0)
(-0.000186323 -0.186473 0)
(-0.00160223 -0.19492 0)
(-0.00371308 -0.194228 0)
(-0.00531997 -0.193023 0)
(-0.0070068 -0.191492 0)
(-0.00861981 -0.189649 0)
(-0.0101777 -0.187453 0)
(-0.011651 -0.18484 0)
(-0.0130246 -0.18179 0)
(-0.014242 -0.178256 0)
(-0.0153383 -0.174301 0)
(-0.0164032 -0.169999 0)
(-0.0175332 -0.165427 0)
(-0.0188178 -0.160654 0)
(-0.0204349 -0.155759 0)
(-0.0224907 -0.150802 0)
(-0.0249029 -0.145768 0)
(-0.0273982 -0.140561 0)
(-0.0296974 -0.135021 0)
(-0.0318619 -0.129099 0)
(-0.0340544 -0.122824 0)
(-0.0364038 -0.116294 0)
(-0.0390658 -0.109565 0)
(-1.30655e-05 -0.186153 0)
(-0.00177359 -0.193518 0)
(-0.00445208 -0.192874 0)
(-0.00640613 -0.191797 0)
(-0.00839046 -0.190329 0)
(-0.0101525 -0.188449 0)
(-0.0118923 -0.186257 0)
(-0.0134725 -0.183683 0)
(-0.0148616 -0.180736 0)
(-0.0160253 -0.177419 0)
(-0.0168857 -0.173659 0)
(-0.0174716 -0.169474 0)
(-0.0179162 -0.164946 0)
(-0.0183074 -0.160087 0)
(-0.0186862 -0.154923 0)
(-0.0191426 -0.149499 0)
(-0.0197954 -0.143876 0)
(-0.0208975 -0.138164 0)
(-0.0226797 -0.132455 0)
(-0.0249316 -0.126642 0)
(-0.0272629 -0.120494 0)
(-0.0295088 -0.113786 0)
(-0.0320038 -0.106662 0)
(-0.000190512 -0.184981 0)
(-0.00262738 -0.190765 0)
(-0.00605668 -0.190217 0)
(-0.00871063 -0.18935 0)
(-0.0113794 -0.188043 0)
(-0.0137312 -0.186303 0)
(-0.015857 -0.184257 0)
(-0.0177027 -0.181919 0)
(-0.0192415 -0.179264 0)
(-0.0204561 -0.176269 0)
(-0.0213295 -0.172914 0)
(-0.0217609 -0.169084 0)
(-0.0217688 -0.164786 0)
(-0.0214762 -0.160057 0)
(-0.0209802 -0.154947 0)
(-0.020375 -0.14951 0)
(-0.0197369 -0.143761 0)
(-0.0191612 -0.137693 0)
(-0.0187844 -0.131356 0)
(-0.0188226 -0.124829 0)
(-0.0196677 -0.118227 0)
(-0.0215457 -0.111564 0)
(-0.0244031 -0.104435 0)
(-0.000737956 -0.181209 0)
(-0.00376787 -0.184788 0)
(-0.00753606 -0.184388 0)
(-0.0107345 -0.183811 0)
(-0.0139122 -0.182942 0)
(-0.0168025 -0.181829 0)
(-0.0193503 -0.180358 0)
(-0.0215933 -0.178565 0)
(-0.0235171 -0.176448 0)
(-0.0251028 -0.174003 0)
(-0.0263311 -0.171234 0)
(-0.0271785 -0.168151 0)
(-0.0275505 -0.16466 0)
(-0.0274039 -0.160736 0)
(-0.0267193 -0.156318 0)
(-0.0255194 -0.151359 0)
(-0.0239142 -0.145837 0)
(-0.0220351 -0.139744 0)
(-0.0200581 -0.133066 0)
(-0.0182234 -0.12578 0)
(-0.0167762 -0.117895 0)
(-0.0160055 -0.10949 0)
(-0.0164315 -0.10103 0)
(-0.000834165 -0.179203 0)
(-0.00388712 -0.181547 0)
(-0.00761931 -0.181221 0)
(-0.0108184 -0.18076 0)
(-0.0140385 -0.180024 0)
(-0.0170507 -0.179047 0)
(-0.0198464 -0.177811 0)
(-0.0223651 -0.176304 0)
(-0.0245763 -0.174517 0)
(-0.026448 -0.172436 0)
(-0.0279524 -0.170048 0)
(-0.0290687 -0.16733 0)
(-0.0297499 -0.164261 0)
(-0.0299174 -0.160814 0)
(-0.0295501 -0.156955 0)
(-0.0286784 -0.152633 0)
(-0.0273178 -0.147796 0)
(-0.0254925 -0.142385 0)
(-0.0232553 -0.136325 0)
(-0.0207031 -0.129521 0)
(-0.017988 -0.121842 0)
(-0.0153556 -0.113083 0)
(-0.0131244 -0.103096 0)
)
;

boundaryField
{
    leftWall
    {
        type            calculated;
        value           uniform (0 0 0);
    }
    rightWall
    {
        type            calculated;
        value           nonuniform 0();
    }
    lowerWall
    {
        type            calculated;
        value           nonuniform 0();
    }
    atmosphere
    {
        type            calculated;
        value           nonuniform List<vector> 
23
(
(-0.000834165 -0.17918 0)
(-0.00388712 -0.181508 0)
(-0.00761931 -0.181183 0)
(-0.0108184 -0.180724 0)
(-0.0140385 -0.179991 0)
(-0.0170507 -0.179017 0)
(-0.0198464 -0.177785 0)
(-0.0223651 -0.176282 0)
(-0.0245763 -0.174499 0)
(-0.026448 -0.172423 0)
(-0.0279524 -0.170038 0)
(-0.0290687 -0.167324 0)
(-0.0297499 -0.164258 0)
(-0.0299174 -0.160815 0)
(-0.0295501 -0.156959 0)
(-0.0286784 -0.15264 0)
(-0.0273178 -0.147807 0)
(-0.0254925 -0.142398 0)
(-0.0232553 -0.136339 0)
(-0.0207031 -0.129536 0)
(-0.017988 -0.121856 0)
(-0.0153556 -0.113096 0)
(-0.0131244 -0.103106 0)
)
;
    }
    defaultFaces
    {
        type            empty;
    }
    procBoundary2to0
    {
        type            processor;
        value           nonuniform List<vector> 
24
(
(-0.283192 -0.286801 0)
(-0.294591 -0.254016 0)
(-0.294962 -0.224779 0)
(-0.277121 -0.194005 0)
(-0.268111 -0.176097 0)
(-0.274548 -0.164897 0)
(-0.26892 -0.152438 0)
(0.000308483 -0.257374 0)
(-0.00259974 -0.276135 0)
(-0.00761692 -0.277689 0)
(-0.0155761 -0.28028 0)
(-0.0229448 -0.282257 0)
(-0.0308132 -0.283549 0)
(-0.0383201 -0.283762 0)
(-0.0431596 -0.283598 0)
(-0.0467946 -0.285892 0)
(-0.0541718 -0.289933 0)
(-0.0661884 -0.294465 0)
(-0.0949581 -0.302644 0)
(-0.125591 -0.316273 0)
(-0.163108 -0.330371 0)
(-0.209522 -0.329472 0)
(-0.248353 -0.305041 0)
(-0.248353 -0.305041 0)
)
;
    }
    procBoundary2to3
    {
        type            processor;
        value           nonuniform List<vector> 
25
(
(-0.22078 -0.119173 0)
(-0.225814 -0.10582 0)
(-0.195068 -0.129446 0)
(-0.183881 -0.120179 0)
(-0.162839 -0.133613 0)
(-0.148496 -0.132974 0)
(-0.135792 -0.133356 0)
(-0.127003 -0.131509 0)
(-0.117458 -0.130411 0)
(-0.10974 -0.129312 0)
(-0.10209 -0.128236 0)
(-0.0953202 -0.127012 0)
(-0.0890064 -0.125587 0)
(-0.0830849 -0.12388 0)
(-0.0774062 -0.121827 0)
(-0.0718039 -0.119431 0)
(-0.0661618 -0.116735 0)
(-0.0603527 -0.113802 0)
(-0.0543025 -0.110713 0)
(-0.0479198 -0.107567 0)
(-0.0411672 -0.104474 0)
(-0.0339989 -0.101308 0)
(-0.0264479 -0.0988154 0)
(-0.017613 -0.095165 0)
(-0.0126391 -0.0955636 0)
)
;
    }
}


// ************************************************************************* //
