/*--------------------------------*- C++ -*----------------------------------*\
| =========                 |                                                 |
| \\      /  F ield         | OpenFOAM: The Open Source CFD Toolbox           |
|  \\    /   O peration     | Version:  2.4.0                                 |
|   \\  /    A nd           | Web:      www.OpenFOAM.org                      |
|    \\/     M anipulation  |                                                 |
\*---------------------------------------------------------------------------*/
FoamFile
{
    version     2.0;
    format      ascii;
    class       volVectorField;
    location    "0.35";
    object      U.mercury;
}
// * * * * * * * * * * * * * * * * * * * * * * * * * * * * * * * * * * * * * //

dimensions      [0 1 -1 0 0 0 0];

internalField   nonuniform List<vector> 
559
(
(-0.256898 -0.269957 0)
(-0.253868 -0.249017 0)
(-0.248915 -0.226631 0)
(-0.235245 -0.193106 0)
(-0.228663 -0.17451 0)
(-0.22521 -0.169743 0)
(-0.221224 -0.147299 0)
(-0.0014984 -0.254367 0)
(-0.00583136 -0.269994 0)
(-0.0113149 -0.270446 0)
(-0.0158935 -0.272481 0)
(-0.02188 -0.275472 0)
(-0.02723 -0.277007 0)
(-0.0323298 -0.278322 0)
(-0.037524 -0.280021 0)
(-0.0422716 -0.280156 0)
(-0.0494277 -0.27921 0)
(-0.0630588 -0.282755 0)
(-0.0773778 -0.283634 0)
(-0.0921361 -0.287959 0)
(-0.117013 -0.284771 0)
(-0.149138 -0.277623 0)
(-0.170769 -0.270886 0)
(-0.186441 -0.25199 0)
(-0.199206 -0.2301 0)
(-0.205274 -0.211712 0)
(-0.209079 -0.18218 0)
(-0.208656 -0.152201 0)
(-0.216294 -0.136655 0)
(-0.225571 -0.121607 0)
(-0.0019668 -0.248256 0)
(-0.00676726 -0.264398 0)
(-0.0105008 -0.265677 0)
(-0.0155291 -0.268342 0)
(-0.0213933 -0.269923 0)
(-0.028122 -0.271454 0)
(-0.0349589 -0.272011 0)
(-0.04186 -0.272631 0)
(-0.0492187 -0.273505 0)
(-0.056735 -0.273797 0)
(-0.0659886 -0.271933 0)
(-0.0713492 -0.274965 0)
(-0.084669 -0.275394 0)
(-0.100681 -0.27399 0)
(-0.120142 -0.272663 0)
(-0.137581 -0.26332 0)
(-0.161064 -0.255537 0)
(-0.178295 -0.239547 0)
(-0.185653 -0.223358 0)
(-0.189211 -0.205865 0)
(-0.190114 -0.182223 0)
(-0.191076 -0.159825 0)
(-0.197095 -0.142931 0)
(-0.00163901 -0.245285 0)
(-0.00596798 -0.260679 0)
(-0.0116582 -0.260782 0)
(-0.0177043 -0.261177 0)
(-0.0240898 -0.262196 0)
(-0.0311392 -0.263416 0)
(-0.0385074 -0.264727 0)
(-0.0461354 -0.264977 0)
(-0.0543401 -0.264066 0)
(-0.0638949 -0.263146 0)
(-0.0705311 -0.263402 0)
(-0.0813251 -0.260287 0)
(-0.0926261 -0.258953 0)
(-0.102834 -0.25684 0)
(-0.115969 -0.249979 0)
(-0.12882 -0.237514 0)
(-0.143475 -0.223585 0)
(-0.156236 -0.21164 0)
(-0.165793 -0.199452 0)
(-0.17359 -0.181923 0)
(-0.18085 -0.154741 0)
(-0.186592 -0.133707 0)
(-0.188546 -0.126065 0)
(-0.00225225 -0.240263 0)
(-0.00760137 -0.254568 0)
(-0.0131072 -0.254354 0)
(-0.0185986 -0.25501 0)
(-0.0244849 -0.255313 0)
(-0.0307559 -0.255017 0)
(-0.037747 -0.254684 0)
(-0.0455389 -0.254359 0)
(-0.0543601 -0.254501 0)
(-0.0631993 -0.255001 0)
(-0.074204 -0.25357 0)
(-0.0839241 -0.252361 0)
(-0.093763 -0.248381 0)
(-0.107883 -0.24472 0)
(-0.119566 -0.237418 0)
(-0.129332 -0.228124 0)
(-0.137487 -0.217981 0)
(-0.143956 -0.210267 0)
(-0.154745 -0.202189 0)
(-0.164677 -0.185961 0)
(-0.165176 -0.161865 0)
(-0.16824 -0.145748 0)
(-0.165253 -0.139036 0)
(-0.00191207 -0.237236 0)
(-0.00647437 -0.251044 0)
(-0.0114761 -0.250622 0)
(-0.0168732 -0.25074 0)
(-0.0226875 -0.250651 0)
(-0.0288165 -0.250514 0)
(-0.0351069 -0.250046 0)
(-0.0418258 -0.249325 0)
(-0.0492365 -0.248354 0)
(-0.0582925 -0.24712 0)
(-0.0668445 -0.246274 0)
(-0.073919 -0.24442 0)
(-0.0831334 -0.239931 0)
(-0.0933469 -0.234423 0)
(-0.104139 -0.229069 0)
(-0.115269 -0.222275 0)
(-0.124028 -0.212706 0)
(-0.133274 -0.199054 0)
(-0.14255 -0.183961 0)
(-0.146618 -0.172145 0)
(-0.153805 -0.156128 0)
(-0.152261 -0.140574 0)
(-0.150018 -0.135492 0)
(-0.00241692 -0.230547 0)
(-0.00795522 -0.243854 0)
(-0.0134504 -0.243344 0)
(-0.0190089 -0.243298 0)
(-0.0247535 -0.243006 0)
(-0.0307115 -0.242504 0)
(-0.0369524 -0.241772 0)
(-0.0434583 -0.240689 0)
(-0.0501499 -0.239092 0)
(-0.0563637 -0.236796 0)
(-0.063328 -0.234895 0)
(-0.0738057 -0.23147 0)
(-0.0837457 -0.227203 0)
(-0.0908437 -0.222399 0)
(-0.0985394 -0.215658 0)
(-0.108718 -0.207793 0)
(-0.116642 -0.199007 0)
(-0.123953 -0.190838 0)
(-0.129081 -0.186272 0)
(-0.132823 -0.173241 0)
(-0.137973 -0.155051 0)
(-0.138433 -0.143435 0)
(-0.136653 -0.137475 0)
(-0.00219339 -0.227611 0)
(-0.007132 -0.240547 0)
(-0.0123268 -0.23999 0)
(-0.0175175 -0.239774 0)
(-0.0228182 -0.239305 0)
(-0.0281581 -0.238605 0)
(-0.0336337 -0.237595 0)
(-0.0394112 -0.236282 0)
(-0.0457099 -0.234678 0)
(-0.0528256 -0.232471 0)
(-0.0610013 -0.22897 0)
(-0.0687218 -0.225487 0)
(-0.0762576 -0.222685 0)
(-0.0853103 -0.21662 0)
(-0.0932977 -0.211022 0)
(-0.0981409 -0.206141 0)
(-0.10476 -0.198258 0)
(-0.111658 -0.188513 0)
(-0.117896 -0.175066 0)
(-0.125321 -0.161935 0)
(-0.127117 -0.153487 0)
(-0.126447 -0.146333 0)
(-0.126818 -0.135696 0)
(-0.00214222 -0.221381 0)
(-0.00696401 -0.233743 0)
(-0.0120369 -0.233018 0)
(-0.0172482 -0.232525 0)
(-0.0227686 -0.231758 0)
(-0.0286551 -0.230794 0)
(-0.0348941 -0.229664 0)
(-0.0413899 -0.2283 0)
(-0.0479039 -0.226412 0)
(-0.0541761 -0.223695 0)
(-0.0595229 -0.220101 0)
(-0.0646827 -0.217115 0)
(-0.0709652 -0.212337 0)
(-0.0771747 -0.208044 0)
(-0.0842169 -0.20225 0)
(-0.0929019 -0.193669 0)
(-0.101864 -0.186013 0)
(-0.106835 -0.177718 0)
(-0.110384 -0.171 0)
(-0.111942 -0.16624 0)
(-0.113652 -0.153398 0)
(-0.117625 -0.14184 0)
(-0.118283 -0.135543 0)
(-0.00210803 -0.218641 0)
(-0.00673811 -0.23071 0)
(-0.011502 -0.229964 0)
(-0.016212 -0.229392 0)
(-0.0209926 -0.228526 0)
(-0.0258315 -0.22737 0)
(-0.0308312 -0.225893 0)
(-0.0361059 -0.22408 0)
(-0.0417747 -0.221946 0)
(-0.0478692 -0.219493 0)
(-0.0546844 -0.21654 0)
(-0.0620942 -0.212092 0)
(-0.0690903 -0.207621 0)
(-0.0758421 -0.202229 0)
(-0.0818727 -0.196581 0)
(-0.0863456 -0.191923 0)
(-0.0894165 -0.186699 0)
(-0.0944116 -0.179026 0)
(-0.0983799 -0.168002 0)
(-0.103826 -0.156664 0)
(-0.107452 -0.150082 0)
(-0.108408 -0.142912 0)
(-0.109422 -0.134123 0)
(-0.00204819 -0.212481 0)
(-0.00660614 -0.224149 0)
(-0.0113196 -0.223374 0)
(-0.0160452 -0.222674 0)
(-0.0208984 -0.22167 0)
(-0.0258563 -0.220371 0)
(-0.0309 -0.218731 0)
(-0.0360089 -0.216688 0)
(-0.041161 -0.214171 0)
(-0.046354 -0.211126 0)
(-0.051445 -0.207626 0)
(-0.0562894 -0.204374 0)
(-0.0612599 -0.200428 0)
(-0.0663713 -0.195679 0)
(-0.0716101 -0.190238 0)
(-0.0773594 -0.183473 0)
(-0.0839187 -0.175981 0)
(-0.0895468 -0.168952 0)
(-0.0934412 -0.163341 0)
(-0.0954123 -0.15721 0)
(-0.0975465 -0.148631 0)
(-0.100523 -0.14031 0)
(-0.101936 -0.133074 0)
(-0.00191061 -0.210247 0)
(-0.00598414 -0.221669 0)
(-0.0102744 -0.220903 0)
(-0.014509 -0.220162 0)
(-0.0188862 -0.219107 0)
(-0.0234102 -0.217752 0)
(-0.0281193 -0.216075 0)
(-0.0330089 -0.214049 0)
(-0.0380336 -0.211644 0)
(-0.0431158 -0.208788 0)
(-0.0482 -0.205202 0)
(-0.0534093 -0.200722 0)
(-0.0587712 -0.196183 0)
(-0.0640295 -0.19152 0)
(-0.0690024 -0.186333 0)
(-0.0733925 -0.180873 0)
(-0.0771219 -0.175159 0)
(-0.0805856 -0.168323 0)
(-0.0843247 -0.160409 0)
(-0.0879194 -0.152596 0)
(-0.0907904 -0.145852 0)
(-0.0931052 -0.138926 0)
(-0.0947438 -0.131704 0)
(-0.00180178 -0.20464 0)
(-0.00573444 -0.215637 0)
(-0.0098096 -0.214838 0)
(-0.0138478 -0.213939 0)
(-0.0179717 -0.2127 0)
(-0.022152 -0.211127 0)
(-0.0263915 -0.209206 0)
(-0.0306996 -0.206928 0)
(-0.0351052 -0.204294 0)
(-0.0396453 -0.201342 0)
(-0.044296 -0.198206 0)
(-0.0488288 -0.194774 0)
(-0.0531855 -0.190637 0)
(-0.0575549 -0.185842 0)
(-0.0619557 -0.18069 0)
(-0.06635 -0.1751 0)
(-0.0706978 -0.169036 0)
(-0.0748 -0.162922 0)
(-0.0782424 -0.15676 0)
(-0.0810158 -0.150302 0)
(-0.08357 -0.143522 0)
(-0.0862058 -0.136792 0)
(-0.0881763 -0.130149 0)
(-0.0016963 -0.2024 0)
(-0.00523837 -0.213283 0)
(-0.00898938 -0.212534 0)
(-0.0126734 -0.211646 0)
(-0.0164617 -0.210426 0)
(-0.0203312 -0.208872 0)
(-0.02429 -0.20696 0)
(-0.0283259 -0.204668 0)
(-0.0324104 -0.201958 0)
(-0.0365082 -0.19879 0)
(-0.0406322 -0.195142 0)
(-0.0448395 -0.191076 0)
(-0.0490883 -0.186769 0)
(-0.0532407 -0.182194 0)
(-0.0572442 -0.177202 0)
(-0.0610876 -0.171832 0)
(-0.0647238 -0.166154 0)
(-0.0681643 -0.160062 0)
(-0.0714453 -0.153664 0)
(-0.0744255 -0.147206 0)
(-0.0770949 -0.1409 0)
(-0.0797176 -0.134621 0)
(-0.0819503 -0.128295 0)
(-0.00152808 -0.198226 0)
(-0.00475075 -0.208719 0)
(-0.00816853 -0.20795 0)
(-0.0115151 -0.206937 0)
(-0.0149581 -0.205575 0)
(-0.0184681 -0.203875 0)
(-0.0220559 -0.201841 0)
(-0.0257224 -0.199478 0)
(-0.0294616 -0.196791 0)
(-0.0332531 -0.193779 0)
(-0.0370568 -0.190429 0)
(-0.0408252 -0.186701 0)
(-0.04455 -0.182538 0)
(-0.0482557 -0.17796 0)
(-0.0519192 -0.173044 0)
(-0.0554894 -0.167808 0)
(-0.0589411 -0.162268 0)
(-0.0622381 -0.156505 0)
(-0.0653267 -0.150545 0)
(-0.0681604 -0.144434 0)
(-0.0708046 -0.138293 0)
(-0.0734999 -0.132214 0)
(-0.0759884 -0.126144 0)
(-0.0013992 -0.195746 0)
(-0.00426174 -0.206111 0)
(-0.00734125 -0.205376 0)
(-0.0103407 -0.204336 0)
(-0.0134395 -0.202947 0)
(-0.0165987 -0.201207 0)
(-0.0198293 -0.19911 0)
(-0.0231271 -0.196655 0)
(-0.0264806 -0.193838 0)
(-0.0298764 -0.19066 0)
(-0.0333023 -0.187125 0)
(-0.0367457 -0.183251 0)
(-0.0401807 -0.179059 0)
(-0.0435707 -0.174551 0)
(-0.0468953 -0.169715 0)
(-0.0501428 -0.16457 0)
(-0.0532931 -0.159149 0)
(-0.0563388 -0.153477 0)
(-0.0592759 -0.14761 0)
(-0.062066 -0.141621 0)
(-0.0647214 -0.135619 0)
(-0.0674474 -0.129663 0)
(-0.070134 -0.123715 0)
(-0.00121124 -0.192856 0)
(-0.00369827 -0.202963 0)
(-0.00642693 -0.202226 0)
(-0.00906055 -0.201104 0)
(-0.011803 -0.199632 0)
(-0.0146066 -0.197806 0)
(-0.0174887 -0.195629 0)
(-0.0204496 -0.193122 0)
(-0.0234763 -0.190295 0)
(-0.0265488 -0.18715 0)
(-0.0296431 -0.18368 0)
(-0.0327378 -0.179877 0)
(-0.0358194 -0.175735 0)
(-0.0388793 -0.171264 0)
(-0.0419023 -0.166486 0)
(-0.0448721 -0.16142 0)
(-0.0477782 -0.156091 0)
(-0.0506153 -0.150536 0)
(-0.0533863 -0.144787 0)
(-0.0560822 -0.138892 0)
(-0.058716 -0.132934 0)
(-0.0614543 -0.126995 0)
(-0.0642831 -0.121058 0)
(-0.00101127 -0.190716 0)
(-0.00311533 -0.200627 0)
(-0.00550057 -0.199898 0)
(-0.00776336 -0.198716 0)
(-0.0101379 -0.197184 0)
(-0.0125629 -0.195285 0)
(-0.0150621 -0.193025 0)
(-0.0176492 -0.190435 0)
(-0.0203186 -0.187529 0)
(-0.0230563 -0.184315 0)
(-0.0258388 -0.180792 0)
(-0.0286394 -0.176957 0)
(-0.0314369 -0.172815 0)
(-0.0342131 -0.168368 0)
(-0.0369561 -0.163625 0)
(-0.0396608 -0.158603 0)
(-0.0423235 -0.153325 0)
(-0.0449477 -0.147818 0)
(-0.047547 -0.142109 0)
(-0.0501302 -0.136237 0)
(-0.0527128 -0.130263 0)
(-0.0554267 -0.12426 0)
(-0.0583264 -0.118233 0)
(-0.000762031 -0.188799 0)
(-0.00250064 -0.198416 0)
(-0.00459009 -0.197688 0)
(-0.00649441 -0.196451 0)
(-0.0085033 -0.194874 0)
(-0.0105399 -0.192937 0)
(-0.0125858 -0.190614 0)
(-0.0146718 -0.187937 0)
(-0.0168536 -0.184939 0)
(-0.0191861 -0.181654 0)
(-0.0216793 -0.178113 0)
(-0.0242612 -0.174297 0)
(-0.0268417 -0.170172 0)
(-0.0294144 -0.165746 0)
(-0.0319491 -0.161026 0)
(-0.0344387 -0.15603 0)
(-0.036889 -0.150783 0)
(-0.0393071 -0.145297 0)
(-0.0417195 -0.139592 0)
(-0.044155 -0.133697 0)
(-0.0466417 -0.127652 0)
(-0.0492864 -0.12152 0)
(-0.0521839 -0.115317 0)
(-0.000470594 -0.187329 0)
(-0.00193909 -0.196522 0)
(-0.00388203 -0.195806 0)
(-0.00551984 -0.194557 0)
(-0.00724557 -0.192973 0)
(-0.00893423 -0.191027 0)
(-0.0105157 -0.188675 0)
(-0.0120435 -0.185927 0)
(-0.013551 -0.182773 0)
(-0.0151274 -0.179268 0)
(-0.016873 -0.175466 0)
(-0.0189176 -0.171467 0)
(-0.021276 -0.167314 0)
(-0.0238361 -0.162982 0)
(-0.0264558 -0.158435 0)
(-0.0289558 -0.153599 0)
(-0.0313107 -0.148445 0)
(-0.0335904 -0.142993 0)
(-0.0358332 -0.137268 0)
(-0.0381011 -0.131314 0)
(-0.040445 -0.125155 0)
(-0.0429654 -0.11884 0)
(-0.0457806 -0.112394 0)
(-0.000186376 -0.186475 0)
(-0.00160237 -0.194922 0)
(-0.0037133 -0.19423 0)
(-0.00532028 -0.193025 0)
(-0.00700719 -0.191494 0)
(-0.00862029 -0.189651 0)
(-0.0101783 -0.187455 0)
(-0.0116517 -0.184841 0)
(-0.0130253 -0.181791 0)
(-0.0142428 -0.178257 0)
(-0.0153392 -0.174302 0)
(-0.0164043 -0.17 0)
(-0.0175344 -0.165428 0)
(-0.0188192 -0.160654 0)
(-0.0204366 -0.155759 0)
(-0.0224927 -0.150802 0)
(-0.0249051 -0.145768 0)
(-0.0274005 -0.14056 0)
(-0.0296998 -0.13502 0)
(-0.0318645 -0.129098 0)
(-0.0340572 -0.122821 0)
(-0.0364071 -0.116291 0)
(-0.0390697 -0.109561 0)
(-1.30907e-05 -0.186154 0)
(-0.00177368 -0.19352 0)
(-0.00445225 -0.192876 0)
(-0.00640636 -0.191799 0)
(-0.00839076 -0.19033 0)
(-0.0101528 -0.188451 0)
(-0.0118928 -0.186259 0)
(-0.013473 -0.183685 0)
(-0.0148622 -0.180737 0)
(-0.016026 -0.17742 0)
(-0.0168865 -0.17366 0)
(-0.0174724 -0.169475 0)
(-0.0179172 -0.164946 0)
(-0.0183086 -0.160087 0)
(-0.0186877 -0.154923 0)
(-0.0191444 -0.149499 0)
(-0.0197973 -0.143876 0)
(-0.0208995 -0.138164 0)
(-0.0226816 -0.132454 0)
(-0.0249336 -0.12664 0)
(-0.0272651 -0.120491 0)
(-0.0295114 -0.113783 0)
(-0.0320071 -0.106658 0)
(-0.000190538 -0.184983 0)
(-0.00262745 -0.190767 0)
(-0.0060568 -0.190219 0)
(-0.00871079 -0.189352 0)
(-0.0113796 -0.188045 0)
(-0.0137315 -0.186304 0)
(-0.0158573 -0.184259 0)
(-0.0177031 -0.181921 0)
(-0.019242 -0.179265 0)
(-0.0204566 -0.17627 0)
(-0.0213301 -0.172915 0)
(-0.0217616 -0.169084 0)
(-0.0217695 -0.164787 0)
(-0.0214773 -0.160057 0)
(-0.0209815 -0.154946 0)
(-0.0203764 -0.149509 0)
(-0.0197384 -0.14376 0)
(-0.0191627 -0.137692 0)
(-0.0187858 -0.131355 0)
(-0.018824 -0.124826 0)
(-0.0196693 -0.118224 0)
(-0.0215476 -0.11156 0)
(-0.0244055 -0.104431 0)
(-0.000737973 -0.181211 0)
(-0.00376792 -0.18479 0)
(-0.00753613 -0.18439 0)
(-0.0107346 -0.183813 0)
(-0.0139123 -0.182944 0)
(-0.0168027 -0.181831 0)
(-0.0193504 -0.180359 0)
(-0.0215936 -0.178566 0)
(-0.0235173 -0.176449 0)
(-0.025103 -0.174003 0)
(-0.0263314 -0.171234 0)
(-0.0271789 -0.168152 0)
(-0.027551 -0.16466 0)
(-0.0274046 -0.160736 0)
(-0.0267202 -0.156318 0)
(-0.0255204 -0.151358 0)
(-0.0239151 -0.145836 0)
(-0.022036 -0.139742 0)
(-0.0200589 -0.133064 0)
(-0.0182243 -0.125776 0)
(-0.0167771 -0.117891 0)
(-0.0160068 -0.109486 0)
(-0.0164333 -0.101024 0)
(-0.000834171 -0.179205 0)
(-0.00388714 -0.181548 0)
(-0.00761934 -0.181223 0)
(-0.0108185 -0.180762 0)
(-0.0140385 -0.180026 0)
(-0.0170508 -0.179048 0)
(-0.0198464 -0.177812 0)
(-0.0223651 -0.176305 0)
(-0.0245764 -0.174518 0)
(-0.0264481 -0.172437 0)
(-0.0279525 -0.170048 0)
(-0.0290689 -0.16733 0)
(-0.0297501 -0.164261 0)
(-0.0299176 -0.160814 0)
(-0.0295504 -0.156954 0)
(-0.0286787 -0.152631 0)
(-0.0273181 -0.147794 0)
(-0.0254928 -0.142383 0)
(-0.0232556 -0.136321 0)
(-0.0207034 -0.129517 0)
(-0.0179883 -0.121837 0)
(-0.0153561 -0.113078 0)
(-0.0131252 -0.10309 0)
)
;

boundaryField
{
    leftWall
    {
        type            fixedValue;
        value           uniform (0 0 0);
    }
    rightWall
    {
        type            fixedValue;
        value           nonuniform 0();
    }
    lowerWall
    {
        type            fixedValue;
        value           nonuniform 0();
    }
    atmosphere
    {
        type            fluxCorrectedVelocity;
        value           nonuniform List<vector> 
23
(
(-0.000834171 -0.17918 0)
(-0.00388714 -0.181508 0)
(-0.00761934 -0.181183 0)
(-0.0108185 -0.180724 0)
(-0.0140385 -0.179991 0)
(-0.0170508 -0.179017 0)
(-0.0198464 -0.177785 0)
(-0.0223651 -0.176282 0)
(-0.0245764 -0.174499 0)
(-0.0264481 -0.172423 0)
(-0.0279525 -0.170038 0)
(-0.0290689 -0.167324 0)
(-0.0297501 -0.164258 0)
(-0.0299176 -0.160815 0)
(-0.0295504 -0.156959 0)
(-0.0286787 -0.15264 0)
(-0.0273181 -0.147807 0)
(-0.0254928 -0.142398 0)
(-0.0232556 -0.136339 0)
(-0.0207034 -0.129536 0)
(-0.0179883 -0.121856 0)
(-0.0153561 -0.113096 0)
(-0.0131252 -0.103106 0)
)
;
    }
    defaultFaces
    {
        type            empty;
    }
    procBoundary2to0
    {
        type            processor;
        value           nonuniform List<vector> 
24
(
(-0.283197 -0.286801 0)
(-0.294597 -0.254016 0)
(-0.294968 -0.22478 0)
(-0.277128 -0.194006 0)
(-0.268119 -0.176098 0)
(-0.274555 -0.164898 0)
(-0.268927 -0.15244 0)
(0.000308147 -0.257377 0)
(-0.00260075 -0.276138 0)
(-0.00761862 -0.277692 0)
(-0.0155785 -0.280283 0)
(-0.0229479 -0.28226 0)
(-0.0308169 -0.283552 0)
(-0.0383244 -0.283765 0)
(-0.0431643 -0.2836 0)
(-0.0467995 -0.285893 0)
(-0.0541768 -0.289934 0)
(-0.0661934 -0.294466 0)
(-0.0949629 -0.302645 0)
(-0.125596 -0.316273 0)
(-0.163112 -0.330371 0)
(-0.209526 -0.329472 0)
(-0.248357 -0.305041 0)
(-0.248357 -0.305041 0)
)
;
    }
    procBoundary2to3
    {
        type            processor;
        value           nonuniform List<vector> 
25
(
(-0.220785 -0.119174 0)
(-0.225819 -0.10582 0)
(-0.195073 -0.129446 0)
(-0.183885 -0.120178 0)
(-0.162842 -0.133612 0)
(-0.148499 -0.132973 0)
(-0.135795 -0.133355 0)
(-0.127006 -0.131508 0)
(-0.117461 -0.130411 0)
(-0.109743 -0.129312 0)
(-0.102093 -0.128236 0)
(-0.0953238 -0.127013 0)
(-0.0890103 -0.125588 0)
(-0.0830893 -0.123881 0)
(-0.0774108 -0.121827 0)
(-0.071809 -0.11943 0)
(-0.0661669 -0.116735 0)
(-0.0603581 -0.1138 0)
(-0.0543076 -0.110711 0)
(-0.0479249 -0.107564 0)
(-0.0411715 -0.10447 0)
(-0.0340029 -0.101303 0)
(-0.0264508 -0.0988104 0)
(-0.0176151 -0.0951592 0)
(-0.0126399 -0.0955561 0)
)
;
    }
}


// ************************************************************************* //
