/*--------------------------------*- C++ -*----------------------------------*\
| =========                 |                                                 |
| \\      /  F ield         | OpenFOAM: The Open Source CFD Toolbox           |
|  \\    /   O peration     | Version:  2.4.0                                 |
|   \\  /    A nd           | Web:      www.OpenFOAM.org                      |
|    \\/     M anipulation  |                                                 |
\*---------------------------------------------------------------------------*/
FoamFile
{
    version     2.0;
    format      ascii;
    class       volScalarField;
    location    "0.45";
    object      alpha.mercury;
}
// * * * * * * * * * * * * * * * * * * * * * * * * * * * * * * * * * * * * * //

dimensions      [0 0 0 0 0 0 0];

internalField   nonuniform List<scalar> 
575
(
3.35469e-17
5.06698e-17
7.3674e-17
1.04919e-16
2.63633e-18
3.50989e-18
4.52366e-18
5.74273e-18
3.36904e-19
4.53393e-19
5.93135e-19
7.64399e-19
5.45418e-20
7.58895e-20
1.02681e-19
1.36301e-19
8.19651e-21
1.21388e-20
1.72773e-20
2.38551e-20
1.18856e-21
1.84768e-21
2.73735e-21
3.90586e-21
1.52395e-22
2.48253e-22
3.8504e-22
5.75467e-22
1.73119e-23
2.96723e-23
4.86707e-23
7.77631e-23
1.76161e-24
3.21674e-24
5.64034e-24
9.83865e-24
1.59839e-25
3.13741e-25
6.01022e-25
1.20442e-24
1.3105e-26
2.81778e-26
6.12652e-26
1.52021e-25
9.76491e-28
2.36281e-27
6.20094e-27
2.07509e-26
6.69443e-29
1.90903e-28
6.56665e-28
3.0974e-27
4.29591e-30
1.54539e-29
7.45396e-29
4.83165e-28
2.64567e-31
1.28985e-30
8.79291e-30
7.38262e-29
1.59816e-32
1.10149e-31
1.02035e-30
1.06338e-29
9.45122e-34
9.12887e-33
1.09279e-31
1.38378e-30
5.32369e-35
6.97548e-34
1.04767e-32
1.60623e-31
2.71592e-36
4.66775e-35
8.6808e-34
1.61553e-32
1.21835e-37
2.70342e-36
6.22359e-35
1.4138e-33
4.52183e-39
1.29208e-37
3.70793e-36
1.03529e-34
1.67509e-40
6.39372e-39
2.3481e-37
8.19627e-36
3.62781e-42
1.90972e-40
9.50319e-39
4.40519e-37
2.61107e-43
1.89594e-41
1.30596e-39
8.4398e-38
6.62108e-46
5.75e-44
4.95844e-42
4.17846e-40
1.57657e-16
4.35847e-16
2.01144e-15
1.19352e-14
6.77008e-14
3.35243e-13
1.40587e-12
5.03312e-12
1.69507e-11
6.44322e-11
2.76118e-10
1.18059e-09
4.06242e-09
9.62296e-09
1.4416e-08
1.18229e-08
3.43073e-09
5.13845e-10
7.17001e-09
7.50262e-18
1.63187e-17
7.38133e-17
5.14067e-16
3.55019e-15
2.15482e-14
1.11722e-13
4.99629e-13
2.11938e-12
9.13494e-12
4.37976e-11
2.25984e-10
9.89023e-10
3.24232e-09
5.23841e-09
6.25151e-09
2.46602e-09
2.23504e-10
4.90419e-09
9.72762e-19
1.58676e-18
3.69484e-18
1.97299e-17
1.51258e-16
1.10173e-15
6.98625e-15
3.87324e-14
2.03071e-13
9.73779e-13
4.99062e-12
2.98624e-11
1.59513e-10
7.16527e-10
1.17037e-09
3.12186e-09
1.71244e-09
1.91996e-10
3.29159e-09
1.76328e-19
2.77899e-19
4.52378e-19
1.18357e-18
6.55954e-18
4.83488e-17
3.53407e-16
2.41499e-15
1.51131e-14
7.91084e-14
4.15289e-13
2.75238e-12
1.7171e-11
1.01721e-10
1.47552e-10
1.28161e-09
1.07324e-09
1.96504e-10
2.13255e-09
3.19512e-20
5.37974e-20
9.43999e-20
2.37637e-19
9.711e-19
5.04024e-18
2.87864e-17
1.76605e-16
1.07405e-15
5.65577e-15
2.81367e-14
1.87134e-13
1.27971e-12
8.44348e-12
9.88729e-12
1.19381e-10
6.12444e-10
1.30444e-10
1.29696e-09
5.43162e-21
1.01219e-20
2.21786e-20
7.57266e-20
3.61572e-19
1.85396e-18
9.24017e-18
4.39928e-17
1.99468e-16
8.58409e-16
3.45948e-15
1.59741e-14
8.98227e-14
4.73461e-13
8.75189e-13
7.96053e-12
3.39104e-10
6.85979e-11
6.72044e-10
8.50034e-22
1.87929e-21
5.67981e-21
2.65926e-20
1.50179e-19
8.46821e-19
4.4884e-18
2.20875e-17
1.00635e-16
4.28557e-16
1.71061e-15
6.38044e-15
2.4124e-14
7.8792e-14
2.83189e-13
2.83681e-12
1.73251e-10
4.46685e-11
2.50902e-10
1.2653e-22
3.61815e-22
1.5772e-21
9.53286e-21
6.15307e-20
3.81514e-19
2.2063e-18
1.18711e-17
5.96767e-17
2.8044e-16
1.23912e-15
4.97445e-15
1.8868e-14
6.03101e-14
2.07137e-13
9.73435e-13
8.37038e-11
2.66857e-11
5.54664e-11
1.86033e-23
7.55302e-23
4.63674e-22
3.3822e-21
2.43931e-20
1.65886e-19
1.05686e-18
6.34944e-18
3.62819e-17
1.93793e-16
9.64946e-16
4.29412e-15
1.7343e-14
6.04947e-14
2.06059e-13
5.3267e-13
3.23679e-11
1.08566e-11
1.26093e-11
2.89392e-24
1.74004e-23
1.39654e-22
1.1768e-21
9.45975e-21
7.16142e-20
5.13762e-19
3.52839e-18
2.32791e-17
1.4318e-16
8.08121e-16
4.06551e-15
1.75559e-14
6.76748e-14
2.1941e-13
5.10399e-13
8.27984e-12
6.12953e-12
9.74976e-12
4.98308e-25
4.24655e-24
4.14633e-23
3.97237e-22
3.60335e-21
3.10924e-20
2.57603e-19
2.05637e-18
1.56706e-17
1.10857e-16
7.09895e-16
4.05442e-15
1.91813e-14
7.97516e-14
2.46275e-13
5.80112e-13
3.13384e-12
3.95751e-12
8.85911e-12
9.42665e-26
1.04597e-24
1.19525e-23
1.308e-22
1.36508e-21
1.37132e-20
1.32824e-19
1.22982e-18
1.07234e-17
8.61607e-17
6.23222e-16
3.97847e-15
2.07792e-14
9.11725e-14
2.85785e-13
6.91572e-13
1.78227e-12
2.92693e-12
9.06257e-12
1.85177e-26
2.50889e-25
3.3294e-24
4.22561e-23
5.16214e-22
6.0862e-21
6.86342e-20
7.28937e-19
7.20189e-18
6.49531e-17
5.19987e-16
3.61291e-15
2.02897e-14
9.1644e-14
3.01141e-13
7.80962e-13
1.60358e-12
2.83102e-12
9.35654e-12
3.58513e-27
5.77174e-26
8.96462e-25
1.33929e-23
1.9306e-22
2.66599e-21
3.47504e-20
4.20804e-19
4.67756e-18
4.67992e-17
4.06883e-16
2.99882e-15
1.75081e-14
7.91256e-14
2.63617e-13
7.19132e-13
1.57346e-12
3.28543e-12
9.36687e-12
6.57289e-28
1.25405e-26
2.30686e-25
4.08962e-24
6.9478e-23
1.11774e-21
1.67637e-20
2.31401e-19
2.89277e-18
3.20144e-17
3.01879e-16
2.34959e-15
1.41812e-14
6.36475e-14
2.09952e-13
5.73096e-13
1.31573e-12
2.89573e-12
9.08097e-12
1.1275e-28
2.567e-27
5.62905e-26
1.18397e-24
2.36275e-23
4.41497e-22
7.61506e-21
1.19687e-19
1.68198e-18
2.06413e-17
2.12369e-16
1.76446e-15
1.11484e-14
5.02988e-14
1.62137e-13
4.18503e-13
9.83516e-13
2.35758e-12
8.57726e-12
1.75212e-29
4.79414e-28
1.25918e-26
3.14483e-25
7.37604e-24
1.6033e-22
3.19394e-21
5.75211e-20
9.18096e-19
1.2616e-17
1.4345e-16
1.29585e-15
8.77335e-15
4.07818e-14
1.30642e-13
3.03086e-13
6.66668e-13
1.99742e-12
7.91229e-12
2.4416e-30
8.05211e-29
2.53368e-27
7.51996e-26
2.07749e-24
5.27849e-23
1.21991e-21
2.52877e-20
4.62122e-19
7.23553e-18
9.32528e-17
9.44059e-16
7.07379e-15
3.476e-14
1.15895e-13
2.49537e-13
4.50728e-13
1.76564e-12
7.08418e-12
2.96459e-31
1.18119e-29
4.45628e-28
1.5737e-26
5.13738e-25
1.53327e-23
4.14103e-22
9.98697e-21
2.11213e-19
3.82031e-18
5.68926e-17
6.5982e-16
5.68385e-15
3.11752e-14
1.10209e-13
2.36884e-13
3.79647e-13
1.57995e-12
6.06272e-12
3.14952e-32
1.52134e-30
6.90604e-29
2.91452e-27
1.13033e-25
3.98442e-24
1.26261e-22
3.55396e-21
8.72944e-20
1.83591e-18
3.20847e-17
4.4159e-16
4.49783e-15
2.90641e-14
1.09346e-13
2.33952e-13
3.62158e-13
1.39073e-12
4.82344e-12
2.81184e-33
1.64804e-31
9.01672e-30
4.5629e-28
2.11521e-26
8.88263e-25
3.34158e-23
1.11123e-21
3.21274e-20
7.9202e-19
1.63189e-17
2.70891e-16
3.41233e-15
2.65913e-14
1.11075e-13
2.39083e-13
3.57451e-13
1.10919e-12
3.4742e-12
2.73887e-34
1.95031e-32
1.28386e-30
7.79064e-29
4.3125e-27
2.1578e-25
9.61889e-24
3.76981e-22
1.27937e-20
3.68755e-19
8.82434e-18
1.71282e-16
2.61973e-15
2.58212e-14
1.25143e-13
2.81453e-13
3.78446e-13
8.14303e-13
2.43202e-12
1.91266e-35
1.72538e-33
1.4144e-31
1.06255e-29
7.32465e-28
4.61123e-26
2.6294e-24
1.33526e-22
5.91581e-21
2.21962e-19
6.77652e-18
1.60928e-16
2.74015e-15
2.79673e-14
1.44024e-13
3.478e-13
4.46403e-13
6.56961e-13
1.75548e-12
5.08077e-36
6.2468e-34
6.71091e-32
6.37592e-30
5.43345e-28
4.18777e-26
2.91372e-24
1.8005e-22
9.56444e-21
4.16167e-19
1.38996e-17
3.25548e-16
4.54421e-15
3.54725e-14
1.39592e-13
2.61766e-13
6.31958e-13
6.45932e-13
1.38008e-12
3.40873e-38
6.14676e-36
1.0099e-33
1.48571e-31
1.95093e-29
2.29201e-27
2.40064e-25
2.2143e-23
1.74392e-21
1.10555e-19
5.11655e-18
1.51783e-16
2.45051e-15
1.91558e-14
7.06698e-14
1.07719e-13
3.48101e-13
6.39891e-13
1.21245e-12
)
;

boundaryField
{
    leftWall
    {
        type            zeroGradient;
    }
    rightWall
    {
        type            zeroGradient;
    }
    lowerWall
    {
        type            zeroGradient;
    }
    atmosphere
    {
        type            inletOutlet;
        inletValue      uniform 0;
        value           nonuniform List<scalar> 
23
(
0
0
0
0
0
0
0
0
0
0
0
0
0
1.10555e-19
5.11655e-18
0
0
0
0
0
0
6.39891e-13
1.21245e-12
)
;
    }
    defaultFaces
    {
        type            empty;
    }
    procBoundary3to1
    {
        type            processor;
        value           nonuniform List<scalar> 
23
(
7.94674e-16
1.33689e-15
2.18286e-15
3.45074e-15
5.44427e-15
1.34898e-14
4.46638e-14
1.96168e-13
9.03345e-13
3.72512e-12
1.30071e-11
3.84194e-11
1.06732e-10
3.4046e-10
1.24537e-09
4.24991e-09
1.10514e-08
1.78174e-08
2.54599e-08
1.92919e-08
4.85368e-09
9.59523e-10
1.03972e-08
)
;
    }
    procBoundary3to2
    {
        type            processor;
        value           nonuniform List<scalar> 
25
(
1.50008e-17
1.43477e-18
1.81206e-19
2.81294e-20
3.8198e-21
5.04167e-22
5.94961e-23
6.26814e-24
5.8188e-25
4.81615e-26
3.54891e-27
2.35398e-28
1.40865e-29
7.64871e-31
3.79767e-32
1.73963e-33
7.40293e-35
2.92199e-36
1.04933e-37
3.34736e-39
8.94114e-41
2.23957e-42
3.40419e-44
1.66464e-45
3.74785e-48
)
;
    }
}


// ************************************************************************* //
