/*--------------------------------*- C++ -*----------------------------------*\
| =========                 |                                                 |
| \\      /  F ield         | OpenFOAM: The Open Source CFD Toolbox           |
|  \\    /   O peration     | Version:  2.4.0                                 |
|   \\  /    A nd           | Web:      www.OpenFOAM.org                      |
|    \\/     M anipulation  |                                                 |
\*---------------------------------------------------------------------------*/
FoamFile
{
    version     2.0;
    format      ascii;
    class       volScalarField;
    location    "0.45";
    object      alpha.oil;
}
// * * * * * * * * * * * * * * * * * * * * * * * * * * * * * * * * * * * * * //

dimensions      [0 0 0 0 0 0 0];

internalField   nonuniform List<scalar> 
575
(
7.57441e-10
7.16982e-10
5.72774e-10
5.60513e-10
3.16165e-10
2.21799e-10
1.97558e-10
1.6724e-10
1.61264e-10
1.11442e-10
8.69032e-11
6.56701e-11
9.84954e-11
7.1218e-11
4.89379e-11
3.4509e-11
4.30814e-11
3.20128e-11
2.22689e-11
1.52652e-11
1.469e-11
1.08632e-11
7.71098e-12
5.34422e-12
4.09965e-12
3.13301e-12
2.29049e-12
1.61836e-12
9.54385e-13
7.62679e-13
5.8067e-13
4.22992e-13
1.85736e-13
1.55819e-13
1.23719e-13
9.32405e-14
3.02063e-14
2.67598e-14
2.23335e-14
1.75252e-14
4.14122e-15
3.88443e-15
3.42779e-15
2.81982e-15
4.81617e-16
4.80969e-16
4.52393e-16
3.93225e-16
4.78477e-17
5.12813e-17
5.18337e-17
4.80129e-17
4.0855e-18
4.74959e-18
5.20677e-18
5.18711e-18
3.02006e-19
3.8534e-19
4.62502e-19
5.00277e-19
1.94771e-20
2.76046e-20
3.66332e-20
4.34447e-20
1.10341e-21
1.75716e-21
2.60457e-21
3.42134e-21
5.51944e-23
9.98932e-23
1.67172e-22
2.4595e-22
2.44298e-24
5.08123e-24
9.71486e-24
1.62036e-23
9.54253e-26
2.30984e-25
5.11522e-25
9.80843e-25
3.2583e-27
9.31205e-27
2.42927e-26
5.4488e-26
9.52403e-29
3.27539e-28
1.02933e-27
2.76575e-27
2.30938e-30
9.70614e-30
3.77701e-29
1.25511e-28
4.49105e-32
2.33208e-31
1.16215e-30
5.10109e-30
7.38277e-34
4.30464e-33
2.58347e-32
1.46792e-31
5.7149e-10
8.34216e-10
1.26146e-09
1.8335e-09
2.53458e-09
3.48155e-09
5.32301e-09
1.00975e-08
2.33561e-08
5.80726e-08
1.41098e-07
3.22076e-07
6.56871e-07
1.1406e-06
1.73002e-06
2.38086e-06
3.0031e-06
0.606805
0.964373
1.73802e-10
1.99843e-10
3.00424e-10
4.76822e-10
7.04252e-10
1.09518e-09
2.00759e-09
4.55706e-09
1.20484e-08
3.25185e-08
8.23691e-08
1.93048e-07
4.07766e-07
7.77023e-07
1.37327e-06
2.14539e-06
2.89856e-06
0.607156
0.975615
5.38828e-11
4.42953e-11
6.83208e-11
1.24909e-10
1.90767e-10
3.40973e-10
7.70277e-10
2.10562e-09
6.31102e-09
1.84273e-08
4.94444e-08
1.21302e-07
2.65094e-07
5.18392e-07
1.12014e-06
1.95547e-06
2.80098e-06
0.377146
0.959754
2.48832e-11
1.1119e-11
1.50613e-11
2.46987e-11
4.65104e-11
1.06549e-10
2.94452e-10
9.51881e-10
3.15401e-09
9.91345e-09
2.86987e-08
7.69372e-08
1.86493e-07
3.78137e-07
1.00502e-06
1.92791e-06
2.7475e-06
0.0969979
0.911487
1.04092e-11
3.14616e-12
3.36827e-12
6.00045e-12
1.21653e-11
3.14394e-11
1.07676e-10
4.04915e-10
1.46308e-09
4.92531e-09
1.51924e-08
4.27361e-08
1.19087e-07
2.50777e-07
8.89267e-07
2.09413e-06
2.7893e-06
0.0119663
0.866813
3.65075e-12
9.47586e-13
7.22668e-13
1.27429e-12
2.73629e-12
7.94641e-12
3.16008e-11
1.40269e-10
5.68593e-10
2.0953e-09
6.96791e-09
2.09579e-08
5.72052e-08
1.24443e-07
7.24276e-07
2.19172e-06
2.85098e-06
0.0010564
0.818868
1.11788e-12
2.81867e-13
1.52589e-13
2.51385e-13
5.60558e-13
1.72243e-12
7.23322e-12
3.43349e-11
1.67956e-10
7.57581e-10
2.89767e-09
9.62352e-09
2.95078e-08
5.60443e-08
4.43744e-07
2.0386e-06
2.8646e-06
9.97132e-05
0.761004
2.97536e-13
7.796e-14
3.14044e-14
4.23634e-14
8.71902e-14
2.60397e-13
1.21484e-12
6.72351e-12
3.60431e-11
1.9935e-10
1.05647e-09
4.37475e-09
1.67891e-08
3.50622e-08
3.42104e-07
1.68431e-06
2.90154e-06
4.21888e-05
0.740753
6.73477e-14
1.95559e-14
6.64389e-15
7.60349e-15
1.79451e-14
6.97165e-14
4.0162e-13
2.61237e-12
1.68078e-11
1.00272e-10
5.67507e-10
2.83748e-09
1.21565e-08
4.98112e-08
4.45312e-07
5.63172e-06
2.90823e-06
3.59049e-05
0.70316
1.30878e-14
4.3427e-15
1.39302e-15
1.47075e-15
4.99433e-15
3.03933e-14
2.301e-13
1.80134e-12
1.37325e-11
9.70426e-11
6.17054e-10
3.38527e-09
1.45305e-08
7.09591e-08
6.49372e-07
3.47582e-05
4.40456e-06
3.35921e-05
0.489111
2.18975e-15
8.48037e-16
2.87587e-16
3.88752e-16
2.38192e-15
2.08071e-14
1.89859e-13
1.69527e-12
1.44178e-11
1.12934e-10
7.92791e-10
4.91732e-09
2.4373e-08
1.46451e-07
8.26993e-07
3.97805e-05
3.53111e-05
4.45952e-05
0.147468
3.19754e-16
1.45819e-16
5.66138e-17
1.1508e-16
1.02919e-15
1.0993e-14
1.16593e-13
1.18601e-12
1.13182e-11
9.85345e-11
7.55745e-10
4.91831e-09
2.54666e-08
1.70085e-07
7.71946e-07
3.57433e-05
0.000374449
0.000110186
0.0112236
4.11759e-17
2.21569e-17
9.46899e-18
2.07293e-17
2.36776e-16
3.18284e-15
4.16851e-14
5.14927e-13
5.90848e-12
6.15983e-11
5.62118e-10
4.28677e-09
2.47463e-08
1.45249e-07
6.30168e-07
2.5477e-05
0.000821897
0.00634307
0.0209051
4.72806e-18
3.0092e-18
1.48236e-18
4.21789e-18
6.43376e-17
1.08305e-15
1.72362e-14
2.5306e-13
3.38529e-12
4.04598e-11
4.18655e-10
3.4422e-09
1.95244e-08
1.04841e-07
5.38816e-07
3.40631e-05
0.00164412
0.0554586
0.291565
4.88857e-19
3.70383e-19
2.55206e-19
1.65666e-18
3.1974e-17
6.10285e-16
1.074e-14
1.70732e-13
2.38021e-12
2.52262e-11
3.3422e-10
2.96774e-09
1.75894e-08
8.64543e-08
5.30021e-07
9.16243e-05
0.00396077
0.0981106
0.832386
4.59283e-20
4.17679e-20
4.7102e-20
5.93348e-19
1.3544e-17
2.92183e-16
5.71382e-15
9.83574e-14
1.40789e-12
1.42262e-11
2.21772e-10
2.13882e-09
1.45193e-08
5.6231e-08
3.27643e-07
0.000161458
0.0129168
0.172543
0.982331
3.95891e-21
4.53815e-21
1.34071e-20
2.90174e-19
7.35732e-18
1.72796e-16
3.68629e-15
7.00207e-14
1.1486e-12
1.55666e-11
1.67737e-10
1.46481e-09
1.06717e-08
3.28624e-08
1.25555e-07
7.06536e-05
0.0184015
0.410616
0.985829
3.15761e-22
4.91051e-22
3.53429e-21
9.97658e-20
2.84884e-18
7.45167e-17
1.7608e-15
3.70002e-14
6.78413e-13
1.05614e-11
1.35391e-10
1.37557e-09
9.60705e-09
3.87701e-08
1.3739e-07
2.48746e-06
0.00687058
0.49295
0.985829
2.33653e-23
4.92284e-23
6.09909e-22
2.1167e-20
7.13158e-19
2.18989e-17
6.04952e-16
1.47848e-14
3.12576e-13
5.58308e-12
8.33569e-11
1.04078e-09
8.97397e-09
4.24146e-08
1.15765e-07
2.41138e-07
0.00057984
0.383827
0.985829
1.6128e-24
4.71418e-24
9.26228e-23
3.95456e-21
1.60004e-19
5.86732e-18
1.92471e-16
5.56851e-15
1.39176e-13
2.94278e-12
5.14622e-11
7.29797e-10
7.93737e-09
3.63154e-08
9.8602e-08
2.75162e-07
2.06591e-05
0.151104
0.978901
1.04026e-25
4.25843e-25
1.21753e-23
6.302e-22
3.05208e-20
1.33634e-18
5.22663e-17
1.80088e-15
5.37258e-14
1.35963e-12
2.85355e-11
4.74274e-10
5.52306e-09
1.37923e-08
1.6382e-07
3.36197e-07
1.29928e-06
0.0250418
0.897558
6.32997e-27
4.07165e-26
1.74531e-24
1.09963e-22
6.40262e-21
3.36313e-19
1.56799e-17
6.38897e-16
2.2341e-14
6.54714e-13
1.5583e-11
2.85641e-10
3.32085e-09
1.93072e-08
4.92181e-07
1.849e-06
1.56717e-06
0.00202008
0.740381
3.53164e-28
3.28883e-27
1.91004e-25
1.48317e-23
1.06344e-21
6.91571e-20
4.03521e-18
2.07267e-16
9.17008e-15
3.39469e-13
1.01412e-11
2.35059e-10
3.87788e-09
4.21361e-08
1.02373e-06
2.23605e-06
1.93948e-06
7.20204e-05
0.578846
2.33429e-29
8.89011e-28
8.76348e-26
8.10968e-24
6.60302e-22
4.78226e-20
3.12365e-18
1.85894e-16
1.00294e-14
4.73897e-13
1.82377e-11
5.10762e-10
8.6678e-09
8.51312e-08
5.02134e-07
1.73115e-06
1.24206e-06
2.68164e-06
0.364395
6.71779e-31
6.94134e-30
4.54783e-28
5.58415e-26
6.53195e-24
7.35352e-22
7.96758e-20
7.98661e-18
6.91929e-16
4.74223e-14
2.28637e-12
6.7246e-11
1.05933e-09
8.21502e-09
5.13026e-08
2.60668e-07
1.05757e-06
1.14285e-06
0.132622
)
;

boundaryField
{
    leftWall
    {
        type            zeroGradient;
    }
    rightWall
    {
        type            zeroGradient;
    }
    lowerWall
    {
        type            zeroGradient;
    }
    atmosphere
    {
        type            inletOutlet;
        inletValue      uniform 0;
        value           nonuniform List<scalar> 
23
(
0
0
0
0
0
0
0
0
0
0
0
0
0
4.74223e-14
2.28637e-12
0
0
0
0
0
0
1.14285e-06
0.132622
)
;
    }
    defaultFaces
    {
        type            empty;
    }
    procBoundary3to1
    {
        type            processor;
        value           nonuniform List<scalar> 
23
(
1.83384e-09
1.5312e-09
1.56533e-09
1.67585e-09
2.0045e-09
2.76754e-09
4.59289e-09
6.34481e-09
8.40994e-09
1.0281e-08
1.39864e-08
2.31256e-08
4.66742e-08
1.06862e-07
2.4875e-07
5.40416e-07
1.00558e-06
1.48049e-06
2.0748e-06
2.55613e-06
3.08665e-06
0.254309
0.916741
)
;
    }
    procBoundary3to2
    {
        type            processor;
        value           nonuniform List<scalar> 
25
(
1.41113e-09
8.81518e-10
6.57152e-10
3.7436e-10
1.57354e-10
3.72403e-11
7.34178e-12
1.9693e-12
3.59942e-13
5.18012e-14
6.18778e-15
6.10882e-16
5.02123e-17
3.48867e-18
2.08158e-19
1.08167e-20
4.94588e-22
2.00205e-23
7.18498e-25
2.27471e-26
6.27213e-28
1.46439e-29
2.82464e-31
4.30877e-33
6.0032e-35
)
;
    }
}


// ************************************************************************* //
