/*--------------------------------*- C++ -*----------------------------------*\
| =========                 |                                                 |
| \\      /  F ield         | OpenFOAM: The Open Source CFD Toolbox           |
|  \\    /   O peration     | Version:  2.4.0                                 |
|   \\  /    A nd           | Web:      www.OpenFOAM.org                      |
|    \\/     M anipulation  |                                                 |
\*---------------------------------------------------------------------------*/
FoamFile
{
    version     2.0;
    format      ascii;
    class       volScalarField;
    location    "0.45";
    object      alpha.water;
}
// * * * * * * * * * * * * * * * * * * * * * * * * * * * * * * * * * * * * * //

dimensions      [0 0 0 0 0 0 0];

internalField   nonuniform List<scalar> 
575
(
7.3545e-17
8.38256e-17
9.34052e-17
1.00604e-16
1.75291e-17
2.01316e-17
2.24145e-17
2.43196e-17
3.45958e-18
4.12088e-18
4.74864e-18
5.35583e-18
6.19677e-19
7.68597e-19
9.22738e-19
1.08252e-18
9.67461e-20
1.27441e-19
1.60957e-19
1.96673e-19
1.41046e-20
1.95413e-20
2.57387e-20
3.247e-20
1.8233e-21
2.64821e-21
3.6433e-21
4.76981e-21
2.08369e-22
3.17407e-22
4.58173e-22
6.28523e-22
2.117e-23
3.41366e-23
5.19033e-23
7.47964e-23
1.90422e-24
3.26632e-24
5.27262e-24
8.08559e-24
1.5309e-25
2.82021e-25
4.8829e-25
8.09542e-25
1.10331e-26
2.20057e-26
4.13794e-26
7.63339e-26
7.15949e-28
1.56164e-27
3.25475e-27
7.0635e-27
4.19343e-29
1.01456e-28
2.43141e-28
6.80766e-28
2.22588e-30
6.10764e-30
1.7893e-29
7.17676e-29
1.07469e-31
3.46847e-31
1.35381e-30
8.25844e-30
4.73697e-33
1.89386e-32
1.06431e-31
9.63732e-31
1.91135e-34
1.00753e-33
8.44713e-33
1.06855e-31
7.03344e-36
5.15165e-35
6.32904e-34
1.05772e-32
2.34136e-37
2.47742e-36
4.31049e-35
9.22388e-34
6.82594e-39
1.05504e-37
2.50813e-36
6.76655e-35
1.8876e-40
4.71209e-39
1.56401e-37
5.37735e-36
3.60432e-42
1.36103e-40
6.33086e-39
2.90989e-37
1.87735e-43
1.27663e-41
8.71107e-40
5.63101e-38
5.38388e-46
3.983e-44
3.33649e-42
2.80309e-40
1.06123e-16
1.15425e-16
1.3638e-16
2.77758e-16
1.05252e-15
4.43696e-15
1.57345e-14
4.1443e-14
7.64731e-14
1.25351e-13
5.5843e-13
4.06644e-12
2.48771e-11
8.357e-11
1.32939e-11
2.04992e-12
1.50783e-12
3.42407e-11
1.32438e-10
2.58216e-17
2.77556e-17
2.76933e-17
2.97849e-17
5.56268e-17
2.12004e-16
9.02822e-16
3.12999e-15
8.34959e-15
1.61042e-14
5.74839e-14
4.13e-13
2.94754e-12
1.33587e-11
2.07642e-12
8.84322e-13
1.11087e-12
1.65253e-11
1.05675e-10
5.89165e-18
6.69938e-18
6.78682e-18
6.539e-18
7.74282e-18
1.87247e-17
7.48268e-17
3.02062e-16
1.0568e-15
2.72214e-15
7.91273e-15
3.89202e-14
2.64657e-13
1.54598e-12
3.36049e-13
4.42254e-13
8.49924e-13
7.45159e-12
8.32509e-11
1.23027e-18
1.47455e-18
1.56096e-18
1.58548e-18
2.07e-18
5.22271e-18
1.99014e-17
7.9911e-17
2.99672e-16
9.7514e-16
2.92573e-15
9.00585e-15
3.27608e-14
1.5385e-13
1.40629e-13
2.92829e-13
6.78528e-13
3.89662e-12
6.26425e-11
2.31344e-19
2.94565e-19
3.30001e-19
3.77456e-19
6.5642e-19
2.1825e-18
9.33909e-18
3.94976e-17
1.54112e-16
5.53484e-16
1.83543e-15
5.68081e-15
1.68503e-14
4.51056e-14
1.31372e-13
2.61463e-13
5.8405e-13
2.59352e-12
5.18086e-11
3.93181e-20
5.30973e-20
6.47799e-20
9.07663e-20
2.29675e-19
9.83795e-19
4.70944e-18
2.14434e-17
8.96736e-17
3.48922e-16
1.26796e-15
4.29284e-15
1.41292e-14
4.03253e-14
1.32173e-13
2.66101e-13
5.24461e-13
1.98287e-12
3.20999e-11
5.98102e-21
8.72399e-21
1.21715e-20
2.33535e-20
8.7179e-20
4.52983e-19
2.38271e-18
1.17395e-17
5.35281e-17
2.2788e-16
9.11762e-16
3.36752e-15
1.20854e-14
3.74814e-14
1.24695e-13
2.76628e-13
4.76621e-13
1.62443e-12
2.02362e-11
8.24729e-22
1.33063e-21
2.28852e-21
6.64853e-21
3.42946e-20
2.05642e-19
1.18899e-18
6.42507e-18
3.24867e-17
1.53741e-16
6.85236e-16
2.77956e-15
1.0646e-14
3.47606e-14
1.20869e-13
2.83572e-13
4.40965e-13
1.39575e-12
1.38215e-11
1.03651e-22
1.93278e-22
4.59898e-22
2.0735e-21
1.34879e-20
9.07276e-20
5.7987e-19
3.50296e-18
2.01516e-17
1.08525e-16
5.45699e-16
2.45832e-15
1.00596e-14
3.60821e-14
1.26231e-13
2.97042e-13
4.3077e-13
1.20427e-12
9.9642e-12
1.2137e-23
2.82613e-23
1.04657e-22
6.84419e-22
5.28378e-21
3.99775e-20
2.88366e-19
1.99419e-18
1.32625e-17
8.23568e-17
4.7016e-16
2.39991e-15
1.05248e-14
4.19606e-14
1.40393e-13
3.40901e-13
4.72614e-13
1.09972e-12
7.61331e-12
1.36578e-24
4.4854e-24
2.67123e-23
2.28935e-22
2.05205e-21
1.77846e-20
1.48408e-19
1.19449e-18
9.1872e-18
6.56892e-17
4.2613e-16
2.47512e-15
1.19362e-14
5.14981e-14
1.66185e-13
4.21646e-13
6.02851e-13
1.14178e-12
7.10268e-12
1.56662e-25
8.17363e-25
7.26065e-24
7.62429e-23
7.95937e-22
8.05068e-21
7.86159e-20
7.3436e-19
6.46577e-18
5.25296e-17
3.84977e-16
2.50032e-15
1.33619e-14
6.10786e-14
2.03116e-13
5.27178e-13
8.47326e-13
1.38091e-12
7.52083e-12
1.97527e-26
1.67828e-25
2.00088e-24
2.51148e-23
3.0843e-22
3.66485e-21
4.16752e-20
4.46516e-19
4.45303e-18
4.05738e-17
3.2864e-16
2.3177e-15
1.33017e-14
6.25895e-14
2.20158e-13
6.16096e-13
1.17516e-12
1.92823e-12
7.84179e-12
2.85427e-27
3.63942e-26
5.43813e-25
8.13128e-24
1.18032e-22
1.64276e-21
2.15863e-20
2.63564e-19
2.95459e-18
2.98203e-17
2.61695e-16
1.94988e-15
1.15603e-14
5.39112e-14
1.91534e-13
5.74268e-13
1.30634e-12
2.66038e-12
7.77926e-12
4.52492e-28
7.80913e-27
1.42155e-25
2.53284e-24
4.33393e-23
7.02418e-22
1.06137e-20
1.47606e-19
1.85894e-18
2.07234e-17
1.96835e-16
1.54369e-15
9.40122e-15
4.29523e-14
1.4845e-13
4.47048e-13
1.12174e-12
2.50024e-12
7.38216e-12
7.33271e-29
1.60694e-27
3.52479e-26
7.45933e-25
1.49868e-23
2.81929e-22
4.89523e-21
7.74423e-20
1.09522e-18
1.3522e-17
1.39922e-16
1.16899e-15
7.42528e-15
3.37553e-14
1.11178e-13
3.09857e-13
8.19419e-13
2.10648e-12
6.79602e-12
1.12212e-29
3.03273e-28
7.9969e-27
2.00932e-25
4.74163e-24
1.03683e-22
2.07748e-21
3.76241e-20
6.03731e-19
8.33777e-18
9.52431e-17
8.64085e-16
5.8722e-15
2.73958e-14
8.82238e-14
2.1128e-13
5.18828e-13
1.77213e-12
6.11172e-12
1.56418e-30
5.14826e-29
1.62796e-27
4.85876e-26
1.34957e-24
3.44679e-23
8.00548e-22
1.66733e-20
3.06061e-19
4.812e-18
6.22537e-17
6.32426e-16
4.75278e-15
2.34162e-14
7.82131e-14
1.69066e-13
3.19921e-13
1.50301e-12
5.3456e-12
1.90948e-31
7.62274e-30
2.89006e-28
1.02571e-26
3.36439e-25
1.00862e-23
2.73557e-22
6.62357e-21
1.40601e-19
2.55184e-18
3.81212e-17
4.43374e-16
3.82871e-15
2.10452e-14
7.45072e-14
1.60223e-13
2.59049e-13
1.28468e-12
4.48337e-12
2.04188e-32
9.89604e-31
4.51295e-29
1.913e-27
7.44966e-26
2.63603e-24
8.3828e-23
2.36732e-21
5.83243e-20
1.23008e-18
2.15526e-17
2.97335e-16
3.03485e-15
1.96477e-14
7.40184e-14
1.58466e-13
2.45304e-13
1.1078e-12
3.5109e-12
1.83453e-33
1.07915e-31
5.92878e-30
3.01188e-28
1.40115e-26
5.90303e-25
2.22725e-23
7.42668e-22
2.15249e-20
5.31852e-19
1.09814e-17
1.8265e-16
2.30503e-15
1.7994e-14
7.52708e-14
1.62136e-13
2.41989e-13
8.66851e-13
2.50387e-12
1.7986e-34
1.28524e-32
8.49113e-31
5.16958e-29
2.87011e-27
1.43992e-25
6.43426e-24
2.52719e-22
8.59353e-21
2.48138e-19
5.94781e-18
1.1563e-16
1.77132e-15
1.74886e-14
8.49078e-14
1.91192e-13
2.56618e-13
6.15733e-13
1.74091e-12
1.26529e-35
1.14479e-33
9.413e-32
7.09101e-30
4.9002e-28
3.09158e-26
1.76622e-24
8.98431e-23
3.98641e-21
1.49771e-19
4.5781e-18
1.08846e-16
1.85544e-15
1.89638e-14
9.78969e-14
2.38877e-13
3.05663e-13
4.78625e-13
1.24906e-12
3.39563e-36
4.18264e-34
4.50146e-32
4.28409e-30
3.6567e-28
2.82248e-26
1.96632e-24
1.2164e-22
6.46765e-21
2.81648e-19
9.41389e-18
2.20657e-16
3.08308e-15
2.41126e-14
9.54621e-14
1.84542e-13
4.22074e-13
4.53775e-13
9.75076e-13
2.28917e-38
4.1344e-36
6.80305e-34
1.0022e-31
1.31762e-29
1.54957e-27
1.62443e-25
1.49944e-23
1.18166e-21
7.49531e-20
3.47076e-18
1.0302e-16
1.66444e-15
1.30249e-14
4.81504e-14
7.37043e-14
2.43545e-13
4.43962e-13
8.51758e-13
)
;

boundaryField
{
    leftWall
    {
        type            zeroGradient;
    }
    rightWall
    {
        type            zeroGradient;
    }
    lowerWall
    {
        type            zeroGradient;
    }
    atmosphere
    {
        type            inletOutlet;
        inletValue      uniform 0;
        value           nonuniform List<scalar> 
23
(
0
0
0
0
0
0
0
0
0
0
0
0
0
7.49531e-20
3.47076e-18
0
0
0
0
0
0
4.43962e-13
8.51758e-13
)
;
    }
    defaultFaces
    {
        type            empty;
    }
    procBoundary3to1
    {
        type            processor;
        value           nonuniform List<scalar> 
23
(
2.9147e-16
3.20586e-16
3.59591e-16
3.98812e-16
4.4756e-16
6.50302e-16
1.54803e-15
5.7551e-15
2.30807e-14
8.20728e-14
2.33235e-13
4.71646e-13
6.27158e-13
9.13198e-13
4.58229e-12
2.99418e-11
1.51756e-10
3.58741e-10
6.36182e-11
5.35739e-12
2.13362e-12
5.46222e-11
1.59225e-10
)
;
    }
    procBoundary3to2
    {
        type            processor;
        value           nonuniform List<scalar> 
25
(
5.83878e-17
1.23671e-17
2.25389e-18
3.81158e-19
5.39329e-20
7.12031e-21
8.40521e-22
8.8605e-23
8.19604e-24
6.72431e-25
4.87516e-26
3.15716e-27
1.82869e-28
9.49901e-30
4.43079e-31
1.85442e-32
6.94759e-34
2.31786e-35
6.81895e-37
1.73991e-38
3.72883e-40
6.58054e-42
8.31996e-44
1.64874e-45
5.4296e-48
)
;
    }
}


// ************************************************************************* //
