/*--------------------------------*- C++ -*----------------------------------*\
| =========                 |                                                 |
| \\      /  F ield         | OpenFOAM: The Open Source CFD Toolbox           |
|  \\    /   O peration     | Version:  2.4.0                                 |
|   \\  /    A nd           | Web:      www.OpenFOAM.org                      |
|    \\/     M anipulation  |                                                 |
\*---------------------------------------------------------------------------*/
FoamFile
{
    version     2.0;
    format      ascii;
    class       volScalarField;
    location    "0.45";
    object      p;
}
// * * * * * * * * * * * * * * * * * * * * * * * * * * * * * * * * * * * * * //

dimensions      [1 -1 -2 0 0 0 0];

internalField   nonuniform List<scalar> 
575
(
3.13289
3.12619
3.11899
3.11124
3.00841
3.00268
2.99667
2.99031
2.8845
2.87971
2.87488
2.86984
2.7615
2.75755
2.75367
2.7497
2.63814
2.635
2.63193
2.62889
2.51455
2.51204
2.50965
2.50745
2.39057
2.38862
2.3868
2.38517
2.26585
2.26443
2.26312
2.26201
2.14058
2.13959
2.1387
2.13798
2.01464
2.01401
2.01347
2.01308
1.88806
1.88773
1.88749
1.88738
1.76087
1.76078
1.76079
1.76091
1.63309
1.6332
1.63341
1.63372
1.50474
1.50501
1.50538
1.50585
1.37585
1.37625
1.37674
1.37733
1.24644
1.24693
1.24752
1.2482
1.11654
1.1171
1.11775
1.11849
0.98618
0.986778
0.98746
0.98823
0.855387
0.855997
0.856684
0.857451
0.724202
0.724799
0.725463
0.726198
0.592668
0.593228
0.593845
0.594521
0.460827
0.461333
0.461882
0.462476
0.32872
0.329165
0.329636
0.330132
0.196415
0.196782
0.197162
0.197556
0.0640434
0.0643345
0.0646179
0.0648909
3.09738
3.07583
3.05337
3.03107
3.01174
2.99813
2.99233
2.99766
3.01582
3.06093
3.13105
3.23488
3.38404
3.52338
3.39784
3.36323
3.24248
3.95666
7.53032
2.97925
2.96305
2.94668
2.93166
2.92018
2.9141
2.91546
2.92744
2.95228
2.99631
3.06104
3.14688
3.25406
3.34129
3.24201
3.26311
3.09742
3.24793
7.10748
2.86115
2.84911
2.83756
2.82801
2.82204
2.8211
2.82709
2.84236
2.86778
2.90723
2.96096
3.02504
3.09937
3.14902
3.06386
3.09668
2.94531
2.37955
4.9928
2.743
2.73413
2.72646
2.721
2.7188
2.72105
2.72911
2.74459
2.7684
2.80134
2.84301
2.88792
2.93621
2.95221
2.87174
2.84432
2.78299
2.31311
3.7628
2.62392
2.61764
2.61282
2.6102
2.61042
2.61458
2.62352
2.63808
2.65881
2.68566
2.71683
2.74704
2.77835
2.76735
2.69127
2.64228
2.68254
2.37676
3.32966
2.50386
2.49954
2.49686
2.49624
2.49806
2.50317
2.51211
2.52524
2.54266
2.56485
2.58841
2.60706
2.63173
2.61278
2.59556
2.53275
2.60788
2.40407
3.11582
2.38264
2.37999
2.37885
2.37953
2.38231
2.38783
2.39629
2.40786
2.42244
2.44044
2.45851
2.46988
2.49368
2.47422
2.50039
2.45439
2.50578
2.40438
2.73809
2.26037
2.25894
2.25892
2.26051
2.26389
2.26945
2.27724
2.28734
2.29942
2.31376
2.32808
2.33435
2.35848
2.33835
2.3852
2.34526
2.38415
2.32962
2.43166
2.13702
2.13659
2.13739
2.13959
2.1433
2.14875
2.15586
2.16457
2.17466
2.18595
2.19717
2.19932
2.22218
2.19702
2.24334
2.20771
2.26461
2.18393
2.34786
2.01269
2.01302
2.01444
2.01709
2.02102
2.02631
2.03286
2.04054
2.04902
2.05787
2.06615
2.06537
2.08457
2.05114
2.0853
2.03317
2.07889
2.02571
2.02802
1.88745
1.88838
1.89029
1.89328
1.89737
1.90258
1.90876
1.91576
1.9231
1.9303
1.93613
1.93463
1.94619
1.90448
1.9241
1.84487
1.83111
1.82313
1.56855
1.76135
1.76277
1.76508
1.76836
1.77263
1.77785
1.7839
1.79063
1.79743
1.80386
1.80867
1.80839
1.81137
1.77638
1.76991
1.68442
1.61768
1.78328
1.9742
1.63446
1.63627
1.63892
1.64247
1.64693
1.65229
1.65846
1.66532
1.67222
1.67897
1.68465
1.68671
1.68719
1.66647
1.65556
1.58086
1.51807
1.69204
1.65708
1.50684
1.50897
1.51188
1.51567
1.52035
1.52595
1.53243
1.53973
1.54731
1.55521
1.56272
1.56858
1.57217
1.5682
1.57217
1.54304
1.53562
1.81859
3.68167
1.37852
1.38089
1.38402
1.38801
1.3929
1.39876
1.40564
1.41356
1.42233
1.432
1.44277
1.45331
1.46682
1.47352
1.49565
1.49638
1.5077
1.53065
5.47256
1.24953
1.25207
1.25535
1.25948
1.26454
1.27064
1.27791
1.28647
1.29645
1.30803
1.32178
1.33649
1.35755
1.3746
1.41426
1.43542
1.46522
1.36217
3.91691
1.11991
1.12254
1.12589
1.13007
1.13521
1.14147
1.14902
1.15811
1.16902
1.18221
1.19865
1.21607
1.2457
1.26693
1.3249
1.36486
1.39704
1.69277
4.53833
0.98968
0.992318
0.995651
0.999792
1.00489
1.01114
1.01878
1.02812
1.03959
1.0538
1.07216
1.09037
1.12857
1.14614
1.22389
1.25842
1.31447
1.61882
7.51659
0.858882
0.861444
0.864655
0.868634
0.873539
0.879586
0.887042
0.896271
0.907786
0.922316
0.941439
0.958629
1.00417
1.00861
1.11066
1.07883
1.22478
1.11528
13.8165
0.727558
0.729957
0.732942
0.736631
0.741179
0.746804
0.753783
0.762484
0.773456
0.787622
0.8062
0.821556
0.870711
0.857736
0.995473
0.893245
1.06653
0.565502
6.47305
0.595762
0.597916
0.600572
0.603841
0.607866
0.612844
0.61904
0.626795
0.636586
0.649165
0.666509
0.680285
0.729503
0.71347
0.861489
0.75869
1.01609
0.699858
1.79772
0.463556
0.465392
0.467626
0.470355
0.473706
0.477839
0.482974
0.489406
0.497537
0.508061
0.522174
0.534979
0.578173
0.568556
0.697866
0.623484
0.889147
0.637164
1.33923
0.331018
0.332476
0.334207
0.33629
0.338826
0.341938
0.345783
0.350574
0.35656
0.36418
0.374243
0.385664
0.417802
0.413727
0.50805
0.451958
0.653524
0.506966
1.15972
0.198238
0.199283
0.200454
0.201815
0.20344
0.205414
0.207842
0.210837
0.214468
0.218575
0.223504
0.232259
0.249134
0.2424
0.308467
0.229324
0.378528
0.255115
0.290448
0.0653294
0.0658979
0.0664549
0.0670301
0.0676585
0.0683839
0.0692561
0.0703523
0.0718495
0.0742425
0.0773225
0.0787327
0.0833308
0.0707736
0.105059
0.00437012
0.0945859
-0.0754172
0.771218
)
;

boundaryField
{
    leftWall
    {
        type            fixedFluxPressure;
        gradient        nonuniform 0();
        value           nonuniform 0();
    }
    rightWall
    {
        type            fixedFluxPressure;
        gradient        uniform 0;
        value           nonuniform List<scalar> 
25
(
7.53032
7.10748
4.9928
3.7628
3.32966
3.11582
2.73809
2.43166
2.34786
2.02802
1.56855
1.9742
1.65708
3.68167
5.47256
3.91691
4.53833
7.51659
13.8165
6.47305
1.79772
1.33923
1.15972
0.290448
0.771218
)
;
    }
    lowerWall
    {
        type            fixedFluxPressure;
        gradient        nonuniform 0();
        value           nonuniform 0();
    }
    atmosphere
    {
        type            totalPressure;
        U               U.air;
        phi             phi.air;
        rho             rho;
        psi             none;
        gamma           1;
        p0              uniform 0;
        value           nonuniform List<scalar> 
23
(
-0.0020329
-0.00180573
-0.00160184
-0.00141752
-0.00115219
-0.000872177
-0.000668046
-0.000521491
-0.000415923
-0.000342319
-0.000295258
-0.000274257
-0.000283387
0
0
0
-0.000679273
-0.00505472
-0.00619445
-0.0721989
-0.0377834
0
0
)
;
    }
    defaultFaces
    {
        type            empty;
    }
    procBoundary3to1
    {
        type            processor;
        value           nonuniform List<scalar> 
23
(
3.25881
3.25127
3.24291
3.23362
3.21663
3.1888
3.15819
3.12622
3.09669
3.07316
3.05734
3.05248
3.06547
3.09461
3.15511
3.25951
3.45477
3.66284
3.52564
3.41892
3.37683
3.70358
6.06711
)
;
    }
    procBoundary3to2
    {
        type            processor;
        value           nonuniform List<scalar> 
25
(
3.14267
3.01687
2.89181
2.76763
2.64306
2.51849
2.39362
2.26815
2.14223
2.01576
1.88873
1.76117
1.63308
1.50448
1.37538
1.24582
1.11581
0.985374
0.854551
0.72337
0.591878
0.460105
0.328065
0.195855
0.0635796
)
;
    }
}


// ************************************************************************* //
