/*--------------------------------*- C++ -*----------------------------------*\
| =========                 |                                                 |
| \\      /  F ield         | OpenFOAM: The Open Source CFD Toolbox           |
|  \\    /   O peration     | Version:  2.4.0                                 |
|   \\  /    A nd           | Web:      www.OpenFOAM.org                      |
|    \\/     M anipulation  |                                                 |
\*---------------------------------------------------------------------------*/
FoamFile
{
    version     2.0;
    format      ascii;
    class       surfaceScalarField;
    location    "0.45";
    object      phi;
}
// * * * * * * * * * * * * * * * * * * * * * * * * * * * * * * * * * * * * * //

dimensions      [0 3 -1 0 0 0 0];

internalField   nonuniform List<scalar> 
1102
(
-2.76613e-05
-1.56159e-05
-2.87675e-05
-1.54639e-05
-3.00325e-05
-1.53003e-05
-1.55406e-05
-3.13602e-05
-2.8455e-05
-1.4772e-05
-2.92968e-05
-1.4622e-05
-3.00092e-05
-1.45879e-05
-1.44861e-05
-3.10638e-05
-2.59514e-05
-1.3933e-05
-2.68819e-05
-1.36916e-05
-2.78109e-05
-1.36589e-05
-1.33216e-05
-2.89755e-05
-2.57258e-05
-1.32883e-05
-2.65691e-05
-1.28482e-05
-2.75471e-05
-1.26809e-05
-1.21987e-05
-2.867e-05
-2.40849e-05
-1.2428e-05
-2.50959e-05
-1.18372e-05
-2.61698e-05
-1.1607e-05
-1.11636e-05
-2.7205e-05
-2.35021e-05
-1.15159e-05
-2.43659e-05
-1.09734e-05
-2.52713e-05
-1.07017e-05
-1.03486e-05
-2.60863e-05
-2.22041e-05
-1.07326e-05
-2.2892e-05
-1.02855e-05
-2.36544e-05
-9.93922e-06
-9.59694e-06
-2.44061e-05
-2.09703e-05
-1.0063e-05
-2.15408e-05
-9.71498e-06
-2.21396e-05
-9.34045e-06
-8.95058e-06
-2.2786e-05
-1.96767e-05
-9.41882e-06
-2.02708e-05
-9.12089e-06
-2.08299e-05
-8.78137e-06
-8.42648e-06
-2.1354e-05
-1.83726e-05
-8.88482e-06
-1.88765e-05
-8.61694e-06
-1.93478e-05
-8.31011e-06
-7.98955e-06
-1.97847e-05
-1.7102e-05
-8.38875e-06
-1.75718e-05
-8.14718e-06
-1.80119e-05
-7.87005e-06
-7.56052e-06
-1.84409e-05
-1.5873e-05
-7.96389e-06
-1.6293e-05
-7.72715e-06
-1.66945e-05
-7.46861e-06
-7.18747e-06
-1.70675e-05
-1.46869e-05
-7.58483e-06
-1.5065e-05
-7.34906e-06
-1.54301e-05
-7.10354e-06
-6.84224e-06
-1.57753e-05
-1.35384e-05
-7.25025e-06
-1.38744e-05
-7.01302e-06
-1.42046e-05
-6.77334e-06
-6.5266e-06
-1.45203e-05
-1.24289e-05
-6.94911e-06
-1.27294e-05
-6.71258e-06
-1.30264e-05
-6.4763e-06
-6.23834e-06
-1.33147e-05
-1.13477e-05
-6.67546e-06
-1.16191e-05
-6.44116e-06
-1.18882e-05
-6.20724e-06
-5.97358e-06
-1.21529e-05
-1.02922e-05
-6.42425e-06
-1.05395e-05
-6.19386e-06
-1.07853e-05
-5.96144e-06
-5.73253e-06
-1.10264e-05
-9.25506e-06
-6.1923e-06
-9.48445e-06
-5.96446e-06
-9.71115e-06
-5.73475e-06
-5.50824e-06
-9.93543e-06
-8.23443e-06
-5.9755e-06
-8.44788e-06
-5.75102e-06
-8.6588e-06
-5.52383e-06
-5.29795e-06
-8.86909e-06
-7.22019e-06
-5.77113e-06
-7.4229e-06
-5.54831e-06
-7.62388e-06
-5.32284e-06
-5.09774e-06
-7.82408e-06
-6.19957e-06
-5.57351e-06
-6.39665e-06
-5.35123e-06
-6.59366e-06
-5.12585e-06
-4.90179e-06
-6.78961e-06
-5.14866e-06
-5.36866e-06
-5.35202e-06
-5.1479e-06
-5.55059e-06
-4.92728e-06
-4.70514e-06
-5.74725e-06
-4.13425e-06
-5.24928e-06
-4.28813e-06
-4.99401e-06
-4.46485e-06
-4.75058e-06
-4.51655e-06
-4.65344e-06
-3.42259e-06
-5.26938e-06
-3.44029e-06
-4.97633e-06
-3.49383e-06
-4.69705e-06
-4.42534e-06
-3.58505e-06
-3.06614e-06
-2.97501e-06
-2.91315e-06
-2.8791e-06
-3.49879e-05
-3.64344e-05
-3.94945e-05
-3.59503e-05
-4.46656e-05
-3.37534e-05
-5.06039e-05
-2.99074e-05
-5.5968e-05
-2.61394e-05
-6.14424e-05
-2.12721e-05
-6.68903e-05
-1.34418e-05
-7.21794e-05
-5.63997e-06
-7.77387e-05
3.88332e-06
-8.36316e-05
1.81234e-05
-8.82016e-05
3.32477e-05
-8.76017e-05
5.85187e-05
-6.64589e-05
9.89916e-05
-1.78712e-05
0.000149947
2.48169e-05
0.000140531
2.6601e-05
0.000189242
1.04353e-06
0.000243243
5.97187e-06
4.04774e-05
7.1455e-05
-3.43285e-05
-3.31698e-05
-3.84772e-05
-3.18016e-05
-4.27383e-05
-2.94924e-05
-4.68171e-05
-2.58287e-05
-5.10063e-05
-2.19502e-05
-5.5362e-05
-1.69164e-05
-5.95203e-05
-9.28356e-06
-6.32695e-05
-1.89072e-06
-6.66336e-05
7.24742e-06
-6.90276e-05
2.05174e-05
-6.90348e-05
3.32548e-05
-6.35244e-05
5.30083e-05
-4.40915e-05
7.95586e-05
-1.08389e-05
0.000116695
2.60679e-05
0.000103624
3.01452e-05
0.000185164
7.64801e-06
0.00026574
7.14761e-06
4.09778e-05
7.86026e-05
-3.22697e-05
-2.98755e-05
-3.61739e-05
-2.78975e-05
-3.99347e-05
-2.57316e-05
-4.31042e-05
-2.26592e-05
-4.6683e-05
-1.83714e-05
-5.02692e-05
-1.33302e-05
-5.29212e-05
-6.63158e-06
-5.50765e-05
2.6459e-07
-5.6648e-05
8.81894e-06
-5.63397e-05
2.0209e-05
-5.35163e-05
3.04315e-05
-4.55395e-05
4.50315e-05
-2.73511e-05
6.13702e-05
2.76065e-06
8.65828e-05
3.52656e-05
7.1119e-05
3.69947e-05
0.000183435
2.18416e-05
0.000280893
8.22097e-06
5.45984e-05
8.68236e-05
-3.15819e-05
-2.69637e-05
-3.44051e-05
-2.50743e-05
-3.70701e-05
-2.30667e-05
-3.97008e-05
-2.00285e-05
-4.26221e-05
-1.54501e-05
-4.51735e-05
-1.07789e-05
-4.66073e-05
-5.19784e-06
-4.78538e-05
1.51113e-06
-4.79396e-05
8.90477e-06
-4.60393e-05
1.83087e-05
-4.17513e-05
2.61434e-05
-3.30358e-05
3.63159e-05
-1.80402e-05
4.63747e-05
1.14381e-05
5.71044e-05
3.95226e-05
4.30345e-05
4.6284e-05
0.000176674
4.35009e-05
0.000283676
9.77658e-06
8.83227e-05
9.66002e-05
-2.96128e-05
-2.4556e-05
-3.20091e-05
-2.2678e-05
-3.41991e-05
-2.08767e-05
-3.65384e-05
-1.76893e-05
-3.88023e-05
-1.31862e-05
-4.02628e-05
-9.31844e-06
-4.1134e-05
-4.32666e-06
-4.17606e-05
2.1378e-06
-4.06769e-05
7.82102e-06
-3.80914e-05
1.57232e-05
-3.3706e-05
2.1758e-05
-2.55746e-05
2.81845e-05
-1.47916e-05
3.55916e-05
6.31615e-06
3.59967e-05
1.79571e-05
3.13934e-05
3.19432e-05
0.000162688
4.05042e-05
0.000275115
7.70622e-06
0.000121121
0.000104306
-2.79487e-05
-2.26936e-05
-2.9704e-05
-2.09227e-05
-3.16123e-05
-1.89684e-05
-3.35522e-05
-1.57494e-05
-3.50852e-05
-1.16532e-05
-3.60108e-05
-8.3929e-06
-3.6524e-05
-3.81339e-06
-3.64047e-05
2.0185e-06
-3.49096e-05
6.32589e-06
-3.19528e-05
1.27664e-05
-2.79594e-05
1.77646e-05
-2.11446e-05
2.13697e-05
-1.42226e-05
2.86696e-05
-2.86523e-06
2.46394e-05
-5.72668e-06
3.42549e-05
1.85114e-05
0.00013845
3.82915e-05
0.000255335
6.65743e-06
0.000152755
0.000110964
-2.59901e-05
-2.11096e-05
-2.75428e-05
-1.937e-05
-2.92668e-05
-1.72445e-05
-3.07669e-05
-1.42493e-05
-3.17037e-05
-1.07164e-05
-3.24064e-05
-7.69021e-06
-3.25636e-05
-3.65622e-06
-3.18397e-05
1.2946e-06
-3.0273e-05
4.75917e-06
-2.71998e-05
9.69326e-06
-2.35791e-05
1.41438e-05
-1.77107e-05
1.55013e-05
-1.27047e-05
2.36636e-05
-5.13211e-06
1.70668e-05
-6.90429e-06
3.60271e-05
1.82692e-05
0.000113276
4.36666e-05
0.000229937
9.71384e-06
0.000186708
0.000120678
-2.42126e-05
-1.9683e-05
-2.56036e-05
-1.79791e-05
-2.69815e-05
-1.58666e-05
-2.8118e-05
-1.31128e-05
-2.87594e-05
-1.00751e-05
-2.92149e-05
-7.23466e-06
-2.91427e-05
-3.72847e-06
-2.81352e-05
2.87096e-07
-2.65482e-05
3.17223e-06
-2.3557e-05
6.70203e-06
-2.01419e-05
1.07287e-05
-1.481e-05
1.01695e-05
-1.0046e-05
1.88996e-05
-2.5448e-06
9.56557e-06
1.25091e-07
3.33572e-05
2.23094e-05
9.1092e-05
3.92491e-05
0.000212998
1.26106e-05
0.000213346
0.000133288
-2.24789e-05
-1.85581e-05
-2.36973e-05
-1.67608e-05
-2.48186e-05
-1.47453e-05
-2.57151e-05
-1.22163e-05
-2.6232e-05
-9.55814e-06
-2.6474e-05
-6.99266e-06
-2.62146e-05
-3.98787e-06
-2.51995e-05
-7.27974e-07
-2.36585e-05
1.63125e-06
-2.09227e-05
3.96621e-06
-1.75733e-05
7.37933e-06
-1.25813e-05
5.17744e-06
-7.1028e-06
1.34211e-05
9.94596e-07
1.46817e-06
1.00443e-05
2.43075e-05
2.90566e-05
7.20796e-05
4.49361e-05
0.000197118
1.80851e-05
0.000240197
0.000151373
-2.08751e-05
-1.74677e-05
-2.19197e-05
-1.57162e-05
-2.28577e-05
-1.38073e-05
-2.35688e-05
-1.15051e-05
-2.39775e-05
-9.1494e-06
-2.41173e-05
-6.85283e-06
-2.38083e-05
-4.2969e-06
-2.28806e-05
-1.65565e-06
-2.15161e-05
2.66775e-07
-1.92202e-05
1.67024e-06
-1.60502e-05
4.20934e-06
-1.18371e-05
9.64376e-07
-5.7116e-06
7.29559e-06
1.9998e-06
-6.24324e-06
1.48575e-05
1.14498e-05
3.41738e-05
5.27633e-05
5.57679e-05
0.000175524
3.88799e-05
0.000257085
0.000190253
-1.93473e-05
-1.65613e-05
-2.02474e-05
-1.48161e-05
-2.10468e-05
-1.30079e-05
-2.1629e-05
-1.09229e-05
-2.1981e-05
-8.79746e-06
-2.20973e-05
-6.73641e-06
-2.18359e-05
-4.5583e-06
-2.11103e-05
-2.38131e-06
-2.00362e-05
-8.07297e-07
-1.83589e-05
-7.01855e-09
-1.57922e-05
1.64258e-06
-1.30261e-05
-1.80172e-06
-7.22924e-06
1.49874e-06
-9.87832e-07
-1.24847e-05
1.0456e-05
6.01901e-09
2.87373e-05
3.4482e-05
4.70148e-05
0.000157247
4.60469e-05
0.000258053
0.0002363
-1.79028e-05
-1.57261e-05
-1.86849e-05
-1.40339e-05
-1.93744e-05
-1.23185e-05
-1.98825e-05
-1.04147e-05
-2.0208e-05
-8.47195e-06
-2.03442e-05
-6.60023e-06
-2.02004e-05
-4.70202e-06
-1.97298e-05
-2.85194e-06
-1.90393e-05
-1.49776e-06
-1.80606e-05
-9.85734e-07
-1.65679e-05
1.49899e-07
-1.5492e-05
-2.87769e-06
-1.18435e-05
-2.14976e-06
-1.09754e-05
-1.33528e-05
-4.5573e-06
-6.41206e-06
1.64006e-06
2.82846e-05
1.72821e-05
0.000141605
1.10671e-05
0.000264268
0.000247367
-1.65229e-05
-1.49785e-05
-1.72113e-05
-1.33455e-05
-1.7823e-05
-1.17068e-05
-1.82869e-05
-9.9507e-06
-1.86068e-05
-8.15209e-06
-1.87797e-05
-6.42726e-06
-1.87818e-05
-4.69984e-06
-1.85533e-05
-3.0805e-06
-1.82642e-05
-1.78684e-06
-1.79936e-05
-1.25636e-06
-1.76046e-05
-2.39111e-07
-1.81147e-05
-2.36753e-06
-1.78756e-05
-2.38895e-06
-2.1787e-05
-9.44132e-06
-2.28034e-05
-5.39569e-06
-2.61559e-05
3.16372e-05
-2.10273e-05
0.000136476
2.79632e-06
0.000240444
0.000250163
-1.52064e-05
-1.42924e-05
-1.58249e-05
-1.2727e-05
-1.63753e-05
-1.11563e-05
-1.68093e-05
-9.51667e-06
-1.71302e-05
-7.83118e-06
-1.7347e-05
-6.2104e-06
-1.74728e-05
-4.57402e-06
-1.74692e-05
-3.08413e-06
-1.74837e-05
-1.77226e-06
-1.7766e-05
-9.7414e-07
-1.81606e-05
1.55532e-07
-1.9754e-05
-7.74126e-07
-2.19604e-05
-1.82544e-07
-2.83747e-05
-3.02703e-06
-3.44949e-05
7.24519e-07
-4.48402e-05
4.19824e-05
-4.65198e-05
0.000138155
-3.47705e-05
0.000228695
0.000215393
-1.39445e-05
-1.36626e-05
-1.45071e-05
-1.21643e-05
-1.50098e-05
-1.06536e-05
-1.54244e-05
-9.10205e-06
-1.57342e-05
-7.52137e-06
-1.59891e-05
-5.95548e-06
-1.6172e-05
-4.39104e-06
-1.63296e-05
-2.92651e-06
-1.65571e-05
-1.54476e-06
-1.71379e-05
-3.9333e-07
-1.7995e-05
1.01257e-06
-2.00512e-05
1.28206e-06
-2.31202e-05
2.88654e-06
-2.9992e-05
3.84477e-06
-3.72368e-05
7.96927e-06
-4.51325e-05
4.98782e-05
-3.48489e-05
0.000127872
-1.51374e-05
0.000208984
0.000200256
-1.27341e-05
-1.30814e-05
-1.32541e-05
-1.16443e-05
-1.37172e-05
-1.01904e-05
-1.41114e-05
-8.70785e-06
-1.44254e-05
-7.20735e-06
-1.46903e-05
-5.69052e-06
-1.49007e-05
-4.18059e-06
-1.5128e-05
-2.69919e-06
-1.54136e-05
-1.25923e-06
-1.59974e-05
1.90537e-07
-1.68682e-05
1.88332e-06
-1.87089e-05
3.12278e-06
-2.15593e-05
5.73698e-06
-2.7421e-05
9.70643e-06
-3.39015e-05
1.44498e-05
-3.90043e-05
5.4981e-05
-2.4123e-05
0.000112991
-3.59129e-06
0.000188452
0.000196664
-1.15681e-05
-1.25396e-05
-1.20526e-05
-1.11597e-05
-1.24883e-05
-9.75469e-06
-1.28576e-05
-8.33848e-06
-1.31745e-05
-6.89046e-06
-1.34274e-05
-5.43762e-06
-1.36334e-05
-3.97459e-06
-1.38312e-05
-2.50134e-06
-1.40769e-05
-1.01357e-06
-1.44611e-05
5.74773e-07
-1.50209e-05
2.44311e-06
-1.61604e-05
4.26236e-06
-1.79906e-05
7.56716e-06
-2.15704e-05
1.32863e-05
-2.51546e-05
1.80339e-05
-2.92851e-05
5.91115e-05
-1.7727e-05
0.000101432
-1.32346e-06
0.000172048
0.000195341
-1.04416e-05
-1.20335e-05
-1.08984e-05
-1.07029e-05
-1.13101e-05
-9.34298e-06
-1.16698e-05
-7.9787e-06
-1.19724e-05
-6.58786e-06
-1.22117e-05
-5.19831e-06
-1.23999e-05
-3.78632e-06
-1.25263e-05
-2.37492e-06
-1.26311e-05
-9.08802e-07
-1.2723e-05
6.66736e-07
-1.27922e-05
2.51228e-06
-1.29134e-05
4.38356e-06
-1.33935e-05
8.04728e-06
-1.32267e-05
1.31195e-05
-1.33505e-05
1.81577e-05
-8.12936e-06
5.38904e-05
-1.16856e-06
9.44716e-05
-1.80541e-06
0.000172685
0.000193535
-9.3476e-06
-1.15549e-05
-9.78586e-06
-1.02646e-05
-1.01815e-05
-8.94729e-06
-1.05315e-05
-7.62866e-06
-1.08264e-05
-6.29293e-06
-1.10479e-05
-4.97676e-06
-1.11913e-05
-3.64298e-06
-1.12505e-05
-2.31561e-06
-1.1203e-05
-9.56359e-07
-1.099e-05
4.53748e-07
-1.05339e-05
2.05627e-06
-9.46815e-06
3.31782e-06
-8.51423e-06
7.09337e-06
-4.13698e-06
8.74223e-06
-2.48024e-06
1.6501e-05
1.47358e-05
3.66744e-05
2.3001e-05
8.62064e-05
-5.9424e-06
0.000201629
0.000187593
-8.28201e-06
-1.1097e-05
-8.71096e-06
-9.8356e-06
-9.10035e-06
-8.55786e-06
-9.44492e-06
-7.28406e-06
-9.73775e-06
-6.00007e-06
-9.96285e-06
-4.75164e-06
-1.0087e-05
-3.51875e-06
-1.01031e-05
-2.29953e-06
-9.93471e-06
-1.12474e-06
-9.50239e-06
2.14561e-08
-8.63764e-06
1.19153e-06
-6.87557e-06
1.55577e-06
-4.45021e-06
4.66802e-06
1.60804e-06
2.68398e-06
6.33533e-06
1.17737e-05
1.79873e-05
2.50224e-05
1.51876e-05
8.90062e-05
-6.27794e-06
0.000223094
0.000181315
-7.23999e-06
-1.06466e-05
-7.66652e-06
-9.40905e-06
-8.06152e-06
-8.16283e-06
-8.40767e-06
-6.93789e-06
-8.70648e-06
-5.70124e-06
-8.93991e-06
-4.5182e-06
-9.08369e-06
-3.37496e-06
-9.09843e-06
-2.28476e-06
-8.90532e-06
-1.31784e-06
-8.36585e-06
-5.17998e-07
-7.29131e-06
1.17012e-07
-5.22031e-06
-5.1522e-07
-1.82764e-06
1.27535e-06
5.19444e-06
-4.3381e-06
1.71573e-05
-1.89126e-07
2.18859e-05
2.02938e-05
4.00002e-06
0.000106892
1.32828e-05
0.000213811
0.000194598
-6.20443e-06
-1.01894e-05
-6.64828e-06
-8.96518e-06
-7.05694e-06
-7.75416e-06
-7.44087e-06
-6.55395e-06
-7.77155e-06
-5.37054e-06
-8.07421e-06
-4.21553e-06
-8.31293e-06
-3.13624e-06
-8.4464e-06
-2.15128e-06
-8.41718e-06
-1.34704e-06
-8.10518e-06
-8.29984e-07
-7.26015e-06
-7.28014e-07
-5.39699e-06
-2.37837e-06
-1.95336e-06
-2.16828e-06
5.70278e-06
-1.19942e-05
2.17544e-05
-1.62407e-05
3.32813e-05
8.76689e-06
3.97129e-05
0.00010046
3.46083e-05
0.000218916
0.000229206
-5.11743e-06
-9.72543e-06
-5.573e-06
-8.50961e-06
-6.01024e-06
-7.31692e-06
-6.41415e-06
-6.15005e-06
-6.77754e-06
-5.00715e-06
-7.09398e-06
-3.89909e-06
-7.39871e-06
-2.83151e-06
-7.68351e-06
-1.86648e-06
-7.95554e-06
-1.075e-06
-8.19477e-06
-5.90739e-07
-8.26447e-06
-6.58309e-07
-8.03151e-06
-2.61132e-06
-6.93936e-06
-3.26043e-06
-2.89225e-06
-1.60413e-05
5.98533e-06
-2.51183e-05
3.51019e-05
-2.03496e-05
7.41228e-05
6.14395e-05
6.52349e-05
0.000227804
0.000294441
-3.92362e-06
-9.38687e-06
-4.33759e-06
-8.09565e-06
-4.77387e-06
-6.88064e-06
-5.21017e-06
-5.71375e-06
-5.64267e-06
-4.57467e-06
-6.07138e-06
-3.47038e-06
-6.50761e-06
-2.39529e-06
-6.97852e-06
-1.39557e-06
-7.52224e-06
-5.31284e-07
-8.21579e-06
1.02822e-07
-9.22687e-06
3.52777e-07
-1.10344e-05
-8.03768e-07
-1.18975e-05
-2.39734e-06
-1.35022e-05
-1.44366e-05
-1.3347e-05
-2.52735e-05
1.99921e-05
-5.36888e-05
7.32335e-05
8.19813e-06
9.16107e-05
0.000209427
0.000386052
-2.91117e-06
-3.06508e-06
-3.2898e-06
-3.53686e-06
-3.76754e-06
-3.97204e-06
-4.14975e-06
-4.34156e-06
-4.63161e-06
-5.12454e-06
-5.90999e-06
-7.29392e-06
-8.53869e-06
-8.22926e-06
-1.06658e-05
6.22878e-06
2.86432e-05
6.80135e-05
)
;

boundaryField
{
    leftWall
    {
        type            calculated;
        value           nonuniform 0();
    }
    rightWall
    {
        type            calculated;
        value           uniform 0;
    }
    lowerWall
    {
        type            calculated;
        value           nonuniform 0();
    }
    atmosphere
    {
        type            calculated;
        value           nonuniform List<scalar> 
23
(
-5.38632e-06
-5.06747e-06
-4.75893e-06
-4.45939e-06
-9.35481e-06
-7.94175e-06
-6.65593e-06
-5.4667e-06
-4.34399e-06
-3.26588e-06
-2.21758e-06
-1.20376e-06
-2.41238e-07
5.95754e-07
1.13823e-06
5.80168e-07
-1.15257e-06
-1.4746e-05
-2.2837e-05
-7.05833e-05
-1.42163e-05
0.000170056
0.000454065
)
;
    }
    defaultFaces
    {
        type            empty;
        value           nonuniform 0();
    }
    procBoundary3to1
    {
        type            processor;
        value           nonuniform List<scalar> 
23
(
1.65434e-05
1.65701e-05
1.65654e-05
1.68683e-05
4.00622e-05
4.04568e-05
3.89246e-05
3.58457e-05
3.15035e-05
2.67465e-05
1.88897e-05
1.09291e-05
1.67588e-06
-1.22305e-05
-2.86777e-05
-5.91186e-05
-0.000120134
-0.000198535
-0.000183219
-0.000191026
-0.000217685
-4.54057e-05
-6.54832e-05
)
;
    }
    procBoundary3to2
    {
        type            processor;
        value           nonuniform List<scalar> 
25
(
2.67338e-05
2.7611e-05
2.51124e-05
2.50811e-05
2.32246e-05
2.259e-05
2.14208e-05
2.03007e-05
1.90325e-05
1.78386e-05
1.66059e-05
1.54482e-05
1.43078e-05
1.32038e-05
1.21278e-05
1.10741e-05
1.0041e-05
9.02313e-06
8.01763e-06
7.01582e-06
6.00196e-06
4.94379e-06
4.0149e-06
3.44267e-06
3.18305e-06
)
;
    }
}


// ************************************************************************* //
