/*--------------------------------*- C++ -*----------------------------------*\
| =========                 |                                                 |
| \\      /  F ield         | OpenFOAM: The Open Source CFD Toolbox           |
|  \\    /   O peration     | Version:  2.4.0                                 |
|   \\  /    A nd           | Web:      www.OpenFOAM.org                      |
|    \\/     M anipulation  |                                                 |
\*---------------------------------------------------------------------------*/
FoamFile
{
    version     2.0;
    format      ascii;
    class       surfaceScalarField;
    location    "0.45";
    object      phi.water;
}
// * * * * * * * * * * * * * * * * * * * * * * * * * * * * * * * * * * * * * //

dimensions      [0 3 -1 0 0 0 0];

internalField   nonuniform List<scalar> 
1102
(
-2.76598e-05
-1.56242e-05
-2.87651e-05
-1.54722e-05
-3.00279e-05
-1.53085e-05
-1.55487e-05
-3.13529e-05
-2.84537e-05
-1.47794e-05
-2.92935e-05
-1.46293e-05
-3.00041e-05
-1.45952e-05
-1.44934e-05
-3.10566e-05
-2.59494e-05
-1.39395e-05
-2.68787e-05
-1.36982e-05
-2.78056e-05
-1.36654e-05
-1.33281e-05
-2.89685e-05
-2.57237e-05
-1.32941e-05
-2.65655e-05
-1.2854e-05
-2.75419e-05
-1.26867e-05
-1.22045e-05
-2.86633e-05
-2.40825e-05
-1.24331e-05
-2.50923e-05
-1.18423e-05
-2.61647e-05
-1.16121e-05
-1.11687e-05
-2.71986e-05
-2.34997e-05
-1.15204e-05
-2.43624e-05
-1.09779e-05
-2.52663e-05
-1.07062e-05
-1.03532e-05
-2.60804e-05
-2.22018e-05
-1.07366e-05
-2.28885e-05
-1.02895e-05
-2.36498e-05
-9.94327e-06
-9.60108e-06
-2.44007e-05
-2.09681e-05
-1.00666e-05
-2.15376e-05
-9.71863e-06
-2.21354e-05
-9.34411e-06
-8.95432e-06
-2.27811e-05
-1.96746e-05
-9.42202e-06
-2.02677e-05
-9.12412e-06
-2.0826e-05
-8.78468e-06
-8.42987e-06
-2.13496e-05
-1.83706e-05
-8.88782e-06
-1.88738e-05
-8.61999e-06
-1.93442e-05
-8.31314e-06
-7.99268e-06
-1.97808e-05
-1.71001e-05
-8.39146e-06
-1.75691e-05
-8.14991e-06
-1.80086e-05
-7.87286e-06
-7.56341e-06
-1.84374e-05
-1.58712e-05
-7.96647e-06
-1.62907e-05
-7.72977e-06
-1.66916e-05
-7.47125e-06
-7.19018e-06
-1.70644e-05
-1.46852e-05
-7.58718e-06
-1.50627e-05
-7.35144e-06
-1.54275e-05
-7.10602e-06
-6.84478e-06
-1.57725e-05
-1.35368e-05
-7.25258e-06
-1.38725e-05
-7.01539e-06
-1.42023e-05
-6.7757e-06
-6.52904e-06
-1.45179e-05
-1.24275e-05
-6.95128e-06
-1.27274e-05
-6.71476e-06
-1.30244e-05
-6.47858e-06
-6.24069e-06
-1.33126e-05
-1.13464e-05
-6.67764e-06
-1.16176e-05
-6.44339e-06
-1.18864e-05
-6.20947e-06
-5.97587e-06
-1.21511e-05
-1.02911e-05
-6.42631e-06
-1.0538e-05
-6.19595e-06
-1.07838e-05
-5.96363e-06
-5.73477e-06
-1.10248e-05
-9.25408e-06
-6.19446e-06
-9.48337e-06
-5.96666e-06
-9.70979e-06
-5.73693e-06
-5.5105e-06
-9.93409e-06
-8.23362e-06
-5.9776e-06
-8.44671e-06
-5.75315e-06
-8.65771e-06
-5.52605e-06
-5.30021e-06
-8.86792e-06
-7.21949e-06
-5.77339e-06
-7.42216e-06
-5.5506e-06
-7.62295e-06
-5.32511e-06
-5.10007e-06
-7.82312e-06
-6.199e-06
-5.57576e-06
-6.39583e-06
-5.3535e-06
-6.59295e-06
-5.12821e-06
-4.90418e-06
-6.78882e-06
-5.14819e-06
-5.37107e-06
-5.35158e-06
-5.15036e-06
-5.55e-06
-4.92972e-06
-4.70763e-06
-5.74669e-06
-4.13396e-06
-5.25168e-06
-4.28763e-06
-4.99643e-06
-4.46449e-06
-4.7531e-06
-4.51913e-06
-4.65307e-06
-3.42241e-06
-5.27203e-06
-3.44021e-06
-4.97904e-06
-3.49373e-06
-4.69978e-06
-4.42811e-06
-3.58497e-06
-3.0662e-06
-2.975e-06
-2.91319e-06
-2.87911e-06
-3.49787e-05
-3.64534e-05
-3.94794e-05
-3.59696e-05
-4.46479e-05
-3.37757e-05
-5.05802e-05
-2.99324e-05
-5.59441e-05
-2.617e-05
-6.1417e-05
-2.1307e-05
-6.68664e-05
-1.34817e-05
-7.21556e-05
-5.68359e-06
-7.77162e-05
3.83543e-06
-8.36112e-05
1.80716e-05
-8.81859e-05
3.31921e-05
-8.75955e-05
5.84592e-05
-6.64669e-05
9.8927e-05
-1.78767e-05
0.000149887
2.48094e-05
0.000140473
2.66028e-05
0.000189199
1.21722e-05
0.000243068
8.10793e-06
3.87031e-05
7.14162e-05
-3.43194e-05
-3.31871e-05
-3.84646e-05
-3.18195e-05
-4.27227e-05
-2.95122e-05
-4.67979e-05
-2.5851e-05
-5.09858e-05
-2.19764e-05
-5.53408e-05
-1.69464e-05
-5.94996e-05
-9.31755e-06
-6.32494e-05
-1.92823e-06
-6.66146e-05
7.20635e-06
-6.90104e-05
2.0473e-05
-6.90203e-05
3.32074e-05
-6.35138e-05
5.2958e-05
-4.4088e-05
7.95058e-05
-1.08412e-05
0.000116641
2.60631e-05
0.000103573
3.0147e-05
0.00018512
1.46777e-05
0.000265566
9.23769e-06
3.73852e-05
7.84201e-05
-3.22612e-05
-2.98911e-05
-3.61628e-05
-2.79139e-05
-3.99211e-05
-2.57495e-05
-4.30882e-05
-2.26793e-05
-4.66656e-05
-1.83944e-05
-5.02513e-05
-1.33565e-05
-5.29035e-05
-6.66125e-06
-5.50594e-05
2.31719e-07
-5.66319e-05
8.78293e-06
-5.63251e-05
2.01702e-05
-5.35037e-05
3.03901e-05
-4.55295e-05
4.49877e-05
-2.73448e-05
6.13247e-05
2.76319e-06
8.65367e-05
3.52653e-05
7.10737e-05
3.69975e-05
0.00018339
1.32766e-05
0.000280773
1.10104e-05
4.07871e-05
8.66538e-05
-3.15739e-05
-2.69777e-05
-3.43952e-05
-2.50891e-05
-3.70583e-05
-2.30828e-05
-3.96872e-05
-2.00466e-05
-4.26074e-05
-1.54706e-05
-4.51584e-05
-1.08022e-05
-4.65923e-05
-5.22416e-06
-4.78393e-05
1.48195e-06
-4.79259e-05
8.87283e-06
-4.60268e-05
1.82743e-05
-4.17405e-05
2.61069e-05
-3.3027e-05
3.62775e-05
-1.80341e-05
4.63349e-05
1.14415e-05
5.70637e-05
3.95239e-05
4.2995e-05
4.6284e-05
0.00017663
2.53583e-05
0.000283617
1.19741e-05
5.65442e-05
9.65329e-05
-2.96055e-05
-2.45685e-05
-3.20003e-05
-2.26912e-05
-3.41889e-05
-2.08913e-05
-3.65268e-05
-1.77056e-05
-3.879e-05
-1.32046e-05
-4.02501e-05
-9.33935e-06
-4.11214e-05
-4.35013e-06
-4.17484e-05
2.11181e-06
-4.06653e-05
7.79258e-06
-3.80809e-05
1.56927e-05
-3.36969e-05
2.17258e-05
-2.55671e-05
2.81507e-05
-1.4786e-05
3.55565e-05
6.32006e-06
3.59609e-05
1.79588e-05
3.13574e-05
3.19412e-05
0.000162652
3.58455e-05
0.000275088
1.36659e-05
9.33444e-05
0.000104332
-2.7942e-05
-2.27048e-05
-2.96962e-05
-2.09347e-05
-3.16034e-05
-1.89816e-05
-3.35425e-05
-1.57641e-05
-3.50749e-05
-1.16698e-05
-3.60002e-05
-8.41162e-06
-3.65135e-05
-3.83438e-06
-3.63945e-05
1.99536e-06
-3.48999e-05
6.30059e-06
-3.1944e-05
1.27394e-05
-2.79516e-05
1.77361e-05
-2.1138e-05
2.13396e-05
-1.42174e-05
2.86387e-05
-2.86219e-06
2.46076e-05
-5.7267e-06
3.42244e-05
1.8507e-05
0.000138421
3.78837e-05
0.000255316
1.33098e-05
0.000143563
0.000110777
-2.59841e-05
-2.11197e-05
-2.7536e-05
-1.93809e-05
-2.92592e-05
-1.72564e-05
-3.07587e-05
-1.42627e-05
-3.16951e-05
-1.07314e-05
-3.23977e-05
-7.707e-06
-3.25548e-05
-3.67488e-06
-3.18312e-05
1.27408e-06
-3.02649e-05
4.73679e-06
-2.71924e-05
9.6693e-06
-2.35723e-05
1.41185e-05
-1.77046e-05
1.54746e-05
-1.26997e-05
2.36358e-05
-5.12811e-06
1.70384e-05
-6.90395e-06
3.6e-05
1.82712e-05
0.000113249
4.34905e-05
0.000229914
6.29847e-06
0.000185467
0.000120068
-2.42073e-05
-1.96921e-05
-2.55977e-05
-1.79889e-05
-2.6975e-05
-1.58775e-05
-2.81112e-05
-1.31248e-05
-2.87523e-05
-1.00885e-05
-2.92077e-05
-7.24966e-06
-2.91355e-05
-3.74495e-06
-2.81282e-05
2.68958e-07
-2.65417e-05
3.1525e-06
-2.35509e-05
6.68076e-06
-2.01361e-05
1.07061e-05
-1.48047e-05
1.01452e-05
-1.00411e-05
1.88741e-05
-2.54034e-06
9.53854e-06
1.29884e-07
3.33311e-05
2.23142e-05
9.10517e-05
3.91808e-05
0.000212971
2.24343e-06
0.000212716
0.000133515
-2.24742e-05
-1.85665e-05
-2.36921e-05
-1.67698e-05
-2.48131e-05
-1.47552e-05
-2.57093e-05
-1.22272e-05
-2.62262e-05
-9.57025e-06
-2.6468e-05
-7.00591e-06
-2.62087e-05
-4.00241e-06
-2.51938e-05
-7.43779e-07
-2.36533e-05
1.61396e-06
-2.09178e-05
3.94746e-06
-1.75687e-05
7.35916e-06
-1.2577e-05
5.15551e-06
-7.09883e-06
1.33975e-05
9.99022e-07
1.44309e-06
1.00471e-05
2.42813e-05
2.9059e-05
7.18289e-05
4.48448e-05
0.000197068
5.79779e-06
0.000239618
0.000155408
-2.08709e-05
-1.74754e-05
-2.19153e-05
-1.57245e-05
-2.28531e-05
-1.38164e-05
-2.3564e-05
-1.1515e-05
-2.39727e-05
-9.16023e-06
-2.41124e-05
-6.86447e-06
-2.38035e-05
-4.30955e-06
-2.28762e-05
-1.6693e-06
-2.15122e-05
2.51748e-07
-1.92166e-05
1.65382e-06
-1.60469e-05
4.19143e-06
-1.18342e-05
9.44772e-07
-5.70868e-06
7.27434e-06
2.00302e-06
-6.26657e-06
1.48032e-05
1.14249e-05
3.41088e-05
5.22954e-05
5.56873e-05
0.000174642
1.5912e-05
0.000256364
0.00019298
-1.93437e-05
-1.65685e-05
-2.02437e-05
-1.48238e-05
-2.10428e-05
-1.30162e-05
-2.16251e-05
-1.09319e-05
-2.19768e-05
-8.80704e-06
-2.20932e-05
-6.74668e-06
-2.1832e-05
-4.56913e-06
-2.1107e-05
-2.39305e-06
-2.00335e-05
-8.2011e-07
-1.83567e-05
-2.12202e-08
-1.57903e-05
1.62699e-06
-1.30244e-05
-1.81867e-06
-7.22795e-06
1.48031e-06
-9.86187e-07
-1.25041e-05
1.03807e-05
-1.46565e-08
2.8418e-05
3.42022e-05
4.67102e-05
0.000148727
2.11577e-05
0.000258531
0.000242502
-1.78996e-05
-1.57328e-05
-1.86817e-05
-1.40411e-05
-1.9371e-05
-1.23262e-05
-1.98791e-05
-1.04229e-05
-2.02044e-05
-8.48048e-06
-2.03405e-05
-6.60912e-06
-2.01972e-05
-4.71129e-06
-1.97274e-05
-2.86189e-06
-1.90378e-05
-1.50865e-06
-1.80596e-05
-9.97853e-07
-1.65671e-05
1.36724e-07
-1.54915e-05
-2.89171e-06
-1.18431e-05
-2.16407e-06
-1.09747e-05
-1.3367e-05
-4.58183e-06
-6.42671e-06
7.13057e-07
2.81696e-05
1.69216e-05
0.000129262
1.32616e-05
0.000275399
0.000286713
-1.65202e-05
-1.49848e-05
-1.72085e-05
-1.33522e-05
-1.78201e-05
-1.17139e-05
-1.82837e-05
-9.95809e-06
-1.86034e-05
-8.15973e-06
-1.87764e-05
-6.43494e-06
-1.87793e-05
-4.70785e-06
-1.85517e-05
-3.08898e-06
-1.82636e-05
-1.79617e-06
-1.79934e-05
-1.2666e-06
-1.76044e-05
-2.50012e-07
-1.81144e-05
-2.37854e-06
-1.78752e-05
-2.39926e-06
-2.17865e-05
-9.45022e-06
-2.27974e-05
-5.40314e-06
-2.54388e-05
3.15734e-05
-1.43287e-05
0.000125094
7.69743e-06
0.000231367
0.000282364
-1.5204e-05
-1.42984e-05
-1.58224e-05
-1.27333e-05
-1.63726e-05
-1.1163e-05
-1.68063e-05
-9.52346e-06
-1.71269e-05
-7.83799e-06
-1.7344e-05
-6.21721e-06
-1.74706e-05
-4.58098e-06
-1.74684e-05
-3.0916e-06
-1.74839e-05
-1.78042e-06
-1.77664e-05
-9.82886e-07
-1.81605e-05
1.46471e-07
-1.97531e-05
-7.82671e-07
-2.19588e-05
-1.90133e-07
-2.83722e-05
-3.03282e-06
-3.44529e-05
7.20721e-07
-4.10625e-05
4.19449e-05
-1.57965e-05
0.000123236
5.18098e-07
0.000207622
0.000216524
-1.39424e-05
-1.36683e-05
-1.45049e-05
-1.21704e-05
-1.50072e-05
-1.06598e-05
-1.54214e-05
-9.10837e-06
-1.57309e-05
-7.5276e-06
-1.59862e-05
-5.96173e-06
-1.61703e-05
-4.39745e-06
-1.63295e-05
-2.93341e-06
-1.65579e-05
-1.55218e-06
-1.71386e-05
-4.01083e-07
-1.79945e-05
1.00501e-06
-2.00494e-05
1.27514e-06
-2.31171e-05
2.88091e-06
-2.99873e-05
3.84082e-06
-3.70231e-05
7.96655e-06
-3.80494e-05
5.02738e-05
-1.23729e-05
0.000114397
4.23543e-06
0.000201914
0.00019978
-1.27323e-05
-1.3087e-05
-1.3252e-05
-1.16502e-05
-1.37147e-05
-1.01964e-05
-1.41083e-05
-8.71383e-06
-1.44221e-05
-7.2133e-06
-1.46875e-05
-5.6965e-06
-1.48994e-05
-4.18686e-06
-1.51283e-05
-2.70589e-06
-1.54147e-05
-1.26624e-06
-1.5998e-05
1.83368e-07
-1.68671e-05
1.8768e-06
-1.87061e-05
3.11704e-06
-2.15549e-05
5.73302e-06
-2.74148e-05
9.70391e-06
-3.34979e-05
1.44487e-05
-2.91236e-05
5.5574e-05
-1.2186e-05
0.00011414
2.50321e-06
0.000185599
0.000196676
-1.15664e-05
-1.25451e-05
-1.20506e-05
-1.11654e-05
-1.24858e-05
-9.76051e-06
-1.28546e-05
-8.34433e-06
-1.31713e-05
-6.89637e-06
-1.34249e-05
-5.44372e-06
-1.36324e-05
-3.98106e-06
-1.38318e-05
-2.50814e-06
-1.40782e-05
-1.02065e-06
-1.44612e-05
5.68037e-07
-1.50192e-05
2.43695e-06
-1.61563e-05
4.25748e-06
-1.79851e-05
7.56353e-06
-2.15627e-05
1.32843e-05
-2.50246e-05
1.80346e-05
-2.15114e-05
5.9157e-05
-1.18602e-05
0.000117063
1.93724e-06
0.000170645
0.000195431
-1.04401e-05
-1.20389e-05
-1.08965e-05
-1.07085e-05
-1.13076e-05
-9.34877e-06
-1.16668e-05
-7.98463e-06
-1.19693e-05
-6.59398e-06
-1.22095e-05
-5.20481e-06
-1.23992e-05
-3.79322e-06
-1.25271e-05
-2.38212e-06
-1.26321e-05
-9.16079e-07
-1.27228e-05
6.59961e-07
-1.27895e-05
2.50623e-06
-1.29085e-05
4.3786e-06
-1.33868e-05
8.04304e-06
-1.32168e-05
1.31162e-05
-1.33363e-05
1.81561e-05
-8.9428e-06
5.38902e-05
-7.59421e-06
0.000113576
3.9724e-06
0.000171425
0.000193675
-9.34624e-06
-1.15604e-05
-9.78407e-06
-1.02703e-05
-1.01791e-05
-8.95321e-06
-1.05287e-05
-7.63483e-06
-1.08237e-05
-6.29951e-06
-1.10461e-05
-4.98381e-06
-1.11908e-05
-3.6505e-06
-1.12514e-05
-2.32348e-06
-1.12036e-05
-9.6401e-07
-1.09892e-05
4.4636e-07
-1.05303e-05
2.04984e-06
-9.46289e-06
3.31155e-06
-8.50677e-06
7.08771e-06
-4.1266e-06
8.73603e-06
-2.46521e-06
1.64938e-05
1.34714e-05
3.66642e-05
9.5971e-07
9.1088e-05
1.13015e-05
0.000185863
0.000187414
-8.28082e-06
-1.11026e-05
-8.70932e-06
-9.84146e-06
-9.09818e-06
-8.56401e-06
-9.44239e-06
-7.29062e-06
-9.73538e-06
-6.00719e-06
-9.96134e-06
-4.75938e-06
-1.00869e-05
-3.52704e-06
-1.01038e-05
-2.30808e-06
-9.93517e-06
-1.13327e-06
-9.50087e-06
1.33209e-08
-8.63396e-06
1.18368e-06
-6.87e-06
1.54779e-06
-4.44311e-06
4.65969e-06
1.6165e-06
2.67462e-06
6.34847e-06
1.17631e-05
1.79938e-05
2.50015e-05
6.90328e-06
8.90048e-05
2.25522e-05
0.000218427
0.000180828
-7.23899e-06
-1.06524e-05
-7.66512e-06
-9.41513e-06
-8.05968e-06
-8.1693e-06
-8.4056e-06
-6.9449e-06
-8.70462e-06
-5.70894e-06
-8.93886e-06
-4.52663e-06
-9.08375e-06
-3.38406e-06
-9.09913e-06
-2.29417e-06
-8.90549e-06
-1.3275e-06
-8.3641e-06
-5.27543e-07
-7.28776e-06
1.06855e-07
-5.21514e-06
-5.26107e-07
-1.82138e-06
1.26273e-06
5.20189e-06
-4.35183e-06
1.71623e-05
-2.05756e-07
2.18826e-05
2.02762e-05
6.63483e-06
0.000106874
3.30912e-05
0.000245472
0.000195264
-6.20365e-06
-1.01954e-05
-6.6472e-06
-8.97156e-06
-7.05554e-06
-7.76095e-06
-7.43935e-06
-6.56139e-06
-7.77029e-06
-5.37867e-06
-8.07371e-06
-4.22449e-06
-8.31325e-06
-3.1457e-06
-8.4473e-06
-2.1613e-06
-8.41727e-06
-1.35702e-06
-8.10397e-06
-8.40619e-07
-7.2572e-06
-7.39313e-07
-5.39316e-06
-2.39183e-06
-1.94816e-06
-2.18349e-06
5.70839e-06
-1.20126e-05
2.1759e-05
-1.62605e-05
3.32782e-05
8.74949e-06
3.53741e-05
0.000100469
4.85358e-05
0.000234999
0.000231291
-5.11693e-06
-9.73176e-06
-5.57227e-06
-8.51622e-06
-6.00937e-06
-7.324e-06
-6.4132e-06
-6.1576e-06
-6.77697e-06
-5.0154e-06
-7.09389e-06
-3.90775e-06
-7.39951e-06
-2.84064e-06
-7.68436e-06
-1.8754e-06
-7.95616e-06
-1.08403e-06
-8.19412e-06
-5.99579e-07
-8.26331e-06
-6.68329e-07
-8.02895e-06
-2.62205e-06
-6.93637e-06
-3.27381e-06
-2.88644e-06
-1.6056e-05
5.99339e-06
-2.51359e-05
3.51188e-05
-2.03643e-05
7.34761e-05
6.14429e-05
6.96582e-05
0.00022825
0.000296844
-3.92337e-06
-9.39346e-06
-4.33723e-06
-8.10248e-06
-4.77339e-06
-6.88777e-06
-5.20979e-06
-5.72131e-06
-5.64243e-06
-4.58256e-06
-6.07168e-06
-3.47854e-06
-6.50822e-06
-2.40326e-06
-6.97947e-06
-1.40314e-06
-7.52274e-06
-5.38099e-07
-8.2161e-06
9.62591e-08
-9.22635e-06
3.46359e-07
-1.10339e-05
-8.10756e-07
-1.18952e-05
-2.40481e-06
-1.3498e-05
-1.44458e-05
-1.33361e-05
-2.52852e-05
2.00161e-05
-5.37044e-05
7.33012e-05
8.17368e-06
9.61162e-05
0.000209344
0.000391076
-2.9111e-06
-3.06496e-06
-3.28967e-06
-3.53674e-06
-3.76751e-06
-3.97217e-06
-4.15004e-06
-4.34188e-06
-4.63186e-06
-5.12464e-06
-5.91005e-06
-7.29371e-06
-8.53778e-06
-8.22705e-06
-1.06593e-05
6.24271e-06
2.86943e-05
0.000122741
)
;

boundaryField
{
    leftWall
    {
        type            fixedValue;
        value           nonuniform 0();
    }
    rightWall
    {
        type            fixedValue;
        value           uniform 0;
    }
    lowerWall
    {
        type            fixedValue;
        value           nonuniform 0();
    }
    atmosphere
    {
        type            calculated;
        value           nonuniform List<scalar> 
23
(
-5.38925e-06
-5.07036e-06
-4.76182e-06
-4.46226e-06
-9.36151e-06
-7.94861e-06
-6.66307e-06
-5.47417e-06
-4.35174e-06
-3.27368e-06
-2.22509e-06
-1.21057e-06
-2.47278e-07
5.9037e-07
1.13312e-06
5.75156e-07
-1.15832e-06
-1.47526e-05
-2.28479e-05
-7.05988e-05
-1.4271e-05
0.00016983
0.000408614
)
;
    }
    defaultFaces
    {
        type            empty;
        value           nonuniform 0();
    }
    procBoundary3to1
    {
        type            processor;
        value           nonuniform List<scalar> 
23
(
1.65528e-05
1.65793e-05
1.65746e-05
1.68778e-05
4.00854e-05
4.04834e-05
3.89521e-05
3.58801e-05
3.15415e-05
2.67921e-05
1.89401e-05
1.09861e-05
1.73759e-06
-1.21629e-05
-2.86059e-05
-5.90395e-05
-0.00012005
-0.000198488
-0.000183154
-0.000190978
-0.00021756
-4.41871e-05
-6.57082e-05
)
;
    }
    procBoundary3to2
    {
        type            processor;
        value           nonuniform List<scalar> 
25
(
2.67345e-05
2.76111e-05
2.51123e-05
2.50809e-05
2.32244e-05
2.25896e-05
2.14205e-05
2.03003e-05
1.90322e-05
1.78381e-05
1.66056e-05
1.54476e-05
1.43074e-05
1.32033e-05
1.21274e-05
1.10735e-05
1.00406e-05
9.02264e-06
8.01736e-06
7.01541e-06
6.00181e-06
4.94352e-06
4.01483e-06
3.44254e-06
3.18286e-06
)
;
    }
}


// ************************************************************************* //
