/*--------------------------------*- C++ -*----------------------------------*\
| =========                 |                                                 |
| \\      /  F ield         | OpenFOAM: The Open Source CFD Toolbox           |
|  \\    /   O peration     | Version:  2.4.0                                 |
|   \\  /    A nd           | Web:      www.OpenFOAM.org                      |
|    \\/     M anipulation  |                                                 |
\*---------------------------------------------------------------------------*/
FoamFile
{
    version     2.0;
    format      ascii;
    class       surfaceScalarField;
    location    "0.45";
    object      phi.air;
}
// * * * * * * * * * * * * * * * * * * * * * * * * * * * * * * * * * * * * * //

dimensions      [0 3 -1 0 0 0 0];

internalField   nonuniform List<scalar> 
1102
(
-2.76613e-05
-1.5616e-05
-2.87675e-05
-1.54639e-05
-3.00325e-05
-1.53003e-05
-1.55406e-05
-3.13602e-05
-2.8455e-05
-1.4772e-05
-2.92968e-05
-1.46221e-05
-3.00093e-05
-1.45879e-05
-1.44861e-05
-3.10638e-05
-2.59514e-05
-1.3933e-05
-2.68819e-05
-1.36916e-05
-2.78109e-05
-1.36589e-05
-1.33216e-05
-2.89755e-05
-2.57258e-05
-1.32883e-05
-2.65691e-05
-1.28482e-05
-2.75471e-05
-1.26809e-05
-1.21987e-05
-2.867e-05
-2.40849e-05
-1.2428e-05
-2.50959e-05
-1.18372e-05
-2.61698e-05
-1.1607e-05
-1.11636e-05
-2.7205e-05
-2.35021e-05
-1.15159e-05
-2.43659e-05
-1.09734e-05
-2.52713e-05
-1.07017e-05
-1.03486e-05
-2.60863e-05
-2.22041e-05
-1.07326e-05
-2.2892e-05
-1.02855e-05
-2.36544e-05
-9.93923e-06
-9.59695e-06
-2.44061e-05
-2.09703e-05
-1.0063e-05
-2.15408e-05
-9.71499e-06
-2.21396e-05
-9.34047e-06
-8.95059e-06
-2.2786e-05
-1.96768e-05
-9.41884e-06
-2.02709e-05
-9.12091e-06
-2.08299e-05
-8.78138e-06
-8.42649e-06
-2.13541e-05
-1.83727e-05
-8.88484e-06
-1.88766e-05
-8.61696e-06
-1.93479e-05
-8.31013e-06
-7.98957e-06
-1.97848e-05
-1.71021e-05
-8.38878e-06
-1.75719e-05
-8.1472e-06
-1.80119e-05
-7.87007e-06
-7.56054e-06
-1.8441e-05
-1.58731e-05
-7.96391e-06
-1.62931e-05
-7.72717e-06
-1.66945e-05
-7.46863e-06
-7.18748e-06
-1.70676e-05
-1.46869e-05
-7.58485e-06
-1.50651e-05
-7.34907e-06
-1.54301e-05
-7.10356e-06
-6.84225e-06
-1.57754e-05
-1.35384e-05
-7.25027e-06
-1.38744e-05
-7.01303e-06
-1.42047e-05
-6.77335e-06
-6.52661e-06
-1.45203e-05
-1.24289e-05
-6.94913e-06
-1.27294e-05
-6.71259e-06
-1.30265e-05
-6.47631e-06
-6.23835e-06
-1.33147e-05
-1.13477e-05
-6.67547e-06
-1.16191e-05
-6.44117e-06
-1.18882e-05
-6.20725e-06
-5.97359e-06
-1.2153e-05
-1.02922e-05
-6.42426e-06
-1.05395e-05
-6.19387e-06
-1.07854e-05
-5.96145e-06
-5.73253e-06
-1.10264e-05
-9.25508e-06
-6.19231e-06
-9.48446e-06
-5.96447e-06
-9.71116e-06
-5.73475e-06
-5.50825e-06
-9.93544e-06
-8.23443e-06
-5.9755e-06
-8.44788e-06
-5.75102e-06
-8.65881e-06
-5.52383e-06
-5.29795e-06
-8.8691e-06
-7.22019e-06
-5.77114e-06
-7.42291e-06
-5.54832e-06
-7.62389e-06
-5.32284e-06
-5.09775e-06
-7.82409e-06
-6.19957e-06
-5.57352e-06
-6.39666e-06
-5.35123e-06
-6.59367e-06
-5.12586e-06
-4.9018e-06
-6.78961e-06
-5.14866e-06
-5.36866e-06
-5.35202e-06
-5.14791e-06
-5.55059e-06
-4.92728e-06
-4.70514e-06
-5.74726e-06
-4.13426e-06
-5.24929e-06
-4.28813e-06
-4.99401e-06
-4.46485e-06
-4.75058e-06
-4.51655e-06
-4.65345e-06
-3.42259e-06
-5.26938e-06
-3.4403e-06
-4.97634e-06
-3.49384e-06
-4.69706e-06
-4.42535e-06
-3.58505e-06
-3.06614e-06
-2.97501e-06
-2.91315e-06
-2.87911e-06
-3.4988e-05
-3.64345e-05
-3.94945e-05
-3.59504e-05
-4.46657e-05
-3.37535e-05
-5.06039e-05
-2.99074e-05
-5.5968e-05
-2.61394e-05
-6.14424e-05
-2.12721e-05
-6.68903e-05
-1.34418e-05
-7.21794e-05
-5.63997e-06
-7.77386e-05
3.88332e-06
-8.36314e-05
1.81234e-05
-8.82015e-05
3.32476e-05
-8.76016e-05
5.85186e-05
-6.64587e-05
9.89914e-05
-1.78712e-05
0.000149947
2.48168e-05
0.00014053
2.66008e-05
0.000189241
-4.26802e-06
0.000243242
-2.22557e-06
4.33923e-05
7.27831e-05
-3.43285e-05
-3.31698e-05
-3.84773e-05
-3.18016e-05
-4.27384e-05
-2.94924e-05
-4.68171e-05
-2.58287e-05
-5.10063e-05
-2.19502e-05
-5.5362e-05
-1.69165e-05
-5.95203e-05
-9.28357e-06
-6.32695e-05
-1.89072e-06
-6.66336e-05
7.24742e-06
-6.90276e-05
2.05173e-05
-6.90347e-05
3.32548e-05
-6.35243e-05
5.30082e-05
-4.40914e-05
7.95585e-05
-1.08389e-05
0.000116694
2.60678e-05
0.000103624
3.01451e-05
0.000185164
4.29062e-06
0.000265739
-1.15124e-06
4.47084e-05
8.43054e-05
-3.22697e-05
-2.98755e-05
-3.61739e-05
-2.78975e-05
-3.99347e-05
-2.57316e-05
-4.31042e-05
-2.26592e-05
-4.6683e-05
-1.83714e-05
-5.02692e-05
-1.33303e-05
-5.29212e-05
-6.63159e-06
-5.50765e-05
2.6459e-07
-5.6648e-05
8.81894e-06
-5.63397e-05
2.0209e-05
-5.35163e-05
3.04315e-05
-4.55395e-05
4.50315e-05
-2.73511e-05
6.13701e-05
2.76065e-06
8.65827e-05
3.52655e-05
7.11188e-05
3.69946e-05
0.000183435
2.41131e-05
0.000280892
2.29801e-06
5.94441e-05
8.94137e-05
-3.15819e-05
-2.69637e-05
-3.44051e-05
-2.50743e-05
-3.70701e-05
-2.30667e-05
-3.97008e-05
-2.00286e-05
-4.26222e-05
-1.54501e-05
-4.51735e-05
-1.07789e-05
-4.66073e-05
-5.19785e-06
-4.78538e-05
1.51113e-06
-4.79397e-05
8.90478e-06
-4.60393e-05
1.83087e-05
-4.17513e-05
2.61434e-05
-3.30357e-05
3.63159e-05
-1.80402e-05
4.63746e-05
1.14381e-05
5.71044e-05
3.95225e-05
4.30344e-05
4.62839e-05
0.000176673
4.47499e-05
0.000283675
7.36826e-06
9.08153e-05
9.71826e-05
-2.96128e-05
-2.4556e-05
-3.20091e-05
-2.2678e-05
-3.41992e-05
-2.08767e-05
-3.65384e-05
-1.76893e-05
-3.88024e-05
-1.31862e-05
-4.02628e-05
-9.31845e-06
-4.1134e-05
-4.32666e-06
-4.17607e-05
2.1378e-06
-4.06769e-05
7.82103e-06
-3.80914e-05
1.57232e-05
-3.3706e-05
2.1758e-05
-2.55746e-05
2.81845e-05
-1.47915e-05
3.55916e-05
6.31614e-06
3.59967e-05
1.79571e-05
3.13934e-05
3.19431e-05
0.000162687
4.05666e-05
0.000275114
2.54172e-06
0.00012153
0.000104183
-2.79487e-05
-2.26936e-05
-2.9704e-05
-2.09227e-05
-3.16123e-05
-1.89684e-05
-3.35522e-05
-1.57494e-05
-3.50852e-05
-1.16532e-05
-3.60108e-05
-8.3929e-06
-3.65241e-05
-3.81339e-06
-3.64048e-05
2.0185e-06
-3.49096e-05
6.32589e-06
-3.19528e-05
1.27665e-05
-2.79594e-05
1.77646e-05
-2.11446e-05
2.13697e-05
-1.42226e-05
2.86696e-05
-2.86523e-06
2.46394e-05
-5.72666e-06
3.42549e-05
1.85114e-05
0.000138449
3.82932e-05
0.000255334
1.60296e-06
0.000152796
0.00011171
-2.59901e-05
-2.11096e-05
-2.75428e-05
-1.937e-05
-2.92668e-05
-1.72445e-05
-3.07669e-05
-1.42493e-05
-3.17037e-05
-1.07164e-05
-3.24064e-05
-7.69022e-06
-3.25636e-05
-3.65622e-06
-3.18397e-05
1.2946e-06
-3.0273e-05
4.75918e-06
-2.71998e-05
9.69327e-06
-2.35791e-05
1.41438e-05
-1.77107e-05
1.55013e-05
-1.27047e-05
2.36636e-05
-5.13211e-06
1.70668e-05
-6.90428e-06
3.60271e-05
1.82692e-05
0.000113276
4.36671e-05
0.000229937
1.19752e-05
0.000186712
0.000122601
-2.42126e-05
-1.9683e-05
-2.56036e-05
-1.79791e-05
-2.69815e-05
-1.58666e-05
-2.8118e-05
-1.31128e-05
-2.87594e-05
-1.00751e-05
-2.9215e-05
-7.23466e-06
-2.91427e-05
-3.72847e-06
-2.81352e-05
2.87096e-07
-2.65483e-05
3.17224e-06
-2.3557e-05
6.70204e-06
-2.01419e-05
1.07287e-05
-1.481e-05
1.01695e-05
-1.0046e-05
1.88996e-05
-2.5448e-06
9.56557e-06
1.25096e-07
3.33572e-05
2.23093e-05
9.10919e-05
3.92493e-05
0.000212997
1.91759e-05
0.000213348
0.00013268
-2.2479e-05
-1.85581e-05
-2.36973e-05
-1.67608e-05
-2.48186e-05
-1.47453e-05
-2.57151e-05
-1.22163e-05
-2.6232e-05
-9.55816e-06
-2.6474e-05
-6.99267e-06
-2.62146e-05
-3.98787e-06
-2.51995e-05
-7.27975e-07
-2.36585e-05
1.63125e-06
-2.09227e-05
3.96621e-06
-1.75733e-05
7.37933e-06
-1.25813e-05
5.17744e-06
-7.1028e-06
1.34211e-05
9.94595e-07
1.46817e-06
1.00443e-05
2.43075e-05
2.90566e-05
7.20805e-05
4.49364e-05
0.000197118
2.52846e-05
0.000240199
0.000145099
-2.08751e-05
-1.74678e-05
-2.19197e-05
-1.57162e-05
-2.28577e-05
-1.38073e-05
-2.35688e-05
-1.15052e-05
-2.39775e-05
-9.14942e-06
-2.41174e-05
-6.85284e-06
-2.38083e-05
-4.2969e-06
-2.28806e-05
-1.65565e-06
-2.15161e-05
2.66775e-07
-1.92202e-05
1.67024e-06
-1.60502e-05
4.20934e-06
-1.18371e-05
9.64377e-07
-5.7116e-06
7.29559e-06
1.9998e-06
-6.24324e-06
1.48577e-05
1.14498e-05
3.41741e-05
5.27651e-05
5.57681e-05
0.000175526
4.72008e-05
0.000257087
0.000188852
-1.93474e-05
-1.65614e-05
-2.02475e-05
-1.48161e-05
-2.10468e-05
-1.3008e-05
-2.16291e-05
-1.09229e-05
-2.1981e-05
-8.79747e-06
-2.20974e-05
-6.73642e-06
-2.1836e-05
-4.5583e-06
-2.11103e-05
-2.38131e-06
-2.00362e-05
-8.07297e-07
-1.83589e-05
-7.01856e-09
-1.57922e-05
1.64258e-06
-1.30261e-05
-1.80172e-06
-7.22924e-06
1.49874e-06
-9.87832e-07
-1.24846e-05
1.04563e-05
6.02132e-09
2.87383e-05
3.44832e-05
4.70157e-05
0.000157273
4.86474e-05
0.000258051
0.000235582
-1.79028e-05
-1.57261e-05
-1.8685e-05
-1.40339e-05
-1.93744e-05
-1.23185e-05
-1.98826e-05
-1.04147e-05
-2.02081e-05
-8.47197e-06
-2.03442e-05
-6.60024e-06
-2.02004e-05
-4.70203e-06
-1.97298e-05
-2.85194e-06
-1.90393e-05
-1.49776e-06
-1.80606e-05
-9.85734e-07
-1.65679e-05
1.49899e-07
-1.5492e-05
-2.87769e-06
-1.18435e-05
-2.14976e-06
-1.09754e-05
-1.33528e-05
-4.55715e-06
-6.41206e-06
1.64308e-06
2.82852e-05
1.72833e-05
0.000141663
1.10374e-05
0.000264122
0.000246318
-1.6523e-05
-1.49786e-05
-1.72113e-05
-1.33455e-05
-1.7823e-05
-1.17068e-05
-1.8287e-05
-9.95073e-06
-1.86068e-05
-8.15212e-06
-1.87797e-05
-6.42727e-06
-1.87819e-05
-4.69985e-06
-1.85533e-05
-3.0805e-06
-1.82642e-05
-1.78684e-06
-1.79936e-05
-1.25636e-06
-1.76046e-05
-2.39111e-07
-1.81147e-05
-2.36753e-06
-1.78756e-05
-2.38895e-06
-2.1787e-05
-9.44132e-06
-2.28034e-05
-5.39568e-06
-2.61592e-05
3.16375e-05
-2.11144e-05
0.00013655
2.68095e-06
0.000240854
0.000242931
-1.52064e-05
-1.42924e-05
-1.58249e-05
-1.2727e-05
-1.63753e-05
-1.11564e-05
-1.68093e-05
-9.5167e-06
-1.71302e-05
-7.8312e-06
-1.7347e-05
-6.21041e-06
-1.74728e-05
-4.57402e-06
-1.74692e-05
-3.08413e-06
-1.74837e-05
-1.77226e-06
-1.7766e-05
-9.7414e-07
-1.81606e-05
1.55532e-07
-1.9754e-05
-7.74126e-07
-2.19604e-05
-1.82544e-07
-2.83747e-05
-3.02703e-06
-3.44951e-05
7.24519e-07
-4.48619e-05
4.19826e-05
-4.7825e-05
0.000138301
-4.34641e-05
0.000230868
0.000213858
-1.39445e-05
-1.36626e-05
-1.45071e-05
-1.21644e-05
-1.50099e-05
-1.06536e-05
-1.54244e-05
-9.10207e-06
-1.57342e-05
-7.52139e-06
-1.59891e-05
-5.95549e-06
-1.6172e-05
-4.39105e-06
-1.63296e-05
-2.92651e-06
-1.65571e-05
-1.54476e-06
-1.71379e-05
-3.9333e-07
-1.7995e-05
1.01257e-06
-2.00512e-05
1.28206e-06
-2.31202e-05
2.88654e-06
-2.9992e-05
3.84477e-06
-3.72378e-05
7.96926e-06
-4.51936e-05
4.98762e-05
-3.64343e-05
0.000128136
-3.3694e-05
0.000210283
0.000205017
-1.27342e-05
-1.30814e-05
-1.32541e-05
-1.16444e-05
-1.37173e-05
-1.01904e-05
-1.41114e-05
-8.70788e-06
-1.44254e-05
-7.20737e-06
-1.46903e-05
-5.69053e-06
-1.49007e-05
-4.1806e-06
-1.5128e-05
-2.6992e-06
-1.54136e-05
-1.25923e-06
-1.59974e-05
1.90537e-07
-1.68682e-05
1.88332e-06
-1.87089e-05
3.12278e-06
-2.15593e-05
5.73699e-06
-2.7421e-05
9.70643e-06
-3.39033e-05
1.44498e-05
-3.91782e-05
5.49782e-05
-2.56287e-05
0.000112958
-1.25176e-05
0.000189759
0.000195468
-1.15681e-05
-1.25397e-05
-1.20527e-05
-1.11598e-05
-1.24883e-05
-9.75471e-06
-1.28577e-05
-8.3385e-06
-1.31745e-05
-6.89047e-06
-1.34274e-05
-5.43763e-06
-1.36334e-05
-3.97459e-06
-1.38312e-05
-2.50134e-06
-1.40769e-05
-1.01357e-06
-1.44611e-05
5.74773e-07
-1.50209e-05
2.44311e-06
-1.61604e-05
4.26236e-06
-1.79906e-05
7.56716e-06
-2.15704e-05
1.32863e-05
-2.51551e-05
1.80339e-05
-2.94411e-05
5.91113e-05
-1.95666e-05
0.000101055
-9.26961e-06
0.000173297
0.000188632
-1.04416e-05
-1.20335e-05
-1.08984e-05
-1.07029e-05
-1.13101e-05
-9.343e-06
-1.16698e-05
-7.97871e-06
-1.19724e-05
-6.58787e-06
-1.22117e-05
-5.19831e-06
-1.23999e-05
-3.78632e-06
-1.25263e-05
-2.37492e-06
-1.26311e-05
-9.08803e-07
-1.2723e-05
6.66736e-07
-1.27922e-05
2.51229e-06
-1.29134e-05
4.38357e-06
-1.33935e-05
8.04729e-06
-1.32267e-05
1.31195e-05
-1.33505e-05
1.81577e-05
-8.12119e-06
5.38904e-05
1.28089e-06
9.42684e-05
-1.90671e-05
0.000173758
0.000183538
-9.34762e-06
-1.15549e-05
-9.78588e-06
-1.02646e-05
-1.01815e-05
-8.94731e-06
-1.05315e-05
-7.62867e-06
-1.08264e-05
-6.29293e-06
-1.10479e-05
-4.97676e-06
-1.11913e-05
-3.64298e-06
-1.12506e-05
-2.31561e-06
-1.1203e-05
-9.5636e-07
-1.099e-05
4.53748e-07
-1.05339e-05
2.05627e-06
-9.46816e-06
3.31782e-06
-8.51423e-06
7.09337e-06
-4.13698e-06
8.74223e-06
-2.48024e-06
1.6501e-05
1.47401e-05
3.66744e-05
2.8997e-05
8.61897e-05
-4.58204e-05
0.000208041
0.000198469
-8.28202e-06
-1.1097e-05
-8.71097e-06
-9.83562e-06
-9.10037e-06
-8.55787e-06
-9.44493e-06
-7.28407e-06
-9.73776e-06
-6.00008e-06
-9.96285e-06
-4.75165e-06
-1.00871e-05
-3.51876e-06
-1.01031e-05
-2.29953e-06
-9.93472e-06
-1.12474e-06
-9.5024e-06
2.14561e-08
-8.63764e-06
1.19153e-06
-6.87557e-06
1.55577e-06
-4.45021e-06
4.66802e-06
1.60804e-06
2.68398e-06
6.33533e-06
1.17737e-05
1.79873e-05
2.50224e-05
1.60114e-05
8.9006e-05
-4.69266e-05
0.000223651
0.000189131
-7.24e-06
-1.06466e-05
-7.66653e-06
-9.40906e-06
-8.06153e-06
-8.16284e-06
-8.40768e-06
-6.93789e-06
-8.70649e-06
-5.70124e-06
-8.93992e-06
-4.5182e-06
-9.08369e-06
-3.37496e-06
-9.09844e-06
-2.28477e-06
-8.90533e-06
-1.31784e-06
-8.36585e-06
-5.17998e-07
-7.29131e-06
1.17012e-07
-5.22031e-06
-5.15221e-07
-1.82764e-06
1.27535e-06
5.19444e-06
-4.3381e-06
1.71573e-05
-1.89126e-07
2.18859e-05
2.02938e-05
3.94332e-06
0.000106892
-5.51729e-06
0.000213058
0.000191484
-6.20443e-06
-1.01894e-05
-6.64829e-06
-8.96519e-06
-7.05695e-06
-7.75416e-06
-7.44087e-06
-6.55395e-06
-7.77156e-06
-5.37055e-06
-8.07422e-06
-4.21554e-06
-8.31294e-06
-3.13624e-06
-8.44641e-06
-2.15128e-06
-8.4172e-06
-1.34704e-06
-8.10519e-06
-8.29985e-07
-7.26015e-06
-7.28015e-07
-5.39699e-06
-2.37837e-06
-1.95336e-06
-2.16828e-06
5.70278e-06
-1.19942e-05
2.17544e-05
-1.62407e-05
3.32813e-05
8.76691e-06
3.97333e-05
0.00010046
2.53894e-05
0.000218838
0.000224962
-5.11743e-06
-9.72544e-06
-5.57301e-06
-8.50961e-06
-6.01025e-06
-7.31693e-06
-6.41415e-06
-6.15005e-06
-6.77755e-06
-5.00716e-06
-7.09399e-06
-3.8991e-06
-7.39872e-06
-2.83151e-06
-7.68352e-06
-1.86648e-06
-7.95555e-06
-1.075e-06
-8.19478e-06
-5.9074e-07
-8.26448e-06
-6.5831e-07
-8.03152e-06
-2.61132e-06
-6.93937e-06
-3.26043e-06
-2.89225e-06
-1.60414e-05
5.98533e-06
-2.51183e-05
3.51019e-05
-2.03496e-05
7.41244e-05
6.14395e-05
6.32436e-05
0.000227803
0.000292127
-3.92362e-06
-9.38688e-06
-4.33759e-06
-8.09566e-06
-4.77388e-06
-6.88065e-06
-5.21018e-06
-5.71376e-06
-5.64267e-06
-4.57467e-06
-6.07139e-06
-3.47038e-06
-6.50761e-06
-2.39529e-06
-6.97853e-06
-1.39557e-06
-7.52224e-06
-5.31285e-07
-8.2158e-06
1.02822e-07
-9.22688e-06
3.52777e-07
-1.10344e-05
-8.03768e-07
-1.18975e-05
-2.39734e-06
-1.35022e-05
-1.44366e-05
-1.3347e-05
-2.52735e-05
1.99921e-05
-5.36888e-05
7.32334e-05
8.19814e-06
9.04754e-05
0.000209426
0.000384194
-2.91118e-06
-3.06508e-06
-3.2898e-06
-3.53686e-06
-3.76754e-06
-3.97205e-06
-4.14975e-06
-4.34157e-06
-4.63161e-06
-5.12454e-06
-5.90999e-06
-7.29393e-06
-8.5387e-06
-8.22927e-06
-1.06658e-05
6.22877e-06
2.86432e-05
6.31032e-05
)
;

boundaryField
{
    leftWall
    {
        type            fixedValue;
        value           nonuniform 0();
    }
    rightWall
    {
        type            fixedValue;
        value           uniform 0;
    }
    lowerWall
    {
        type            fixedValue;
        value           nonuniform 0();
    }
    atmosphere
    {
        type            calculated;
        value           nonuniform List<scalar> 
23
(
-5.38632e-06
-5.06747e-06
-4.75893e-06
-4.45939e-06
-9.35481e-06
-7.94175e-06
-6.65593e-06
-5.4667e-06
-4.34399e-06
-3.26588e-06
-2.21758e-06
-1.20376e-06
-2.41238e-07
5.95754e-07
1.13823e-06
5.80168e-07
-1.15257e-06
-1.4746e-05
-2.2837e-05
-7.05833e-05
-1.42163e-05
0.000170056
0.000461537
)
;
    }
    defaultFaces
    {
        type            empty;
        value           nonuniform 0();
    }
    procBoundary3to1
    {
        type            processor;
        value           nonuniform List<scalar> 
23
(
1.65434e-05
1.65701e-05
1.65654e-05
1.68683e-05
4.00622e-05
4.04569e-05
3.89246e-05
3.58457e-05
3.15035e-05
2.67465e-05
1.88897e-05
1.09291e-05
1.67587e-06
-1.22305e-05
-2.86776e-05
-5.91185e-05
-0.000120134
-0.000198534
-0.000183218
-0.000191025
-0.000217685
-4.6406e-05
-6.18113e-05
)
;
    }
    procBoundary3to2
    {
        type            processor;
        value           nonuniform List<scalar> 
25
(
2.67339e-05
2.7611e-05
2.51124e-05
2.50811e-05
2.32246e-05
2.259e-05
2.14208e-05
2.03008e-05
1.90326e-05
1.78387e-05
1.6606e-05
1.54482e-05
1.43079e-05
1.32039e-05
1.21278e-05
1.10741e-05
1.0041e-05
9.02314e-06
8.01763e-06
7.01583e-06
6.00197e-06
4.94379e-06
4.01491e-06
3.44267e-06
3.18305e-06
)
;
    }
}


// ************************************************************************* //
