/*--------------------------------*- C++ -*----------------------------------*\
| =========                 |                                                 |
| \\      /  F ield         | OpenFOAM: The Open Source CFD Toolbox           |
|  \\    /   O peration     | Version:  2.4.0                                 |
|   \\  /    A nd           | Web:      www.OpenFOAM.org                      |
|    \\/     M anipulation  |                                                 |
\*---------------------------------------------------------------------------*/
FoamFile
{
    version     2.0;
    format      ascii;
    class       surfaceScalarField;
    location    "0.45";
    object      phi.oil;
}
// * * * * * * * * * * * * * * * * * * * * * * * * * * * * * * * * * * * * * //

dimensions      [0 3 -1 0 0 0 0];

internalField   nonuniform List<scalar> 
1102
(
-2.766e-05
-1.56251e-05
-2.87653e-05
-1.5473e-05
-3.00281e-05
-1.53091e-05
-1.55494e-05
-3.13532e-05
-2.84538e-05
-1.47798e-05
-2.92936e-05
-1.46296e-05
-3.00041e-05
-1.45955e-05
-1.44936e-05
-3.10566e-05
-2.59494e-05
-1.39398e-05
-2.68787e-05
-1.36983e-05
-2.78056e-05
-1.36655e-05
-1.33282e-05
-2.89685e-05
-2.57237e-05
-1.32942e-05
-2.65655e-05
-1.28541e-05
-2.75419e-05
-1.26868e-05
-1.22046e-05
-2.86633e-05
-2.40825e-05
-1.24331e-05
-2.50923e-05
-1.18424e-05
-2.61647e-05
-1.16121e-05
-1.11688e-05
-2.71986e-05
-2.34997e-05
-1.15204e-05
-2.43624e-05
-1.09779e-05
-2.52663e-05
-1.07062e-05
-1.03532e-05
-2.60804e-05
-2.22018e-05
-1.07366e-05
-2.28885e-05
-1.02895e-05
-2.36498e-05
-9.94327e-06
-9.60109e-06
-2.44007e-05
-2.09681e-05
-1.00666e-05
-2.15376e-05
-9.71863e-06
-2.21354e-05
-9.34411e-06
-8.95432e-06
-2.27811e-05
-1.96746e-05
-9.42202e-06
-2.02677e-05
-9.12412e-06
-2.0826e-05
-8.78468e-06
-8.42987e-06
-2.13496e-05
-1.83706e-05
-8.88782e-06
-1.88738e-05
-8.61999e-06
-1.93442e-05
-8.31314e-06
-7.99268e-06
-1.97808e-05
-1.71001e-05
-8.39146e-06
-1.75691e-05
-8.14991e-06
-1.80086e-05
-7.87286e-06
-7.56341e-06
-1.84374e-05
-1.58712e-05
-7.96647e-06
-1.62907e-05
-7.72977e-06
-1.66916e-05
-7.47125e-06
-7.19018e-06
-1.70644e-05
-1.46852e-05
-7.58718e-06
-1.50627e-05
-7.35144e-06
-1.54275e-05
-7.10602e-06
-6.84478e-06
-1.57725e-05
-1.35368e-05
-7.25258e-06
-1.38725e-05
-7.01539e-06
-1.42023e-05
-6.7757e-06
-6.52904e-06
-1.45179e-05
-1.24275e-05
-6.95128e-06
-1.27274e-05
-6.71476e-06
-1.30244e-05
-6.47858e-06
-6.24069e-06
-1.33126e-05
-1.13464e-05
-6.67764e-06
-1.16176e-05
-6.44339e-06
-1.18864e-05
-6.20947e-06
-5.97587e-06
-1.21511e-05
-1.02911e-05
-6.42631e-06
-1.0538e-05
-6.19595e-06
-1.07838e-05
-5.96363e-06
-5.73477e-06
-1.10248e-05
-9.25408e-06
-6.19446e-06
-9.48337e-06
-5.96666e-06
-9.70979e-06
-5.73693e-06
-5.5105e-06
-9.93409e-06
-8.23362e-06
-5.9776e-06
-8.44671e-06
-5.75315e-06
-8.65771e-06
-5.52605e-06
-5.30021e-06
-8.86792e-06
-7.21949e-06
-5.77339e-06
-7.42216e-06
-5.5506e-06
-7.62295e-06
-5.32511e-06
-5.10007e-06
-7.82312e-06
-6.199e-06
-5.57576e-06
-6.39583e-06
-5.3535e-06
-6.59295e-06
-5.12821e-06
-4.90418e-06
-6.78882e-06
-5.14819e-06
-5.37107e-06
-5.35158e-06
-5.15036e-06
-5.55e-06
-4.92972e-06
-4.70763e-06
-5.74669e-06
-4.13396e-06
-5.25168e-06
-4.28763e-06
-4.99643e-06
-4.46449e-06
-4.7531e-06
-4.51913e-06
-4.65307e-06
-3.42241e-06
-5.27203e-06
-3.44021e-06
-4.97904e-06
-3.49373e-06
-4.69978e-06
-4.42811e-06
-3.58497e-06
-3.0662e-06
-2.975e-06
-2.91319e-06
-2.87911e-06
-3.49795e-05
-3.64551e-05
-3.94808e-05
-3.5972e-05
-4.46502e-05
-3.37791e-05
-5.05828e-05
-2.99369e-05
-5.5947e-05
-2.61755e-05
-6.14221e-05
-2.13146e-05
-6.68749e-05
-1.34942e-05
-7.21704e-05
-5.70519e-06
-7.77219e-05
3.79543e-06
-8.33174e-05
1.79728e-05
-8.71833e-05
3.29925e-05
-8.31687e-05
5.80184e-05
-6.12269e-05
9.79626e-05
-1.86646e-05
0.000146494
2.63919e-05
0.000135907
3.29343e-05
0.000183814
1.32385e-05
0.000139564
8.2092e-06
3.85898e-05
7.14138e-05
-3.43195e-05
-3.31876e-05
-3.84648e-05
-3.18202e-05
-4.27231e-05
-2.95132e-05
-4.67984e-05
-2.58525e-05
-5.09867e-05
-2.19786e-05
-5.53424e-05
-1.69497e-05
-5.95024e-05
-9.32251e-06
-6.32529e-05
-1.93805e-06
-6.66105e-05
7.18332e-06
-6.88255e-05
2.04123e-05
-6.85479e-05
3.30577e-05
-6.09673e-05
5.25726e-05
-4.14215e-05
7.87316e-05
-1.104e-05
0.000114142
2.85036e-05
9.90902e-05
3.42169e-05
0.000178793
1.53499e-05
0.000158964
9.33524e-06
3.71278e-05
7.8412e-05
-3.22612e-05
-2.98913e-05
-3.61629e-05
-2.7914e-05
-3.99211e-05
-2.57497e-05
-4.30883e-05
-2.26796e-05
-4.66658e-05
-1.83949e-05
-5.02518e-05
-1.33574e-05
-5.29037e-05
-6.66299e-06
-5.50605e-05
2.27243e-07
-5.66233e-05
8.77012e-06
-5.62099e-05
2.01344e-05
-5.3277e-05
3.02919e-05
-4.39676e-05
4.47094e-05
-2.61081e-05
6.06489e-05
3.29467e-06
8.48947e-05
3.69942e-05
6.63444e-05
3.61108e-05
0.000175449
1.20668e-05
0.000203206
1.11587e-05
3.90035e-05
8.66452e-05
-3.15739e-05
-2.69778e-05
-3.43952e-05
-2.50891e-05
-3.70583e-05
-2.30828e-05
-3.96872e-05
-2.00467e-05
-4.26075e-05
-1.54707e-05
-4.51585e-05
-1.08025e-05
-4.65922e-05
-5.2248e-06
-4.78389e-05
1.47982e-06
-4.792e-05
8.86659e-06
-4.59595e-05
1.8255e-05
-4.16317e-05
2.60509e-05
-3.19563e-05
3.61222e-05
-1.7618e-05
4.58343e-05
1.33333e-05
5.60213e-05
3.90121e-05
3.88728e-05
4.11196e-05
0.000169712
1.8994e-05
0.000248163
1.21443e-05
4.50584e-05
9.65274e-05
-2.96055e-05
-2.45686e-05
-3.20003e-05
-2.26913e-05
-3.41889e-05
-2.08913e-05
-3.65268e-05
-1.77056e-05
-3.879e-05
-1.32047e-05
-4.02501e-05
-9.33942e-06
-4.11214e-05
-4.35036e-06
-4.17476e-05
2.11094e-06
-4.06624e-05
7.78985e-06
-3.80455e-05
1.56841e-05
-3.36688e-05
2.16991e-05
-2.48749e-05
2.8077e-05
-1.50225e-05
3.52856e-05
9.15031e-06
3.54609e-05
1.33674e-05
2.94057e-05
3.09469e-05
0.000157308
3.01263e-05
0.000261928
1.42955e-05
5.86334e-05
0.000104329
-2.7942e-05
-2.27049e-05
-2.96962e-05
-2.09347e-05
-3.16034e-05
-1.89816e-05
-3.35425e-05
-1.57641e-05
-3.50749e-05
-1.16698e-05
-3.60002e-05
-8.41164e-06
-3.65135e-05
-3.83444e-06
-3.63941e-05
1.99509e-06
-3.48988e-05
6.2996e-06
-3.19272e-05
1.27361e-05
-2.79563e-05
1.77238e-05
-2.08096e-05
2.13062e-05
-1.45421e-05
2.85067e-05
1.08718e-06
2.4393e-05
-1.22304e-05
3.26632e-05
2.1212e-05
0.000134194
3.49651e-05
0.000247912
1.39321e-05
7.99297e-05
0.000110765
-2.59841e-05
-2.11197e-05
-2.7536e-05
-1.93809e-05
-2.92592e-05
-1.72564e-05
-3.07587e-05
-1.42627e-05
-3.16951e-05
-1.07314e-05
-3.23977e-05
-7.707e-06
-3.25548e-05
-3.67489e-06
-3.18311e-05
1.27402e-06
-3.02646e-05
4.73652e-06
-2.7185e-05
9.6683e-06
-2.35809e-05
1.41135e-05
-1.75235e-05
1.54591e-05
-1.28856e-05
2.35632e-05
-1.3449e-06
1.69166e-05
-1.4205e-05
3.49137e-05
2.38476e-05
0.00010896
3.07316e-05
0.000223231
6.03285e-06
0.000121407
0.000120039
-2.42073e-05
-1.96921e-05
-2.55977e-05
-1.79889e-05
-2.6975e-05
-1.58775e-05
-2.81112e-05
-1.31248e-05
-2.87523e-05
-1.00885e-05
-2.92077e-05
-7.24966e-06
-2.91355e-05
-3.74495e-06
-2.81282e-05
2.68943e-07
-2.65416e-05
3.15242e-06
-2.35481e-05
6.68035e-06
-2.01416e-05
1.07036e-05
-1.4693e-05
1.01348e-05
-1.01853e-05
1.88236e-05
7.67421e-07
9.32096e-06
-4.224e-06
3.16174e-05
2.88607e-05
6.52075e-05
2.65988e-05
0.000202625
1.45062e-06
0.000152742
0.000133522
-2.24742e-05
-1.85665e-05
-2.36921e-05
-1.67698e-05
-2.48131e-05
-1.47552e-05
-2.57093e-05
-1.22272e-05
-2.62262e-05
-9.57025e-06
-2.6468e-05
-7.00591e-06
-2.62087e-05
-4.00241e-06
-2.51938e-05
-7.43786e-07
-2.36533e-05
1.6139e-06
-2.09164e-05
3.94711e-06
-1.75724e-05
7.35674e-06
-1.24976e-05
5.14294e-06
-7.3486e-06
1.33365e-05
4.53109e-06
1.12087e-06
4.49382e-06
2.13172e-05
2.40359e-05
2.54854e-05
2.5251e-05
0.00015796
4.80785e-06
0.000177936
0.000155623
-2.08709e-05
-1.74754e-05
-2.19153e-05
-1.57245e-05
-2.28531e-05
-1.38164e-05
-2.3564e-05
-1.1515e-05
-2.39727e-05
-9.16023e-06
-2.41124e-05
-6.86447e-06
-2.38035e-05
-4.30956e-06
-2.28762e-05
-1.6693e-06
-2.15122e-05
2.51696e-07
-1.92153e-05
1.65343e-06
-1.60505e-05
4.1884e-06
-1.17524e-05
9.27497e-07
-5.98855e-06
7.16762e-06
5.83287e-06
-6.87996e-06
1.45044e-06
7.95003e-06
1.89665e-05
2.78987e-06
3.59031e-05
6.78243e-05
1.31781e-05
0.000190268
0.000193254
-1.93437e-05
-1.65685e-05
-2.02437e-05
-1.48238e-05
-2.10428e-05
-1.30162e-05
-2.16251e-05
-1.09319e-05
-2.19768e-05
-8.80704e-06
-2.20932e-05
-6.74668e-06
-2.1832e-05
-4.56913e-06
-2.11069e-05
-2.39305e-06
-2.00335e-05
-8.20156e-07
-1.83554e-05
-2.1594e-08
-1.57936e-05
1.62394e-06
-1.29206e-05
-1.83645e-06
-7.6037e-06
1.37033e-06
1.50698e-06
-1.30858e-05
-6.60649e-06
-2.89174e-06
9.32425e-07
9.62921e-07
2.2596e-05
2.47624e-05
1.33872e-05
0.000279641
0.000244625
-1.78996e-05
-1.57328e-05
-1.86817e-05
-1.40411e-05
-1.9371e-05
-1.23262e-05
-1.98791e-05
-1.04229e-05
-2.02044e-05
-8.48048e-06
-2.03405e-05
-6.60912e-06
-2.01972e-05
-4.71129e-06
-1.97274e-05
-2.86189e-06
-1.90378e-05
-1.50868e-06
-1.80587e-05
-9.98133e-07
-1.65702e-05
1.34234e-07
-1.5425e-05
-2.90811e-06
-1.2121e-05
-2.26606e-06
-8.6308e-06
-1.38636e-05
-1.29612e-05
-8.43581e-06
-1.31036e-05
7.76028e-06
1.21952e-05
4.32666e-05
1.62726e-05
0.000309201
0.00031158
-1.65202e-05
-1.49848e-05
-1.72085e-05
-1.33522e-05
-1.78201e-05
-1.17139e-05
-1.82837e-05
-9.95809e-06
-1.86034e-05
-8.15973e-06
-1.87764e-05
-6.43494e-06
-1.87793e-05
-4.70785e-06
-1.85517e-05
-3.08898e-06
-1.82636e-05
-1.79619e-06
-1.7993e-05
-1.26678e-06
-1.7608e-05
-2.51877e-07
-1.80786e-05
-2.39248e-06
-1.81472e-05
-2.48412e-06
-2.00614e-05
-9.87002e-06
-1.95311e-05
-6.86659e-06
-1.84005e-05
1.80665e-05
3.20838e-06
7.62964e-05
1.11485e-05
0.000227569
0.000289217
-1.5204e-05
-1.42984e-05
-1.58224e-05
-1.27333e-05
-1.63726e-05
-1.1163e-05
-1.68063e-05
-9.52346e-06
-1.71269e-05
-7.83799e-06
-1.7344e-05
-6.21721e-06
-1.74706e-05
-4.58098e-06
-1.74684e-05
-3.0916e-06
-1.7484e-05
-1.78043e-06
-1.77662e-05
-9.83006e-07
-1.81643e-05
1.45075e-07
-1.97364e-05
-7.93884e-07
-2.22076e-05
-2.52765e-07
-2.63955e-05
-3.34105e-06
-1.96221e-05
-1.27942e-07
-1.8887e-05
3.8775e-05
-2.10711e-06
8.60948e-05
6.6407e-06
0.000202556
0.000216589
-1.39424e-05
-1.36683e-05
-1.45049e-05
-1.21704e-05
-1.50072e-05
-1.06598e-05
-1.54214e-05
-9.10837e-06
-1.57309e-05
-7.5276e-06
-1.59862e-05
-5.96173e-06
-1.61703e-05
-4.39745e-06
-1.63295e-05
-2.93341e-06
-1.65579e-05
-1.55219e-06
-1.71385e-05
-4.01157e-07
-1.79981e-05
1.00397e-06
-2.00326e-05
1.26592e-06
-2.33531e-05
2.82568e-06
-2.76144e-05
3.56776e-06
-1.45312e-05
7.43122e-06
-1.50223e-05
6.52576e-05
-5.36695e-06
9.67848e-05
6.19151e-06
0.000200677
0.000199769
-1.27323e-05
-1.3087e-05
-1.3252e-05
-1.16502e-05
-1.37147e-05
-1.01964e-05
-1.41083e-05
-8.71383e-06
-1.44221e-05
-7.2133e-06
-1.46875e-05
-5.6965e-06
-1.48994e-05
-4.18686e-06
-1.51283e-05
-2.70589e-06
-1.54147e-05
-1.26625e-06
-1.5998e-05
1.83314e-07
-1.68698e-05
1.8761e-06
-1.86853e-05
3.1106e-06
-2.17291e-05
5.6892e-06
-2.58265e-05
9.52592e-06
-1.14413e-05
1.42777e-05
-1.25776e-05
7.89463e-05
-9.39103e-06
0.000115054
2.94095e-06
0.000185275
0.000196683
-1.15664e-05
-1.25451e-05
-1.20506e-05
-1.11654e-05
-1.24858e-05
-9.76051e-06
-1.28546e-05
-8.34433e-06
-1.31713e-05
-6.89637e-06
-1.34249e-05
-5.44372e-06
-1.36324e-05
-3.98106e-06
-1.38318e-05
-2.50814e-06
-1.40782e-05
-1.02065e-06
-1.44612e-05
5.6799e-07
-1.50208e-05
2.4364e-06
-1.61308e-05
4.25249e-06
-1.80964e-05
7.5293e-06
-2.09791e-05
1.31598e-05
-9.64038e-06
1.80195e-05
-1.25583e-05
6.42161e-05
-1.09907e-05
0.00013089
2.11097e-06
0.000170532
0.000195437
-1.04401e-05
-1.20389e-05
-1.08965e-05
-1.07085e-05
-1.13076e-05
-9.34877e-06
-1.16668e-05
-7.98463e-06
-1.19693e-05
-6.59398e-06
-1.22095e-05
-5.20481e-06
-1.23992e-05
-3.79322e-06
-1.25271e-05
-2.38212e-06
-1.26321e-05
-9.1608e-07
-1.27227e-05
6.59932e-07
-1.27909e-05
2.50583e-06
-1.28773e-05
4.37422e-06
-1.35414e-05
8.00995e-06
-1.21961e-05
1.29481e-05
-1.49067e-05
1.77405e-05
-1.04988e-05
5.67223e-05
-8.52043e-06
0.000148815
4.27885e-06
0.000171311
0.000193679
-9.34624e-06
-1.15604e-05
-9.78407e-06
-1.02703e-05
-1.01791e-05
-8.95321e-06
-1.05287e-05
-7.63483e-06
-1.08237e-05
-6.29951e-06
-1.10461e-05
-4.98381e-06
-1.11908e-05
-3.6505e-06
-1.12514e-05
-2.32348e-06
-1.12036e-05
-9.64011e-07
-1.09891e-05
4.46345e-07
-1.05312e-05
2.04959e-06
-9.42519e-06
3.30832e-06
-8.69041e-06
7.05533e-06
-3.20092e-06
8.57193e-06
-3.47246e-06
1.61455e-05
-2.11866e-07
3.54513e-05
-2.19902e-06
0.000141661
1.24104e-05
0.000184064
0.000187397
-8.28082e-06
-1.11026e-05
-8.70932e-06
-9.84146e-06
-9.09818e-06
-8.56401e-06
-9.44239e-06
-7.29062e-06
-9.73538e-06
-6.00719e-06
-9.96134e-06
-4.75938e-06
-1.00869e-05
-3.52704e-06
-1.01038e-05
-2.30808e-06
-9.93517e-06
-1.13327e-06
-9.50082e-06
1.33128e-08
-8.63437e-06
1.18353e-06
-6.83397e-06
1.54558e-06
-4.57574e-06
4.63465e-06
2.37414e-06
2.61786e-06
4.59138e-06
1.10533e-05
1.43086e-05
2.37712e-05
5.10917e-06
0.000101731
2.50178e-05
0.000217325
0.0001808
-7.23899e-06
-1.06524e-05
-7.66512e-06
-9.41513e-06
-8.05968e-06
-8.1693e-06
-8.4056e-06
-6.9449e-06
-8.70462e-06
-5.70894e-06
-8.93886e-06
-4.52663e-06
-9.08375e-06
-3.38406e-06
-9.09913e-06
-2.29417e-06
-8.90549e-06
-1.3275e-06
-8.36408e-06
-5.27547e-07
-7.28792e-06
1.06766e-07
-5.19102e-06
-5.27536e-07
-1.85e-06
1.24633e-06
6.75377e-06
-4.44096e-06
1.56437e-05
-2.98253e-06
2.4743e-05
1.25826e-05
8.47182e-06
0.000107182
3.52373e-05
0.000268726
0.000195286
-6.20365e-06
-1.01954e-05
-6.6472e-06
-8.97156e-06
-7.05554e-06
-7.76095e-06
-7.43935e-06
-6.56139e-06
-7.77029e-06
-5.37867e-06
-8.07371e-06
-4.22449e-06
-8.31325e-06
-3.1457e-06
-8.4473e-06
-2.1613e-06
-8.41727e-06
-1.35702e-06
-8.10396e-06
-8.40622e-07
-7.25726e-06
-7.3937e-07
-5.38042e-06
-2.39294e-06
-1.99118e-06
-2.20223e-06
9.16366e-06
-1.22232e-05
1.79242e-05
-2.093e-05
3.56058e-05
-5.08868e-07
1.95543e-05
8.37201e-05
5.02248e-05
0.000293602
0.000231396
-5.11693e-06
-9.73176e-06
-5.57227e-06
-8.51622e-06
-6.00937e-06
-7.324e-06
-6.4132e-06
-6.1576e-06
-6.77697e-06
-5.0154e-06
-7.09389e-06
-3.90775e-06
-7.39951e-06
-2.84064e-06
-7.68436e-06
-1.8754e-06
-7.95616e-06
-1.08403e-06
-8.19411e-06
-5.9958e-07
-8.26337e-06
-6.68392e-07
-8.01975e-06
-2.62359e-06
-7.05989e-06
-3.30704e-06
1.34887e-06
-1.63529e-05
5.58867e-06
-2.86447e-05
3.62461e-05
-2.91547e-05
2.91887e-05
4.6924e-05
7.01228e-05
0.000253774
0.000297032
-3.92337e-06
-9.39346e-06
-4.33723e-06
-8.10248e-06
-4.77339e-06
-6.88777e-06
-5.20979e-06
-5.72131e-06
-5.64243e-06
-4.58256e-06
-6.07168e-06
-3.47854e-06
-6.50822e-06
-2.40326e-06
-6.97947e-06
-1.40314e-06
-7.52274e-06
-5.38099e-07
-8.2161e-06
9.62579e-08
-9.22661e-06
3.46306e-07
-1.1032e-05
-8.12432e-07
-1.2065e-05
-2.43758e-06
-1.12912e-05
-1.46754e-05
-1.60566e-05
-2.56901e-05
1.85497e-05
-4.75273e-05
6.71124e-05
-1.19174e-06
9.67062e-05
0.000270673
0.000391667
-2.9111e-06
-3.06496e-06
-3.28967e-06
-3.53674e-06
-3.76751e-06
-3.97217e-06
-4.15004e-06
-4.34188e-06
-4.63186e-06
-5.12464e-06
-5.91008e-06
-7.29394e-06
-8.55416e-06
-7.99396e-06
-1.25544e-05
1.43709e-05
4.04912e-05
0.000137151
)
;

boundaryField
{
    leftWall
    {
        type            fixedValue;
        value           nonuniform 0();
    }
    rightWall
    {
        type            fixedValue;
        value           uniform 0;
    }
    lowerWall
    {
        type            fixedValue;
        value           nonuniform 0();
    }
    atmosphere
    {
        type            calculated;
        value           nonuniform List<scalar> 
23
(
-5.38925e-06
-5.07036e-06
-4.76182e-06
-4.46226e-06
-9.36151e-06
-7.94861e-06
-6.66307e-06
-5.47417e-06
-4.35174e-06
-3.27368e-06
-2.22509e-06
-1.21057e-06
-2.47278e-07
5.9037e-07
1.13311e-06
5.7509e-07
-1.16017e-06
-1.47625e-05
-2.25707e-05
-6.794e-05
-1.838e-05
0.000230287
0.000405191
)
;
    }
    defaultFaces
    {
        type            empty;
        value           nonuniform 0();
    }
    procBoundary3to1
    {
        type            processor;
        value           nonuniform List<scalar> 
23
(
1.65557e-05
1.65819e-05
1.65774e-05
1.68807e-05
4.00945e-05
4.04958e-05
3.89736e-05
3.59111e-05
3.15784e-05
2.68314e-05
1.89815e-05
1.10407e-05
1.81908e-06
-1.20059e-05
-2.84108e-05
-5.89884e-05
-0.000120142
-0.000196197
-0.000178623
-0.000187534
-0.00014076
-4.40825e-05
-6.57151e-05
)
;
    }
    procBoundary3to2
    {
        type            processor;
        value           nonuniform List<scalar> 
25
(
2.67346e-05
2.76111e-05
2.51122e-05
2.50809e-05
2.32244e-05
2.25896e-05
2.14205e-05
2.03003e-05
1.90322e-05
1.78381e-05
1.66056e-05
1.54476e-05
1.43074e-05
1.32033e-05
1.21274e-05
1.10735e-05
1.00406e-05
9.02264e-06
8.01736e-06
7.01541e-06
6.00181e-06
4.94352e-06
4.01483e-06
3.44254e-06
3.18286e-06
)
;
    }
}


// ************************************************************************* //
