/*--------------------------------*- C++ -*----------------------------------*\
| =========                 |                                                 |
| \\      /  F ield         | OpenFOAM: The Open Source CFD Toolbox           |
|  \\    /   O peration     | Version:  2.4.0                                 |
|   \\  /    A nd           | Web:      www.OpenFOAM.org                      |
|    \\/     M anipulation  |                                                 |
\*---------------------------------------------------------------------------*/
FoamFile
{
    version     2.0;
    format      ascii;
    class       volScalarField;
    location    "0.45";
    object      rho;
}
// * * * * * * * * * * * * * * * * * * * * * * * * * * * * * * * * * * * * * //

dimensions      [1 -3 0 0 0 0 0];

internalField   nonuniform List<scalar> 
575
(
0.999999
0.999999
0.999999
0.999999
0.999999
0.999999
0.999999
0.999999
0.999999
1
1
1
1
1
1
1
1
1
1
1
0.999999
1
1
1
0.999999
1
0.999999
1
0.999998
0.999998
0.999999
0.999999
0.999998
0.999999
0.999998
0.999999
0.999996
0.999997
0.999999
0.999998
0.999997
0.999998
0.999997
0.999998
0.999996
0.999997
0.999998
0.999997
0.999998
0.999998
0.999997
0.999998
0.999997
0.999997
0.999998
0.999997
0.999998
0.999999
0.999998
0.999998
0.999998
0.999998
0.999999
0.999998
0.999999
1
0.999998
0.999998
0.999998
0.999998
0.999999
0.999998
0.999999
1
0.999999
0.999999
0.999999
0.999999
1
0.999999
0.999999
1
0.999999
0.999999
0.999999
0.999999
1
0.999999
0.999999
0.999999
0.999999
0.999999
0.999999
0.999998
0.999999
0.999999
0.999999
0.999999
0.999999
1
0.999999
0.999999
1
1
1
1
1
1.00001
1.00001
1.00003
1.00008
1.00018
1.00038
1.0007
1.00106
1.00135
1.00155
303.796
482.222
0.999999
0.999999
0.999999
0.999999
0.999999
1
1
1
1.00001
1.00002
1.00004
1.0001
1.00022
1.00043
1.00076
1.00116
1.00148
303.971
487.832
0.999999
0.999999
0.999999
0.999999
0.999999
0.999999
1
1
1
1.00001
1.00003
1.00006
1.00014
1.00027
1.00058
1.00102
1.00142
189.196
479.917
1
1
0.999999
0.999999
0.999999
0.999999
0.999999
1
1
1
1.00001
1.00004
1.00009
1.00019
1.0005
1.00098
1.00139
49.402
455.832
1
1
0.999999
0.999999
0.999999
0.999999
0.999999
0.999999
1
1
1.00001
1.00002
1.00006
1.00013
1.00044
1.00105
1.0014
6.97118
433.54
1
1
1
0.999999
0.999999
0.999999
0.999999
0.999999
1
1
1
1.00001
1.00003
1.00006
1.00036
1.0011
1.00143
1.52715
409.615
1
1
1
0.999999
0.999999
0.999999
0.999999
0.999999
0.999999
1
1
1
1.00001
1.00003
1.00022
1.00102
1.00144
1.04976
380.741
0.999999
0.999999
0.999999
0.999999
0.999999
0.999999
0.999999
0.999999
0.999999
1
1
1
1.00001
1.00002
1.00017
1.00084
1.00145
1.02106
370.636
0.999999
0.999999
0.999999
0.999999
0.999999
0.999999
0.999999
0.999999
0.999999
1
1
1
1.00001
1.00002
1.00022
1.00281
1.00145
1.01792
351.877
0.999998
0.999998
0.999998
0.999999
0.999999
0.999999
0.999999
0.999999
0.999999
1
1
1
1.00001
1.00004
1.00032
1.01735
1.0022
1.01677
245.066
0.999998
0.999998
0.999998
0.999998
0.999998
0.999998
0.999999
0.999999
1
1
1
1
1.00001
1.00007
1.00041
1.01985
1.01762
1.02226
74.5867
0.999997
0.999997
0.999997
0.999998
0.999998
0.999998
0.999999
0.999999
1
1
1
1
1.00001
1.00009
1.00039
1.01784
1.18685
1.05499
6.60059
0.999997
0.999997
0.999997
0.999997
0.999997
0.999998
0.999999
0.999999
1
1
1
1
1.00001
1.00007
1.00032
1.01271
1.41013
4.16519
11.4317
0.999997
0.999997
0.999997
0.999997
0.999997
0.999998
0.999999
0.999999
1
1
1
1
1.00001
1.00005
1.00027
1.017
1.82042
28.6738
146.491
0.999997
0.999997
0.999997
0.999997
0.999998
0.999998
0.999999
0.999999
1
1
1
1
1.00001
1.00004
1.00026
1.04572
2.97642
49.9572
416.36
0.999998
0.999997
0.999997
0.999997
0.999998
0.999999
0.999999
1
1
1
1
1
1.00001
1.00003
1.00016
1.08057
7.44548
87.099
491.183
0.999998
0.999997
0.999997
0.999998
0.999998
0.999999
0.999999
1
0.999999
0.999999
0.999999
1
1
1.00002
1.00006
1.03526
10.1823
205.897
492.929
0.999998
0.999998
0.999998
0.999998
0.999999
0.999999
0.999999
0.999999
0.999999
0.999999
0.999999
1
1
1.00002
1.00007
1.00124
4.42842
246.982
492.929
0.999998
0.999998
0.999998
0.999998
0.999999
0.999999
0.999999
0.999999
0.999999
0.999999
0.999999
1
1
1.00002
1.00006
1.00012
1.28934
192.53
492.929
0.999999
0.999999
0.999999
0.999999
0.999999
0.999999
0.999999
0.999999
0.999999
0.999999
0.999999
1
1
1.00002
1.00005
1.00014
1.01031
76.4009
489.472
0.999999
0.999999
0.999999
0.999999
0.999999
0.999999
0.999999
0.999999
0.999999
0.999999
0.999999
1
1
1.00001
1.00008
1.00017
1.00065
13.4959
448.882
0.999999
0.999999
0.999999
0.999999
0.999999
0.999999
0.999999
0.999999
0.999999
0.999999
0.999999
0.999999
1
1.00001
1.00025
1.00092
1.00078
2.00802
370.45
0.999999
0.999999
0.999999
0.999999
0.999999
0.999999
0.999999
0.999998
0.999998
0.999999
0.999999
0.999999
1
1.00002
1.00051
1.00112
1.00097
1.03594
289.844
0.999999
0.999999
0.999999
0.999999
0.999999
0.999999
0.999999
0.999999
0.999999
0.999999
0.999999
0.999999
1
1.00004
1.00025
1.00086
1.00062
1.00134
182.833
1
1
1
1
1
1
0.999999
0.999999
0.999999
1
1
1
1
1
1.00003
1.00013
1.00053
1.00057
67.1782
)
;

boundaryField
{
    leftWall
    {
        type            calculated;
        value           nonuniform 0();
    }
    rightWall
    {
        type            calculated;
        value           nonuniform List<scalar> 
25
(
482.222
487.832
479.917
455.832
433.54
409.615
380.741
370.636
351.877
245.066
74.5867
6.60059
11.4317
146.491
416.36
491.183
492.929
492.929
492.929
489.472
448.882
370.45
289.844
182.833
67.1782
)
;
    }
    lowerWall
    {
        type            calculated;
        value           nonuniform 0();
    }
    atmosphere
    {
        type            calculated;
        value           nonuniform List<scalar> 
23
(
1
1
1
1
1
1
1
1
1
1
1
1
1
1
1
1
1
1
1
1
1
1.00057
67.1782
)
;
    }
    defaultFaces
    {
        type            empty;
    }
    procBoundary3to1
    {
        type            processor;
        value           nonuniform List<scalar> 
23
(
1
1
1
1
1
1
1
1
1
1.00001
1.00001
1.00001
1.00003
1.00006
1.00014
1.00033
1.00065
1.00098
1.00138
1.00154
1.00161
127.9
458.454
)
;
    }
    procBoundary3to2
    {
        type            processor;
        value           nonuniform List<scalar> 
25
(
1
1
1
1
1
0.999999
0.999998
0.999998
0.999997
0.999997
0.999997
0.999997
0.999997
0.999998
0.999998
0.999999
0.999999
0.999999
0.999999
1
0.999999
1
1
0.999999
1
)
;
    }
}


// ************************************************************************* //
