/*--------------------------------*- C++ -*----------------------------------*\
| =========                 |                                                 |
| \\      /  F ield         | OpenFOAM: The Open Source CFD Toolbox           |
|  \\    /   O peration     | Version:  2.4.0                                 |
|   \\  /    A nd           | Web:      www.OpenFOAM.org                      |
|    \\/     M anipulation  |                                                 |
\*---------------------------------------------------------------------------*/
FoamFile
{
    version     2.0;
    format      ascii;
    class       volVectorField;
    location    "0.45";
    object      U.air;
}
// * * * * * * * * * * * * * * * * * * * * * * * * * * * * * * * * * * * * * //

dimensions      [0 1 -1 0 0 0 0];

internalField   nonuniform List<vector> 
575
(
(-0.145298 -0.17774 0)
(-0.151912 -0.176031 0)
(-0.157428 -0.174547 0)
(-0.165217 -0.178119 0)
(-0.149938 -0.175199 0)
(-0.155929 -0.172497 0)
(-0.159271 -0.170123 0)
(-0.164575 -0.170138 0)
(-0.136961 -0.164611 0)
(-0.142689 -0.164278 0)
(-0.14587 -0.165264 0)
(-0.153494 -0.162888 0)
(-0.136568 -0.152517 0)
(-0.140764 -0.14834 0)
(-0.143749 -0.147117 0)
(-0.150412 -0.142677 0)
(-0.126898 -0.150076 0)
(-0.13287 -0.143455 0)
(-0.137147 -0.140968 0)
(-0.143281 -0.134583 0)
(-0.123227 -0.135159 0)
(-0.129294 -0.128829 0)
(-0.133872 -0.126142 0)
(-0.13696 -0.122489 0)
(-0.116695 -0.126864 0)
(-0.121523 -0.120913 0)
(-0.125541 -0.117396 0)
(-0.128803 -0.114002 0)
(-0.110399 -0.119346 0)
(-0.114114 -0.115176 0)
(-0.117917 -0.110623 0)
(-0.120361 -0.106365 0)
(-0.103511 -0.110771 0)
(-0.107192 -0.107302 0)
(-0.110546 -0.103327 0)
(-0.113738 -0.098924 0)
(-0.0970898 -0.104845 0)
(-0.0995802 -0.101615 0)
(-0.102873 -0.0978704 0)
(-0.105428 -0.0943707 0)
(-0.0903216 -0.0985078 0)
(-0.0928676 -0.0957698 0)
(-0.0953988 -0.0924949 0)
(-0.0983816 -0.0887486 0)
(-0.0840531 -0.0934269 0)
(-0.0860983 -0.0907325 0)
(-0.0883604 -0.0876776 0)
(-0.0910174 -0.0844228 0)
(-0.0778161 -0.0887635 0)
(-0.0797269 -0.0860945 0)
(-0.0815678 -0.0832536 0)
(-0.0840534 -0.0801674 0)
(-0.0718004 -0.0847238 0)
(-0.0734982 -0.082029 0)
(-0.0750849 -0.0792666 0)
(-0.0772851 -0.0763827 0)
(-0.0659346 -0.0810811 0)
(-0.067499 -0.0783826 0)
(-0.0688834 -0.075673 0)
(-0.0707935 -0.072909 0)
(-0.0602003 -0.0777956 0)
(-0.0616469 -0.0751075 0)
(-0.0629054 -0.0724209 0)
(-0.064544 -0.0697297 0)
(-0.0545886 -0.0747968 0)
(-0.0559317 -0.0721405 0)
(-0.0571067 -0.0694751 0)
(-0.0585106 -0.0668267 0)
(-0.0490681 -0.0720315 0)
(-0.0503184 -0.0694145 0)
(-0.0514428 -0.0667716 0)
(-0.0526768 -0.0641503 0)
(-0.0436283 -0.0694637 0)
(-0.0447899 -0.066883 0)
(-0.0458734 -0.0642675 0)
(-0.0469897 -0.0616678 0)
(-0.0382137 -0.0670756 0)
(-0.0393093 -0.0645118 0)
(-0.0403712 -0.0619154 0)
(-0.0414186 -0.0593306 0)
(-0.0327501 -0.064781 0)
(-0.0338135 -0.0622266 0)
(-0.0348657 -0.0596496 0)
(-0.0358944 -0.05708 0)
(-0.0270986 -0.0623734 0)
(-0.0282018 -0.0599107 0)
(-0.0292691 -0.0573978 0)
(-0.0303133 -0.0548634 0)
(-0.0217923 -0.0602991 0)
(-0.0225556 -0.0576684 0)
(-0.0234764 -0.0551214 0)
(-0.0244692 -0.0526193 0)
(-0.0183993 -0.0598176 0)
(-0.0183738 -0.0566085 0)
(-0.0185658 -0.0535487 0)
(-0.0189353 -0.0505901 0)
(-0.0167576 -0.0614792 0)
(-0.0161595 -0.0578417 0)
(-0.0157701 -0.0543223 0)
(-0.0154967 -0.0509056 0)
(-0.180184 -0.178454 0)
(-0.199814 -0.178129 0)
(-0.22369 -0.167843 0)
(-0.257164 -0.149055 0)
(-0.287216 -0.129334 0)
(-0.31345 -0.108061 0)
(-0.345978 -0.0748119 0)
(-0.373718 -0.0374447 0)
(-0.400664 0.00796471 0)
(-0.438916 0.0746268 0)
(-0.451826 0.150763 0)
(-0.502207 0.283167 0)
(-0.414621 0.518861 0)
(-0.222089 0.807818 0)
(-0.025125 0.770808 0)
(0.33259 0.930238 0)
(-0.127829 1.13314 0)
(0.012108 0.196034 0)
(-0.0281679 0.325682 0)
(-0.175823 -0.169362 0)
(-0.195911 -0.165442 0)
(-0.217109 -0.155313 0)
(-0.242521 -0.137078 0)
(-0.260712 -0.120797 0)
(-0.285681 -0.0959781 0)
(-0.3099 -0.0550539 0)
(-0.330123 -0.0165327 0)
(-0.347327 0.0272063 0)
(-0.370881 0.0942577 0)
(-0.360892 0.160991 0)
(-0.385986 0.267944 0)
(-0.272908 0.428231 0)
(-0.150553 0.633422 0)
(-0.0038584 0.576051 0)
(0.343509 0.901756 0)
(-0.0942979 1.24568 0)
(0.0392332 0.206946 0)
(-0.0344814 0.384554 0)
(-0.165508 -0.154373 0)
(-0.181909 -0.144648 0)
(-0.207325 -0.133775 0)
(-0.221778 -0.117614 0)
(-0.240243 -0.0965567 0)
(-0.260214 -0.0720641 0)
(-0.280878 -0.0374337 0)
(-0.287334 -0.00260809 0)
(-0.300382 0.0388576 0)
(-0.309957 0.0986706 0)
(-0.285015 0.153747 0)
(-0.296535 0.235408 0)
(-0.170299 0.335556 0)
(-0.0906687 0.490515 0)
(0.101829 0.408809 0)
(0.340842 0.870439 0)
(0.0881884 1.31745 0)
(0.0618641 0.217629 0)
(-0.0403613 0.428658 0)
(-0.162422 -0.137278 0)
(-0.176601 -0.128331 0)
(-0.19281 -0.117809 0)
(-0.205354 -0.103809 0)
(-0.220215 -0.0830338 0)
(-0.236518 -0.0583842 0)
(-0.248562 -0.0282909 0)
(-0.252263 0.00398084 0)
(-0.257275 0.0433612 0)
(-0.259049 0.0927948 0)
(-0.22582 0.13641 0)
(-0.229996 0.195825 0)
(-0.103526 0.255167 0)
(-0.0712555 0.341207 0)
(0.168108 0.256975 0)
(0.284291 0.862075 0)
(0.288906 1.40858 0)
(0.0327781 0.305372 0)
(-0.0439883 0.468137 0)
(-0.15231 -0.125095 0)
(-0.166565 -0.115987 0)
(-0.177377 -0.107677 0)
(-0.188832 -0.0924281 0)
(-0.202848 -0.0691069 0)
(-0.214085 -0.0483245 0)
(-0.217255 -0.0235156 0)
(-0.224742 0.0090861 0)
(-0.219413 0.0403722 0)
(-0.218694 0.0822707 0)
(-0.181407 0.115514 0)
(-0.189769 0.154372 0)
(-0.0641733 0.195337 0)
(-0.0994933 0.217581 0)
(0.154651 0.16852 0)
(0.0226991 0.874233 0)
(0.392894 1.40278 0)
(-0.106044 0.500889 0)
(-0.041146 0.508299 0)
(-0.144664 -0.114466 0)
(-0.156694 -0.105874 0)
(-0.163314 -0.0968115 0)
(-0.174814 -0.0811007 0)
(-0.184832 -0.060448 0)
(-0.191485 -0.0435956 0)
(-0.194273 -0.0196448 0)
(-0.197957 0.0103311 0)
(-0.188802 0.0337938 0)
(-0.18796 0.0686967 0)
(-0.146198 0.0950776 0)
(-0.165916 0.11906 0)
(-0.0407206 0.154266 0)
(-0.129871 0.143141 0)
(0.108474 0.164344 0)
(-0.193755 0.751821 0)
(0.450156 1.28855 0)
(-0.167374 0.672773 0)
(-0.0391398 0.540637 0)
(-0.134348 -0.107549 0)
(-0.144958 -0.0983781 0)
(-0.151801 -0.0883921 0)
(-0.161029 -0.0729944 0)
(-0.169078 -0.0541698 0)
(-0.170615 -0.0392397 0)
(-0.176302 -0.0184251 0)
(-0.173621 0.00818562 0)
(-0.16411 0.0264349 0)
(-0.163817 0.054029 0)
(-0.119126 0.0768919 0)
(-0.147727 0.088619 0)
(-0.0223069 0.126347 0)
(-0.136387 0.10042 0)
(0.0978862 0.171542 0)
(-0.194203 0.602379 0)
(0.435673 1.16661 0)
(-0.0610562 0.81916 0)
(-0.0270606 0.574794 0)
(-0.125345 -0.0984398 0)
(-0.134615 -0.0909011 0)
(-0.141173 -0.0804106 0)
(-0.147299 -0.0666961 0)
(-0.154168 -0.050944 0)
(-0.153739 -0.03644 0)
(-0.159089 -0.0180128 0)
(-0.153969 0.00369703 0)
(-0.144175 0.0189147 0)
(-0.144307 0.0393459 0)
(-0.0993949 0.0599007 0)
(-0.131427 0.0612633 0)
(-0.00779917 0.103161 0)
(-0.121946 0.0650316 0)
(0.107413 0.171465 0)
(-0.113134 0.482998 0)
(0.396006 1.07552 0)
(-0.0385667 0.957816 0)
(-0.0130851 0.633876 0)
(-0.116546 -0.0937462 0)
(-0.124342 -0.0845332 0)
(-0.130811 -0.0745186 0)
(-0.134751 -0.0616384 0)
(-0.140798 -0.0478883 0)
(-0.140077 -0.0347215 0)
(-0.143283 -0.0189116 0)
(-0.138327 -0.00127643 0)
(-0.128573 0.0113444 0)
(-0.128784 0.0253953 0)
(-0.0868417 0.0435384 0)
(-0.116303 0.0357731 0)
(0.000586395 0.0782802 0)
(-0.0961141 0.0273733 0)
(0.115544 0.141857 0)
(-0.0369234 0.384432 0)
(0.405653 0.99053 0)
(-0.00823044 1.07891 0)
(-0.00557873 0.703998 0)
(-0.108612 -0.0873346 0)
(-0.114922 -0.0790241 0)
(-0.120934 -0.0695227 0)
(-0.123822 -0.0577755 0)
(-0.128649 -0.0456482 0)
(-0.128261 -0.0338276 0)
(-0.12986 -0.0202971 0)
(-0.12572 -0.00604335 0)
(-0.11678 0.00420817 0)
(-0.11687 0.0129707 0)
(-0.0813502 0.0275337 0)
(-0.104261 0.0130551 0)
(-0.00309106 0.0491985 0)
(-0.0760318 -0.0143303 0)
(0.109292 0.0824717 0)
(0.0157197 0.290374 0)
(0.401631 0.870848 0)
(0.19181 1.20923 0)
(0.0171674 0.86903 0)
(-0.101182 -0.0828948 0)
(-0.105984 -0.074238 0)
(-0.111629 -0.0652139 0)
(-0.113934 -0.0546124 0)
(-0.117752 -0.0437683 0)
(-0.117934 -0.0331599 0)
(-0.118696 -0.0216723 0)
(-0.115595 -0.00999949 0)
(-0.108342 -0.00177431 0)
(-0.108768 0.00312615 0)
(-0.0817464 0.0132346 0)
(-0.0979299 -0.00405869 0)
(-0.0225685 0.0186342 0)
(-0.0747243 -0.0503907 0)
(0.0741156 0.0217775 0)
(0.0132332 0.195495 0)
(0.290387 0.783581 0)
(0.265448 1.23998 0)
(0.076402 1.03664 0)
(-0.0938895 -0.0784703 0)
(-0.0978366 -0.0701468 0)
(-0.102828 -0.0616173 0)
(-0.104964 -0.0519542 0)
(-0.108099 -0.04209 0)
(-0.108746 -0.032533 0)
(-0.109362 -0.0226241 0)
(-0.10739 -0.0128099 0)
(-0.102222 -0.00594915 0)
(-0.103774 -0.00319226 0)
(-0.084999 0.00316511 0)
(-0.0989359 -0.0130412 0)
(-0.0517071 -0.00565481 0)
(-0.0942459 -0.0666818 0)
(0.00119265 -0.0240045 0)
(-0.0664091 0.14068 0)
(0.0750144 0.737348 0)
(0.147264 1.26537 0)
(0.0131435 1.08265 0)
(-0.0869093 -0.0746596 0)
(-0.0901689 -0.0665469 0)
(-0.0945935 -0.0584335 0)
(-0.096696 -0.0495801 0)
(-0.0994091 -0.040499 0)
(-0.100463 -0.0317518 0)
(-0.101231 -0.0229323 0)
(-0.100325 -0.0144229 0)
(-0.0972697 -0.00811597 0)
(-0.100453 -0.00594544 0)
(-0.0884294 -0.00133246 0)
(-0.104847 -0.0139586 0)
(-0.0785639 -0.0142926 0)
(-0.128276 -0.0570203 0)
(-0.0784459 -0.0330937 0)
(-0.19667 0.150332 0)
(-0.133609 0.70273 0)
(-0.046095 1.1546 0)
(0.0595747 0.930081 0)
(-0.0801132 -0.0711285 0)
(-0.0829889 -0.0633563 0)
(-0.0868772 -0.0555843 0)
(-0.0889968 -0.047361 0)
(-0.0914545 -0.0389169 0)
(-0.0927995 -0.0307898 0)
(-0.093828 -0.0226064 0)
(-0.0939268 -0.01505 0)
(-0.0926911 -0.00853957 0)
(-0.0970524 -0.00562774 0)
(-0.0896812 -0.00086462 0)
(-0.10988 -0.00831483 0)
(-0.0939515 -0.00811134 0)
(-0.154933 -0.0311015 0)
(-0.126829 -0.0132374 0)
(-0.276298 0.185851 0)
(-0.229519 0.677262 0)
(-0.410673 1.04704 0)
(-0.0214144 0.961259 0)
(-0.0735277 -0.067926 0)
(-0.0761577 -0.0604854 0)
(-0.0795845 -0.0530086 0)
(-0.0817443 -0.0452763 0)
(-0.084075 -0.0373856 0)
(-0.0855456 -0.0296621 0)
(-0.0867595 -0.0218737 0)
(-0.0875618 -0.0146392 0)
(-0.0876823 -0.00791769 0)
(-0.0924837 -0.00317593 0)
(-0.0876714 0.0030138 0)
(-0.111082 0.00152742 0)
(-0.096078 0.0069788 0)
(-0.165662 0.00357934 0)
(-0.135726 0.0232382 0)
(-0.290269 0.232395 0)
(-0.160355 0.654969 0)
(-0.37325 1.06113 0)
(-0.0129509 0.972625 0)
(-0.067141 -0.0649505 0)
(-0.0696404 -0.0578332 0)
(-0.0726914 -0.0506297 0)
(-0.074891 -0.0433137 0)
(-0.0770822 -0.0358633 0)
(-0.0785783 -0.0283933 0)
(-0.0799175 -0.020939 0)
(-0.0809738 -0.0137065 0)
(-0.0818947 -0.00666235 0)
(-0.0860823 -0.000222659 0)
(-0.0816597 0.00775472 0)
(-0.106622 0.0121234 0)
(-0.0844456 0.0231697 0)
(-0.162725 0.0365778 0)
(-0.110694 0.0590373 0)
(-0.267237 0.260746 0)
(-0.159462 0.586904 0)
(-0.243205 0.959448 0)
(0.00961843 0.980521 0)
(-0.0609414 -0.0622131 0)
(-0.0633638 -0.0553799 0)
(-0.0661288 -0.0484289 0)
(-0.0683503 -0.0414381 0)
(-0.0703933 -0.034299 0)
(-0.071851 -0.0271174 0)
(-0.0731711 -0.0199224 0)
(-0.0742388 -0.0127004 0)
(-0.075291 -0.0054594 0)
(-0.0783055 0.00225247 0)
(-0.0724493 0.0115411 0)
(-0.0977642 0.0194694 0)
(-0.0632922 0.0352809 0)
(-0.148569 0.0596064 0)
(-0.0611072 0.0852521 0)
(-0.220591 0.281039 0)
(-0.138567 0.52417 0)
(-0.160152 0.832806 0)
(0.0457824 0.943139 0)
(-0.0549273 -0.0596594 0)
(-0.0573033 -0.0530688 0)
(-0.0598454 -0.0463625 0)
(-0.0620467 -0.0396346 0)
(-0.0639857 -0.0327577 0)
(-0.0653796 -0.0258896 0)
(-0.066596 -0.0189613 0)
(-0.0674758 -0.0119746 0)
(-0.0681596 -0.00465771 0)
(-0.0696261 0.00348164 0)
(-0.062011 0.0130458 0)
(-0.0857768 0.0223905 0)
(-0.0377805 0.0409042 0)
(-0.127528 0.0671852 0)
(0.00959305 0.0932779 0)
(-0.173744 0.276967 0)
(0.0805081 0.466778 0)
(-0.173949 0.844458 0)
(0.0511084 0.922119 0)
(-0.049068 -0.0572589 0)
(-0.0514192 -0.0508717 0)
(-0.0538077 -0.0443848 0)
(-0.0559762 -0.0378836 0)
(-0.0578406 -0.0312672 0)
(-0.059197 -0.0247364 0)
(-0.0603312 -0.0181399 0)
(-0.0608984 -0.0115643 0)
(-0.0609798 -0.0046357 0)
(-0.0613078 0.00303443 0)
(-0.0515485 0.0118138 0)
(-0.0727556 0.0199069 0)
(-0.0122596 0.0393614 0)
(-0.101355 0.0551118 0)
(0.0755151 0.0905076 0)
(-0.117439 0.217391 0)
(0.331168 0.428047 0)
(-0.250011 0.885976 0)
(0.0353347 0.951293 0)
(-0.043351 -0.0549846 0)
(-0.0456898 -0.0487772 0)
(-0.0479813 -0.0424641 0)
(-0.0501335 -0.0361637 0)
(-0.05198 -0.0297933 0)
(-0.0533678 -0.0235877 0)
(-0.0544687 -0.0173855 0)
(-0.0549228 -0.0112761 0)
(-0.0545938 -0.00521854 0)
(-0.0538531 0.00122167 0)
(-0.0434828 0.00847532 0)
(-0.060241 0.0128274 0)
(0.00283263 0.0312634 0)
(-0.0699883 0.0291144 0)
(0.105309 0.0787628 0)
(-0.0778665 0.15109 0)
(0.352287 0.427826 0)
(-0.378818 1.01281 0)
(0.18268 0.967497 0)
(-0.0377374 -0.0527889 0)
(-0.0400844 -0.0467175 0)
(-0.0423399 -0.0405771 0)
(-0.044498 -0.0345151 0)
(-0.0463724 -0.028393 0)
(-0.0478516 -0.0224931 0)
(-0.0489754 -0.0167531 0)
(-0.0495162 -0.0112323 0)
(-0.0491634 -0.00617082 0)
(-0.0479747 -0.00151007 0)
(-0.0381906 0.00294507 0)
(-0.0502603 0.00258025 0)
(0.00905263 0.0155462 0)
(-0.0405786 -0.00167478 0)
(0.129156 0.037738 0)
(-0.0163841 0.117411 0)
(0.34678 0.483686 0)
(-0.37105 1.03381 0)
(0.430977 0.957542 0)
(-0.0321247 -0.0506056 0)
(-0.0345692 -0.0446507 0)
(-0.0368756 -0.0386058 0)
(-0.0390563 -0.0326812 0)
(-0.0411228 -0.0267752 0)
(-0.0429445 -0.021045 0)
(-0.0444677 -0.0157217 0)
(-0.0455945 -0.0107686 0)
(-0.04605 -0.00662874 0)
(-0.0457376 -0.00377445 0)
(-0.0388532 -0.0023016 0)
(-0.0480768 -0.00858709 0)
(0.0038907 -0.00376904 0)
(-0.0369501 -0.0418976 0)
(0.129554 -0.0414409 0)
(0.029481 0.0888708 0)
(0.439969 0.534633 0)
(-0.160038 1.02266 0)
(0.604944 1.0784 0)
(-0.0263142 -0.0484734 0)
(-0.0286914 -0.0425567 0)
(-0.0311726 -0.0367532 0)
(-0.033446 -0.0310167 0)
(-0.0355137 -0.0253571 0)
(-0.0374803 -0.0198683 0)
(-0.0392635 -0.0146419 0)
(-0.0408765 -0.0100027 0)
(-0.0424941 -0.00640693 0)
(-0.0440765 -0.00453283 0)
(-0.0427947 -0.00568167 0)
(-0.0528856 -0.0166831 0)
(-0.0199506 -0.0212828 0)
(-0.0744154 -0.0823082 0)
(0.0590726 -0.127516 0)
(-0.0310721 -0.0033612 0)
(0.504973 0.425033 0)
(0.131442 1.11113 0)
(0.766145 1.30159 0)
(-0.0199935 -0.045819 0)
(-0.0221588 -0.039748 0)
(-0.0244812 -0.0339752 0)
(-0.0268144 -0.0283405 0)
(-0.0291424 -0.0228138 0)
(-0.0314385 -0.0174332 0)
(-0.0337336 -0.0121966 0)
(-0.0361196 -0.00738795 0)
(-0.0387484 -0.00330213 0)
(-0.0419571 -0.000705727 0)
(-0.04591 -0.000825847 0)
(-0.0561735 -0.00828282 0)
(-0.0512905 -0.0141205 0)
(-0.098297 -0.0742064 0)
(-0.0111333 -0.117067 0)
(-0.178175 -0.21906 0)
(0.460478 0.141218 0)
(0.217967 1.02157 0)
(1.02739 1.69343 0)
(-0.0154257 -0.0454285 0)
(-0.015957 -0.0385717 0)
(-0.0170082 -0.0323323 0)
(-0.0183418 -0.0265609 0)
(-0.0196297 -0.0211116 0)
(-0.0207829 -0.015879 0)
(-0.0217653 -0.0107931 0)
(-0.0226691 -0.00588204 0)
(-0.0237752 -0.00125004 0)
(-0.0255528 0.00269499 0)
(-0.0283532 0.00512276 0)
(-0.0345371 0.00262779 0)
(-0.0364294 -0.00570449 0)
(-0.0705619 -0.070667 0)
(0.00891411 -0.111826 0)
(-0.163977 -0.339381 0)
(0.265866 -0.0681892 0)
(-0.0736582 0.846924 0)
(1.04655 2.20665 0)
)
;

boundaryField
{
    leftWall
    {
        type            fixedValue;
        value           nonuniform 0();
    }
    rightWall
    {
        type            fixedValue;
        value           uniform (0 0 0);
    }
    lowerWall
    {
        type            fixedValue;
        value           nonuniform 0();
    }
    atmosphere
    {
        type            fluxCorrectedVelocity;
        value           nonuniform List<vector> 
23
(
(-0.0167576 -0.061489 0)
(-0.0161595 -0.0578491 0)
(-0.0157701 -0.0543268 0)
(-0.0154967 -0.0509074 0)
(-0.0154257 -0.0454255 0)
(-0.015957 -0.0385639 0)
(-0.0170082 -0.0323202 0)
(-0.0183418 -0.0265454 0)
(-0.0196297 -0.0210938 0)
(-0.0207829 -0.0158586 0)
(-0.0217653 -0.0107682 0)
(-0.0226691 -0.00584526 0)
(-0.0237752 -0.00117142 0)
(-0.0255528 0.00289289 0)
(-0.0283532 0.00552706 0)
(-0.0345371 0.00281721 0)
(-0.0364294 -0.00559668 0)
(-0.0705619 -0.0716045 0)
(0.00891411 -0.110893 0)
(-0.163977 -0.342742 0)
(0.265866 -0.0690322 0)
(-0.0736582 0.825768 0)
(1.04655 2.20487 0)
)
;
    }
    defaultFaces
    {
        type            empty;
    }
    procBoundary3to1
    {
        type            processor;
        value           nonuniform List<vector> 
23
(
(-0.138309 -0.200377 0)
(-0.147354 -0.203832 0)
(-0.153629 -0.205609 0)
(-0.166592 -0.210655 0)
(-0.186661 -0.214246 0)
(-0.212897 -0.220158 0)
(-0.245836 -0.215969 0)
(-0.273984 -0.204472 0)
(-0.306235 -0.181142 0)
(-0.333202 -0.156063 0)
(-0.374044 -0.112988 0)
(-0.411103 -0.0717424 0)
(-0.453171 -0.0253296 0)
(-0.508266 0.0366984 0)
(-0.552302 0.115047 0)
(-0.646199 0.268259 0)
(-0.567187 0.614286 0)
(-0.240501 1.08652 0)
(0.129973 0.984065 0)
(0.3323 0.947786 0)
(0.0811069 0.941783 0)
(-0.0447627 0.214393 0)
(-0.0233219 0.28939 0)
)
;
    }
    procBoundary3to2
    {
        type            processor;
        value           nonuniform List<vector> 
25
(
(-0.140407 -0.180068 0)
(-0.144536 -0.178442 0)
(-0.130505 -0.168533 0)
(-0.130537 -0.157817 0)
(-0.119107 -0.155772 0)
(-0.115627 -0.139405 0)
(-0.10977 -0.132417 0)
(-0.105433 -0.121896 0)
(-0.0986701 -0.116195 0)
(-0.0929084 -0.108077 0)
(-0.0867958 -0.103066 0)
(-0.0807998 -0.0975873 0)
(-0.0749595 -0.0931777 0)
(-0.0691869 -0.0890525 0)
(-0.0635513 -0.0853664 0)
(-0.0579997 -0.0819892 0)
(-0.0525472 -0.0789006 0)
(-0.047164 -0.0760561 0)
(-0.0418361 -0.0734348 0)
(-0.0365127 -0.0710283 0)
(-0.0311035 -0.0687324 0)
(-0.0254185 -0.0661298 0)
(-0.0209949 -0.0645134 0)
(-0.0185253 -0.0648497 0)
(-0.0176147 -0.0671152 0)
)
;
    }
}


// ************************************************************************* //
