/*--------------------------------*- C++ -*----------------------------------*\
| =========                 |                                                 |
| \\      /  F ield         | OpenFOAM: The Open Source CFD Toolbox           |
|  \\    /   O peration     | Version:  2.4.0                                 |
|   \\  /    A nd           | Web:      www.OpenFOAM.org                      |
|    \\/     M anipulation  |                                                 |
\*---------------------------------------------------------------------------*/
FoamFile
{
    version     2.0;
    format      ascii;
    class       volVectorField;
    location    "0.45";
    object      U.mercury;
}
// * * * * * * * * * * * * * * * * * * * * * * * * * * * * * * * * * * * * * //

dimensions      [0 1 -1 0 0 0 0];

internalField   nonuniform List<vector> 
575
(
(-0.145295 -0.177841 0)
(-0.151901 -0.176131 0)
(-0.157409 -0.174646 0)
(-0.165184 -0.178219 0)
(-0.149935 -0.175288 0)
(-0.155917 -0.172585 0)
(-0.159248 -0.17021 0)
(-0.164542 -0.170225 0)
(-0.136955 -0.164691 0)
(-0.142675 -0.164357 0)
(-0.145847 -0.165342 0)
(-0.153461 -0.162967 0)
(-0.136562 -0.152587 0)
(-0.140749 -0.148411 0)
(-0.143725 -0.147187 0)
(-0.15038 -0.142747 0)
(-0.126891 -0.150138 0)
(-0.132854 -0.143517 0)
(-0.137123 -0.14103 0)
(-0.143251 -0.134646 0)
(-0.12322 -0.135214 0)
(-0.129278 -0.128884 0)
(-0.13385 -0.126197 0)
(-0.136932 -0.122545 0)
(-0.116688 -0.126912 0)
(-0.121507 -0.120962 0)
(-0.125519 -0.117445 0)
(-0.128776 -0.114052 0)
(-0.110392 -0.119389 0)
(-0.1141 -0.11522 0)
(-0.117897 -0.110667 0)
(-0.120336 -0.10641 0)
(-0.103504 -0.11081 0)
(-0.107178 -0.107341 0)
(-0.110527 -0.103367 0)
(-0.113715 -0.0989646 0)
(-0.0970827 -0.10488 0)
(-0.0995672 -0.101651 0)
(-0.102856 -0.0979064 0)
(-0.105407 -0.0944077 0)
(-0.0903152 -0.0985401 0)
(-0.092855 -0.0958025 0)
(-0.0953826 -0.092528 0)
(-0.0983632 -0.0887827 0)
(-0.0840465 -0.0934568 0)
(-0.0860868 -0.0907628 0)
(-0.0883461 -0.0877084 0)
(-0.0910009 -0.0844546 0)
(-0.0778104 -0.0887914 0)
(-0.079716 -0.0861229 0)
(-0.0815543 -0.0832825 0)
(-0.0840387 -0.0801972 0)
(-0.0717945 -0.0847503 0)
(-0.0734887 -0.082056 0)
(-0.0750733 -0.079294 0)
(-0.0772721 -0.076411 0)
(-0.0659296 -0.0811065 0)
(-0.0674899 -0.0784085 0)
(-0.0688725 -0.0756994 0)
(-0.0707822 -0.0729362 0)
(-0.0601953 -0.0778203 0)
(-0.0616392 -0.0751325 0)
(-0.0628964 -0.0724465 0)
(-0.0645341 -0.0697561 0)
(-0.0545846 -0.0748209 0)
(-0.0559245 -0.072165 0)
(-0.0570983 -0.0695003 0)
(-0.058502 -0.0668525 0)
(-0.049064 -0.0720554 0)
(-0.0503128 -0.0694389 0)
(-0.0514361 -0.0667965 0)
(-0.0526695 -0.0641759 0)
(-0.0436254 -0.0694879 0)
(-0.0447846 -0.0669077 0)
(-0.0458673 -0.0642926 0)
(-0.0469836 -0.0616935 0)
(-0.0382107 -0.0671004 0)
(-0.0393054 -0.064537 0)
(-0.0403667 -0.061941 0)
(-0.0414135 -0.0593567 0)
(-0.0327482 -0.0648067 0)
(-0.0338098 -0.0622526 0)
(-0.0348616 -0.059676 0)
(-0.0358904 -0.0571069 0)
(-0.0270966 -0.0623999 0)
(-0.0281994 -0.0599376 0)
(-0.0292663 -0.0574251 0)
(-0.0303102 -0.0548912 0)
(-0.0217913 -0.0603265 0)
(-0.0225534 -0.0576962 0)
(-0.0234741 -0.0551497 0)
(-0.0244672 -0.0526482 0)
(-0.0183984 -0.0598464 0)
(-0.018373 -0.0566377 0)
(-0.0185652 -0.0535786 0)
(-0.0189348 -0.0506206 0)
(-0.0167572 -0.061511 0)
(-0.0161596 -0.0578737 0)
(-0.0157702 -0.0543544 0)
(-0.0154968 -0.0509377 0)
(-0.18014 -0.178556 0)
(-0.199749 -0.17824 0)
(-0.223603 -0.167964 0)
(-0.257053 -0.149199 0)
(-0.287088 -0.129501 0)
(-0.313317 -0.108257 0)
(-0.345846 -0.0750325 0)
(-0.373591 -0.0376933 0)
(-0.400542 0.00768685 0)
(-0.438804 0.074308 0)
(-0.451763 0.150407 0)
(-0.501898 0.282931 0)
(-0.413146 0.519265 0)
(-0.221981 0.805811 0)
(-0.0258114 0.766935 0)
(0.329385 0.927084 0)
(-0.124478 1.12964 0)
(0.078481 0.192043 0)
(0.0130574 0.333985 0)
(-0.17578 -0.16945 0)
(-0.195852 -0.165532 0)
(-0.217033 -0.155416 0)
(-0.242427 -0.137193 0)
(-0.260605 -0.120935 0)
(-0.285569 -0.0961356 0)
(-0.309787 -0.0552333 0)
(-0.330014 -0.0167303 0)
(-0.347222 0.0269882 0)
(-0.370785 0.094017 0)
(-0.360815 0.160717 0)
(-0.385905 0.2676 0)
(-0.272855 0.427903 0)
(-0.15128 0.632371 0)
(-0.00483747 0.574729 0)
(0.342162 0.898958 0)
(-0.0938018 1.24266 0)
(0.0944892 0.175964 0)
(0.0103049 0.366471 0)
(-0.165466 -0.154453 0)
(-0.181856 -0.144731 0)
(-0.207258 -0.133867 0)
(-0.221698 -0.117717 0)
(-0.240153 -0.096676 0)
(-0.260119 -0.0722006 0)
(-0.280782 -0.0375882 0)
(-0.28724 -0.00277908 0)
(-0.300293 0.0386701 0)
(-0.309875 0.0984672 0)
(-0.284942 0.153527 0)
(-0.296476 0.235158 0)
(-0.17028 0.335265 0)
(-0.0908643 0.490053 0)
(0.101348 0.408212 0)
(0.340617 0.868594 0)
(0.0863824 1.31542 0)
(0.107926 0.177052 0)
(0.00879124 0.404818 0)
(-0.162383 -0.137349 0)
(-0.176553 -0.128407 0)
(-0.192751 -0.117891 0)
(-0.205286 -0.103902 0)
(-0.220139 -0.0831394 0)
(-0.236438 -0.0585047 0)
(-0.248481 -0.0284268 0)
(-0.252183 0.00383009 0)
(-0.257199 0.0431962 0)
(-0.258979 0.0926167 0)
(-0.225757 0.13622 0)
(-0.229944 0.195622 0)
(-0.10349 0.254946 0)
(-0.0712527 0.340954 0)
(0.168065 0.256679 0)
(0.284466 0.861235 0)
(0.287657 1.40752 0)
(0.109133 0.212789 0)
(-0.000475361 0.455164 0)
(-0.152273 -0.12516 0)
(-0.166521 -0.116055 0)
(-0.177326 -0.107752 0)
(-0.188773 -0.0925114 0)
(-0.202783 -0.0692015 0)
(-0.214018 -0.0484319 0)
(-0.217187 -0.0236365 0)
(-0.224675 0.00895208 0)
(-0.219349 0.0402256 0)
(-0.218634 0.082113 0)
(-0.181353 0.115347 0)
(-0.189726 0.154197 0)
(-0.0641382 0.195154 0)
(-0.0994694 0.217386 0)
(0.154663 0.168322 0)
(0.0229825 0.873931 0)
(0.392472 1.40254 0)
(0.0373341 0.362499 0)
(-0.00774745 0.501435 0)
(-0.14463 -0.114523 0)
(-0.156655 -0.105935 0)
(-0.163269 -0.0968789 0)
(-0.174764 -0.0811759 0)
(-0.184778 -0.0605332 0)
(-0.191429 -0.0436917 0)
(-0.194216 -0.0197527 0)
(-0.197902 0.0102118 0)
(-0.188748 0.0336634 0)
(-0.187911 0.068557 0)
(-0.146153 0.0949307 0)
(-0.165878 0.118905 0)
(-0.0406885 0.154106 0)
(-0.129849 0.142976 0)
(0.108488 0.164182 0)
(-0.19376 0.751664 0)
(0.450043 1.28854 0)
(-0.107626 0.612291 0)
(-0.0128154 0.531541 0)
(-0.134317 -0.107601 0)
(-0.144924 -0.0984337 0)
(-0.151762 -0.088453 0)
(-0.160987 -0.0730625 0)
(-0.169033 -0.0542465 0)
(-0.170568 -0.0393259 0)
(-0.176255 -0.0185213 0)
(-0.173575 0.0080796 0)
(-0.164065 0.0263191 0)
(-0.163775 0.0539051 0)
(-0.119087 0.0767614 0)
(-0.147693 0.0884812 0)
(-0.0222769 0.126204 0)
(-0.136363 0.100274 0)
(0.0979075 0.171403 0)
(-0.194213 0.602242 0)
(0.435719 1.16652 0)
(-0.057656 0.81135 0)
(-0.0135131 0.561237 0)
(-0.125317 -0.0984865 0)
(-0.134585 -0.0909515 0)
(-0.141139 -0.0804658 0)
(-0.147263 -0.0667579 0)
(-0.15413 -0.0510128 0)
(-0.153701 -0.0365171 0)
(-0.159051 -0.0180981 0)
(-0.153931 0.00360315 0)
(-0.144138 0.0188125 0)
(-0.144273 0.0392361 0)
(-0.0993627 0.0597844 0)
(-0.131397 0.0611395 0)
(-0.00777178 0.103032 0)
(-0.121921 0.0648971 0)
(0.107439 0.171337 0)
(-0.11311 0.482864 0)
(0.396039 1.0754 0)
(-0.0379082 0.954676 0)
(-0.00819482 0.62215 0)
(-0.116522 -0.0937887 0)
(-0.124315 -0.084579 0)
(-0.130783 -0.0745689 0)
(-0.134721 -0.0616942 0)
(-0.140767 -0.0479502 0)
(-0.140045 -0.03479 0)
(-0.143251 -0.0189869 0)
(-0.138296 -0.00135886 0)
(-0.128543 0.0112545 0)
(-0.128757 0.0252982 0)
(-0.0868162 0.0434346 0)
(-0.116279 0.035661 0)
(0.000608287 0.0781608 0)
(-0.0960914 0.0272468 0)
(0.115569 0.14173 0)
(-0.0368781 0.384216 0)
(0.40566 0.990388 0)
(-0.00765801 1.07628 0)
(0.00197698 0.689846 0)
(-0.10859 -0.0873735 0)
(-0.114899 -0.079066 0)
(-0.120909 -0.0695687 0)
(-0.123797 -0.0578259 0)
(-0.128623 -0.0457038 0)
(-0.128234 -0.033888 0)
(-0.129834 -0.0203631 0)
(-0.125695 -0.00611487 0)
(-0.116757 0.00412968 0)
(-0.11685 0.0128853 0)
(-0.0813318 0.0274412 0)
(-0.104244 0.0129542 0)
(-0.00307569 0.0490895 0)
(-0.0760155 -0.0144479 0)
(0.109312 0.0823469 0)
(0.0152344 0.288033 0)
(0.401662 0.870553 0)
(0.191638 1.20664 0)
(0.014094 0.835191 0)
(-0.101163 -0.0829306 0)
(-0.105964 -0.0742767 0)
(-0.111608 -0.065256 0)
(-0.113913 -0.0546582 0)
(-0.11773 -0.0438177 0)
(-0.117911 -0.033213 0)
(-0.118674 -0.0217293 0)
(-0.115576 -0.0100611 0)
(-0.108325 -0.00184196 0)
(-0.108755 0.00305175 0)
(-0.0817352 0.0131532 0)
(-0.0979201 -0.00414747 0)
(-0.0225609 0.0185378 0)
(-0.0747161 -0.0504946 0)
(0.0741288 0.0216659 0)
(0.0122728 0.19352 0)
(0.287809 0.775084 0)
(0.264144 1.23627 0)
(0.0299647 1.02698 0)
(-0.0938724 -0.0785036 0)
(-0.0978192 -0.0701828 0)
(-0.10281 -0.0616559 0)
(-0.104945 -0.0519959 0)
(-0.108079 -0.0421339 0)
(-0.108727 -0.0325795 0)
(-0.109344 -0.0226729 0)
(-0.107375 -0.0128625 0)
(-0.102212 -0.00600661 0)
(-0.103767 -0.00325609 0)
(-0.0849938 0.00309529 0)
(-0.0989321 -0.0131164 0)
(-0.0517048 -0.00573439 0)
(-0.0942433 -0.0667638 0)
(0.00119924 -0.0240911 0)
(-0.0669267 0.139835 0)
(0.0668725 0.673594 0)
(0.146941 1.28402 0)
(0.0272363 1.22091 0)
(-0.0868943 -0.0746909 0)
(-0.0901537 -0.0665804 0)
(-0.0945778 -0.0584693 0)
(-0.0966793 -0.0496177 0)
(-0.0993914 -0.0405381 0)
(-0.100445 -0.031792 0)
(-0.101215 -0.0229742 0)
(-0.100314 -0.0144676 0)
(-0.0972638 -0.00816504 0)
(-0.100451 -0.0059997 0)
(-0.0884283 -0.00139088 0)
(-0.104846 -0.0140193 0)
(-0.0785617 -0.0143524 0)
(-0.128275 -0.0570763 0)
(-0.0784407 -0.0331475 0)
(-0.196706 0.149982 0)
(-0.116985 0.646634 0)
(-0.00745629 1.1777 0)
(0.0613382 1.41663 0)
(-0.0801001 -0.0711582 0)
(-0.0829756 -0.0633878 0)
(-0.086863 -0.0556176 0)
(-0.0889812 -0.0473953 0)
(-0.0914375 -0.0389518 0)
(-0.0927825 -0.0308249 0)
(-0.093814 -0.0226427 0)
(-0.0939188 -0.0150887 0)
(-0.0926895 -0.00858201 0)
(-0.0970541 -0.00567379 0)
(-0.0896819 -0.000913006 0)
(-0.109877 -0.00836225 0)
(-0.0939443 -0.00815433 0)
(-0.154922 -0.0311369 0)
(-0.126811 -0.0132638 0)
(-0.275845 0.185518 0)
(-0.187423 0.619868 0)
(-0.0741056 0.992615 0)
(0.0497035 1.11325 0)
(-0.0735162 -0.0679544 0)
(-0.0761459 -0.0605154 0)
(-0.0795713 -0.0530397 0)
(-0.0817292 -0.045308 0)
(-0.0840581 -0.0374171 0)
(-0.0855289 -0.0296938 0)
(-0.086747 -0.0219062 0)
(-0.0875568 -0.0146741 0)
(-0.0876839 -0.00795551 0)
(-0.0924876 -0.00321594 0)
(-0.0876717 0.00297354 0)
(-0.111076 0.00148998 0)
(-0.0960646 0.00694718 0)
(-0.165641 0.00355599 0)
(-0.135694 0.0232227 0)
(-0.287343 0.233169 0)
(-0.12247 0.577726 0)
(-0.0663804 0.996105 0)
(0.0695023 0.989729 0)
(-0.067131 -0.0649779 0)
(-0.0696296 -0.0578619 0)
(-0.0726788 -0.0506591 0)
(-0.0748758 -0.0433435 0)
(-0.0770652 -0.0358927 0)
(-0.0785621 -0.0284229 0)
(-0.0799064 -0.0209698 0)
(-0.080971 -0.0137395 0)
(-0.0818987 -0.00669741 0)
(-0.086087 -0.000258889 0)
(-0.0816583 0.00772058 0)
(-0.106612 0.0120927 0)
(-0.0844259 0.0231466 0)
(-0.162696 0.0365623 0)
(-0.110655 0.0590281 0)
(-0.261663 0.26545 0)
(-0.10202 0.565109 0)
(-0.0761697 0.96442 0)
(0.0817281 0.972376 0)
(-0.0609325 -0.06224 0)
(-0.0633538 -0.0554077 0)
(-0.0661165 -0.0484574 0)
(-0.0683352 -0.0414667 0)
(-0.0703762 -0.0343277 0)
(-0.0718355 -0.0271467 0)
(-0.0731617 -0.0199533 0)
(-0.0742377 -0.0127331 0)
(-0.0752962 -0.00549362 0)
(-0.0783094 0.00221871 0)
(-0.0724451 0.0115104 0)
(-0.0977491 0.0194437 0)
(-0.0632661 0.0352626 0)
(-0.148534 0.0595956 0)
(-0.0610554 0.0852513 0)
(-0.218925 0.283707 0)
(-0.0842017 0.59333 0)
(-0.0798583 0.841585 0)
(0.0952337 0.964593 0)
(-0.0549196 -0.0596859 0)
(-0.057294 -0.0530962 0)
(-0.0598335 -0.0463906 0)
(-0.0620318 -0.0396631 0)
(-0.0639693 -0.0327869 0)
(-0.0653653 -0.0259202 0)
(-0.0665881 -0.0189938 0)
(-0.067476 -0.0120086 0)
(-0.0681646 -0.00469257 0)
(-0.0696282 0.00344883 0)
(-0.062003 0.0130161 0)
(-0.0857565 0.0223666 0)
(-0.0377492 0.0408851 0)
(-0.127484 0.0671721 0)
(0.00965977 0.0932757 0)
(-0.173641 0.277016 0)
(0.0310276 0.596821 0)
(-0.0784758 0.834383 0)
(0.122378 0.965559 0)
(-0.0490611 -0.0572855 0)
(-0.0514106 -0.0508992 0)
(-0.0537964 -0.0444131 0)
(-0.055962 -0.0379129 0)
(-0.0578254 -0.031298 0)
(-0.0591845 -0.0247693 0)
(-0.0603249 -0.0181749 0)
(-0.0608996 -0.0116009 0)
(-0.060984 -0.00467195 0)
(-0.0613074 0.00300003 0)
(-0.0515369 0.0117835 0)
(-0.0727317 0.0198796 0)
(-0.0122258 0.0393372 0)
(-0.101307 0.0550886 0)
(0.0755803 0.0904861 0)
(-0.117329 0.217365 0)
(0.288642 0.492384 0)
(-0.0665095 0.868727 0)
(0.189097 0.950249 0)
(-0.0433452 -0.0550116 0)
(-0.0456822 -0.0488053 0)
(-0.047971 -0.0424934 0)
(-0.0501209 -0.0361946 0)
(-0.0519668 -0.0298265 0)
(-0.0533574 -0.0236235 0)
(-0.0544642 -0.0174238 0)
(-0.0549243 -0.011316 0)
(-0.054597 -0.00525783 0)
(-0.0538502 0.00118392 0)
(-0.0434689 0.00844064 0)
(-0.0602157 0.0127928 0)
(0.00286569 0.0312294 0)
(-0.0699442 0.0290766 0)
(0.105365 0.0787195 0)
(-0.0777841 0.151014 0)
(0.351015 0.43003 0)
(-0.0936115 0.993332 0)
(0.323586 0.909614 0)
(-0.0377326 -0.0528166 0)
(-0.0400779 -0.0467464 0)
(-0.0423311 -0.0406077 0)
(-0.0444874 -0.034548 0)
(-0.0463619 -0.0284289 0)
(-0.0478438 -0.0225323 0)
(-0.0489727 -0.0167953 0)
(-0.0495182 -0.0112759 0)
(-0.0491658 -0.00621498 0)
(-0.0479705 -0.00155303 0)
(-0.0381765 0.00290131 0)
(-0.0502362 0.00253445 0)
(0.00908213 0.0154953 0)
(-0.0405394 -0.00173076 0)
(0.129189 0.0376718 0)
(-0.0163758 0.117319 0)
(0.346716 0.48352 0)
(-0.16893 1.20854 0)
(0.473049 0.919414 0)
(-0.0321211 -0.0506343 0)
(-0.0345641 -0.0446809 0)
(-0.0368689 -0.038638 0)
(-0.0390484 -0.0327163 0)
(-0.0411153 -0.0268136 0)
(-0.0429397 -0.0210872 0)
(-0.0444671 -0.0157668 0)
(-0.0455977 -0.0108157 0)
(-0.0460526 -0.00667639 0)
(-0.0457345 -0.00382345 0)
(-0.0388421 -0.00235374 0)
(-0.048058 -0.0086462 0)
(0.00391404 -0.00383667 0)
(-0.036919 -0.0419751 0)
(0.129581 -0.0415282 0)
(0.0294917 0.088788 0)
(0.439887 0.534615 0)
(-0.131946 1.20571 0)
(0.643358 1.07344 0)
(-0.0263118 -0.0485034 0)
(-0.0286881 -0.0425882 0)
(-0.0311683 -0.0367868 0)
(-0.033441 -0.031053 0)
(-0.0355096 -0.0253968 0)
(-0.0374785 -0.019911 0)
(-0.0392654 -0.014687 0)
(-0.0408809 -0.0100487 0)
(-0.042498 -0.00645309 0)
(-0.0440764 -0.00458009 0)
(-0.04279 -0.00573344 0)
(-0.0528752 -0.0167419 0)
(-0.0199366 -0.0213525 0)
(-0.074392 -0.0823882 0)
(0.0591067 -0.127608 0)
(-0.0310077 -0.00344098 0)
(0.505028 0.425071 0)
(0.129003 1.12834 0)
(0.815407 1.2945 0)
(-0.0199926 -0.0458503 0)
(-0.0221571 -0.0397806 0)
(-0.0244789 -0.0340097 0)
(-0.0268121 -0.0283772 0)
(-0.0291408 -0.0228529 0)
(-0.0314386 -0.017474 0)
(-0.033736 -0.0122381 0)
(-0.0361237 -0.007428 0)
(-0.0387522 -0.00334057 0)
(-0.0419593 -0.000743009 0)
(-0.0459094 -0.000865514 0)
(-0.0561706 -0.00832583 0)
(-0.0512835 -0.0141715 0)
(-0.098279 -0.0742663 0)
(-0.0110914 -0.117142 0)
(-0.178088 -0.219148 0)
(0.460727 0.141158 0)
(0.218562 1.02158 0)
(1.05499 1.75094 0)
(-0.0154255 -0.0454608 0)
(-0.0159564 -0.0386049 0)
(-0.0170075 -0.0323669 0)
(-0.0183411 -0.0265974 0)
(-0.0196293 -0.0211495 0)
(-0.0207831 -0.0159177 0)
(-0.0217664 -0.0108307 0)
(-0.0226707 -0.00591696 0)
(-0.0237767 -0.00128125 0)
(-0.0255537 0.00266604 0)
(-0.0283536 0.00509513 0)
(-0.0345366 0.00259878 0)
(-0.0364268 -0.00573639 0)
(-0.0705524 -0.0707039 0)
(0.008937 -0.111879 0)
(-0.163924 -0.339455 0)
(0.266014 -0.0683868 0)
(-0.0733384 0.846245 0)
(1.20255 2.16787 0)
)
;

boundaryField
{
    leftWall
    {
        type            fixedValue;
        value           nonuniform 0();
    }
    rightWall
    {
        type            fixedValue;
        value           uniform (0 0 0);
    }
    lowerWall
    {
        type            fixedValue;
        value           nonuniform 0();
    }
    atmosphere
    {
        type            fluxCorrectedVelocity;
        value           nonuniform List<vector> 
23
(
(-0.0167572 -0.061489 0)
(-0.0161596 -0.0578491 0)
(-0.0157702 -0.0543268 0)
(-0.0154968 -0.0509074 0)
(-0.0154255 -0.0454255 0)
(-0.0159564 -0.0385639 0)
(-0.0170075 -0.0323202 0)
(-0.0183411 -0.0265454 0)
(-0.0196293 -0.0210938 0)
(-0.0207831 -0.0158586 0)
(-0.0217664 -0.0107682 0)
(-0.0226707 -0.00584526 0)
(-0.0237767 -0.00117142 0)
(-0.0255537 0.00289289 0)
(-0.0283536 0.00552706 0)
(-0.0345366 0.00281721 0)
(-0.0364268 -0.00559668 0)
(-0.0705524 -0.0716045 0)
(0.008937 -0.110893 0)
(-0.163924 -0.342742 0)
(0.266014 -0.0690322 0)
(-0.0733384 0.825768 0)
(1.20255 2.20487 0)
)
;
    }
    defaultFaces
    {
        type            empty;
    }
    procBoundary3to1
    {
        type            processor;
        value           nonuniform List<vector> 
23
(
(-0.138307 -0.200491 0)
(-0.147347 -0.203946 0)
(-0.153608 -0.205722 0)
(-0.166556 -0.210771 0)
(-0.186606 -0.214366 0)
(-0.212822 -0.220286 0)
(-0.24573 -0.216113 0)
(-0.273853 -0.204641 0)
(-0.306083 -0.181345 0)
(-0.333042 -0.156303 0)
(-0.373888 -0.113267 0)
(-0.410952 -0.072065 0)
(-0.453034 -0.0257026 0)
(-0.508164 0.0362839 0)
(-0.552359 0.11489 0)
(-0.644564 0.270274 0)
(-0.558775 0.61991 0)
(-0.237355 1.08213 0)
(0.123406 0.975739 0)
(0.328481 0.943775 0)
(0.0844467 0.938998 0)
(0.0626671 0.229974 0)
(0.0262455 0.313502 0)
)
;
    }
    procBoundary3to2
    {
        type            processor;
        value           nonuniform List<vector> 
25
(
(-0.140408 -0.180168 0)
(-0.144537 -0.178533 0)
(-0.130506 -0.168613 0)
(-0.130538 -0.157888 0)
(-0.119107 -0.155835 0)
(-0.115628 -0.13946 0)
(-0.10977 -0.132465 0)
(-0.105433 -0.121939 0)
(-0.0986698 -0.116234 0)
(-0.0929078 -0.108113 0)
(-0.0867951 -0.103098 0)
(-0.0807988 -0.0976173 0)
(-0.0749587 -0.0932058 0)
(-0.0691858 -0.089079 0)
(-0.0635503 -0.0853919 0)
(-0.0579987 -0.0820138 0)
(-0.0525465 -0.0789246 0)
(-0.0471631 -0.07608 0)
(-0.0418356 -0.0734589 0)
(-0.0365122 -0.071053 0)
(-0.0311035 -0.0687578 0)
(-0.0254185 -0.0661563 0)
(-0.0209954 -0.0645405 0)
(-0.0185251 -0.0648787 0)
(-0.0176142 -0.0671464 0)
)
;
    }
}


// ************************************************************************* //
