/*--------------------------------*- C++ -*----------------------------------*\
| =========                 |                                                 |
| \\      /  F ield         | OpenFOAM: The Open Source CFD Toolbox           |
|  \\    /   O peration     | Version:  2.4.0                                 |
|   \\  /    A nd           | Web:      www.OpenFOAM.org                      |
|    \\/     M anipulation  |                                                 |
\*---------------------------------------------------------------------------*/
FoamFile
{
    version     2.0;
    format      ascii;
    class       volVectorField;
    location    "0.45";
    object      U.oil;
}
// * * * * * * * * * * * * * * * * * * * * * * * * * * * * * * * * * * * * * //

dimensions      [0 1 -1 0 0 0 0];

internalField   nonuniform List<vector> 
575
(
(-0.145296 -0.177857 0)
(-0.151903 -0.176145 0)
(-0.157411 -0.174659 0)
(-0.165186 -0.178232 0)
(-0.149935 -0.175295 0)
(-0.155918 -0.172591 0)
(-0.159249 -0.170215 0)
(-0.164542 -0.170229 0)
(-0.136955 -0.164694 0)
(-0.142676 -0.164359 0)
(-0.145847 -0.165344 0)
(-0.153461 -0.162968 0)
(-0.136562 -0.152589 0)
(-0.140749 -0.148412 0)
(-0.143725 -0.147188 0)
(-0.15038 -0.142748 0)
(-0.126891 -0.150139 0)
(-0.132854 -0.143518 0)
(-0.137123 -0.14103 0)
(-0.143251 -0.134646 0)
(-0.12322 -0.135214 0)
(-0.129278 -0.128884 0)
(-0.13385 -0.126198 0)
(-0.136932 -0.122545 0)
(-0.116688 -0.126912 0)
(-0.121507 -0.120962 0)
(-0.125519 -0.117445 0)
(-0.128776 -0.114052 0)
(-0.110392 -0.119389 0)
(-0.1141 -0.11522 0)
(-0.117897 -0.110667 0)
(-0.120336 -0.10641 0)
(-0.103504 -0.11081 0)
(-0.107178 -0.107341 0)
(-0.110527 -0.103367 0)
(-0.113715 -0.0989646 0)
(-0.0970827 -0.10488 0)
(-0.0995672 -0.101651 0)
(-0.102856 -0.0979064 0)
(-0.105407 -0.0944077 0)
(-0.0903152 -0.0985401 0)
(-0.092855 -0.0958025 0)
(-0.0953826 -0.092528 0)
(-0.0983632 -0.0887827 0)
(-0.0840465 -0.0934568 0)
(-0.0860868 -0.0907628 0)
(-0.0883461 -0.0877084 0)
(-0.0910009 -0.0844546 0)
(-0.0778104 -0.0887914 0)
(-0.079716 -0.0861229 0)
(-0.0815543 -0.0832825 0)
(-0.0840387 -0.0801972 0)
(-0.0717945 -0.0847503 0)
(-0.0734887 -0.082056 0)
(-0.0750733 -0.079294 0)
(-0.0772721 -0.076411 0)
(-0.0659296 -0.0811065 0)
(-0.0674899 -0.0784085 0)
(-0.0688725 -0.0756994 0)
(-0.0707822 -0.0729362 0)
(-0.0601953 -0.0778203 0)
(-0.0616392 -0.0751325 0)
(-0.0628964 -0.0724465 0)
(-0.0645341 -0.0697561 0)
(-0.0545846 -0.0748209 0)
(-0.0559245 -0.072165 0)
(-0.0570983 -0.0695003 0)
(-0.058502 -0.0668525 0)
(-0.049064 -0.0720554 0)
(-0.0503128 -0.0694389 0)
(-0.0514361 -0.0667965 0)
(-0.0526695 -0.0641759 0)
(-0.0436254 -0.0694879 0)
(-0.0447846 -0.0669077 0)
(-0.0458673 -0.0642926 0)
(-0.0469836 -0.0616935 0)
(-0.0382107 -0.0671004 0)
(-0.0393054 -0.064537 0)
(-0.0403667 -0.061941 0)
(-0.0414135 -0.0593567 0)
(-0.0327482 -0.0648067 0)
(-0.0338098 -0.0622526 0)
(-0.0348616 -0.059676 0)
(-0.0358904 -0.0571069 0)
(-0.0270966 -0.0623999 0)
(-0.0281994 -0.0599376 0)
(-0.0292663 -0.0574251 0)
(-0.0303102 -0.0548912 0)
(-0.0217913 -0.0603265 0)
(-0.0225534 -0.0576962 0)
(-0.0234741 -0.0551497 0)
(-0.0244672 -0.0526482 0)
(-0.0183984 -0.0598464 0)
(-0.018373 -0.0566377 0)
(-0.0185652 -0.0535786 0)
(-0.0189348 -0.0506206 0)
(-0.0167572 -0.061511 0)
(-0.0161596 -0.0578737 0)
(-0.0157702 -0.0543544 0)
(-0.0154968 -0.0509377 0)
(-0.180142 -0.178572 0)
(-0.199751 -0.17826 0)
(-0.223607 -0.167994 0)
(-0.257058 -0.149239 0)
(-0.287094 -0.129551 0)
(-0.313324 -0.108315 0)
(-0.345851 -0.0751061 0)
(-0.37359 -0.0378011 0)
(-0.4005 0.00750922 0)
(-0.438485 0.0739862 0)
(-0.450712 0.149985 0)
(-0.497361 0.28231 0)
(-0.403193 0.515927 0)
(-0.220716 0.790137 0)
(-0.0360069 0.745029 0)
(0.314953 0.908494 0)
(-0.00610212 0.657531 0)
(0.079993 0.19192 0)
(0.0131077 0.333992 0)
(-0.17578 -0.169454 0)
(-0.195853 -0.165537 0)
(-0.217034 -0.155424 0)
(-0.242428 -0.137204 0)
(-0.260606 -0.120951 0)
(-0.28557 -0.0961563 0)
(-0.309787 -0.0552647 0)
(-0.330008 -0.0167884 0)
(-0.347189 0.0268653 0)
(-0.370584 0.0936875 0)
(-0.360209 0.159911 0)
(-0.383571 0.265499 0)
(-0.268299 0.422877 0)
(-0.151847 0.617634 0)
(-0.0092481 0.550902 0)
(0.330909 0.871449 0)
(0.00404526 0.705495 0)
(0.0957368 0.175222 0)
(0.0103433 0.366453 0)
(-0.165466 -0.154454 0)
(-0.181856 -0.144733 0)
(-0.207258 -0.133869 0)
(-0.221698 -0.11772 0)
(-0.240153 -0.0966804 0)
(-0.260119 -0.0722075 0)
(-0.280782 -0.0376012 0)
(-0.287237 -0.00280959 0)
(-0.300273 0.0385886 0)
(-0.309766 0.0982184 0)
(-0.284635 0.152824 0)
(-0.295316 0.23317 0)
(-0.168328 0.330553 0)
(-0.0922174 0.478501 0)
(0.098519 0.384425 0)
(0.328641 0.838584 0)
(0.07615 0.836269 0)
(0.110283 0.174913 0)
(0.00886371 0.404776 0)
(-0.162383 -0.13735 0)
(-0.176553 -0.128407 0)
(-0.192751 -0.117891 0)
(-0.205286 -0.103903 0)
(-0.220139 -0.0831406 0)
(-0.236438 -0.0585069 0)
(-0.24848 -0.0284321 0)
(-0.252182 0.00381472 0)
(-0.257189 0.0431476 0)
(-0.258929 0.0924574 0)
(-0.225622 0.135736 0)
(-0.229351 0.194205 0)
(-0.102812 0.251139 0)
(-0.0727462 0.332093 0)
(0.163186 0.233918 0)
(0.277844 0.828589 0)
(0.213096 1.14267 0)
(0.123912 0.194727 0)
(-0.000332196 0.45511 0)
(-0.152274 -0.12516 0)
(-0.166521 -0.116055 0)
(-0.177326 -0.107752 0)
(-0.188773 -0.0925116 0)
(-0.202783 -0.0692018 0)
(-0.214018 -0.0484326 0)
(-0.217187 -0.0236386 0)
(-0.224674 0.00894489 0)
(-0.219345 0.0402003 0)
(-0.218612 0.0820264 0)
(-0.181306 0.115072 0)
(-0.189453 0.153351 0)
(-0.0640801 0.192712 0)
(-0.10072 0.211969 0)
(0.148875 0.15309 0)
(0.0181843 0.842878 0)
(0.352775 1.30431 0)
(0.15002 0.253529 0)
(-0.00758084 0.501387 0)
(-0.14463 -0.114524 0)
(-0.156655 -0.105936 0)
(-0.163269 -0.096879 0)
(-0.174764 -0.0811759 0)
(-0.184778 -0.0605333 0)
(-0.191429 -0.0436919 0)
(-0.194216 -0.0197535 0)
(-0.197901 0.0102089 0)
(-0.188747 0.0336522 0)
(-0.187901 0.0685166 0)
(-0.146142 0.0947915 0)
(-0.16576 0.118472 0)
(-0.0407022 0.152853 0)
(-0.129747 0.140412 0)
(0.104125 0.157904 0)
(-0.192561 0.725714 0)
(0.418797 1.25521 0)
(0.149513 0.351616 0)
(-0.0126312 0.53146 0)
(-0.134317 -0.107601 0)
(-0.144924 -0.0984338 0)
(-0.151762 -0.088453 0)
(-0.160987 -0.0730625 0)
(-0.169033 -0.0542465 0)
(-0.170568 -0.0393259 0)
(-0.176255 -0.0185215 0)
(-0.173575 0.00807868 0)
(-0.164065 0.0263151 0)
(-0.163772 0.053889 0)
(-0.119086 0.0766993 0)
(-0.147643 0.0882786 0)
(-0.0222994 0.125569 0)
(-0.136107 0.0990956 0)
(0.0958358 0.166903 0)
(-0.193119 0.578434 0)
(0.427841 1.13319 0)
(0.0671516 0.523404 0)
(-0.0133845 0.56109 0)
(-0.125317 -0.0984866 0)
(-0.134585 -0.0909515 0)
(-0.141139 -0.0804658 0)
(-0.147263 -0.0667579 0)
(-0.15413 -0.0510128 0)
(-0.153701 -0.0365171 0)
(-0.159051 -0.0180981 0)
(-0.153931 0.00360293 0)
(-0.144138 0.0188114 0)
(-0.144272 0.0392307 0)
(-0.099363 0.0597588 0)
(-0.131373 0.0610441 0)
(-0.00778272 0.102668 0)
(-0.12181 0.0640784 0)
(0.107569 0.164859 0)
(-0.115243 0.462329 0)
(0.399365 1.04555 0)
(0.016536 0.68009 0)
(-0.0081453 0.622015 0)
(-0.116522 -0.0937887 0)
(-0.124315 -0.084579 0)
(-0.130783 -0.0745689 0)
(-0.134721 -0.0616942 0)
(-0.140767 -0.0479502 0)
(-0.140045 -0.03479 0)
(-0.143251 -0.0189869 0)
(-0.138296 -0.00135892 0)
(-0.128543 0.0112542 0)
(-0.128756 0.025296 0)
(-0.0868165 0.0434213 0)
(-0.116265 0.0356004 0)
(0.000597398 0.0778867 0)
(-0.0960249 0.0261964 0)
(0.115497 0.132953 0)
(-0.0234181 0.286142 0)
(0.365262 0.904113 0)
(0.0430943 0.802049 0)
(0.00207114 0.689658 0)
(-0.10859 -0.0873735 0)
(-0.114899 -0.079066 0)
(-0.120909 -0.0695687 0)
(-0.123797 -0.0578259 0)
(-0.128623 -0.0457038 0)
(-0.128234 -0.033888 0)
(-0.129834 -0.0203631 0)
(-0.125695 -0.0061149 0)
(-0.116757 0.00412942 0)
(-0.11685 0.0128836 0)
(-0.0813322 0.0274287 0)
(-0.104231 0.0128889 0)
(-0.0030986 0.0487603 0)
(-0.0760159 -0.01613 0)
(0.108434 0.0689283 0)
(-0.0431943 0.0348032 0)
(0.353021 0.675051 0)
(0.156164 0.927861 0)
(0.0139857 0.83403 0)
(-0.101163 -0.0829306 0)
(-0.105964 -0.0742767 0)
(-0.111608 -0.065256 0)
(-0.113913 -0.0546582 0)
(-0.11773 -0.0438177 0)
(-0.117911 -0.033213 0)
(-0.118674 -0.0217293 0)
(-0.115576 -0.0100611 0)
(-0.108325 -0.0018422 0)
(-0.108754 0.00304992 0)
(-0.0817357 0.0131387 0)
(-0.0979036 -0.00422729 0)
(-0.0226302 0.0180675 0)
(-0.0748226 -0.0530694 0)
(0.0711098 0.00577176 0)
(-0.093308 -0.00844049 0)
(0.102203 0.193558 0)
(0.146354 0.944224 0)
(0.0232518 1.0257 0)
(-0.0938724 -0.0785036 0)
(-0.0978192 -0.0701828 0)
(-0.10281 -0.0616559 0)
(-0.104945 -0.0519959 0)
(-0.108079 -0.0421339 0)
(-0.108727 -0.0325795 0)
(-0.109344 -0.0226729 0)
(-0.107375 -0.0128626 0)
(-0.102212 -0.0060068 0)
(-0.103766 -0.00325771 0)
(-0.0849943 0.00308158 0)
(-0.0989209 -0.0131996 0)
(-0.0517929 -0.00625409 0)
(-0.0942508 -0.0692744 0)
(-0.00460948 -0.0362773 0)
(-0.15015 0.0214314 0)
(-0.00621223 0.105942 0)
(0.138343 1.80362 0)
(0.038997 1.33576 0)
(-0.0868943 -0.0746909 0)
(-0.0901537 -0.0665804 0)
(-0.0945778 -0.0584693 0)
(-0.0966793 -0.0496177 0)
(-0.0993914 -0.0405381 0)
(-0.100445 -0.031792 0)
(-0.101215 -0.0229742 0)
(-0.100314 -0.0144677 0)
(-0.0972638 -0.00816516 0)
(-0.100451 -0.00600085 0)
(-0.0884289 -0.00140161 0)
(-0.104839 -0.0140925 0)
(-0.0786436 -0.0148028 0)
(-0.128437 -0.0591209 0)
(-0.082451 -0.0410015 0)
(-0.208945 0.0637607 0)
(-0.0227978 0.330048 0)
(0.0572158 1.2164 0)
(0.062318 1.67005 0)
(-0.0801001 -0.0711582 0)
(-0.0829756 -0.0633878 0)
(-0.086863 -0.0556176 0)
(-0.0889812 -0.0473953 0)
(-0.0914375 -0.0389518 0)
(-0.0927825 -0.0308249 0)
(-0.093814 -0.0226427 0)
(-0.0939188 -0.0150887 0)
(-0.0926895 -0.00858208 0)
(-0.097054 -0.00567452 0)
(-0.0896823 -0.000920831 0)
(-0.109872 -0.00842173 0)
(-0.0939955 -0.00849846 0)
(-0.15486 -0.0326429 0)
(-0.126551 -0.020061 0)
(-0.193626 0.123817 0)
(-0.0422013 0.421806 0)
(0.0176934 0.977848 0)
(0.0550052 1.1244 0)
(-0.0735162 -0.0679544 0)
(-0.0761459 -0.0605154 0)
(-0.0795713 -0.0530397 0)
(-0.0817292 -0.045308 0)
(-0.0840581 -0.0374171 0)
(-0.0855289 -0.0296938 0)
(-0.086747 -0.0219062 0)
(-0.0875568 -0.0146741 0)
(-0.0876839 -0.00795555 0)
(-0.0924876 -0.00321641 0)
(-0.087672 0.00296783 0)
(-0.111069 0.00144306 0)
(-0.0960878 0.00667761 0)
(-0.165436 0.00242537 0)
(-0.133489 0.0209205 0)
(-0.12843 0.276234 0)
(-0.0495642 0.428601 0)
(-0.0114495 0.98453 0)
(0.070137 0.989901 0)
(-0.067131 -0.0649779 0)
(-0.0696296 -0.0578619 0)
(-0.0726788 -0.0506591 0)
(-0.0748758 -0.0433435 0)
(-0.0770652 -0.0358927 0)
(-0.0785621 -0.0284229 0)
(-0.0799064 -0.0209698 0)
(-0.080971 -0.0137395 0)
(-0.0818987 -0.00669744 0)
(-0.086087 -0.000259197 0)
(-0.0816585 0.00771652 0)
(-0.106604 0.0120573 0)
(-0.0844387 0.0229269 0)
(-0.162449 0.0357299 0)
(-0.108793 0.0605463 0)
(-0.102874 0.400207 0)
(-0.0479164 0.54453 0)
(-0.0562244 0.964925 0)
(0.0817698 0.972418 0)
(-0.0609325 -0.06224 0)
(-0.0633538 -0.0554077 0)
(-0.0661165 -0.0484574 0)
(-0.0683352 -0.0414667 0)
(-0.0703762 -0.0343277 0)
(-0.0718355 -0.0271467 0)
(-0.0731617 -0.0199533 0)
(-0.0742377 -0.0127331 0)
(-0.0752962 -0.00549364 0)
(-0.0783094 0.00221847 0)
(-0.0724451 0.0115074 0)
(-0.0977414 0.0194168 0)
(-0.0632544 0.0350811 0)
(-0.148375 0.0589358 0)
(-0.0608239 0.0864322 0)
(-0.114385 0.455218 0)
(-0.0477549 0.63972 0)
(-0.076134 0.841973 0)
(0.0952467 0.964618 0)
(-0.0549196 -0.0596859 0)
(-0.057294 -0.0530962 0)
(-0.0598335 -0.0463906 0)
(-0.0620318 -0.0396631 0)
(-0.0639693 -0.0327869 0)
(-0.0653653 -0.0259202 0)
(-0.0665881 -0.0189938 0)
(-0.067476 -0.0120086 0)
(-0.0681646 -0.00469258 0)
(-0.0696282 0.00344864 0)
(-0.062003 0.0130138 0)
(-0.0857483 0.0223436 0)
(-0.037738 0.0407232 0)
(-0.127212 0.0664686 0)
(0.0107467 0.0913297 0)
(-0.145151 0.384275 0)
(-0.0263123 0.746994 0)
(-0.0751518 0.833991 0)
(0.122411 0.965589 0)
(-0.0490611 -0.0572855 0)
(-0.0514106 -0.0508992 0)
(-0.0537964 -0.0444131 0)
(-0.055962 -0.0379129 0)
(-0.0578254 -0.031298 0)
(-0.0591845 -0.0247693 0)
(-0.0603249 -0.0181749 0)
(-0.0608996 -0.0116009 0)
(-0.060984 -0.00467196 0)
(-0.0613074 0.00299991 0)
(-0.0515368 0.0117819 0)
(-0.0727246 0.0198604 0)
(-0.0122131 0.0391757 0)
(-0.101009 0.0542513 0)
(0.0761073 0.0885903 0)
(-0.115382 0.210694 0)
(0.0265508 0.887148 0)
(-0.0571694 0.86773 0)
(0.189205 0.950215 0)
(-0.0433452 -0.0550116 0)
(-0.0456822 -0.0488053 0)
(-0.047971 -0.0424934 0)
(-0.0501209 -0.0361946 0)
(-0.0519668 -0.0298265 0)
(-0.0533574 -0.0236235 0)
(-0.0544642 -0.0174238 0)
(-0.0549243 -0.011316 0)
(-0.054597 -0.00525783 0)
(-0.0538502 0.00118386 0)
(-0.0434689 0.00843961 0)
(-0.0602107 0.0127786 0)
(0.00287886 0.0310789 0)
(-0.0696514 0.0283778 0)
(0.105604 0.0766963 0)
(-0.0766474 0.145155 0)
(0.145174 0.776203 0)
(-0.0581002 0.990763 0)
(0.323727 0.909513 0)
(-0.0377326 -0.0528166 0)
(-0.0400779 -0.0467464 0)
(-0.0423311 -0.0406077 0)
(-0.0444874 -0.034548 0)
(-0.0463619 -0.0284289 0)
(-0.0478438 -0.0225323 0)
(-0.0489727 -0.0167953 0)
(-0.0495182 -0.0112759 0)
(-0.0491658 -0.00621498 0)
(-0.0479705 -0.00155306 0)
(-0.0381765 0.00290069 0)
(-0.0502333 0.00252464 0)
(0.00909372 0.0153784 0)
(-0.0404235 -0.00213828 0)
(0.129798 0.033625 0)
(-0.0133242 0.10946 0)
(0.305285 0.537306 0)
(-0.0780824 1.28654 0)
(0.473202 0.919228 0)
(-0.0321211 -0.0506343 0)
(-0.0345641 -0.0446809 0)
(-0.0368689 -0.038638 0)
(-0.0390484 -0.0327163 0)
(-0.0411153 -0.0268136 0)
(-0.0429397 -0.0210872 0)
(-0.0444671 -0.0157668 0)
(-0.0455977 -0.0108157 0)
(-0.0460526 -0.00667639 0)
(-0.0457345 -0.00382347 0)
(-0.0388421 -0.0023541 0)
(-0.0480564 -0.00865279 0)
(0.00392085 -0.00392364 0)
(-0.0367772 -0.0424703 0)
(0.131478 -0.0535965 0)
(0.0484256 0.054854 0)
(0.430614 0.481579 0)
(-0.0656279 1.63253 0)
(0.643775 1.07334 0)
(-0.0263118 -0.0485034 0)
(-0.0286881 -0.0425882 0)
(-0.0311683 -0.0367868 0)
(-0.033441 -0.031053 0)
(-0.0355096 -0.0253968 0)
(-0.0374785 -0.019911 0)
(-0.0392654 -0.014687 0)
(-0.0408809 -0.0100487 0)
(-0.042498 -0.00645309 0)
(-0.0440764 -0.0045801 0)
(-0.04279 -0.00573373 0)
(-0.052874 -0.0167486 0)
(-0.0199377 -0.0214709 0)
(-0.0741077 -0.0834703 0)
(0.0618618 -0.150173 0)
(-0.0138693 -0.0555014 0)
(0.493576 0.331495 0)
(0.0342564 1.72026 0)
(0.816582 1.29429 0)
(-0.0199926 -0.0458503 0)
(-0.0221571 -0.0397806 0)
(-0.0244789 -0.0340097 0)
(-0.0268121 -0.0283772 0)
(-0.0291408 -0.0228529 0)
(-0.0314386 -0.017474 0)
(-0.033736 -0.0122381 0)
(-0.0361237 -0.007428 0)
(-0.0387522 -0.00334057 0)
(-0.0419593 -0.000743016 0)
(-0.0459094 -0.00086581 0)
(-0.0561698 -0.0083339 0)
(-0.0513071 -0.0143608 0)
(-0.0977887 -0.0759761 0)
(-0.0125628 -0.131141 0)
(-0.171711 -0.259792 0)
(0.45561 0.0817617 0)
(0.254062 1.43394 0)
(1.05646 1.75417 0)
(-0.0154255 -0.0454608 0)
(-0.0159564 -0.0386049 0)
(-0.0170075 -0.0323669 0)
(-0.0183411 -0.0265974 0)
(-0.0196293 -0.0211495 0)
(-0.0207831 -0.0159177 0)
(-0.0217664 -0.0108307 0)
(-0.0226707 -0.00591696 0)
(-0.0237767 -0.00128125 0)
(-0.0255537 0.00266604 0)
(-0.0283536 0.00509501 0)
(-0.0345366 0.00259589 0)
(-0.0364286 -0.0057885 0)
(-0.0705206 -0.0711519 0)
(0.00849529 -0.114624 0)
(-0.164162 -0.346395 0)
(0.262234 -0.0964169 0)
(0.0798329 1.13833 0)
(1.22513 2.16173 0)
)
;

boundaryField
{
    leftWall
    {
        type            fixedValue;
        value           nonuniform 0();
    }
    rightWall
    {
        type            fixedValue;
        value           uniform (0 0 0);
    }
    lowerWall
    {
        type            fixedValue;
        value           nonuniform 0();
    }
    atmosphere
    {
        type            fluxCorrectedVelocity;
        value           nonuniform List<vector> 
23
(
(-0.0167572 -0.061489 0)
(-0.0161596 -0.0578491 0)
(-0.0157702 -0.0543268 0)
(-0.0154968 -0.0509074 0)
(-0.0154255 -0.0454255 0)
(-0.0159564 -0.0385639 0)
(-0.0170075 -0.0323202 0)
(-0.0183411 -0.0265454 0)
(-0.0196293 -0.0210938 0)
(-0.0207831 -0.0158586 0)
(-0.0217664 -0.0107682 0)
(-0.0226707 -0.00584526 0)
(-0.0237767 -0.00117142 0)
(-0.0255537 0.00289289 0)
(-0.0283536 0.00552706 0)
(-0.0345366 0.00281721 0)
(-0.0364286 -0.00559668 0)
(-0.0705206 -0.0716045 0)
(0.00849529 -0.110893 0)
(-0.164162 -0.342742 0)
(0.262234 -0.0690322 0)
(0.0798329 0.825768 0)
(1.22513 2.20487 0)
)
;
    }
    defaultFaces
    {
        type            empty;
    }
    procBoundary3to1
    {
        type            processor;
        value           nonuniform List<vector> 
23
(
(-0.13831 -0.200527 0)
(-0.147351 -0.203978 0)
(-0.153612 -0.205757 0)
(-0.166561 -0.210811 0)
(-0.186617 -0.214418 0)
(-0.212833 -0.22036 0)
(-0.245751 -0.21622 0)
(-0.273881 -0.204777 0)
(-0.306115 -0.181495 0)
(-0.333073 -0.156457 0)
(-0.373918 -0.113432 0)
(-0.410977 -0.0722509 0)
(-0.453038 -0.0258923 0)
(-0.507869 0.0362808 0)
(-0.550966 0.116179 0)
(-0.636701 0.274715 0)
(-0.541072 0.625789 0)
(-0.232008 1.08006 0)
(0.107858 0.96232 0)
(0.314307 0.933276 0)
(0.0832445 0.689882 0)
(0.0715725 0.231235 0)
(0.0264028 0.313569 0)
)
;
    }
    procBoundary3to2
    {
        type            processor;
        value           nonuniform List<vector> 
25
(
(-0.140411 -0.180194 0)
(-0.144539 -0.17855 0)
(-0.130507 -0.168625 0)
(-0.130538 -0.157895 0)
(-0.119108 -0.155838 0)
(-0.115628 -0.139461 0)
(-0.10977 -0.132465 0)
(-0.105433 -0.121939 0)
(-0.0986698 -0.116234 0)
(-0.0929078 -0.108113 0)
(-0.0867951 -0.103098 0)
(-0.0807988 -0.0976173 0)
(-0.0749587 -0.0932058 0)
(-0.0691858 -0.089079 0)
(-0.0635503 -0.0853919 0)
(-0.0579987 -0.0820138 0)
(-0.0525465 -0.0789246 0)
(-0.0471631 -0.07608 0)
(-0.0418356 -0.0734589 0)
(-0.0365122 -0.071053 0)
(-0.0311035 -0.0687578 0)
(-0.0254185 -0.0661563 0)
(-0.0209954 -0.0645405 0)
(-0.0185251 -0.0648787 0)
(-0.0176142 -0.0671464 0)
)
;
    }
}


// ************************************************************************* //
