/*--------------------------------*- C++ -*----------------------------------*\
| =========                 |                                                 |
| \\      /  F ield         | OpenFOAM: The Open Source CFD Toolbox           |
|  \\    /   O peration     | Version:  2.4.0                                 |
|   \\  /    A nd           | Web:      www.OpenFOAM.org                      |
|    \\/     M anipulation  |                                                 |
\*---------------------------------------------------------------------------*/
FoamFile
{
    version     2.0;
    format      ascii;
    class       volScalarField;
    location    "0.5";
    object      alpha.oil;
}
// * * * * * * * * * * * * * * * * * * * * * * * * * * * * * * * * * * * * * //

dimensions      [0 0 0 0 0 0 0];

internalField   nonuniform List<scalar> 
559
(
9.2392e-08
6.59062e-08
3.91407e-08
1.91859e-08
7.37656e-09
2.19595e-09
8.98211e-10
3.57564e-17
7.97228e-16
7.9147e-15
3.96776e-14
1.375e-13
5.64153e-13
2.76236e-12
1.13037e-11
3.5603e-11
9.23264e-11
1.47388e-10
4.64576e-10
9.79647e-09
3.75944e-08
3.62638e-08
5.94275e-08
6.6164e-08
4.92813e-08
3.03757e-08
1.55942e-08
6.31805e-09
1.95658e-09
4.37402e-10
5.57408e-18
1.08371e-16
1.04167e-15
5.9094e-15
3.14177e-14
1.97543e-13
1.09618e-12
4.62307e-12
1.44277e-11
3.2341e-11
4.75851e-11
7.8372e-11
2.0423e-09
8.48631e-09
2.53382e-08
3.75444e-08
3.70973e-08
2.91049e-08
1.88333e-08
1.0254e-08
4.43515e-09
1.41752e-09
3.11568e-10
9.0763e-21
7.54197e-19
2.49466e-17
4.47977e-16
5.23776e-15
4.2792e-14
2.53597e-13
1.10467e-12
3.4561e-12
7.38365e-12
1.07918e-11
1.75257e-11
1.82245e-10
2.59014e-09
6.36259e-09
1.19642e-08
1.59857e-08
1.27852e-08
8.10153e-09
4.80767e-09
2.20619e-09
7.41382e-10
1.83087e-10
1.3854e-21
8.09586e-20
2.33388e-18
4.20228e-17
5.12885e-16
4.43902e-15
2.79293e-14
1.28249e-13
4.33761e-13
1.10997e-12
2.28665e-12
4.85581e-12
1.42489e-11
1.34475e-10
9.64146e-10
3.26529e-09
4.69006e-09
4.29616e-09
2.40853e-09
1.34025e-09
6.61528e-10
2.65792e-10
6.74672e-11
2.16467e-23
1.72663e-21
6.35056e-20
1.39713e-18
2.05151e-17
2.14674e-16
1.67148e-15
9.92967e-15
4.59946e-14
1.68197e-13
4.95471e-13
1.23225e-12
3.04284e-12
8.99918e-12
3.36423e-11
3.10019e-10
7.95493e-10
8.38663e-10
5.38109e-10
2.35704e-10
1.21015e-10
5.25817e-11
1.90482e-11
5.27959e-24
3.55216e-22
1.16127e-20
2.37602e-19
3.42295e-18
3.67598e-17
3.02765e-16
1.95038e-15
1.0033e-14
4.20718e-14
1.44754e-13
4.1465e-13
1.10605e-12
3.16383e-12
9.56102e-12
2.25775e-11
5.47129e-11
9.80156e-11
8.06016e-11
3.88806e-11
1.66409e-11
8.07895e-12
4.26674e-12
3.55083e-25
2.6016e-23
9.18859e-22
2.00582e-20
3.07509e-19
3.54007e-18
3.19376e-17
2.3196e-16
1.37139e-15
6.56253e-15
2.56823e-14
8.48451e-14
2.40221e-13
5.7776e-13
1.20485e-12
2.3022e-12
4.42486e-12
8.21792e-12
1.0152e-11
9.42928e-12
5.7796e-12
2.59719e-12
1.11563e-12
4.03024e-26
2.97852e-24
1.07165e-22
2.41853e-21
3.84089e-20
4.54911e-19
4.16057e-18
3.02669e-17
1.78978e-16
8.78819e-16
3.65595e-15
1.30237e-14
3.96301e-14
1.04801e-13
2.40912e-13
4.74849e-13
8.09149e-13
1.1662e-12
1.36223e-12
1.24053e-12
8.67999e-13
4.62922e-13
2.10686e-13
4.5994e-28
3.59534e-26
1.36913e-24
3.28842e-23
5.66113e-22
7.49737e-21
7.94414e-20
6.86731e-19
4.90974e-18
2.93331e-17
1.4631e-16
6.05548e-16
2.08928e-15
6.07924e-15
1.5061e-14
3.24124e-14
5.99322e-14
9.31545e-14
1.18543e-13
1.20251e-13
9.5804e-14
5.96827e-14
3.18452e-14
4.49122e-30
3.90009e-28
1.65338e-26
4.43397e-25
8.45128e-24
1.21583e-22
1.37581e-21
1.259e-20
9.46816e-20
5.92679e-19
3.14898e-18
1.44834e-17
5.79864e-17
2.00389e-16
5.95169e-16
1.4891e-15
3.10549e-15
5.41142e-15
7.81933e-15
9.23486e-15
8.6569e-15
6.34375e-15
4.00387e-15
2.18307e-32
2.07794e-30
9.72682e-29
2.90614e-27
6.25408e-26
1.0336e-24
1.35986e-23
1.45687e-22
1.29389e-21
9.65398e-21
6.07654e-20
3.21981e-19
1.43921e-18
5.4736e-18
1.7768e-17
4.95729e-17
1.19237e-16
2.43517e-16
4.13532e-16
5.68874e-16
6.23233e-16
5.47184e-16
4.19151e-16
1.07123e-34
1.14032e-32
5.91775e-31
1.95757e-29
4.64129e-28
8.40669e-27
1.21014e-25
1.42025e-24
1.38195e-23
1.1279e-22
7.81276e-22
4.65321e-21
2.39942e-20
1.07041e-19
4.1221e-19
1.36037e-18
3.79748e-18
8.89862e-18
1.73804e-17
2.80093e-17
3.66326e-17
3.89716e-17
3.67958e-17
2.7011e-37
3.23514e-35
1.91678e-33
7.30475e-32
2.01005e-30
4.24575e-29
7.13691e-28
9.77816e-27
1.11162e-25
1.06296e-24
8.6247e-24
5.96629e-23
3.53052e-22
1.79217e-21
7.81745e-21
2.93004e-20
9.42731e-20
2.5861e-19
5.96833e-19
1.14021e-18
1.78658e-18
2.33116e-18
2.74964e-18
5.82228e-40
8.03242e-38
5.42387e-36
2.35274e-34
7.35279e-33
1.76367e-31
3.37401e-30
5.27878e-29
6.8719e-28
7.5324e-27
7.00791e-26
5.57763e-25
3.82812e-24
2.27217e-23
1.16503e-22
5.14633e-22
1.94803e-21
6.27444e-21
1.70736e-20
3.89401e-20
7.40832e-20
1.19752e-19
1.77395e-19
7.36783e-43
1.2023e-40
9.51592e-39
4.84176e-37
1.77758e-35
5.01766e-34
1.13094e-32
2.08305e-31
3.18875e-30
4.11055e-29
4.50899e-28
4.23525e-27
3.41761e-26
2.37728e-25
1.42889e-24
7.4178e-24
3.31756e-23
1.27223e-22
4.15208e-22
1.14476e-21
2.66658e-21
5.37279e-21
1.00028e-20
6.03394e-46
1.21739e-43
1.15431e-41
6.98564e-40
3.03902e-38
1.01539e-36
2.71364e-35
5.94758e-34
1.08756e-32
1.67821e-31
2.20072e-30
2.4681e-29
2.38132e-28
1.98371e-27
1.42917e-26
8.90354e-26
4.78608e-25
2.21116e-24
8.73565e-24
2.9395e-23
8.45511e-23
2.1307e-22
4.97104e-22
2.86933e-49
7.88358e-47
9.26968e-45
6.77027e-43
3.5114e-41
1.38719e-39
4.3723e-38
1.14129e-36
2.5197e-35
4.75489e-34
7.70526e-33
1.07283e-31
1.28307e-30
1.31935e-29
1.16684e-28
8.89434e-28
5.84535e-27
3.30563e-26
1.60324e-25
6.65488e-25
2.37905e-24
7.50663e-24
2.18652e-23
7.07007e-53
3.53928e-50
5.4399e-48
4.867e-46
3.04116e-44
1.44273e-42
5.46019e-41
1.70718e-39
4.51369e-38
1.02392e-36
2.01285e-35
3.44561e-34
5.13991e-33
6.67069e-32
7.48864e-31
7.23289e-30
5.98727e-29
4.23643e-28
2.56169e-27
1.32637e-26
5.93181e-26
2.34589e-25
8.5081e-25
1.79006e-56
1.8399e-53
3.58582e-51
3.78631e-49
2.75101e-47
1.51544e-45
6.67379e-44
2.4319e-42
7.51771e-41
2.00821e-39
4.69076e-38
9.62663e-37
1.73581e-35
2.74509e-34
3.81736e-33
4.65189e-32
4.93121e-31
4.49354e-30
3.48019e-29
2.2895e-28
1.29368e-27
6.43585e-27
2.90812e-26
2.50333e-59
2.68632e-56
5.69265e-54
6.47831e-52
5.03573e-50
2.95643e-48
1.38255e-46
5.33273e-45
1.74396e-43
4.94767e-42
1.24257e-40
2.80726e-39
5.75217e-38
1.06772e-36
1.78175e-35
2.63941e-34
3.42948e-33
3.89292e-32
3.84427e-31
3.27389e-30
2.39123e-29
1.51577e-28
8.58966e-28
2.34209e-61
1.7609e-58
3.41465e-56
3.69302e-54
2.74958e-52
1.55364e-50
7.06168e-49
2.67588e-47
8.65948e-46
2.43937e-44
6.08037e-43
1.3619e-41
2.78029e-40
5.23386e-39
9.14397e-38
1.48645e-36
2.2338e-35
3.04352e-34
3.67685e-33
3.88215e-32
3.58694e-31
2.92524e-30
2.1215e-29
3.64853e-63
1.96368e-60
3.42346e-58
3.49398e-56
2.49317e-54
1.35947e-52
5.98798e-51
2.21066e-49
7.03186e-48
1.96759e-46
4.91021e-45
1.10438e-43
2.25946e-42
4.23873e-41
7.33999e-40
1.18074e-38
1.77661e-37
2.51528e-36
3.35222e-35
4.162e-34
4.70674e-33
4.74787e-32
4.27072e-31
2.07125e-65
9.53733e-63
1.66418e-60
1.76513e-58
1.33026e-56
7.71507e-55
3.61762e-53
1.41982e-51
4.78194e-50
1.40794e-48
3.6811e-47
8.65637e-46
1.85109e-44
3.63435e-43
6.59651e-42
1.11278e-40
1.7525e-39
2.58417e-38
3.57354e-37
4.63733e-36
5.65463e-35
6.49257e-34
7.03585e-33
6.65776e-68
3.20902e-65
6.04408e-63
6.90493e-61
5.58022e-59
3.45727e-57
1.7256e-55
7.18064e-54
2.55514e-52
7.92957e-51
2.18041e-49
5.38226e-48
1.20589e-46
2.47765e-45
4.72014e-44
8.41623e-43
1.41379e-41
2.24843e-40
3.39601e-39
4.8759e-38
6.64e-37
8.55083e-36
1.04251e-34
)
;

boundaryField
{
    leftWall
    {
        type            zeroGradient;
    }
    rightWall
    {
        type            zeroGradient;
    }
    lowerWall
    {
        type            zeroGradient;
    }
    atmosphere
    {
        type            inletOutlet;
        inletValue      uniform 0;
        value           uniform 0;
    }
    defaultFaces
    {
        type            empty;
    }
    procBoundary2to0
    {
        type            processor;
        value           nonuniform List<scalar> 
24
(
1.02888e-07
7.16147e-08
4.1173e-08
1.66921e-08
5.73618e-09
2.40743e-09
1.24171e-09
8.94218e-17
2.97198e-15
3.59163e-14
1.89073e-13
5.44945e-13
1.49837e-12
5.7598e-12
2.13943e-11
6.15077e-11
1.73303e-10
2.45702e-10
1.62213e-09
1.83756e-08
5.65398e-08
1.07516e-07
1.17418e-07
1.17418e-07
)
;
    }
    procBoundary2to3
    {
        type            processor;
        value           nonuniform List<scalar> 
25
(
4.14346e-10
1.58034e-10
8.72426e-11
5.20249e-11
2.31083e-11
7.91199e-12
2.29451e-12
5.59465e-13
1.14689e-13
1.97142e-14
2.86118e-15
3.52599e-16
3.71974e-17
3.38189e-18
2.67026e-19
1.84474e-20
1.12197e-21
6.03391e-23
2.8718e-24
1.2051e-25
4.40572e-27
1.37065e-28
3.48072e-30
7.38072e-32
1.21842e-33
)
;
    }
}


// ************************************************************************* //
