/*--------------------------------*- C++ -*----------------------------------*\
| =========                 |                                                 |
| \\      /  F ield         | OpenFOAM: The Open Source CFD Toolbox           |
|  \\    /   O peration     | Version:  2.4.0                                 |
|   \\  /    A nd           | Web:      www.OpenFOAM.org                      |
|    \\/     M anipulation  |                                                 |
\*---------------------------------------------------------------------------*/
FoamFile
{
    version     2.0;
    format      ascii;
    class       volScalarField;
    location    "0.5";
    object      alpha.mercury;
}
// * * * * * * * * * * * * * * * * * * * * * * * * * * * * * * * * * * * * * //

dimensions      [0 0 0 0 0 0 0];

internalField   nonuniform List<scalar> 
559
(
3.97014e-20
1.15772e-19
3.30721e-19
9.40936e-19
2.55115e-18
6.28965e-18
1.42927e-17
2.04494e-38
2.44123e-36
1.57612e-34
6.84384e-33
2.09922e-31
4.58308e-30
7.49261e-29
9.52184e-28
9.46516e-27
7.43647e-26
5.02457e-25
3.07171e-24
1.74558e-23
8.4884e-23
3.75179e-22
1.52772e-21
5.39107e-21
1.69973e-20
4.95468e-20
1.32132e-19
3.11531e-19
6.40025e-19
1.20665e-18
1.08622e-39
1.8411e-37
1.51216e-35
6.89918e-34
1.97344e-32
4.00689e-31
5.94728e-30
6.86101e-29
6.38949e-28
5.07251e-27
3.66557e-26
2.47454e-25
1.51775e-24
8.33534e-24
4.10342e-23
1.73584e-22
6.37559e-22
2.11172e-21
6.31294e-21
1.67583e-20
3.92361e-20
8.14431e-20
1.56655e-19
7.85957e-41
1.40679e-38
9.22474e-37
3.41036e-35
8.8263e-34
1.73403e-32
2.74338e-31
3.60335e-30
3.98843e-29
3.79237e-28
3.15877e-27
2.34127e-26
1.54414e-25
8.91482e-25
4.49721e-24
1.99133e-23
8.01235e-23
2.89636e-22
9.12318e-22
2.50389e-21
5.99973e-21
1.28763e-20
2.58897e-20
5.39881e-42
6.03154e-40
3.43972e-38
1.33565e-36
3.78074e-35
8.25211e-34
1.44827e-32
2.08322e-31
2.53834e-30
2.70443e-29
2.44753e-28
1.90765e-27
1.29193e-26
7.68518e-26
3.98362e-25
1.83808e-24
7.6122e-24
2.79856e-23
9.11523e-23
2.66122e-22
7.01645e-22
1.70301e-21
3.87435e-21
9.14728e-44
1.47788e-41
1.05784e-39
4.57711e-38
1.3616e-36
3.03937e-35
5.40938e-34
7.98837e-33
1.01361e-31
1.12685e-30
1.10997e-29
9.44925e-29
6.9305e-28
4.53398e-27
2.64236e-26
1.37284e-25
6.22934e-25
2.45969e-24
8.76747e-24
2.83562e-23
8.30802e-23
2.25306e-22
5.6751e-22
6.56845e-45
8.23933e-43
4.99398e-41
1.96186e-39
5.68658e-38
1.30206e-36
2.4425e-35
3.85238e-34
5.22995e-33
6.19725e-32
6.34494e-31
5.51456e-30
4.1842e-29
2.78397e-28
1.64182e-27
8.6327e-27
4.10287e-26
1.80429e-25
7.22521e-25
2.61281e-24
8.65126e-24
2.63655e-23
7.2327e-23
4.41692e-47
7.10872e-45
5.37507e-43
2.56472e-41
8.82783e-40
2.35103e-38
5.06874e-37
9.08491e-36
1.36448e-34
1.70673e-33
1.82586e-32
1.7572e-31
1.52656e-30
1.16999e-29
7.95599e-29
4.86256e-28
2.69057e-27
1.32521e-26
5.76735e-26
2.28925e-25
8.38432e-25
2.7817e-24
8.2066e-24
1.26216e-48
1.97241e-46
1.47068e-44
7.04873e-43
2.44504e-41
6.54467e-40
1.40887e-38
2.53114e-37
3.89796e-36
5.27339e-35
6.35473e-34
6.79416e-33
6.37364e-32
5.34618e-31
3.96448e-30
2.56619e-29
1.48914e-28
7.88886e-28
3.87922e-27
1.74773e-26
7.09214e-26
2.56516e-25
8.32575e-25
9.90099e-51
1.62118e-48
1.27991e-46
6.60422e-45
2.54328e-43
7.85066e-42
2.01131e-40
4.33495e-39
7.94081e-38
1.24849e-36
1.68544e-35
1.94978e-34
1.96169e-33
1.74748e-32
1.41189e-31
1.06353e-30
7.31561e-30
4.52762e-29
2.48687e-28
1.20718e-27
5.27717e-27
2.10009e-26
7.60741e-26
1.08283e-52
2.0043e-50
1.78741e-48
1.03186e-46
4.32984e-45
1.40428e-43
3.68414e-42
8.07174e-41
1.50699e-39
2.44122e-38
3.5213e-37
4.62687e-36
5.54641e-35
5.96044e-34
5.68335e-33
4.70309e-32
3.4042e-31
2.207e-30
1.30389e-29
7.09362e-29
3.50332e-28
1.55524e-27
6.4284e-27
5.2445e-55
1.06335e-52
1.05204e-50
6.85333e-49
3.32691e-47
1.28512e-45
4.08889e-44
1.09365e-42
2.49638e-41
4.90573e-40
8.29355e-39
1.20346e-37
1.51083e-36
1.67242e-35
1.6553e-34
1.49536e-33
1.24361e-32
9.39432e-32
6.37419e-31
3.84395e-30
2.07941e-29
1.0463e-28
5.25742e-28
3.80012e-57
8.59732e-55
9.39948e-53
6.71235e-51
3.52091e-49
1.44648e-47
4.84424e-46
1.3577e-44
3.24438e-43
6.71119e-42
1.22201e-40
1.9927e-39
2.92901e-38
3.8685e-37
4.57763e-36
4.81293e-35
4.45265e-34
3.65026e-33
2.68517e-32
1.80059e-31
1.11652e-30
6.68715e-30
4.44954e-29
1.15264e-59
2.97268e-57
3.78181e-55
3.18303e-53
1.98838e-51
9.7917e-50
3.93619e-48
1.32177e-46
3.77175e-45
9.26254e-44
1.97231e-42
3.65906e-41
5.9526e-40
8.54823e-39
1.09075e-37
1.24579e-36
1.2841e-35
1.19634e-34
1.00653e-33
7.69305e-33
5.56173e-32
4.26769e-31
4.17468e-30
3.86224e-62
1.15152e-59
1.66942e-57
1.59181e-55
1.11936e-53
6.1834e-52
2.7875e-50
1.05135e-48
3.3752e-47
9.33654e-46
2.24528e-44
4.73631e-43
8.8494e-42
1.47082e-40
2.17598e-39
2.86623e-38
3.36124e-37
3.52107e-36
3.33733e-35
2.95799e-34
2.67373e-33
2.9285e-32
4.3627e-31
6.69618e-65
2.42334e-62
4.19483e-60
4.77354e-58
4.0081e-56
2.64424e-54
1.42183e-52
6.36833e-51
2.41479e-49
7.85137e-48
2.21185e-46
5.43384e-45
1.16867e-43
2.21302e-42
3.71181e-41
5.53805e-40
7.38512e-39
8.87259e-38
9.80306e-37
1.06273e-35
1.32115e-34
2.22258e-33
4.78634e-32
7.88451e-68
3.63554e-65
7.65723e-63
1.04592e-60
1.0455e-58
8.1757e-57
5.21169e-55
2.77676e-53
1.25686e-51
4.88004e-50
1.63326e-48
4.73788e-47
1.1992e-45
2.66217e-44
5.20674e-43
9.0147e-42
1.39083e-40
1.94311e-39
2.57871e-38
3.69417e-37
6.93966e-36
1.75742e-34
5.04133e-33
5.20104e-71
3.49155e-68
9.21555e-66
1.51066e-63
1.77959e-61
1.62511e-59
1.21041e-57
7.65026e-56
4.18011e-54
1.98742e-52
8.22956e-51
2.95836e-49
9.20394e-48
2.47941e-46
5.79749e-45
1.18741e-43
2.163e-42
3.62744e-41
6.16463e-40
1.28883e-38
3.75145e-37
1.32687e-35
4.80648e-34
1.90731e-74
2.75966e-71
9.55854e-69
1.89564e-66
2.65302e-64
2.86561e-62
2.51091e-60
1.84624e-58
1.16542e-56
6.40569e-55
3.09469e-53
1.31884e-51
4.95264e-50
1.63457e-48
4.72025e-47
1.19252e-45
2.6795e-44
5.69993e-43
1.35481e-41
4.41022e-40
1.88999e-38
8.75101e-37
3.90836e-35
1.80941e-77
4.91689e-74
2.02284e-71
4.45138e-69
6.77487e-67
7.88887e-65
7.41622e-63
5.82689e-61
3.92579e-59
2.31268e-57
1.20705e-55
5.6182e-54
2.33616e-52
8.67921e-51
2.90057e-49
8.78183e-48
2.47817e-46
7.2146e-45
2.66741e-43
1.36989e-41
8.16982e-40
4.81725e-38
2.64521e-36
3.20685e-79
6.19234e-76
2.31586e-73
4.65878e-71
6.43814e-69
6.781e-67
5.75774e-65
4.0908e-63
2.50443e-61
1.35364e-59
6.60016e-58
2.95468e-56
1.22685e-54
4.73503e-53
1.69854e-51
5.72107e-50
1.91755e-48
7.60009e-47
4.33994e-45
3.29878e-43
2.65766e-41
2.00633e-39
1.37311e-37
3.08751e-80
3.50842e-77
1.0356e-74
1.71881e-72
1.9809e-70
1.74928e-68
1.25572e-66
7.60123e-65
3.9797e-63
1.84048e-61
7.66192e-60
2.92612e-58
1.04535e-56
3.56715e-55
1.19459e-53
4.16224e-52
1.72327e-50
1.01095e-48
8.33915e-47
8.02339e-45
7.90942e-43
7.51058e-41
6.5495e-39
2.44109e-81
1.84697e-78
4.53822e-76
6.55322e-74
6.64518e-72
5.17701e-70
3.27993e-68
1.75652e-66
8.18995e-65
3.40208e-63
1.2803e-61
4.43088e-60
1.43529e-58
4.47169e-57
1.41729e-55
5.16276e-54
2.56558e-52
1.8246e-50
1.64505e-48
1.66967e-46
1.783e-44
1.92096e-42
2.02669e-40
2.88269e-83
1.79696e-80
4.24491e-78
6.11163e-76
6.2743e-74
4.97986e-72
3.21442e-70
1.74986e-68
8.25569e-67
3.45187e-65
1.3095e-63
4.65489e-62
1.65045e-60
6.61261e-59
3.48192e-57
2.4469e-55
2.03177e-53
1.8111e-51
1.67803e-49
1.61642e-47
1.6389e-45
1.76765e-43
2.01226e-41
6.20361e-86
3.80082e-83
9.15074e-81
1.34416e-78
1.40644e-76
1.13764e-74
7.48789e-73
4.15857e-71
2.00399e-69
8.57972e-68
3.34047e-66
1.22028e-64
4.43657e-63
1.81041e-61
9.70654e-60
7.05617e-58
6.17589e-56
5.87607e-54
5.85067e-52
6.06605e-50
6.58229e-48
7.52944e-46
9.12628e-44
)
;

boundaryField
{
    leftWall
    {
        type            zeroGradient;
    }
    rightWall
    {
        type            zeroGradient;
    }
    lowerWall
    {
        type            zeroGradient;
    }
    atmosphere
    {
        type            inletOutlet;
        inletValue      uniform 0;
        value           uniform 0;
    }
    defaultFaces
    {
        type            empty;
    }
    procBoundary2to0
    {
        type            processor;
        value           nonuniform List<scalar> 
24
(
6.95851e-19
2.04624e-18
5.96572e-18
1.71987e-17
4.72666e-17
1.24891e-16
3.21507e-16
1.09586e-37
2.96606e-35
2.23586e-33
9.00629e-32
2.42247e-30
4.60474e-29
6.9197e-28
8.74779e-27
9.89922e-26
9.2555e-25
7.70707e-24
5.06384e-23
2.76351e-22
1.23132e-21
4.27362e-21
1.33019e-20
1.33019e-20
)
;
    }
    procBoundary2to3
    {
        type            processor;
        value           nonuniform List<scalar> 
25
(
3.0963e-17
2.15791e-18
2.84962e-19
4.96189e-20
8.18039e-21
1.28866e-21
1.7659e-22
2.1804e-23
2.47767e-24
2.61942e-25
2.7717e-26
3.1183e-27
3.939e-28
5.48292e-29
7.88722e-30
1.10838e-30
1.43558e-31
1.65529e-32
1.62119e-33
1.32827e-34
8.46574e-36
5.07948e-37
2.02699e-38
2.33991e-39
1.16343e-41
)
;
    }
}


// ************************************************************************* //
