/*--------------------------------*- C++ -*----------------------------------*\
| =========                 |                                                 |
| \\      /  F ield         | OpenFOAM: The Open Source CFD Toolbox           |
|  \\    /   O peration     | Version:  2.4.0                                 |
|   \\  /    A nd           | Web:      www.OpenFOAM.org                      |
|    \\/     M anipulation  |                                                 |
\*---------------------------------------------------------------------------*/
FoamFile
{
    version     2.0;
    format      ascii;
    class       volScalarField;
    location    "0.5";
    object      p;
}
// * * * * * * * * * * * * * * * * * * * * * * * * * * * * * * * * * * * * * //

dimensions      [1 -1 -2 0 0 0 0];

internalField   nonuniform List<scalar> 
559
(
3.18257
3.17521
3.16789
3.16047
3.15303
3.14561
3.13811
3.11036
3.10997
3.10913
3.10801
3.10657
3.10475
3.10254
3.0999
3.0967
3.0931
3.08871
3.08372
3.07809
3.07217
3.06573
3.05931
3.05272
3.04595
3.03906
3.032
3.02496
3.01782
3.0105
2.97541
2.97504
2.97431
2.97321
2.9718
2.97003
2.96791
2.96537
2.96239
2.95897
2.95501
2.95056
2.94564
2.94025
2.93452
2.9287
2.92261
2.91643
2.91011
2.90355
2.89699
2.89024
2.88327
2.84081
2.84044
2.83977
2.83876
2.83742
2.83574
2.83371
2.83132
2.82857
2.82536
2.82167
2.81758
2.81318
2.80838
2.80331
2.79799
2.79252
2.78694
2.78112
2.77511
2.76897
2.76273
2.7564
2.70653
2.70619
2.70554
2.7046
2.70335
2.70177
2.69985
2.69761
2.69502
2.69204
2.6887
2.68502
2.68104
2.67671
2.67216
2.66739
2.66248
2.65734
2.65199
2.64662
2.64099
2.63529
2.62951
2.57258
2.57228
2.57168
2.57078
2.56959
2.56811
2.56633
2.56426
2.56186
2.55915
2.55616
2.55285
2.5492
2.54533
2.5412
2.53691
2.53247
2.52778
2.52299
2.51814
2.5131
2.50796
2.50278
2.43892
2.43863
2.43808
2.43725
2.43615
2.43477
2.43312
2.4312
2.42901
2.42654
2.42378
2.42076
2.4175
2.41404
2.41033
2.40645
2.40241
2.39822
2.39396
2.38951
2.38504
2.38048
2.37594
2.30551
2.30526
2.30476
2.304
2.30299
2.30173
2.30021
2.29844
2.29641
2.29414
2.29162
2.28891
2.28598
2.28283
2.27956
2.2761
2.27245
2.26873
2.26487
2.26096
2.257
2.25298
2.24898
2.17238
2.17214
2.17168
2.17098
2.17005
2.16889
2.16751
2.1659
2.16407
2.16201
2.15977
2.15733
2.15468
2.15187
2.14891
2.14578
2.14254
2.13922
2.13586
2.13245
2.12896
2.12545
2.12196
2.03945
2.03924
2.03881
2.03818
2.03733
2.03628
2.03503
2.03357
2.03191
2.03005
2.028
2.02579
2.02344
2.02094
2.0183
2.01558
2.01274
2.00978
2.00681
2.00376
2.00072
1.99771
1.99475
1.90675
1.90655
1.90617
1.90559
1.90482
1.90387
1.90273
1.90142
1.89992
1.89826
1.89642
1.89445
1.89234
1.89012
1.88781
1.88539
1.88285
1.88026
1.87763
1.87504
1.87245
1.86985
1.86735
1.77423
1.77406
1.77371
1.77319
1.7725
1.77164
1.77061
1.76942
1.76808
1.7666
1.76499
1.76324
1.76136
1.75938
1.7573
1.75514
1.75298
1.75075
1.7485
1.74625
1.74401
1.74184
1.73974
1.64189
1.64173
1.64142
1.64095
1.64033
1.63956
1.63864
1.63758
1.63639
1.63507
1.63364
1.63209
1.63044
1.62871
1.62691
1.62505
1.62314
1.62119
1.61925
1.61734
1.61546
1.61364
1.61192
1.5097
1.50956
1.50928
1.50886
1.5083
1.50762
1.5068
1.50587
1.50481
1.50365
1.50238
1.50102
1.49957
1.49806
1.49648
1.49487
1.49323
1.4916
1.48995
1.48834
1.48677
1.48528
1.48388
1.37765
1.37753
1.37728
1.37691
1.37642
1.37581
1.37509
1.37427
1.37334
1.37232
1.3712
1.37002
1.36877
1.36746
1.36611
1.36473
1.36334
1.36194
1.36057
1.35923
1.35795
1.35674
1.35563
1.24572
1.24561
1.2454
1.24507
1.24463
1.2441
1.24346
1.24274
1.24193
1.24104
1.24009
1.23907
1.23799
1.23688
1.23573
1.23457
1.2334
1.23224
1.2311
1.23001
1.22898
1.22802
1.22717
1.11391
1.11381
1.11363
1.11334
1.11296
1.11249
1.11193
1.1113
1.11061
1.10984
1.10902
1.10814
1.10723
1.10629
1.10534
1.10437
1.10341
1.10246
1.10155
1.10068
1.09987
1.09914
1.0985
0.982192
0.982107
0.981943
0.981688
0.981359
0.980955
0.980484
0.979951
0.979354
0.978701
0.978003
0.977272
0.976518
0.975739
0.974941
0.974144
0.973364
0.972614
0.971898
0.971229
0.970621
0.970089
0.969651
0.850576
0.850497
0.850358
0.850133
0.849848
0.849498
0.84909
0.848627
0.848118
0.847571
0.846999
0.846403
0.845781
0.84514
0.844503
0.843883
0.843282
0.8427
0.842156
0.841668
0.841242
0.840886
0.840615
0.719027
0.718955
0.718837
0.71864
0.718394
0.718092
0.717743
0.717351
0.716923
0.716466
0.715987
0.715495
0.714999
0.714511
0.714039
0.713571
0.713115
0.712695
0.712329
0.712011
0.71174
0.711535
0.711412
0.587505
0.587439
0.587339
0.58717
0.586963
0.586712
0.586424
0.586104
0.585756
0.585387
0.585006
0.58462
0.584238
0.583868
0.583509
0.583179
0.582889
0.582636
0.58241
0.582227
0.582109
0.58206
0.58206
0.456007
0.455935
0.455852
0.455712
0.455545
0.455348
0.455125
0.454883
0.454624
0.45435
0.454069
0.453786
0.453507
0.453239
0.452993
0.452779
0.452612
0.452494
0.45242
0.452379
0.452382
0.452448
0.452557
0.324613
0.324519
0.324449
0.324341
0.324215
0.324068
0.323903
0.323722
0.323536
0.323347
0.323159
0.322976
0.322804
0.322647
0.322515
0.322417
0.322353
0.322327
0.322354
0.322443
0.322587
0.322743
0.322928
0.193443
0.193363
0.193303
0.193221
0.193127
0.193016
0.192894
0.192762
0.192623
0.192485
0.192351
0.192228
0.192122
0.19204
0.191989
0.19198
0.192017
0.192105
0.192247
0.192435
0.192654
0.192908
0.193207
0.0623923
0.0623985
0.0623672
0.0623017
0.0622158
0.0621118
0.0619946
0.0618708
0.0617477
0.0616319
0.0615307
0.0614516
0.0614036
0.0613965
0.0614377
0.0615218
0.0616487
0.0618213
0.0620429
0.0623145
0.0626357
0.0630008
0.0633952
)
;

boundaryField
{
    leftWall
    {
        type            fixedFluxPressure;
        gradient        uniform 0;
        value           nonuniform List<scalar> 
24
(
3.11036
2.97541
2.84081
2.70653
2.57258
2.43892
2.30551
2.17238
2.03945
1.90675
1.77423
1.64189
1.5097
1.37765
1.24572
1.11391
0.982192
0.850576
0.719027
0.587505
0.456007
0.324613
0.193443
0.0623923
)
;
    }
    rightWall
    {
        type            fixedFluxPressure;
        gradient        nonuniform 0();
        value           nonuniform 0();
    }
    lowerWall
    {
        type            fixedFluxPressure;
        gradient        nonuniform 0();
        value           nonuniform 0();
    }
    atmosphere
    {
        type            totalPressure;
        U               U.air;
        phi             phi.air;
        rho             rho;
        psi             none;
        gamma           1;
        p0              uniform 0;
        value           nonuniform List<scalar> 
23
(
-0.00361795
-0.00383772
-0.00386431
-0.00390393
-0.00394859
-0.00399756
-0.00404703
-0.00409274
-0.00412984
-0.00415273
-0.00415618
-0.00413502
-0.0040837
-0.00399537
-0.00386324
-0.00368585
-0.00346299
-0.00319371
-0.00287954
-0.00252581
-0.00213955
-0.00173038
-0.00131398
)
;
    }
    defaultFaces
    {
        type            empty;
    }
    procBoundary2to0
    {
        type            processor;
        value           nonuniform List<scalar> 
24
(
3.31231
3.30444
3.29664
3.28871
3.28079
3.27316
3.2658
3.24572
3.24532
3.2443
3.24322
3.2417
3.23984
3.23751
3.23502
3.2316
3.22772
3.2229
3.21733
3.21096
3.20427
3.19694
3.1897
3.1897
)
;
    }
    procBoundary2to3
    {
        type            processor;
        value           nonuniform List<scalar> 
25
(
3.13233
3.00488
2.87786
2.75149
2.62508
2.4988
2.37251
2.24603
2.11946
1.99265
1.86561
1.73831
1.61076
1.48296
1.35492
1.22664
1.09813
0.969412
0.840492
0.711384
0.582109
0.452674
0.323104
0.193426
0.0636691
)
;
    }
}


// ************************************************************************* //
