/*--------------------------------*- C++ -*----------------------------------*\
| =========                 |                                                 |
| \\      /  F ield         | OpenFOAM: The Open Source CFD Toolbox           |
|  \\    /   O peration     | Version:  2.4.0                                 |
|   \\  /    A nd           | Web:      www.OpenFOAM.org                      |
|    \\/     M anipulation  |                                                 |
\*---------------------------------------------------------------------------*/
FoamFile
{
    version     2.0;
    format      ascii;
    class       surfaceScalarField;
    location    "0.5";
    object      phi;
}
// * * * * * * * * * * * * * * * * * * * * * * * * * * * * * * * * * * * * * //

dimensions      [0 3 -1 0 0 0 0];

internalField   nonuniform List<scalar> 
1070
(
-8.78709e-06
-3.34197e-05
-1.14576e-05
-3.34271e-05
-1.33301e-05
-3.28063e-05
-1.50477e-05
-3.10436e-05
-1.726e-05
-3.00521e-05
-1.90339e-05
-3.06986e-05
-3.11209e-05
5.0767e-08
-1.96982e-05
9.48739e-08
-2.31907e-05
4.59556e-08
-2.32992e-05
-9.65915e-08
-2.34722e-05
-3.44326e-07
-2.35491e-05
-6.65211e-07
-2.36969e-05
-9.35934e-07
-2.3893e-05
-1.12104e-06
-2.41571e-05
-1.18583e-06
-2.45251e-05
-8.89636e-07
-2.51462e-05
-6.17264e-07
-2.59131e-05
-7.18902e-07
-2.69102e-05
-1.47404e-06
-2.78782e-05
-2.62239e-06
-2.89875e-05
-4.59055e-06
-2.99074e-05
-7.31257e-06
-3.01763e-05
-9.96297e-06
-3.07693e-05
-1.21718e-05
-3.12182e-05
-1.42669e-05
-3.07112e-05
-1.60793e-05
-2.92312e-05
-1.77604e-05
-2.83709e-05
-1.91204e-05
-2.93387e-05
-2.99819e-05
5.11732e-08
-1.97494e-05
-8.37535e-08
-2.30558e-05
-3.22217e-07
-2.30607e-05
-6.09038e-07
-2.31853e-05
-8.75503e-07
-2.32827e-05
-1.18084e-06
-2.33915e-05
-1.44332e-06
-2.36305e-05
-1.70172e-06
-2.38987e-05
-1.95589e-06
-2.4271e-05
-2.20364e-06
-2.48984e-05
-2.52546e-06
-2.55912e-05
-3.12353e-06
-2.6312e-05
-4.03811e-06
-2.69636e-05
-5.20264e-06
-2.7823e-05
-6.78026e-06
-2.83298e-05
-8.35592e-06
-2.86006e-05
-1.00525e-05
-2.90727e-05
-1.20177e-05
-2.9253e-05
-1.39196e-05
-2.88092e-05
-1.53307e-05
-2.78201e-05
-1.6446e-05
-2.72556e-05
-1.76104e-05
-2.81744e-05
-2.88195e-05
-5.6579e-08
-1.96928e-05
-2.83987e-07
-2.28284e-05
-4.9868e-07
-2.2846e-05
-6.85005e-07
-2.2999e-05
-8.69228e-07
-2.30984e-05
-1.0377e-06
-2.3223e-05
-1.26696e-06
-2.34013e-05
-1.57694e-06
-2.35887e-05
-1.97675e-06
-2.38711e-05
-2.49539e-06
-2.43798e-05
-3.10571e-06
-2.49809e-05
-3.89884e-06
-2.55189e-05
-4.92725e-06
-2.59351e-05
-6.15651e-06
-2.65937e-05
-7.46145e-06
-2.70248e-05
-8.6386e-06
-2.74234e-05
-1.01697e-05
-2.75416e-05
-1.21347e-05
-2.7288e-05
-1.3939e-05
-2.70049e-05
-1.54774e-05
-2.62817e-05
-1.67217e-05
-2.60112e-05
-1.80782e-05
-2.68179e-05
-2.7435e-05
-1.4788e-07
-1.9545e-05
-2.9794e-07
-2.26784e-05
-4.21733e-07
-2.27222e-05
-6.08903e-07
-2.28119e-05
-8.13479e-07
-2.28939e-05
-1.02846e-06
-2.30081e-05
-1.27511e-06
-2.31546e-05
-1.52343e-06
-2.33404e-05
-1.80046e-06
-2.35941e-05
-2.32728e-06
-2.38529e-05
-3.01633e-06
-2.42918e-05
-3.80422e-06
-2.4731e-05
-4.64579e-06
-2.50935e-05
-5.82281e-06
-2.54167e-05
-7.07276e-06
-2.57749e-05
-8.44908e-06
-2.60471e-05
-9.90722e-06
-2.60834e-05
-1.12692e-05
-2.5926e-05
-1.26017e-05
-2.56723e-05
-1.37901e-05
-2.50933e-05
-1.49439e-05
-2.48574e-05
-1.64653e-05
-2.52965e-05
-2.53855e-05
-1.0593e-07
-1.9439e-05
-3.33859e-07
-2.24504e-05
-5.95102e-07
-2.2461e-05
-8.82877e-07
-2.25241e-05
-1.17239e-06
-2.26043e-05
-1.45879e-06
-2.27217e-05
-1.74465e-06
-2.28687e-05
-2.03198e-06
-2.3053e-05
-2.35936e-06
-2.32667e-05
-2.76838e-06
-2.34439e-05
-3.41318e-06
-2.3647e-05
-4.18863e-06
-2.39555e-05
-4.94484e-06
-2.43373e-05
-5.83366e-06
-2.45278e-05
-6.92555e-06
-2.4683e-05
-8.37078e-06
-2.46018e-05
-9.95776e-06
-2.44964e-05
-1.12915e-05
-2.45923e-05
-1.26661e-05
-2.42977e-05
-1.39905e-05
-2.3769e-05
-1.52024e-05
-2.36455e-05
-1.66837e-05
-2.38152e-05
-2.34003e-05
-2.21073e-07
-1.9218e-05
-5.02756e-07
-2.21688e-05
-7.75111e-07
-2.21886e-05
-1.04733e-06
-2.22519e-05
-1.33271e-06
-2.2319e-05
-1.65441e-06
-2.24e-05
-2.01773e-06
-2.25054e-05
-2.41112e-06
-2.26596e-05
-2.84215e-06
-2.28356e-05
-3.35929e-06
-2.29267e-05
-4.03188e-06
-2.29744e-05
-4.78232e-06
-2.32051e-05
-5.7096e-06
-2.341e-05
-6.65025e-06
-2.35871e-05
-7.66301e-06
-2.36702e-05
-8.61861e-06
-2.36462e-05
-9.4861e-06
-2.36289e-05
-1.0713e-05
-2.33654e-05
-1.20197e-05
-2.2991e-05
-1.31901e-05
-2.25985e-05
-1.44582e-05
-2.23774e-05
-1.6154e-05
-2.21194e-05
-2.16577e-05
-1.24344e-07
-1.90936e-05
-3.43483e-07
-2.19496e-05
-5.9461e-07
-2.19375e-05
-8.75454e-07
-2.1971e-05
-1.1825e-06
-2.20119e-05
-1.50739e-06
-2.20751e-05
-1.8616e-06
-2.21512e-05
-2.28149e-06
-2.22397e-05
-2.81355e-06
-2.23036e-05
-3.35347e-06
-2.23868e-05
-3.81188e-06
-2.25159e-05
-4.40221e-06
-2.26147e-05
-5.22469e-06
-2.25875e-05
-6.20395e-06
-2.26078e-05
-7.2151e-06
-2.2659e-05
-8.23683e-06
-2.26244e-05
-9.49998e-06
-2.23658e-05
-1.08619e-05
-2.20035e-05
-1.19656e-05
-2.18873e-05
-1.30106e-05
-2.15536e-05
-1.42916e-05
-2.10964e-05
-1.5799e-05
-2.06121e-05
-2.01908e-05
-2.39295e-07
-1.88543e-05
-5.33857e-07
-2.16551e-05
-8.1995e-07
-2.16514e-05
-1.12307e-06
-2.16679e-05
-1.45144e-06
-2.16836e-05
-1.81681e-06
-2.17097e-05
-2.20962e-06
-2.17584e-05
-2.6415e-06
-2.18078e-05
-3.10234e-06
-2.18427e-05
-3.62299e-06
-2.18661e-05
-4.24862e-06
-2.18903e-05
-4.96532e-06
-2.1898e-05
-5.62507e-06
-2.19278e-05
-6.44474e-06
-2.17882e-05
-7.47636e-06
-2.16274e-05
-8.48094e-06
-2.16198e-05
-9.39631e-06
-2.14504e-05
-1.01932e-05
-2.12066e-05
-1.1239e-05
-2.08415e-05
-1.24532e-05
-2.03394e-05
-1.37685e-05
-1.97811e-05
-1.50721e-05
-1.93085e-05
-1.8761e-05
-2.09476e-07
-1.86449e-05
-4.78318e-07
-2.13862e-05
-7.45978e-07
-2.13837e-05
-1.01963e-06
-2.13942e-05
-1.30299e-06
-2.14002e-05
-1.61498e-06
-2.13977e-05
-1.9754e-06
-2.13979e-05
-2.38462e-06
-2.13986e-05
-2.8412e-06
-2.13861e-05
-3.3829e-06
-2.13244e-05
-4.04822e-06
-2.1225e-05
-4.78664e-06
-2.11596e-05
-5.57792e-06
-2.11365e-05
-6.29816e-06
-2.10679e-05
-6.91114e-06
-2.10144e-05
-7.73694e-06
-2.0794e-05
-8.72692e-06
-2.04604e-05
-9.91512e-06
-2.00184e-05
-1.11669e-05
-1.95898e-05
-1.22374e-05
-1.92688e-05
-1.32134e-05
-1.88051e-05
-1.43694e-05
-1.81525e-05
-1.74298e-05
-2.2474e-07
-1.84201e-05
-5.08028e-07
-2.11029e-05
-8.02619e-07
-2.10892e-05
-1.12715e-06
-2.10697e-05
-1.48339e-06
-2.10439e-05
-1.85933e-06
-2.10217e-05
-2.2625e-06
-2.09947e-05
-2.70587e-06
-2.09552e-05
-3.18081e-06
-2.09112e-05
-3.63746e-06
-2.08677e-05
-4.06687e-06
-2.07955e-05
-4.55497e-06
-2.06714e-05
-5.20221e-06
-2.04892e-05
-5.98443e-06
-2.02857e-05
-6.98605e-06
-2.00128e-05
-7.98936e-06
-1.97907e-05
-8.88821e-06
-1.95615e-05
-9.68014e-06
-1.92264e-05
-1.04312e-05
-1.88387e-05
-1.14062e-05
-1.82939e-05
-1.25884e-05
-1.76229e-05
-1.37413e-05
-1.69996e-05
-1.63254e-05
-2.06621e-07
-1.82135e-05
-4.55735e-07
-2.08538e-05
-7.01984e-07
-2.08429e-05
-9.59117e-07
-2.08126e-05
-1.2362e-06
-2.07669e-05
-1.54988e-06
-2.0708e-05
-1.9089e-06
-2.06357e-05
-2.3169e-06
-2.05472e-05
-2.78824e-06
-2.04398e-05
-3.34858e-06
-2.03074e-05
-3.99976e-06
-2.01444e-05
-4.69771e-06
-1.99735e-05
-5.37057e-06
-1.98163e-05
-6.03136e-06
-1.96249e-05
-6.62539e-06
-1.94187e-05
-7.24651e-06
-1.91696e-05
-8.02747e-06
-1.87806e-05
-8.95125e-06
-1.83027e-05
-1.00276e-05
-1.77623e-05
-1.10813e-05
-1.72402e-05
-1.19776e-05
-1.67266e-05
-1.29397e-05
-1.60375e-05
-1.52488e-05
-2.23504e-07
-1.799e-05
-4.94546e-07
-2.05828e-05
-7.70137e-07
-2.05673e-05
-1.06615e-06
-2.05165e-05
-1.38221e-06
-2.04508e-05
-1.72015e-06
-2.03701e-05
-2.08407e-06
-2.02718e-05
-2.47572e-06
-2.01556e-05
-2.89287e-06
-2.00226e-05
-3.32196e-06
-1.98783e-05
-3.75219e-06
-1.97141e-05
-4.2259e-06
-1.94998e-05
-4.7856e-06
-1.92566e-05
-5.42659e-06
-1.89839e-05
-6.18432e-06
-1.8661e-05
-7.065e-06
-1.82889e-05
-7.93613e-06
-1.79094e-05
-8.75777e-06
-1.7481e-05
-9.50739e-06
-1.70127e-05
-1.03106e-05
-1.6437e-05
-1.12613e-05
-1.57759e-05
-1.2217e-05
-1.50818e-05
-1.43084e-05
-1.84708e-07
-1.78053e-05
-4.01806e-07
-2.03657e-05
-6.24041e-07
-2.03451e-05
-8.67755e-07
-2.02728e-05
-1.13986e-06
-2.01787e-05
-1.44839e-06
-2.00616e-05
-1.79737e-06
-1.99228e-05
-2.18768e-06
-1.97652e-05
-2.62101e-06
-1.95893e-05
-3.10496e-06
-1.93943e-05
-3.64096e-06
-1.91781e-05
-4.20845e-06
-1.89323e-05
-4.80145e-06
-1.86636e-05
-5.41465e-06
-1.83707e-05
-6.03282e-06
-1.80428e-05
-6.64754e-06
-1.76742e-05
-7.31247e-06
-1.72445e-05
-8.05449e-06
-1.6739e-05
-8.89238e-06
-1.61748e-05
-9.74809e-06
-1.55813e-05
-1.05752e-05
-1.49488e-05
-1.14243e-05
-1.42326e-05
-1.34305e-05
-1.81691e-07
-1.76236e-05
-4.00757e-07
-2.01466e-05
-6.24069e-07
-2.01218e-05
-8.66899e-07
-2.003e-05
-1.13017e-06
-1.99154e-05
-1.4176e-06
-1.97741e-05
-1.73272e-06
-1.96077e-05
-2.07921e-06
-1.94187e-05
-2.4604e-06
-1.92081e-05
-2.87949e-06
-1.89752e-05
-3.33409e-06
-1.87235e-05
-3.81249e-06
-1.84539e-05
-4.32844e-06
-1.81476e-05
-4.89589e-06
-1.78032e-05
-5.51652e-06
-1.74222e-05
-6.19124e-06
-1.69995e-05
-6.90078e-06
-1.6535e-05
-7.61122e-06
-1.60286e-05
-8.31705e-06
-1.5469e-05
-9.05294e-06
-1.48454e-05
-9.83675e-06
-1.4165e-05
-1.06369e-05
-1.34325e-05
-1.26271e-05
-1.36395e-07
-1.74872e-05
-3.17396e-07
-1.99656e-05
-5.04154e-07
-1.9935e-05
-7.11881e-07
-1.98223e-05
-9.42651e-07
-1.96846e-05
-1.20209e-06
-1.95147e-05
-1.49778e-06
-1.9312e-05
-1.8304e-06
-1.90861e-05
-2.19924e-06
-1.88392e-05
-2.6029e-06
-1.85715e-05
-3.0453e-06
-1.82811e-05
-3.53141e-06
-1.79677e-05
-4.04786e-06
-1.76312e-05
-4.58533e-06
-1.72657e-05
-5.14694e-06
-1.68605e-05
-5.73231e-06
-1.64141e-05
-6.34393e-06
-1.59234e-05
-6.99142e-06
-1.53811e-05
-7.67365e-06
-1.47868e-05
-8.37628e-06
-1.41428e-05
-9.09269e-06
-1.34486e-05
-9.82681e-06
-1.26984e-05
-1.18824e-05
-1.05723e-07
-1.73815e-05
-2.66994e-07
-1.98043e-05
-4.33827e-07
-1.97682e-05
-6.18026e-07
-1.96381e-05
-8.18655e-07
-1.9484e-05
-1.03671e-06
-1.92966e-05
-1.2787e-06
-1.907e-05
-1.55287e-06
-1.88119e-05
-1.86967e-06
-1.85224e-05
-2.23862e-06
-1.82026e-05
-2.65529e-06
-1.78644e-05
-3.10859e-06
-1.75144e-05
-3.59529e-06
-1.71445e-05
-4.11283e-06
-1.67482e-05
-4.65548e-06
-1.63179e-05
-5.22226e-06
-1.58473e-05
-5.80874e-06
-1.53369e-05
-6.41017e-06
-1.47797e-05
-7.02801e-06
-1.41689e-05
-7.66579e-06
-1.3505e-05
-8.32642e-06
-1.2788e-05
-9.00533e-06
-1.20194e-05
-1.11931e-05
-6.21241e-08
-1.73194e-05
-2.17167e-07
-1.96493e-05
-3.76994e-07
-1.96083e-05
-5.47165e-07
-1.94679e-05
-7.2855e-07
-1.93026e-05
-9.17683e-07
-1.91075e-05
-1.10925e-06
-1.88784e-05
-1.31729e-06
-1.86039e-05
-1.55463e-06
-1.82851e-05
-1.83215e-06
-1.7925e-05
-2.16577e-06
-1.75308e-05
-2.56713e-06
-1.7113e-05
-3.03177e-06
-1.66798e-05
-3.55205e-06
-1.62279e-05
-4.09835e-06
-1.57716e-05
-4.65086e-06
-1.52948e-05
-5.20845e-06
-1.47793e-05
-5.77218e-06
-1.4216e-05
-6.34949e-06
-1.35916e-05
-6.93882e-06
-1.29157e-05
-7.54419e-06
-1.21826e-05
-8.16783e-06
-1.13958e-05
-1.05547e-05
-2.59523e-08
-1.72934e-05
-2.13302e-07
-1.94619e-05
-4.02409e-07
-1.94192e-05
-5.87833e-07
-1.92825e-05
-7.76495e-07
-1.9114e-05
-9.70759e-07
-1.89132e-05
-1.16798e-06
-1.86812e-05
-1.36793e-06
-1.84039e-05
-1.57522e-06
-1.80778e-05
-1.79412e-06
-1.77061e-05
-2.03344e-06
-1.72914e-05
-2.30499e-06
-1.68415e-05
-2.61894e-06
-1.63659e-05
-2.99114e-06
-1.58557e-05
-3.43621e-06
-1.53266e-05
-3.94983e-06
-1.47812e-05
-4.5114e-06
-1.42177e-05
-5.08105e-06
-1.36463e-05
-5.63466e-06
-1.3038e-05
-6.18413e-06
-1.23662e-05
-6.74104e-06
-1.16257e-05
-7.31369e-06
-1.08232e-05
-9.96407e-06
-3.58568e-08
-1.72576e-05
-3.09841e-07
-1.9188e-05
-5.84657e-07
-1.91444e-05
-8.3585e-07
-1.90313e-05
-1.07314e-06
-1.88767e-05
-1.30077e-06
-1.86856e-05
-1.51823e-06
-1.84637e-05
-1.72152e-06
-1.82006e-05
-1.90895e-06
-1.78904e-05
-2.0851e-06
-1.75299e-05
-2.26249e-06
-1.71141e-05
-2.45482e-06
-1.66492e-05
-2.67188e-06
-1.61488e-05
-2.90168e-06
-1.56259e-05
-3.16003e-06
-1.50682e-05
-3.46264e-06
-1.44786e-05
-3.83088e-06
-1.38495e-05
-4.2937e-06
-1.31835e-05
-4.82104e-06
-1.25107e-05
-5.36592e-06
-1.18213e-05
-5.89948e-06
-1.10921e-05
-6.43297e-06
-1.02897e-05
-9.41556e-06
-1.02783e-07
-1.71548e-05
-5.27366e-07
-1.87634e-05
-9.48271e-07
-1.87235e-05
-1.33013e-06
-1.86494e-05
-1.67741e-06
-1.85294e-05
-1.9962e-06
-1.83668e-05
-2.28581e-06
-1.81741e-05
-2.53853e-06
-1.79479e-05
-2.74711e-06
-1.76818e-05
-2.9029e-06
-1.73742e-05
-3.00615e-06
-1.70108e-05
-3.07488e-06
-1.65804e-05
-3.13805e-06
-1.60856e-05
-3.21984e-06
-1.55441e-05
-3.33846e-06
-1.49496e-05
-3.49652e-06
-1.43205e-05
-3.66945e-06
-1.36766e-05
-3.86185e-06
-1.29911e-05
-4.12235e-06
-1.22502e-05
-4.49682e-06
-1.14469e-05
-4.97818e-06
-1.06108e-05
-5.49558e-06
-9.77227e-06
-8.89054e-06
-2.19059e-07
-1.69357e-05
-8.15445e-07
-1.8167e-05
-1.39761e-06
-1.81413e-05
-1.93863e-06
-1.81084e-05
-2.43406e-06
-1.80339e-05
-2.87697e-06
-1.79239e-05
-3.27409e-06
-1.7777e-05
-3.62765e-06
-1.75944e-05
-3.92896e-06
-1.73805e-05
-4.16798e-06
-1.71351e-05
-4.32943e-06
-1.68493e-05
-4.4014e-06
-1.65085e-05
-4.38381e-06
-1.61032e-05
-4.29664e-06
-1.56312e-05
-4.15933e-06
-1.50869e-05
-4.01733e-06
-1.44626e-05
-3.93539e-06
-1.37585e-05
-3.93094e-06
-1.29956e-05
-3.98327e-06
-1.21979e-05
-4.06607e-06
-1.13641e-05
-4.22478e-06
-1.04521e-05
-4.54379e-06
-9.45327e-06
-8.41633e-06
-3.44196e-07
-1.65915e-05
-1.02981e-06
-1.74814e-05
-1.69449e-06
-1.74767e-05
-2.33057e-06
-1.74723e-05
-2.92591e-06
-1.74386e-05
-3.46564e-06
-1.73841e-05
-3.94375e-06
-1.72988e-05
-4.35236e-06
-1.71857e-05
-4.69096e-06
-1.70418e-05
-4.9712e-06
-1.68549e-05
-5.1939e-06
-1.66266e-05
-5.3516e-06
-1.63507e-05
-5.43796e-06
-1.60169e-05
-5.44896e-06
-1.56202e-05
-5.37633e-06
-1.51595e-05
-5.20823e-06
-1.46307e-05
-4.94503e-06
-1.40218e-05
-4.62532e-06
-1.33153e-05
-4.32183e-06
-1.25014e-05
-4.10941e-06
-1.15765e-05
-4.01352e-06
-1.0548e-05
-4.02219e-06
-9.4446e-06
-8.28249e-06
-4.06189e-07
-1.61853e-05
-1.05082e-06
-1.68368e-05
-1.67771e-06
-1.68498e-05
-2.28669e-06
-1.68633e-05
-2.87133e-06
-1.6854e-05
-3.42382e-06
-1.68316e-05
-3.93255e-06
-1.67901e-05
-4.3918e-06
-1.67265e-05
-4.79739e-06
-1.66363e-05
-5.13775e-06
-1.65145e-05
-5.40833e-06
-1.63561e-05
-5.60401e-06
-1.61551e-05
-5.72101e-06
-1.58999e-05
-5.76601e-06
-1.55752e-05
-5.74118e-06
-1.51844e-05
-5.64307e-06
-1.47288e-05
-5.4733e-06
-1.41916e-05
-5.2325e-06
-1.35561e-05
-4.92432e-06
-1.28096e-05
-4.55664e-06
-1.19442e-05
-4.16682e-06
-1.09378e-05
-3.83961e-06
-9.77182e-06
-8.46709e-06
-4.19132e-07
-1.03186e-06
-1.64328e-06
-2.24277e-06
-2.82014e-06
-3.36833e-06
-3.87948e-06
-4.34606e-06
-4.76093e-06
-5.11805e-06
-5.41191e-06
-5.63792e-06
-5.7868e-06
-5.84233e-06
-5.80504e-06
-5.68791e-06
-5.49794e-06
-5.24195e-06
-4.9303e-06
-4.5809e-06
-4.20817e-06
-3.83151e-06
)
;

boundaryField
{
    leftWall
    {
        type            calculated;
        value           uniform 0;
    }
    rightWall
    {
        type            calculated;
        value           nonuniform 0();
    }
    lowerWall
    {
        type            calculated;
        value           nonuniform 0();
    }
    atmosphere
    {
        type            calculated;
        value           nonuniform List<scalar> 
23
(
-1.57662e-05
-1.6224e-05
-1.62383e-05
-1.62638e-05
-1.62766e-05
-1.62834e-05
-1.6279e-05
-1.62599e-05
-1.62214e-05
-1.61574e-05
-1.60622e-05
-1.59291e-05
-1.5751e-05
-1.55197e-05
-1.52217e-05
-1.48459e-05
-1.43815e-05
-1.38121e-05
-1.31213e-05
-1.22937e-05
-1.13106e-05
-1.01485e-05
-8.79757e-06
)
;
    }
    defaultFaces
    {
        type            empty;
        value           nonuniform 0();
    }
    procBoundary2to0
    {
        type            processor;
        value           nonuniform List<scalar> 
24
(
3.63193e-05
3.60977e-05
3.46787e-05
3.27613e-05
3.22643e-05
3.24726e-05
3.20839e-05
1.96475e-05
2.31466e-05
2.33481e-05
2.36147e-05
2.37969e-05
2.40178e-05
2.41637e-05
2.43422e-05
2.45899e-05
2.485e-05
2.56407e-05
2.70118e-05
2.86333e-05
3.01359e-05
3.18756e-05
5.88747e-06
3.28983e-05
)
;
    }
    procBoundary2to3
    {
        type            processor;
        value           nonuniform List<scalar> 
25
(
-1.9997e-05
-2.02594e-05
-1.87728e-05
-1.94629e-05
-1.85148e-05
-1.8669e-05
-1.78967e-05
-1.72659e-05
-1.6502e-05
-1.57007e-05
-1.48457e-05
-1.40164e-05
-1.31574e-05
-1.23022e-05
-1.14405e-05
-1.05715e-05
-9.69466e-06
-8.80617e-06
-7.90438e-06
-6.98146e-06
-6.02062e-06
-5.01798e-06
-4.15602e-06
-3.65502e-06
-3.50103e-06
)
;
    }
}


// ************************************************************************* //
