/*--------------------------------*- C++ -*----------------------------------*\
| =========                 |                                                 |
| \\      /  F ield         | OpenFOAM: The Open Source CFD Toolbox           |
|  \\    /   O peration     | Version:  2.4.0                                 |
|   \\  /    A nd           | Web:      www.OpenFOAM.org                      |
|    \\/     M anipulation  |                                                 |
\*---------------------------------------------------------------------------*/
FoamFile
{
    version     2.0;
    format      ascii;
    class       surfaceScalarField;
    location    "0.5";
    object      phi.water;
}
// * * * * * * * * * * * * * * * * * * * * * * * * * * * * * * * * * * * * * //

dimensions      [0 3 -1 0 0 0 0];

internalField   nonuniform List<scalar> 
1070
(
-8.78486e-06
-3.3419e-05
-1.14556e-05
-3.34267e-05
-1.33279e-05
-3.28059e-05
-1.50457e-05
-3.10434e-05
-1.72578e-05
-3.00519e-05
-1.90318e-05
-3.06985e-05
-3.11206e-05
5.07326e-08
-1.9698e-05
9.47958e-08
-2.31905e-05
4.5841e-08
-2.32988e-05
-9.67371e-08
-2.34718e-05
-3.44472e-07
-2.35487e-05
-6.65331e-07
-2.36963e-05
-9.35981e-07
-2.38923e-05
-1.12096e-06
-2.41563e-05
-1.18556e-06
-2.45242e-05
-8.89114e-07
-2.51452e-05
-6.16457e-07
-2.5912e-05
-7.17801e-07
-2.69091e-05
-1.47271e-06
-2.78772e-05
-2.62093e-06
-2.89867e-05
-4.58886e-06
-2.99066e-05
-7.3108e-06
-3.01756e-05
-9.96103e-06
-3.07688e-05
-1.21699e-05
-3.12179e-05
-1.42649e-05
-3.07109e-05
-1.60773e-05
-2.92311e-05
-1.77583e-05
-2.83708e-05
-1.91181e-05
-2.93386e-05
-2.99818e-05
5.11534e-08
-1.97492e-05
-8.37949e-08
-2.30556e-05
-3.22274e-07
-2.30604e-05
-6.09102e-07
-2.3185e-05
-8.75551e-07
-2.32823e-05
-1.18085e-06
-2.3391e-05
-1.44325e-06
-2.36299e-05
-1.70154e-06
-2.3898e-05
-1.95555e-06
-2.42702e-05
-2.20309e-06
-2.48976e-05
-2.52467e-06
-2.55904e-05
-3.12251e-06
-2.63112e-05
-4.03688e-06
-2.69628e-05
-5.20124e-06
-2.78223e-05
-6.77875e-06
-2.83292e-05
-8.35428e-06
-2.86001e-05
-1.00508e-05
-2.90723e-05
-1.20159e-05
-2.92528e-05
-1.39177e-05
-2.8809e-05
-1.53287e-05
-2.78199e-05
-1.64439e-05
-2.72555e-05
-1.7608e-05
-2.81743e-05
-2.88194e-05
-5.65884e-08
-1.96926e-05
-2.83997e-07
-2.28282e-05
-4.98689e-07
-2.28458e-05
-6.85002e-07
-2.29987e-05
-8.69195e-07
-2.30981e-05
-1.03762e-06
-2.32226e-05
-1.2668e-06
-2.34008e-05
-1.57668e-06
-2.35882e-05
-1.97635e-06
-2.38705e-05
-2.49481e-06
-2.43791e-05
-3.10493e-06
-2.49802e-05
-3.89785e-06
-2.55182e-05
-4.92609e-06
-2.59345e-05
-6.15523e-06
-2.65931e-05
-7.46001e-06
-2.70243e-05
-8.6371e-06
-2.7423e-05
-1.01681e-05
-2.75413e-05
-1.2133e-05
-2.72878e-05
-1.39372e-05
-2.70048e-05
-1.54754e-05
-2.62816e-05
-1.67196e-05
-2.60112e-05
-1.80758e-05
-2.68179e-05
-2.74349e-05
-1.47874e-07
-1.95448e-05
-2.97923e-07
-2.26782e-05
-4.217e-07
-2.2722e-05
-6.08844e-07
-2.28116e-05
-8.13381e-07
-2.28936e-05
-1.0283e-06
-2.30077e-05
-1.27488e-06
-2.31542e-05
-1.5231e-06
-2.33399e-05
-1.8e-06
-2.35936e-05
-2.32668e-06
-2.38524e-05
-3.01555e-06
-2.42913e-05
-3.80327e-06
-2.47305e-05
-4.6447e-06
-2.50931e-05
-5.82157e-06
-2.54162e-05
-7.07145e-06
-2.57745e-05
-8.44767e-06
-2.60468e-05
-9.90573e-06
-2.60832e-05
-1.12676e-05
-2.59259e-05
-1.26e-05
-2.56723e-05
-1.37882e-05
-2.50934e-05
-1.49418e-05
-2.48575e-05
-1.64629e-05
-2.52966e-05
-2.53856e-05
-1.05914e-07
-1.94389e-05
-3.33821e-07
-2.24503e-05
-5.95037e-07
-2.24608e-05
-8.82775e-07
-2.25239e-05
-1.17224e-06
-2.26041e-05
-1.45858e-06
-2.27214e-05
-1.74437e-06
-2.28684e-05
-2.03161e-06
-2.30527e-05
-2.35888e-06
-2.32663e-05
-2.76776e-06
-2.34435e-05
-3.41242e-06
-2.36466e-05
-4.18772e-06
-2.39552e-05
-4.94378e-06
-2.4337e-05
-5.83251e-06
-2.45275e-05
-6.92428e-06
-2.46827e-05
-8.36947e-06
-2.46017e-05
-9.95636e-06
-2.44963e-05
-1.129e-05
-2.45923e-05
-1.26644e-05
-2.42977e-05
-1.39886e-05
-2.37691e-05
-1.52003e-05
-2.36456e-05
-1.66813e-05
-2.38154e-05
-2.34005e-05
-2.21047e-07
-1.92179e-05
-5.02702e-07
-2.21687e-05
-7.75023e-07
-2.21885e-05
-1.0472e-06
-2.22517e-05
-1.33253e-06
-2.23188e-05
-1.65417e-06
-2.23998e-05
-2.01741e-06
-2.25052e-05
-2.41072e-06
-2.26594e-05
-2.84165e-06
-2.28354e-05
-3.35867e-06
-2.29265e-05
-4.03113e-06
-2.29741e-05
-4.78144e-06
-2.32048e-05
-5.7086e-06
-2.34098e-05
-6.64914e-06
-2.3587e-05
-7.66184e-06
-2.36701e-05
-8.61735e-06
-2.36462e-05
-9.48476e-06
-2.36289e-05
-1.07115e-05
-2.33655e-05
-1.2018e-05
-2.29912e-05
-1.31883e-05
-2.25987e-05
-1.44561e-05
-2.23776e-05
-1.61517e-05
-2.21197e-05
-2.1658e-05
-1.24313e-07
-1.90936e-05
-3.43416e-07
-2.19496e-05
-5.94502e-07
-2.19374e-05
-8.75301e-07
-2.19709e-05
-1.18229e-06
-2.20118e-05
-1.50712e-06
-2.20749e-05
-1.86126e-06
-2.2151e-05
-2.28107e-06
-2.22396e-05
-2.81304e-06
-2.23034e-05
-3.35285e-06
-2.23866e-05
-3.81115e-06
-2.25158e-05
-4.40136e-06
-2.26146e-05
-5.22372e-06
-2.25874e-05
-6.20291e-06
-2.26078e-05
-7.21395e-06
-2.2659e-05
-8.23564e-06
-2.26245e-05
-9.49869e-06
-2.23659e-05
-1.08605e-05
-2.20037e-05
-1.19641e-05
-2.18875e-05
-1.30088e-05
-2.15539e-05
-1.42896e-05
-2.10967e-05
-1.57967e-05
-2.06124e-05
-2.01912e-05
-2.39256e-07
-1.88543e-05
-5.33779e-07
-2.1655e-05
-8.1983e-07
-2.16514e-05
-1.12291e-06
-2.16678e-05
-1.45121e-06
-2.16835e-05
-1.81653e-06
-2.17096e-05
-2.20927e-06
-2.17583e-05
-2.64108e-06
-2.18078e-05
-3.10184e-06
-2.18426e-05
-3.62239e-06
-2.1866e-05
-4.24792e-06
-2.18902e-05
-4.9645e-06
-2.1898e-05
-5.62415e-06
-2.19278e-05
-6.44372e-06
-2.17882e-05
-7.47529e-06
-2.16275e-05
-8.47979e-06
-2.162e-05
-9.39507e-06
-2.14506e-05
-1.01919e-05
-2.12068e-05
-1.12375e-05
-2.08418e-05
-1.24515e-05
-2.03397e-05
-1.37665e-05
-1.97815e-05
-1.50699e-05
-1.9309e-05
-1.87615e-05
-2.09436e-07
-1.86449e-05
-4.78235e-07
-2.13862e-05
-7.45849e-07
-2.13838e-05
-1.01945e-06
-2.13942e-05
-1.30276e-06
-2.14002e-05
-1.61469e-06
-2.13977e-05
-1.97505e-06
-2.13979e-05
-2.3842e-06
-2.13986e-05
-2.8407e-06
-2.13861e-05
-3.38232e-06
-2.13244e-05
-4.04753e-06
-2.1225e-05
-4.78585e-06
-2.11596e-05
-5.57704e-06
-2.11366e-05
-6.29721e-06
-2.10681e-05
-6.9101e-06
-2.10146e-05
-7.73584e-06
-2.07943e-05
-8.72572e-06
-2.04607e-05
-9.91379e-06
-2.00187e-05
-1.11654e-05
-1.95902e-05
-1.22357e-05
-1.92693e-05
-1.32115e-05
-1.88056e-05
-1.43673e-05
-1.81531e-05
-1.74305e-05
-2.24696e-07
-1.84202e-05
-5.0794e-07
-2.1103e-05
-8.02485e-07
-2.10892e-05
-1.12697e-06
-2.10697e-05
-1.48316e-06
-2.1044e-05
-1.85904e-06
-2.10218e-05
-2.26215e-06
-2.09948e-05
-2.70546e-06
-2.09553e-05
-3.18032e-06
-2.09112e-05
-3.6369e-06
-2.08678e-05
-4.06622e-06
-2.07957e-05
-4.55422e-06
-2.06716e-05
-5.20137e-06
-2.04894e-05
-5.98351e-06
-2.02859e-05
-6.98508e-06
-2.0013e-05
-7.98829e-06
-1.9791e-05
-8.88705e-06
-1.95619e-05
-9.67886e-06
-1.92269e-05
-1.04298e-05
-1.88392e-05
-1.14045e-05
-1.82944e-05
-1.25866e-05
-1.76235e-05
-1.37392e-05
-1.70004e-05
-1.63262e-05
-2.06579e-07
-1.82136e-05
-4.55647e-07
-2.08539e-05
-7.01849e-07
-2.0843e-05
-9.58933e-07
-2.08127e-05
-1.23597e-06
-2.0767e-05
-1.54959e-06
-2.07081e-05
-1.90856e-06
-2.06358e-05
-2.3165e-06
-2.05473e-05
-2.78777e-06
-2.04399e-05
-3.34804e-06
-2.03075e-05
-3.99914e-06
-2.01445e-05
-4.697e-06
-1.99737e-05
-5.36978e-06
-1.98166e-05
-6.03051e-06
-1.96252e-05
-6.62445e-06
-1.9419e-05
-7.24551e-06
-1.917e-05
-8.02637e-06
-1.8781e-05
-8.95001e-06
-1.83032e-05
-1.00262e-05
-1.77629e-05
-1.10797e-05
-1.72409e-05
-1.19758e-05
-1.67273e-05
-1.29377e-05
-1.60383e-05
-1.52497e-05
-2.23459e-07
-1.79901e-05
-4.94458e-07
-2.05829e-05
-7.70003e-07
-2.05674e-05
-1.06597e-06
-2.05167e-05
-1.38198e-06
-2.04509e-05
-1.71987e-06
-2.03702e-05
-2.08374e-06
-2.02719e-05
-2.47533e-06
-2.01557e-05
-2.89242e-06
-2.00228e-05
-3.32145e-06
-1.98785e-05
-3.7516e-06
-1.97144e-05
-4.22523e-06
-1.95e-05
-4.78485e-06
-1.92569e-05
-5.42576e-06
-1.89842e-05
-6.18344e-06
-1.86614e-05
-7.06403e-06
-1.82894e-05
-7.93507e-06
-1.791e-05
-8.75659e-06
-1.74816e-05
-9.50606e-06
-1.70133e-05
-1.03091e-05
-1.64377e-05
-1.12596e-05
-1.57767e-05
-1.22151e-05
-1.50827e-05
-1.43095e-05
-1.84668e-07
-1.78055e-05
-4.01722e-07
-2.03658e-05
-6.23912e-07
-2.03452e-05
-8.67582e-07
-2.0273e-05
-1.13964e-06
-2.01789e-05
-1.44813e-06
-2.00617e-05
-1.79706e-06
-1.9923e-05
-2.18732e-06
-1.97655e-05
-2.62058e-06
-1.95895e-05
-3.10448e-06
-1.93946e-05
-3.64041e-06
-1.91784e-05
-4.20782e-06
-1.89326e-05
-4.80075e-06
-1.8664e-05
-5.41389e-06
-1.83711e-05
-6.03197e-06
-1.80433e-05
-6.64664e-06
-1.76747e-05
-7.31147e-06
-1.72451e-05
-8.05337e-06
-1.67397e-05
-8.89111e-06
-1.61755e-05
-9.74667e-06
-1.55821e-05
-1.05736e-05
-1.49497e-05
-1.14225e-05
-1.42337e-05
-1.34317e-05
-1.81648e-07
-1.76238e-05
-4.00676e-07
-2.01468e-05
-6.23946e-07
-2.0122e-05
-8.66735e-07
-2.00302e-05
-1.12997e-06
-1.99156e-05
-1.41735e-06
-1.97743e-05
-1.73243e-06
-1.96079e-05
-2.07886e-06
-1.9419e-05
-2.46001e-06
-1.92084e-05
-2.87904e-06
-1.89755e-05
-3.33357e-06
-1.87238e-05
-3.8119e-06
-1.84542e-05
-4.32779e-06
-1.81481e-05
-4.89516e-06
-1.78037e-05
-5.51575e-06
-1.74227e-05
-6.19038e-06
-1.7e-05
-6.89984e-06
-1.65356e-05
-7.61017e-06
-1.60293e-05
-8.31587e-06
-1.54698e-05
-9.0516e-06
-1.48463e-05
-9.83525e-06
-1.4166e-05
-1.06353e-05
-1.34336e-05
-1.26283e-05
-1.36359e-07
-1.74874e-05
-3.17321e-07
-1.99658e-05
-5.0404e-07
-1.99352e-05
-7.11728e-07
-1.98225e-05
-9.42458e-07
-1.96849e-05
-1.20185e-06
-1.95149e-05
-1.49751e-06
-1.93122e-05
-1.83008e-06
-1.90864e-05
-2.19887e-06
-1.88396e-05
-2.60248e-06
-1.85719e-05
-3.04481e-06
-1.82815e-05
-3.53087e-06
-1.79682e-05
-4.04725e-06
-1.76317e-05
-4.58468e-06
-1.72663e-05
-5.1462e-06
-1.68611e-05
-5.73153e-06
-1.64148e-05
-6.34306e-06
-1.59241e-05
-6.99044e-06
-1.53819e-05
-7.67255e-06
-1.47876e-05
-8.37505e-06
-1.41437e-05
-9.09131e-06
-1.34496e-05
-9.82527e-06
-1.26996e-05
-1.18837e-05
-1.05686e-07
-1.73817e-05
-2.66923e-07
-1.98046e-05
-4.33722e-07
-1.97684e-05
-6.17885e-07
-1.96383e-05
-8.18478e-07
-1.94843e-05
-1.03649e-06
-1.92969e-05
-1.27845e-06
-1.90703e-05
-1.55258e-06
-1.88123e-05
-1.86933e-06
-1.85228e-05
-2.23824e-06
-1.82029e-05
-2.65485e-06
-1.78648e-05
-3.10809e-06
-1.75149e-05
-3.59473e-06
-1.7145e-05
-4.11221e-06
-1.67487e-05
-4.65482e-06
-1.63185e-05
-5.22152e-06
-1.5848e-05
-5.80793e-06
-1.53376e-05
-6.40927e-06
-1.47805e-05
-7.027e-06
-1.41698e-05
-7.66466e-06
-1.3506e-05
-8.32516e-06
-1.27891e-05
-9.00394e-06
-1.20207e-05
-1.11945e-05
-6.20947e-08
-1.73196e-05
-2.17104e-07
-1.96496e-05
-3.76899e-07
-1.96086e-05
-5.47037e-07
-1.94682e-05
-7.28389e-07
-1.93029e-05
-9.17488e-07
-1.91078e-05
-1.10902e-06
-1.88787e-05
-1.31703e-06
-1.86043e-05
-1.55432e-06
-1.82855e-05
-1.8318e-06
-1.79255e-05
-2.16537e-06
-1.75312e-05
-2.56668e-06
-1.71136e-05
-3.03126e-06
-1.66804e-05
-3.55151e-06
-1.62285e-05
-4.09773e-06
-1.57723e-05
-4.6502e-06
-1.52956e-05
-5.20772e-06
-1.47801e-05
-5.77137e-06
-1.42168e-05
-6.34859e-06
-1.35926e-05
-6.93781e-06
-1.29168e-05
-7.54306e-06
-1.21838e-05
-8.16658e-06
-1.13972e-05
-1.05562e-05
-2.59228e-08
-1.72937e-05
-2.13245e-07
-1.94622e-05
-4.02323e-07
-1.94195e-05
-5.87719e-07
-1.92828e-05
-7.76351e-07
-1.91143e-05
-9.70585e-07
-1.89136e-05
-1.16778e-06
-1.86815e-05
-1.36769e-06
-1.84043e-05
-1.57495e-06
-1.80782e-05
-1.79381e-06
-1.77066e-05
-2.03308e-06
-1.7292e-05
-2.30458e-06
-1.6842e-05
-2.61848e-06
-1.63665e-05
-2.99063e-06
-1.58563e-05
-3.43568e-06
-1.53273e-05
-3.94923e-06
-1.4782e-05
-4.51075e-06
-1.42186e-05
-5.08033e-06
-1.36473e-05
-5.63387e-06
-1.3039e-05
-6.18325e-06
-1.23674e-05
-6.74006e-06
-1.1627e-05
-7.3126e-06
-1.08246e-05
-9.96565e-06
-3.58343e-08
-1.72579e-05
-3.09793e-07
-1.91883e-05
-5.84583e-07
-1.91447e-05
-8.35751e-07
-1.90316e-05
-1.07302e-06
-1.8877e-05
-1.30061e-06
-1.86859e-05
-1.51805e-06
-1.84641e-05
-1.72131e-06
-1.82011e-05
-1.90871e-06
-1.78908e-05
-2.08483e-06
-1.75304e-05
-2.26218e-06
-1.71146e-05
-2.45446e-06
-1.66497e-05
-2.67148e-06
-1.61495e-05
-2.90124e-06
-1.56266e-05
-3.15953e-06
-1.50689e-05
-3.46212e-06
-1.44794e-05
-3.83031e-06
-1.38504e-05
-4.29309e-06
-1.31845e-05
-4.82036e-06
-1.25118e-05
-5.36517e-06
-1.18226e-05
-5.89864e-06
-1.10935e-05
-6.43204e-06
-1.02912e-05
-9.41722e-06
-1.0276e-07
-1.71551e-05
-5.27324e-07
-1.87637e-05
-9.48207e-07
-1.87239e-05
-1.33004e-06
-1.86498e-05
-1.6773e-06
-1.85297e-05
-1.99608e-06
-1.83672e-05
-2.28566e-06
-1.81745e-05
-2.53835e-06
-1.79484e-05
-2.74691e-06
-1.76822e-05
-2.90267e-06
-1.73747e-05
-3.00588e-06
-1.70114e-05
-3.07457e-06
-1.6581e-05
-3.13771e-06
-1.60863e-05
-3.21945e-06
-1.55448e-05
-3.33806e-06
-1.49504e-05
-3.49606e-06
-1.43214e-05
-3.66897e-06
-1.36775e-05
-3.86134e-06
-1.29922e-05
-4.12179e-06
-1.22514e-05
-4.49621e-06
-1.14482e-05
-4.97749e-06
-1.06122e-05
-5.49482e-06
-9.77385e-06
-8.89229e-06
-2.19045e-07
-1.69361e-05
-8.15413e-07
-1.81673e-05
-1.39756e-06
-1.81417e-05
-1.93856e-06
-1.81088e-05
-2.43397e-06
-1.80343e-05
-2.87687e-06
-1.79243e-05
-3.27397e-06
-1.77774e-05
-3.62751e-06
-1.75948e-05
-3.9288e-06
-1.73809e-05
-4.16779e-06
-1.71357e-05
-4.32921e-06
-1.68499e-05
-4.40114e-06
-1.65091e-05
-4.38353e-06
-1.61039e-05
-4.29633e-06
-1.5632e-05
-4.15898e-06
-1.50877e-05
-4.01697e-06
-1.44635e-05
-3.93501e-06
-1.37596e-05
-3.93054e-06
-1.29967e-05
-3.98283e-06
-1.21991e-05
-4.06559e-06
-1.13655e-05
-4.22425e-06
-1.04536e-05
-4.5432e-06
-9.45493e-06
-8.41815e-06
-3.44184e-07
-1.65919e-05
-1.02978e-06
-1.74817e-05
-1.69445e-06
-1.7477e-05
-2.33052e-06
-1.74727e-05
-2.92585e-06
-1.7439e-05
-3.46556e-06
-1.73845e-05
-3.94366e-06
-1.72993e-05
-4.35225e-06
-1.71862e-05
-4.69084e-06
-1.70423e-05
-4.97107e-06
-1.68554e-05
-5.19374e-06
-1.66272e-05
-5.35142e-06
-1.63514e-05
-5.43775e-06
-1.60176e-05
-5.44872e-06
-1.5621e-05
-5.37608e-06
-1.51604e-05
-5.20796e-06
-1.46317e-05
-4.94475e-06
-1.40229e-05
-4.62503e-06
-1.33165e-05
-4.32151e-06
-1.25027e-05
-4.10907e-06
-1.1578e-05
-4.01314e-06
-1.05496e-05
-4.02176e-06
-9.44633e-06
-8.28439e-06
-4.06181e-07
-1.61857e-05
-1.0508e-06
-1.68371e-05
-1.67769e-06
-1.68501e-05
-2.28666e-06
-1.68637e-05
-2.87129e-06
-1.68544e-05
-3.42377e-06
-1.68321e-05
-3.9325e-06
-1.67906e-05
-4.39174e-06
-1.6727e-05
-4.79732e-06
-1.66368e-05
-5.13767e-06
-1.65151e-05
-5.40824e-06
-1.63567e-05
-5.60389e-06
-1.61558e-05
-5.72088e-06
-1.59006e-05
-5.76587e-06
-1.55761e-05
-5.74102e-06
-1.51853e-05
-5.64291e-06
-1.47298e-05
-5.47313e-06
-1.41927e-05
-5.23233e-06
-1.35574e-05
-4.92413e-06
-1.2811e-05
-4.55643e-06
-1.19457e-05
-4.16659e-06
-1.09394e-05
-3.83935e-06
-9.7736e-06
-8.46903e-06
-4.19129e-07
-1.03185e-06
-1.64327e-06
-2.24276e-06
-2.82013e-06
-3.36832e-06
-3.87946e-06
-4.34604e-06
-4.7609e-06
-5.11802e-06
-5.41188e-06
-5.63789e-06
-5.78676e-06
-5.84228e-06
-5.80498e-06
-5.68786e-06
-5.49789e-06
-5.24189e-06
-4.93024e-06
-4.58083e-06
-4.20809e-06
-3.83142e-06
)
;

boundaryField
{
    leftWall
    {
        type            fixedValue;
        value           uniform 0;
    }
    rightWall
    {
        type            fixedValue;
        value           nonuniform 0();
    }
    lowerWall
    {
        type            fixedValue;
        value           nonuniform 0();
    }
    atmosphere
    {
        type            calculated;
        value           nonuniform List<scalar> 
23
(
-1.57666e-05
-1.62244e-05
-1.62387e-05
-1.62642e-05
-1.6277e-05
-1.62839e-05
-1.62794e-05
-1.62604e-05
-1.62219e-05
-1.6158e-05
-1.60628e-05
-1.59298e-05
-1.57518e-05
-1.55206e-05
-1.52226e-05
-1.4847e-05
-1.43827e-05
-1.38134e-05
-1.31227e-05
-1.22952e-05
-1.13122e-05
-1.01503e-05
-8.79952e-06
)
;
    }
    defaultFaces
    {
        type            empty;
        value           nonuniform 0();
    }
    procBoundary2to0
    {
        type            processor;
        value           nonuniform List<scalar> 
24
(
3.63187e-05
3.6097e-05
3.46784e-05
3.27608e-05
3.2264e-05
3.24721e-05
3.20835e-05
1.96472e-05
2.31463e-05
2.33477e-05
2.36143e-05
2.37963e-05
2.40171e-05
2.41629e-05
2.43413e-05
2.45889e-05
2.48488e-05
2.56395e-05
2.70107e-05
2.86323e-05
3.01349e-05
3.18748e-05
5.88561e-06
3.28976e-05
)
;
    }
    procBoundary2to3
    {
        type            processor;
        value           nonuniform List<scalar> 
25
(
-1.99944e-05
-2.02569e-05
-1.87702e-05
-1.94602e-05
-1.85121e-05
-1.86662e-05
-1.78939e-05
-1.72632e-05
-1.64994e-05
-1.56981e-05
-1.48433e-05
-1.4014e-05
-1.31552e-05
-1.23002e-05
-1.14385e-05
-1.05697e-05
-9.69304e-06
-8.80474e-06
-7.90312e-06
-6.98038e-06
-6.01973e-06
-5.01728e-06
-4.15552e-06
-3.65472e-06
-3.50093e-06
)
;
    }
}


// ************************************************************************* //
