/*--------------------------------*- C++ -*----------------------------------*\
| =========                 |                                                 |
| \\      /  F ield         | OpenFOAM: The Open Source CFD Toolbox           |
|  \\    /   O peration     | Version:  2.4.0                                 |
|   \\  /    A nd           | Web:      www.OpenFOAM.org                      |
|    \\/     M anipulation  |                                                 |
\*---------------------------------------------------------------------------*/
FoamFile
{
    version     2.0;
    format      ascii;
    class       volVectorField;
    location    "0.5";
    object      U;
}
// * * * * * * * * * * * * * * * * * * * * * * * * * * * * * * * * * * * * * //

dimensions      [0 1 -1 0 0 0 0];

internalField   nonuniform List<vector> 
559
(
(-0.0405793 -0.188517 0)
(-0.0551524 -0.186361 0)
(-0.0664109 -0.181522 0)
(-0.0759212 -0.170755 0)
(-0.085725 -0.165759 0)
(-0.0986177 -0.167316 0)
(-0.105032 -0.167904 0)
(0.000143663 -0.105754 0)
(0.00041714 -0.124716 0)
(0.000559604 -0.12598 0)
(-5.24077e-05 -0.127413 0)
(-0.000917891 -0.128312 0)
(-0.00267055 -0.129626 0)
(-0.0042784 -0.130392 0)
(-0.00554709 -0.13162 0)
(-0.00643259 -0.133149 0)
(-0.00579064 -0.135777 0)
(-0.00407381 -0.140005 0)
(-0.00269864 -0.146458 0)
(-0.00539731 -0.152749 0)
(-0.0099756 -0.160268 0)
(-0.0190392 -0.167968 0)
(-0.0306962 -0.169815 0)
(-0.0474198 -0.172188 0)
(-0.0606499 -0.17354 0)
(-0.0704053 -0.171766 0)
(-0.0820679 -0.163399 0)
(-0.0910407 -0.157677 0)
(-0.0997557 -0.163017 0)
(-0.105068 -0.166808 0)
(0.000435639 -0.106141 0)
(0.000109912 -0.124698 0)
(-0.00096735 -0.12472 0)
(-0.00255241 -0.125367 0)
(-0.00385651 -0.126157 0)
(-0.00546948 -0.127018 0)
(-0.00696308 -0.12832 0)
(-0.00834859 -0.129745 0)
(-0.00967296 -0.132123 0)
(-0.0109636 -0.135267 0)
(-0.0127704 -0.138561 0)
(-0.0145987 -0.14249 0)
(-0.0191812 -0.147593 0)
(-0.0245477 -0.153102 0)
(-0.0321622 -0.155879 0)
(-0.0405389 -0.157176 0)
(-0.0495556 -0.161955 0)
(-0.0589632 -0.165258 0)
(-0.0703691 -0.161191 0)
(-0.0797593 -0.153588 0)
(-0.0845451 -0.149196 0)
(-0.0920998 -0.154361 0)
(-0.0970951 -0.157954 0)
(5.446e-05 -0.106426 0)
(-0.00070054 -0.123361 0)
(-0.00230213 -0.123444 0)
(-0.00303867 -0.124135 0)
(-0.0042195 -0.124733 0)
(-0.00499996 -0.125216 0)
(-0.00599196 -0.126327 0)
(-0.00740269 -0.127365 0)
(-0.00920884 -0.128814 0)
(-0.0118085 -0.132034 0)
(-0.0152918 -0.136327 0)
(-0.0182855 -0.140655 0)
(-0.0235438 -0.142988 0)
(-0.0299631 -0.146689 0)
(-0.0364819 -0.149003 0)
(-0.0436685 -0.151505 0)
(-0.0497381 -0.15161 0)
(-0.0597588 -0.150718 0)
(-0.070838 -0.149296 0)
(-0.0798232 -0.145234 0)
(-0.086583 -0.14369 0)
(-0.0937324 -0.148299 0)
(-0.100163 -0.151029 0)
(-0.000266517 -0.105515 0)
(-0.00137642 -0.122539 0)
(-0.00177531 -0.12277 0)
(-0.00269785 -0.12367 0)
(-0.0037354 -0.124069 0)
(-0.00484358 -0.124656 0)
(-0.0060933 -0.125406 0)
(-0.00739008 -0.126459 0)
(-0.00873925 -0.128192 0)
(-0.0107116 -0.130238 0)
(-0.0145672 -0.132867 0)
(-0.0181621 -0.135415 0)
(-0.0222801 -0.137035 0)
(-0.0281508 -0.140182 0)
(-0.034546 -0.142704 0)
(-0.0420165 -0.145188 0)
(-0.0491359 -0.146227 0)
(-0.0569 -0.144389 0)
(-0.064723 -0.1438 0)
(-0.0709577 -0.139926 0)
(-0.0779712 -0.13847 0)
(-0.0832933 -0.142277 0)
(-0.0932611 -0.145292 0)
(-0.000126936 -0.105086 0)
(-0.00102127 -0.121532 0)
(-0.00250785 -0.121652 0)
(-0.00391665 -0.121923 0)
(-0.00545616 -0.122585 0)
(-0.00703332 -0.12358 0)
(-0.00850307 -0.1245 0)
(-0.0100216 -0.125428 0)
(-0.0117423 -0.126132 0)
(-0.0138582 -0.127133 0)
(-0.0158839 -0.128543 0)
(-0.0205625 -0.1301 0)
(-0.0246681 -0.133076 0)
(-0.0286883 -0.134093 0)
(-0.0339805 -0.135417 0)
(-0.0406135 -0.135457 0)
(-0.049468 -0.134753 0)
(-0.0579081 -0.135185 0)
(-0.0643541 -0.13336 0)
(-0.0716301 -0.130277 0)
(-0.0793575 -0.129155 0)
(-0.0849502 -0.130431 0)
(-0.0945129 -0.12919 0)
(-0.000496951 -0.103919 0)
(-0.00191116 -0.120094 0)
(-0.00343777 -0.120275 0)
(-0.00486024 -0.120732 0)
(-0.0063368 -0.1211 0)
(-0.00789325 -0.121453 0)
(-0.00975955 -0.122147 0)
(-0.0118522 -0.123154 0)
(-0.0141404 -0.124387 0)
(-0.0164688 -0.124694 0)
(-0.0196989 -0.125734 0)
(-0.0234655 -0.128011 0)
(-0.0281643 -0.12917 0)
(-0.0331758 -0.129968 0)
(-0.0385157 -0.130751 0)
(-0.0438902 -0.130147 0)
(-0.0486826 -0.130092 0)
(-0.0540279 -0.1311 0)
(-0.0611733 -0.128609 0)
(-0.0685157 -0.126688 0)
(-0.073622 -0.125448 0)
(-0.082837 -0.125535 0)
(-0.0911344 -0.122315 0)
(-0.000229159 -0.103542 0)
(-0.00113136 -0.119093 0)
(-0.00250765 -0.118989 0)
(-0.00388886 -0.119164 0)
(-0.00546361 -0.119435 0)
(-0.00718998 -0.119881 0)
(-0.00899687 -0.120336 0)
(-0.0110357 -0.120894 0)
(-0.0134813 -0.121536 0)
(-0.016771 -0.12266 0)
(-0.0195404 -0.123234 0)
(-0.0215794 -0.123593 0)
(-0.0254563 -0.123947 0)
(-0.0307457 -0.12492 0)
(-0.036171 -0.12527 0)
(-0.0411158 -0.124989 0)
(-0.0477525 -0.124638 0)
(-0.0548492 -0.121115 0)
(-0.0620812 -0.12013 0)
(-0.066712 -0.11824 0)
(-0.0733399 -0.117379 0)
(-0.0811902 -0.114435 0)
(-0.0890138 -0.112295 0)
(-0.000550019 -0.101934 0)
(-0.00204769 -0.117218 0)
(-0.00364536 -0.117255 0)
(-0.00517201 -0.117466 0)
(-0.0068559 -0.117684 0)
(-0.00875175 -0.117999 0)
(-0.0107692 -0.118374 0)
(-0.012982 -0.11876 0)
(-0.0154354 -0.118983 0)
(-0.0180424 -0.118874 0)
(-0.0208524 -0.119087 0)
(-0.0248942 -0.119587 0)
(-0.0286591 -0.119534 0)
(-0.0319252 -0.119064 0)
(-0.0370129 -0.118616 0)
(-0.0433604 -0.119074 0)
(-0.0481959 -0.117429 0)
(-0.0530369 -0.117031 0)
(-0.056948 -0.116581 0)
(-0.0636697 -0.113863 0)
(-0.0703034 -0.109583 0)
(-0.0782973 -0.107294 0)
(-0.0844293 -0.105866 0)
(-0.000498338 -0.10136 0)
(-0.00177861 -0.116325 0)
(-0.00331929 -0.116302 0)
(-0.00473107 -0.11638 0)
(-0.00623972 -0.116404 0)
(-0.00776101 -0.116308 0)
(-0.00958307 -0.116345 0)
(-0.0116943 -0.116461 0)
(-0.0140077 -0.116561 0)
(-0.0164989 -0.116637 0)
(-0.0198427 -0.11671 0)
(-0.0238034 -0.11636 0)
(-0.0276464 -0.116538 0)
(-0.0322655 -0.115821 0)
(-0.0357188 -0.115719 0)
(-0.0386665 -0.114703 0)
(-0.0442879 -0.113463 0)
(-0.0499299 -0.111474 0)
(-0.0565712 -0.107787 0)
(-0.0635959 -0.105961 0)
(-0.0683711 -0.105098 0)
(-0.0738492 -0.102026 0)
(-0.0812145 -0.0970127 0)
(-0.000543161 -0.0996564 0)
(-0.0018958 -0.114242 0)
(-0.00352171 -0.114198 0)
(-0.00513635 -0.11418 0)
(-0.00698279 -0.114189 0)
(-0.00896627 -0.114298 0)
(-0.0110392 -0.114352 0)
(-0.0133137 -0.11428 0)
(-0.015797 -0.114129 0)
(-0.0183875 -0.113756 0)
(-0.0208063 -0.112939 0)
(-0.0228826 -0.112576 0)
(-0.0261346 -0.112084 0)
(-0.0297962 -0.111714 0)
(-0.0345264 -0.110229 0)
(-0.0404507 -0.108805 0)
(-0.0456203 -0.107473 0)
(-0.0501092 -0.105209 0)
(-0.0542287 -0.104717 0)
(-0.0578276 -0.102743 0)
(-0.0643939 -0.0977393 0)
(-0.0714263 -0.0942811 0)
(-0.0767767 -0.0915281 0)
(-0.000522977 -0.09902 0)
(-0.00172062 -0.113415 0)
(-0.00313781 -0.113342 0)
(-0.00444094 -0.113188 0)
(-0.00586971 -0.112933 0)
(-0.00743944 -0.112608 0)
(-0.00925401 -0.112278 0)
(-0.0113022 -0.111935 0)
(-0.013633 -0.111572 0)
(-0.016336 -0.111215 0)
(-0.0195548 -0.110839 0)
(-0.0234639 -0.109973 0)
(-0.0270581 -0.108889 0)
(-0.0306695 -0.107635 0)
(-0.0341782 -0.106742 0)
(-0.0372237 -0.106038 0)
(-0.0406631 -0.104421 0)
(-0.0454934 -0.10227 0)
(-0.0508431 -0.0980455 0)
(-0.0570783 -0.0948221 0)
(-0.0619656 -0.0931685 0)
(-0.0668928 -0.089642 0)
(-0.0726624 -0.0850293 0)
(-0.000559866 -0.0973749 0)
(-0.00186477 -0.111463 0)
(-0.00340997 -0.111408 0)
(-0.00490289 -0.111213 0)
(-0.00655788 -0.110954 0)
(-0.00831375 -0.110621 0)
(-0.0101952 -0.110159 0)
(-0.0122154 -0.109561 0)
(-0.0143838 -0.108843 0)
(-0.0166934 -0.108 0)
(-0.0190437 -0.106987 0)
(-0.0212804 -0.106091 0)
(-0.0240709 -0.10525 0)
(-0.0273368 -0.104066 0)
(-0.0310021 -0.10238 0)
(-0.0354832 -0.100148 0)
(-0.0404621 -0.0979628 0)
(-0.0449712 -0.0957449 0)
(-0.0491381 -0.0943016 0)
(-0.0529505 -0.0916551 0)
(-0.0578353 -0.0876278 0)
(-0.0633404 -0.0838825 0)
(-0.0683001 -0.0798755 0)
(-0.000494755 -0.0967548 0)
(-0.00150452 -0.110662 0)
(-0.00277668 -0.110566 0)
(-0.0039695 -0.110243 0)
(-0.00535904 -0.10982 0)
(-0.00690541 -0.109304 0)
(-0.00866463 -0.108711 0)
(-0.0106481 -0.108051 0)
(-0.0128585 -0.107319 0)
(-0.0153069 -0.106516 0)
(-0.0180231 -0.105534 0)
(-0.0210401 -0.104089 0)
(-0.0241778 -0.102565 0)
(-0.0274189 -0.101076 0)
(-0.0307673 -0.0994409 0)
(-0.0340591 -0.0977328 0)
(-0.0373806 -0.095667 0)
(-0.0411456 -0.0928938 0)
(-0.0454699 -0.0894372 0)
(-0.0501123 -0.0861395 0)
(-0.054557 -0.083046 0)
(-0.0591503 -0.0792517 0)
(-0.0638884 -0.0748615 0)
(-0.000464603 -0.0953214 0)
(-0.00149918 -0.109009 0)
(-0.00277257 -0.108881 0)
(-0.00397083 -0.108414 0)
(-0.00533903 -0.107822 0)
(-0.00680891 -0.107085 0)
(-0.00842007 -0.106207 0)
(-0.0101918 -0.105214 0)
(-0.0121399 -0.104116 0)
(-0.0142824 -0.102922 0)
(-0.0166427 -0.101722 0)
(-0.0191399 -0.100571 0)
(-0.0217869 -0.0991295 0)
(-0.0246975 -0.0973782 0)
(-0.0278855 -0.0954391 0)
(-0.0313759 -0.0932109 0)
(-0.0351456 -0.090747 0)
(-0.0389947 -0.0882143 0)
(-0.0427706 -0.0855112 0)
(-0.0465772 -0.082302 0)
(-0.0506641 -0.0786053 0)
(-0.0550643 -0.0746904 0)
(-0.0594199 -0.0703542 0)
(-0.000352071 -0.0948386 0)
(-0.00113565 -0.108425 0)
(-0.00223371 -0.108291 0)
(-0.00322363 -0.107769 0)
(-0.00441081 -0.107117 0)
(-0.00571471 -0.106316 0)
(-0.00720136 -0.105385 0)
(-0.00888602 -0.104324 0)
(-0.0107652 -0.103124 0)
(-0.0128359 -0.101766 0)
(-0.0150938 -0.100208 0)
(-0.0175976 -0.0984796 0)
(-0.0203115 -0.0966954 0)
(-0.0231437 -0.0948041 0)
(-0.0260937 -0.0926908 0)
(-0.0291764 -0.0903761 0)
(-0.0323781 -0.0878194 0)
(-0.0357549 -0.0849016 0)
(-0.0393537 -0.0816659 0)
(-0.0430813 -0.0782203 0)
(-0.0468674 -0.0745672 0)
(-0.0508334 -0.0705689 0)
(-0.0548786 -0.0661582 0)
(-0.000236513 -0.0939341 0)
(-0.000912245 -0.107091 0)
(-0.00192098 -0.106902 0)
(-0.00278198 -0.106217 0)
(-0.00383608 -0.105404 0)
(-0.00496211 -0.104414 0)
(-0.00618286 -0.103231 0)
(-0.00754946 -0.101918 0)
(-0.0091125 -0.100494 0)
(-0.0109481 -0.0990014 0)
(-0.0130766 -0.0974612 0)
(-0.0154218 -0.0958009 0)
(-0.017935 -0.0939156 0)
(-0.0206479 -0.0918096 0)
(-0.0235015 -0.0895118 0)
(-0.0264813 -0.0870132 0)
(-0.0295847 -0.0842996 0)
(-0.0327814 -0.0813717 0)
(-0.0360575 -0.0781707 0)
(-0.0394233 -0.0746554 0)
(-0.0428982 -0.0708317 0)
(-0.0465467 -0.0667332 0)
(-0.0502866 -0.0622848 0)
(-3.59479e-05 -0.093697 0)
(-0.000639751 -0.106623 0)
(-0.00166035 -0.10642 0)
(-0.00243771 -0.105684 0)
(-0.00341861 -0.104822 0)
(-0.00442471 -0.103774 0)
(-0.00542801 -0.102459 0)
(-0.00647476 -0.100933 0)
(-0.00766594 -0.0992206 0)
(-0.0090294 -0.0973024 0)
(-0.0106389 -0.0952441 0)
(-0.0126017 -0.0931706 0)
(-0.014931 -0.0911097 0)
(-0.0176204 -0.0890305 0)
(-0.0205222 -0.0867829 0)
(-0.023462 -0.0842365 0)
(-0.0264421 -0.0814233 0)
(-0.029456 -0.0783196 0)
(-0.0325216 -0.0749461 0)
(-0.0356538 -0.0713138 0)
(-0.0388502 -0.0674041 0)
(-0.0421758 -0.063207 0)
(-0.0456225 -0.0586912 0)
(0.000187051 -0.0932037 0)
(-0.000479935 -0.105404 0)
(-0.00176656 -0.105175 0)
(-0.00261613 -0.104403 0)
(-0.00367266 -0.103483 0)
(-0.00468066 -0.102398 0)
(-0.0057398 -0.101188 0)
(-0.00680767 -0.0997262 0)
(-0.00789214 -0.0979782 0)
(-0.00902612 -0.0959727 0)
(-0.01024 -0.0937607 0)
(-0.0115968 -0.0913623 0)
(-0.0131672 -0.0888327 0)
(-0.0149754 -0.086156 0)
(-0.0171278 -0.0834966 0)
(-0.0197335 -0.0809122 0)
(-0.022653 -0.0782297 0)
(-0.0257783 -0.0753221 0)
(-0.0287567 -0.0719738 0)
(-0.0317135 -0.0682922 0)
(-0.0346716 -0.0642805 0)
(-0.0377126 -0.0599762 0)
(-0.040882 -0.0553724 0)
(0.000284314 -0.0931251 0)
(-0.000688399 -0.104304 0)
(-0.00257691 -0.104067 0)
(-0.00377938 -0.103385 0)
(-0.00515811 -0.102511 0)
(-0.00638313 -0.101489 0)
(-0.00758781 -0.100279 0)
(-0.00872304 -0.0988241 0)
(-0.00977172 -0.0970906 0)
(-0.0107368 -0.0950865 0)
(-0.0116632 -0.0928059 0)
(-0.012639 -0.090316 0)
(-0.0137397 -0.0876648 0)
(-0.0149324 -0.0847902 0)
(-0.0162325 -0.0817896 0)
(-0.0177134 -0.0785973 0)
(-0.0194716 -0.0752883 0)
(-0.0216504 -0.0720461 0)
(-0.0244071 -0.0688373 0)
(-0.0273413 -0.0653477 0)
(-0.0302427 -0.0613901 0)
(-0.0330872 -0.0570377 0)
(-0.0360192 -0.0523315 0)
(0.000261115 -0.0930867 0)
(-0.00139923 -0.102783 0)
(-0.00418137 -0.102544 0)
(-0.00609652 -0.102038 0)
(-0.00814411 -0.101293 0)
(-0.00988299 -0.100304 0)
(-0.0115395 -0.0991487 0)
(-0.0129968 -0.0977991 0)
(-0.0142605 -0.0962459 0)
(-0.0152497 -0.0944224 0)
(-0.0159347 -0.0922604 0)
(-0.0163584 -0.0897399 0)
(-0.0166536 -0.086933 0)
(-0.0170149 -0.0839777 0)
(-0.0175471 -0.0808215 0)
(-0.0182837 -0.0775491 0)
(-0.0192536 -0.0740935 0)
(-0.0201722 -0.0703159 0)
(-0.0213046 -0.0663648 0)
(-0.0229165 -0.0623576 0)
(-0.0253377 -0.0583876 0)
(-0.0280736 -0.0541495 0)
(-0.0309446 -0.0494128 0)
(5.63516e-05 -0.0928326 0)
(-0.00247971 -0.100637 0)
(-0.00616125 -0.100448 0)
(-0.00895325 -0.100151 0)
(-0.0118173 -0.0995814 0)
(-0.0143054 -0.0987635 0)
(-0.0165692 -0.097765 0)
(-0.0185662 -0.0965677 0)
(-0.0203579 -0.0951232 0)
(-0.0218249 -0.0935436 0)
(-0.022928 -0.0917328 0)
(-0.0235613 -0.0895948 0)
(-0.0236917 -0.0870894 0)
(-0.0233853 -0.0842275 0)
(-0.0227389 -0.0809661 0)
(-0.0219067 -0.0773622 0)
(-0.0211631 -0.0735299 0)
(-0.0210074 -0.0695988 0)
(-0.0211701 -0.0655062 0)
(-0.0216514 -0.0611305 0)
(-0.0220666 -0.0563495 0)
(-0.0231363 -0.0512962 0)
(-0.025636 -0.0463441 0)
(-0.000403355 -0.0907619 0)
(-0.00341658 -0.0965724 0)
(-0.00748765 -0.096496 0)
(-0.0108014 -0.0963933 0)
(-0.0141633 -0.0960929 0)
(-0.0172257 -0.0956439 0)
(-0.0199577 -0.0949651 0)
(-0.022379 -0.0941114 0)
(-0.0243397 -0.0931267 0)
(-0.0260018 -0.0918914 0)
(-0.0273605 -0.0904341 0)
(-0.0283935 -0.0887136 0)
(-0.0290629 -0.086698 0)
(-0.0293324 -0.084392 0)
(-0.0291673 -0.0817399 0)
(-0.0285275 -0.0786445 0)
(-0.027377 -0.0750536 0)
(-0.0256956 -0.0708985 0)
(-0.0239177 -0.066274 0)
(-0.0223713 -0.0612004 0)
(-0.0215932 -0.055899 0)
(-0.0215343 -0.05042 0)
(-0.0217446 -0.0446268 0)
(-0.000728354 -0.0870172 0)
(-0.003745 -0.0907109 0)
(-0.00743733 -0.0907574 0)
(-0.0106288 -0.0908218 0)
(-0.0138885 -0.0907639 0)
(-0.0169491 -0.0906409 0)
(-0.0198129 -0.0904215 0)
(-0.0224127 -0.0900863 0)
(-0.0247498 -0.0896014 0)
(-0.0267609 -0.0889495 0)
(-0.0284031 -0.0881104 0)
(-0.0296642 -0.0870581 0)
(-0.0305117 -0.0857109 0)
(-0.0309396 -0.0840226 0)
(-0.0309819 -0.0819629 0)
(-0.0306497 -0.0794954 0)
(-0.0299249 -0.0765632 0)
(-0.0288079 -0.0730818 0)
(-0.0273116 -0.0689749 0)
(-0.0254901 -0.0642142 0)
(-0.0233829 -0.0586106 0)
(-0.0213301 -0.0521387 0)
(-0.0197035 -0.0451655 0)
(-0.000766569 -0.085092 0)
(-0.00371562 -0.0875802 0)
(-0.00731169 -0.0876581 0)
(-0.0104195 -0.0877945 0)
(-0.0136309 -0.0878607 0)
(-0.0166498 -0.0878942 0)
(-0.0195032 -0.0878656 0)
(-0.0221318 -0.0877578 0)
(-0.0245029 -0.0875446 0)
(-0.0265787 -0.0871939 0)
(-0.0283297 -0.0866747 0)
(-0.0297348 -0.0859512 0)
(-0.0307517 -0.0849858 0)
(-0.0312961 -0.0837341 0)
(-0.0313334 -0.0821232 0)
(-0.0309155 -0.0800929 0)
(-0.0300839 -0.077584 0)
(-0.0288736 -0.0745083 0)
(-0.0273296 -0.0707775 0)
(-0.0255273 -0.0663097 0)
(-0.0235487 -0.0610048 0)
(-0.0214945 -0.0547363 0)
(-0.0193452 -0.0474497 0)
)
;

boundaryField
{
    leftWall
    {
        type            calculated;
        value           uniform (0 0 0);
    }
    rightWall
    {
        type            calculated;
        value           nonuniform 0();
    }
    lowerWall
    {
        type            calculated;
        value           nonuniform 0();
    }
    atmosphere
    {
        type            calculated;
        value           nonuniform List<vector> 
23
(
(-0.000766569 -0.0850588 0)
(-0.00371562 -0.0875288 0)
(-0.00731169 -0.087606 0)
(-0.0104195 -0.0877436 0)
(-0.0136309 -0.0878123 0)
(-0.0166498 -0.0878493 0)
(-0.0195032 -0.0878251 0)
(-0.0221318 -0.0877224 0)
(-0.0245029 -0.0875145 0)
(-0.0265787 -0.0871693 0)
(-0.0283297 -0.0866556 0)
(-0.0297348 -0.0859374 0)
(-0.0307517 -0.0849767 0)
(-0.0312961 -0.083729 0)
(-0.0313334 -0.082121 0)
(-0.0309155 -0.0800939 0)
(-0.0300839 -0.0775885 0)
(-0.0288736 -0.0745166 0)
(-0.0273296 -0.0707894 0)
(-0.0255273 -0.0663244 0)
(-0.0235487 -0.0610205 0)
(-0.0214945 -0.0547513 0)
(-0.0193452 -0.047463 0)
)
;
    }
    defaultFaces
    {
        type            empty;
    }
    procBoundary2to0
    {
        type            processor;
        value           nonuniform List<vector> 
24
(
(-0.0498553 -0.204092 0)
(-0.0618592 -0.204962 0)
(-0.0710356 -0.194829 0)
(-0.0775991 -0.183823 0)
(-0.0899264 -0.181449 0)
(-0.0967954 -0.18146 0)
(-0.0996049 -0.177697 0)
(0.000579904 -0.106221 0)
(0.000188206 -0.125201 0)
(-0.000140255 -0.126058 0)
(-0.000228354 -0.12741 0)
(-0.000961645 -0.128832 0)
(-0.00155456 -0.130092 0)
(-0.00149287 -0.130657 0)
(-0.000167079 -0.131077 0)
(0.00136621 -0.132177 0)
(0.00404802 -0.1319 0)
(0.00863152 -0.136993 0)
(0.010103 -0.146055 0)
(0.00802714 -0.157215 0)
(0.00012586 -0.166015 0)
(-0.011468 -0.177302 0)
(-0.0228752 -0.185562 0)
(-0.0228752 -0.185562 0)
)
;
    }
    procBoundary2to3
    {
        type            processor;
        value           nonuniform List<vector> 
25
(
(-0.10832 -0.16636 0)
(-0.110176 -0.165367 0)
(-0.102699 -0.155265 0)
(-0.106614 -0.146054 0)
(-0.101944 -0.140273 0)
(-0.102351 -0.125447 0)
(-0.0977516 -0.118593 0)
(-0.0941518 -0.11115 0)
(-0.0901967 -0.101688 0)
(-0.0856842 -0.0956198 0)
(-0.0811082 -0.0881036 0)
(-0.0765536 -0.0822381 0)
(-0.0718612 -0.0765085 0)
(-0.0671783 -0.0714987 0)
(-0.0624643 -0.0668726 0)
(-0.0577167 -0.0626482 0)
(-0.0529356 -0.0587476 0)
(-0.0480985 -0.0551277 0)
(-0.0432 -0.0517643 0)
(-0.0381908 -0.048648 0)
(-0.0329933 -0.0456825 0)
(-0.0275924 -0.0427536 0)
(-0.0225413 -0.0403802 0)
(-0.0195234 -0.0400503 0)
(-0.0184532 -0.0418336 0)
)
;
    }
}


// ************************************************************************* //
