/*--------------------------------*- C++ -*----------------------------------*\
| =========                 |                                                 |
| \\      /  F ield         | OpenFOAM: The Open Source CFD Toolbox           |
|  \\    /   O peration     | Version:  2.4.0                                 |
|   \\  /    A nd           | Web:      www.OpenFOAM.org                      |
|    \\/     M anipulation  |                                                 |
\*---------------------------------------------------------------------------*/
FoamFile
{
    version     2.0;
    format      ascii;
    class       volVectorField;
    location    "0.5";
    object      U.water;
}
// * * * * * * * * * * * * * * * * * * * * * * * * * * * * * * * * * * * * * //

dimensions      [0 1 -1 0 0 0 0];

internalField   nonuniform List<vector> 
559
(
(-0.0405683 -0.188513 0)
(-0.0551411 -0.186358 0)
(-0.0663997 -0.18152 0)
(-0.0759099 -0.170753 0)
(-0.0857137 -0.165758 0)
(-0.0986062 -0.167314 0)
(-0.105019 -0.167902 0)
(0.000143568 -0.105752 0)
(0.000416838 -0.124715 0)
(0.000559088 -0.125978 0)
(-5.31105e-05 -0.127411 0)
(-0.000918669 -0.128309 0)
(-0.00267126 -0.129622 0)
(-0.00427885 -0.130388 0)
(-0.00554699 -0.131616 0)
(-0.00643164 -0.133143 0)
(-0.00578851 -0.135772 0)
(-0.00407024 -0.139999 0)
(-0.00269352 -0.146452 0)
(-0.00539077 -0.152744 0)
(-0.00996811 -0.160263 0)
(-0.0190308 -0.167964 0)
(-0.0306869 -0.169811 0)
(-0.0474098 -0.172185 0)
(-0.0606395 -0.173538 0)
(-0.0703947 -0.171765 0)
(-0.082057 -0.163398 0)
(-0.0910296 -0.157677 0)
(-0.0997438 -0.163017 0)
(-0.105055 -0.166807 0)
(0.000435582 -0.10614 0)
(0.000109749 -0.124696 0)
(-0.000967609 -0.124718 0)
(-0.00255274 -0.125365 0)
(-0.00385681 -0.126155 0)
(-0.00546963 -0.127015 0)
(-0.00696293 -0.128317 0)
(-0.00834793 -0.129741 0)
(-0.00967156 -0.132119 0)
(-0.0109612 -0.135262 0)
(-0.0127668 -0.138556 0)
(-0.0145938 -0.142485 0)
(-0.0191752 -0.147589 0)
(-0.0245406 -0.153098 0)
(-0.0321544 -0.155875 0)
(-0.0405304 -0.157173 0)
(-0.0495465 -0.161952 0)
(-0.0589537 -0.165256 0)
(-0.0703591 -0.16119 0)
(-0.0797489 -0.153587 0)
(-0.084534 -0.149196 0)
(-0.0920877 -0.15436 0)
(-0.0970816 -0.157953 0)
(5.44316e-05 -0.106425 0)
(-0.000700588 -0.123359 0)
(-0.00230219 -0.123442 0)
(-0.00303868 -0.124133 0)
(-0.00421941 -0.124731 0)
(-0.00499965 -0.125214 0)
(-0.0059913 -0.126324 0)
(-0.00740153 -0.127362 0)
(-0.00920706 -0.12881 0)
(-0.0118058 -0.13203 0)
(-0.0152881 -0.136323 0)
(-0.0182807 -0.140651 0)
(-0.0235381 -0.142984 0)
(-0.0299566 -0.146686 0)
(-0.0364746 -0.149 0)
(-0.0436606 -0.151503 0)
(-0.0497298 -0.151609 0)
(-0.05975 -0.150717 0)
(-0.0708287 -0.149295 0)
(-0.0798131 -0.145233 0)
(-0.086572 -0.14369 0)
(-0.0937202 -0.148298 0)
(-0.100149 -0.151028 0)
(-0.000266502 -0.105514 0)
(-0.00137636 -0.122538 0)
(-0.00177517 -0.122769 0)
(-0.0026976 -0.123668 0)
(-0.00373498 -0.124068 0)
(-0.0048429 -0.124654 0)
(-0.00609226 -0.125404 0)
(-0.00738856 -0.126457 0)
(-0.00873717 -0.128189 0)
(-0.0107088 -0.130235 0)
(-0.0145635 -0.132863 0)
(-0.0181575 -0.135412 0)
(-0.0222746 -0.137032 0)
(-0.0281445 -0.14018 0)
(-0.0345391 -0.142702 0)
(-0.0420092 -0.145186 0)
(-0.0491281 -0.146226 0)
(-0.0568917 -0.144388 0)
(-0.0647141 -0.143799 0)
(-0.0709479 -0.139926 0)
(-0.0779603 -0.13847 0)
(-0.0832811 -0.142277 0)
(-0.0932473 -0.145292 0)
(-0.000126892 -0.105085 0)
(-0.00102112 -0.121531 0)
(-0.00250758 -0.121651 0)
(-0.0039162 -0.121922 0)
(-0.00545549 -0.122584 0)
(-0.00703237 -0.123579 0)
(-0.00850176 -0.124498 0)
(-0.0100199 -0.125426 0)
(-0.01174 -0.12613 0)
(-0.0138552 -0.12713 0)
(-0.0158802 -0.128541 0)
(-0.020558 -0.130098 0)
(-0.0246628 -0.133074 0)
(-0.0286824 -0.134091 0)
(-0.033974 -0.135415 0)
(-0.0406065 -0.135456 0)
(-0.0494607 -0.134753 0)
(-0.0579003 -0.135185 0)
(-0.0643455 -0.133361 0)
(-0.0716205 -0.130277 0)
(-0.0793468 -0.129156 0)
(-0.0849381 -0.130432 0)
(-0.0944991 -0.129191 0)
(-0.000496881 -0.103919 0)
(-0.00191094 -0.120094 0)
(-0.00343738 -0.120275 0)
(-0.00485965 -0.120731 0)
(-0.00633596 -0.121099 0)
(-0.00789211 -0.121452 0)
(-0.00975805 -0.122146 0)
(-0.0118503 -0.123152 0)
(-0.014138 -0.124385 0)
(-0.0164658 -0.124692 0)
(-0.0196953 -0.125733 0)
(-0.0234612 -0.12801 0)
(-0.0281592 -0.129169 0)
(-0.0331701 -0.129967 0)
(-0.0385095 -0.13075 0)
(-0.0438837 -0.130146 0)
(-0.0486756 -0.130092 0)
(-0.0540203 -0.1311 0)
(-0.0611649 -0.12861 0)
(-0.0685064 -0.126688 0)
(-0.0736115 -0.125449 0)
(-0.0828251 -0.125536 0)
(-0.0911207 -0.122316 0)
(-0.000229074 -0.103541 0)
(-0.00113109 -0.119093 0)
(-0.00250718 -0.118989 0)
(-0.00388816 -0.119164 0)
(-0.00546264 -0.119435 0)
(-0.00718871 -0.11988 0)
(-0.00899525 -0.120335 0)
(-0.0110337 -0.120893 0)
(-0.0134788 -0.121535 0)
(-0.016768 -0.122659 0)
(-0.0195368 -0.123233 0)
(-0.0215752 -0.123593 0)
(-0.0254514 -0.123946 0)
(-0.0307403 -0.124919 0)
(-0.0361651 -0.12527 0)
(-0.0411095 -0.124989 0)
(-0.0477459 -0.124638 0)
(-0.054842 -0.121116 0)
(-0.0620732 -0.120131 0)
(-0.0667029 -0.118241 0)
(-0.0733296 -0.117381 0)
(-0.0811785 -0.114437 0)
(-0.0890004 -0.112297 0)
(-0.000549915 -0.101934 0)
(-0.00204738 -0.117218 0)
(-0.00364483 -0.117255 0)
(-0.00517123 -0.117465 0)
(-0.00685486 -0.117684 0)
(-0.0087504 -0.117999 0)
(-0.0107675 -0.118373 0)
(-0.01298 -0.118759 0)
(-0.0154329 -0.118982 0)
(-0.0180394 -0.118874 0)
(-0.0208489 -0.119086 0)
(-0.0248901 -0.119586 0)
(-0.0286544 -0.119533 0)
(-0.03192 -0.119065 0)
(-0.0370073 -0.118616 0)
(-0.0433544 -0.119074 0)
(-0.0481894 -0.117429 0)
(-0.0530298 -0.117032 0)
(-0.0569402 -0.116582 0)
(-0.0636608 -0.113865 0)
(-0.0702933 -0.109585 0)
(-0.0782859 -0.107296 0)
(-0.0844161 -0.105868 0)
(-0.000498232 -0.10136 0)
(-0.00177828 -0.116325 0)
(-0.00331872 -0.116302 0)
(-0.00473024 -0.11638 0)
(-0.00623862 -0.116403 0)
(-0.00775961 -0.116308 0)
(-0.00958135 -0.116345 0)
(-0.0116923 -0.116461 0)
(-0.0140053 -0.116561 0)
(-0.016496 -0.116636 0)
(-0.0198393 -0.11671 0)
(-0.0237994 -0.11636 0)
(-0.0276419 -0.116538 0)
(-0.0322606 -0.115821 0)
(-0.0357135 -0.11572 0)
(-0.0386608 -0.114704 0)
(-0.0442818 -0.113464 0)
(-0.0499231 -0.111476 0)
(-0.0565635 -0.107789 0)
(-0.0635872 -0.105964 0)
(-0.0683613 -0.105101 0)
(-0.0738381 -0.102029 0)
(-0.0812018 -0.0970161 0)
(-0.000543043 -0.0996566 0)
(-0.00189545 -0.114242 0)
(-0.00352112 -0.114198 0)
(-0.0051355 -0.11418 0)
(-0.00698167 -0.114189 0)
(-0.00896487 -0.114298 0)
(-0.0110375 -0.114352 0)
(-0.0133117 -0.114281 0)
(-0.0157946 -0.114129 0)
(-0.0183847 -0.113757 0)
(-0.020803 -0.112939 0)
(-0.0228788 -0.112577 0)
(-0.0261303 -0.112085 0)
(-0.0297915 -0.111715 0)
(-0.0345213 -0.110231 0)
(-0.0404452 -0.108807 0)
(-0.0456143 -0.107475 0)
(-0.0501027 -0.105211 0)
(-0.0542214 -0.104719 0)
(-0.0578192 -0.102746 0)
(-0.0643845 -0.0977424 0)
(-0.0714156 -0.0942847 0)
(-0.0767645 -0.0915322 0)
(-0.000522864 -0.0990204 0)
(-0.00172027 -0.113416 0)
(-0.00313721 -0.113342 0)
(-0.00444009 -0.113188 0)
(-0.00586859 -0.112933 0)
(-0.00743804 -0.112608 0)
(-0.00925233 -0.112279 0)
(-0.0113002 -0.111936 0)
(-0.0136307 -0.111572 0)
(-0.0163333 -0.111216 0)
(-0.0195516 -0.110839 0)
(-0.0234604 -0.109974 0)
(-0.0270541 -0.10889 0)
(-0.0306651 -0.107637 0)
(-0.0341733 -0.106744 0)
(-0.0372185 -0.10604 0)
(-0.0406575 -0.104424 0)
(-0.0454871 -0.102273 0)
(-0.050836 -0.0980484 0)
(-0.0570703 -0.0948253 0)
(-0.0619565 -0.0931721 0)
(-0.0668826 -0.0896461 0)
(-0.0726508 -0.085034 0)
(-0.000559745 -0.0973755 0)
(-0.00186441 -0.111463 0)
(-0.00340938 -0.111409 0)
(-0.00490205 -0.111214 0)
(-0.00655679 -0.110955 0)
(-0.0083124 -0.110621 0)
(-0.0101936 -0.11016 0)
(-0.0122135 -0.109562 0)
(-0.0143816 -0.108844 0)
(-0.0166908 -0.108001 0)
(-0.0190407 -0.106988 0)
(-0.021277 -0.106093 0)
(-0.0240671 -0.105251 0)
(-0.0273325 -0.104067 0)
(-0.0309976 -0.102382 0)
(-0.0354783 -0.100151 0)
(-0.0404566 -0.0979654 0)
(-0.0449652 -0.0957478 0)
(-0.0491313 -0.0943048 0)
(-0.0529429 -0.0916587 0)
(-0.0578266 -0.0876319 0)
(-0.0633307 -0.0838872 0)
(-0.0682891 -0.0798809 0)
(-0.000494646 -0.0967556 0)
(-0.00150418 -0.110662 0)
(-0.00277611 -0.110566 0)
(-0.00396869 -0.110244 0)
(-0.00535799 -0.10982 0)
(-0.00690411 -0.109305 0)
(-0.00866308 -0.108712 0)
(-0.0106463 -0.108052 0)
(-0.0128564 -0.10732 0)
(-0.0153045 -0.106517 0)
(-0.0180203 -0.105535 0)
(-0.0210369 -0.10409 0)
(-0.0241742 -0.102567 0)
(-0.027415 -0.101078 0)
(-0.0307629 -0.0994433 0)
(-0.0340544 -0.0977355 0)
(-0.0373755 -0.09567 0)
(-0.0411399 -0.0928971 0)
(-0.0454635 -0.0894408 0)
(-0.0501051 -0.0861436 0)
(-0.0545489 -0.0830506 0)
(-0.0591411 -0.0792569 0)
(-0.0638781 -0.0748674 0)
(-0.00046449 -0.0953224 0)
(-0.00149885 -0.10901 0)
(-0.00277202 -0.108882 0)
(-0.00397006 -0.108415 0)
(-0.00533803 -0.107823 0)
(-0.00680768 -0.107086 0)
(-0.00841861 -0.106208 0)
(-0.0101901 -0.105216 0)
(-0.0121379 -0.104118 0)
(-0.0142802 -0.102924 0)
(-0.0166401 -0.101724 0)
(-0.0191369 -0.100573 0)
(-0.0217835 -0.0991316 0)
(-0.0246938 -0.0973806 0)
(-0.0278815 -0.0954418 0)
(-0.0313715 -0.0932139 0)
(-0.0351408 -0.0907504 0)
(-0.0389894 -0.0882179 0)
(-0.0427646 -0.0855153 0)
(-0.0465705 -0.0823065 0)
(-0.0506565 -0.0786104 0)
(-0.0550558 -0.0746961 0)
(-0.0594103 -0.0703606 0)
(-0.000351975 -0.0948397 0)
(-0.00113536 -0.108426 0)
(-0.00223321 -0.108292 0)
(-0.00322291 -0.10777 0)
(-0.00440988 -0.107118 0)
(-0.00571357 -0.106317 0)
(-0.0072 -0.105387 0)
(-0.00888442 -0.104326 0)
(-0.0107634 -0.103126 0)
(-0.0128338 -0.101768 0)
(-0.0150914 -0.10021 0)
(-0.0175948 -0.0984818 0)
(-0.0203084 -0.0966978 0)
(-0.0231403 -0.0948068 0)
(-0.02609 -0.0926938 0)
(-0.0291724 -0.0903794 0)
(-0.0323736 -0.0878231 0)
(-0.03575 -0.0849056 0)
(-0.0393482 -0.0816704 0)
(-0.043075 -0.0782252 0)
(-0.0468604 -0.0745727 0)
(-0.0508256 -0.070575 0)
(-0.0548698 -0.0661651 0)
(-0.000236414 -0.0939353 0)
(-0.000911956 -0.107092 0)
(-0.00192051 -0.106903 0)
(-0.00278132 -0.106219 0)
(-0.00383523 -0.105406 0)
(-0.00496106 -0.104416 0)
(-0.0061816 -0.103233 0)
(-0.00754799 -0.10192 0)
(-0.00911081 -0.100496 0)
(-0.0109461 -0.0990034 0)
(-0.0130744 -0.0974634 0)
(-0.0154193 -0.0958034 0)
(-0.0179322 -0.0939183 0)
(-0.0206448 -0.0918126 0)
(-0.0234981 -0.0895151 0)
(-0.0264776 -0.0870168 0)
(-0.0295806 -0.0843035 0)
(-0.0327768 -0.081376 0)
(-0.0360524 -0.0781754 0)
(-0.0394176 -0.0746607 0)
(-0.0428918 -0.0708376 0)
(-0.0465395 -0.0667397 0)
(-0.0502786 -0.0622922 0)
(-3.58701e-05 -0.0936984 0)
(-0.000639504 -0.106624 0)
(-0.00165992 -0.106421 0)
(-0.00243711 -0.105685 0)
(-0.00341783 -0.104824 0)
(-0.00442376 -0.103776 0)
(-0.00542687 -0.102461 0)
(-0.00647343 -0.100935 0)
(-0.00766441 -0.0992227 0)
(-0.00902764 -0.0973046 0)
(-0.0106369 -0.0952465 0)
(-0.0125994 -0.0931733 0)
(-0.0149284 -0.0911126 0)
(-0.0176176 -0.0890337 0)
(-0.0205191 -0.0867864 0)
(-0.0234586 -0.0842403 0)
(-0.0264384 -0.0814275 0)
(-0.0294519 -0.0783243 0)
(-0.032517 -0.0749512 0)
(-0.0356487 -0.0713194 0)
(-0.0388445 -0.0674104 0)
(-0.0421695 -0.0632141 0)
(-0.0456153 -0.0586991 0)
(0.000187128 -0.0932052 0)
(-0.000479703 -0.105406 0)
(-0.00176618 -0.105177 0)
(-0.00261559 -0.104405 0)
(-0.00367197 -0.103485 0)
(-0.00467981 -0.1024 0)
(-0.00573879 -0.10119 0)
(-0.00680648 -0.0997283 0)
(-0.00789077 -0.0979804 0)
(-0.00902454 -0.0959752 0)
(-0.0102382 -0.0937633 0)
(-0.0115948 -0.0913651 0)
(-0.0131649 -0.0888358 0)
(-0.0149728 -0.0861594 0)
(-0.017125 -0.0835004 0)
(-0.0197304 -0.0809163 0)
(-0.0226496 -0.0782342 0)
(-0.0257747 -0.075327 0)
(-0.0287526 -0.0719792 0)
(-0.031709 -0.0682982 0)
(-0.0346666 -0.0642872 0)
(-0.037707 -0.0599836 0)
(-0.0408757 -0.0553807 0)
(0.000284373 -0.0931267 0)
(-0.000688209 -0.104305 0)
(-0.00257658 -0.104068 0)
(-0.00377891 -0.103387 0)
(-0.0051575 -0.102513 0)
(-0.00638239 -0.101491 0)
(-0.00758692 -0.100281 0)
(-0.008722 -0.0988263 0)
(-0.00977052 -0.097093 0)
(-0.0107354 -0.0950891 0)
(-0.0116617 -0.0928087 0)
(-0.0126371 -0.090319 0)
(-0.0137377 -0.0876682 0)
(-0.0149301 -0.0847938 0)
(-0.01623 -0.0817935 0)
(-0.0177106 -0.0786016 0)
(-0.0194687 -0.0752931 0)
(-0.0216473 -0.0720514 0)
(-0.0244036 -0.0688431 0)
(-0.0273374 -0.0653541 0)
(-0.0302384 -0.0613972 0)
(-0.0330824 -0.0570456 0)
(-0.0360138 -0.0523403 0)
(0.000261176 -0.0930884 0)
(-0.00139905 -0.102784 0)
(-0.00418109 -0.102546 0)
(-0.00609613 -0.10204 0)
(-0.0081436 -0.101295 0)
(-0.00988236 -0.100306 0)
(-0.0115388 -0.0991509 0)
(-0.0129959 -0.0978014 0)
(-0.0142595 -0.0962484 0)
(-0.0152485 -0.0944251 0)
(-0.0159333 -0.0922633 0)
(-0.0163569 -0.0897431 0)
(-0.0166518 -0.0869365 0)
(-0.0170129 -0.0839816 0)
(-0.017545 -0.0808258 0)
(-0.0182814 -0.0775537 0)
(-0.0192511 -0.0740986 0)
(-0.0201695 -0.0703214 0)
(-0.0213017 -0.0663709 0)
(-0.0229133 -0.0623644 0)
(-0.0253341 -0.0583951 0)
(-0.0280697 -0.0541578 0)
(-0.0309401 -0.049422 0)
(5.63904e-05 -0.0928344 0)
(-0.00247958 -0.100639 0)
(-0.00616103 -0.10045 0)
(-0.00895293 -0.100153 0)
(-0.0118169 -0.0995834 0)
(-0.0143049 -0.0987656 0)
(-0.0165686 -0.0977672 0)
(-0.0185655 -0.0965702 0)
(-0.0203571 -0.0951258 0)
(-0.0218239 -0.0935464 0)
(-0.0229269 -0.0917359 0)
(-0.02356 -0.0895981 0)
(-0.0236903 -0.0870931 0)
(-0.0233837 -0.0842316 0)
(-0.0227371 -0.0809706 0)
(-0.0219048 -0.0773671 0)
(-0.0211611 -0.0735353 0)
(-0.0210053 -0.0696048 0)
(-0.0211678 -0.0655127 0)
(-0.0216489 -0.0611377 0)
(-0.0220639 -0.0563574 0)
(-0.0231333 -0.0513049 0)
(-0.0256326 -0.0463537 0)
(-0.000403322 -0.0907637 0)
(-0.00341648 -0.0965742 0)
(-0.0074875 -0.0964978 0)
(-0.0108012 -0.0963952 0)
(-0.014163 -0.0960949 0)
(-0.0172253 -0.0956461 0)
(-0.0199573 -0.0949674 0)
(-0.0223785 -0.0941139 0)
(-0.0243391 -0.0931294 0)
(-0.0260011 -0.0918943 0)
(-0.0273597 -0.0904372 0)
(-0.0283925 -0.088717 0)
(-0.0290618 -0.0867018 0)
(-0.0293312 -0.0843962 0)
(-0.029166 -0.0817446 0)
(-0.0285261 -0.0786497 0)
(-0.0273755 -0.0750593 0)
(-0.0256941 -0.0709048 0)
(-0.0239161 -0.0662809 0)
(-0.0223695 -0.061208 0)
(-0.0215912 -0.0559073 0)
(-0.0215321 -0.0504292 0)
(-0.0217422 -0.0446369 0)
(-0.000728333 -0.0870191 0)
(-0.00374494 -0.0907128 0)
(-0.00743724 -0.0907593 0)
(-0.0106286 -0.0908238 0)
(-0.0138883 -0.0907659 0)
(-0.0169489 -0.0906431 0)
(-0.0198126 -0.0904239 0)
(-0.0224124 -0.0900888 0)
(-0.0247494 -0.0896042 0)
(-0.0267605 -0.0889525 0)
(-0.0284026 -0.0881137 0)
(-0.0296637 -0.0870617 0)
(-0.0305111 -0.0857148 0)
(-0.0309389 -0.0840271 0)
(-0.0309811 -0.0819678 0)
(-0.0306489 -0.0795009 0)
(-0.029924 -0.0765692 0)
(-0.028807 -0.0730884 0)
(-0.0273107 -0.0689821 0)
(-0.0254891 -0.0642222 0)
(-0.0233817 -0.0586192 0)
(-0.0213288 -0.0521482 0)
(-0.019702 -0.0451759 0)
(-0.000766561 -0.0850939 0)
(-0.0037156 -0.0875822 0)
(-0.00731166 -0.0876601 0)
(-0.0104194 -0.0877966 0)
(-0.0136308 -0.0878629 0)
(-0.0166497 -0.0878965 0)
(-0.0195031 -0.0878681 0)
(-0.0221317 -0.0877604 0)
(-0.0245028 -0.0875475 0)
(-0.0265786 -0.087197 0)
(-0.0283295 -0.0866781 0)
(-0.0297347 -0.0859549 0)
(-0.0307515 -0.0849899 0)
(-0.0312958 -0.0837387 0)
(-0.0313331 -0.0821283 0)
(-0.0309152 -0.0800985 0)
(-0.0300836 -0.0775902 0)
(-0.0288733 -0.0745152 0)
(-0.0273292 -0.070785 0)
(-0.0255269 -0.0663178 0)
(-0.0235483 -0.0610136 0)
(-0.0214941 -0.0547459 0)
(-0.0193447 -0.0474602 0)
)
;

boundaryField
{
    leftWall
    {
        type            fixedValue;
        value           uniform (0 0 0);
    }
    rightWall
    {
        type            fixedValue;
        value           nonuniform 0();
    }
    lowerWall
    {
        type            fixedValue;
        value           nonuniform 0();
    }
    atmosphere
    {
        type            fluxCorrectedVelocity;
        value           nonuniform List<vector> 
23
(
(-0.000766561 -0.0850588 0)
(-0.0037156 -0.0875288 0)
(-0.00731166 -0.087606 0)
(-0.0104194 -0.0877436 0)
(-0.0136308 -0.0878123 0)
(-0.0166497 -0.0878493 0)
(-0.0195031 -0.0878251 0)
(-0.0221317 -0.0877224 0)
(-0.0245028 -0.0875145 0)
(-0.0265786 -0.0871693 0)
(-0.0283295 -0.0866556 0)
(-0.0297347 -0.0859374 0)
(-0.0307515 -0.0849767 0)
(-0.0312958 -0.083729 0)
(-0.0313331 -0.082121 0)
(-0.0309152 -0.0800939 0)
(-0.0300836 -0.0775885 0)
(-0.0288733 -0.0745166 0)
(-0.0273292 -0.0707894 0)
(-0.0255269 -0.0663244 0)
(-0.0235483 -0.0610205 0)
(-0.0214941 -0.0547513 0)
(-0.0193447 -0.047463 0)
)
;
    }
    defaultFaces
    {
        type            empty;
    }
    procBoundary2to0
    {
        type            processor;
        value           nonuniform List<vector> 
24
(
(-0.049844 -0.204088 0)
(-0.0618475 -0.204959 0)
(-0.0710239 -0.194827 0)
(-0.0775877 -0.183821 0)
(-0.0899153 -0.181447 0)
(-0.0967843 -0.181457 0)
(-0.0995935 -0.177694 0)
(0.000579789 -0.106219 0)
(0.000187773 -0.1252 0)
(-0.000141072 -0.126056 0)
(-0.000229512 -0.127408 0)
(-0.000963018 -0.128829 0)
(-0.00155598 -0.130088 0)
(-0.00149406 -0.130653 0)
(-0.000167664 -0.131072 0)
(0.00136663 -0.132171 0)
(0.00404984 -0.131893 0)
(0.00863506 -0.136986 0)
(0.0101084 -0.146048 0)
(0.00803406 -0.157209 0)
(0.000133994 -0.166009 0)
(-0.011459 -0.177297 0)
(-0.0228655 -0.185557 0)
(-0.0228655 -0.185557 0)
)
;
    }
    procBoundary2to3
    {
        type            processor;
        value           nonuniform List<vector> 
25
(
(-0.108307 -0.166357 0)
(-0.110162 -0.165366 0)
(-0.102684 -0.155264 0)
(-0.106599 -0.146054 0)
(-0.101928 -0.140273 0)
(-0.102335 -0.125448 0)
(-0.0977357 -0.118594 0)
(-0.0941362 -0.111152 0)
(-0.0901814 -0.101691 0)
(-0.0856696 -0.0956235 0)
(-0.0810941 -0.088108 0)
(-0.0765402 -0.0822432 0)
(-0.0718486 -0.0765143 0)
(-0.0671665 -0.0715052 0)
(-0.0624533 -0.0668795 0)
(-0.0577067 -0.0626557 0)
(-0.0529265 -0.0587556 0)
(-0.0480905 -0.0551362 0)
(-0.043193 -0.0517733 0)
(-0.0381848 -0.0486574 0)
(-0.0329884 -0.0456924 0)
(-0.0275886 -0.042764 0)
(-0.0225386 -0.040391 0)
(-0.0195218 -0.0400615 0)
(-0.0184527 -0.0418449 0)
)
;
    }
}


// ************************************************************************* //
