/*--------------------------------*- C++ -*----------------------------------*\
| =========                 |                                                 |
| \\      /  F ield         | OpenFOAM: The Open Source CFD Toolbox           |
|  \\    /   O peration     | Version:  2.4.0                                 |
|   \\  /    A nd           | Web:      www.OpenFOAM.org                      |
|    \\/     M anipulation  |                                                 |
\*---------------------------------------------------------------------------*/
FoamFile
{
    version     2.0;
    format      ascii;
    class       volScalarField;
    location    "0.95";
    object      alpha.water;
}
// * * * * * * * * * * * * * * * * * * * * * * * * * * * * * * * * * * * * * //

dimensions      [0 0 0 0 0 0 0];

internalField   nonuniform List<scalar> 
559
(
3.90311e-09
1.09896e-08
1.20489e-08
7.88016e-09
4.21826e-09
2.47474e-09
1.6109e-09
3.81825e-09
4.43182e-09
8.40507e-09
2.74583e-08
2.17992e-08
7.98961e-09
8.72583e-10
8.30611e-10
1.43248e-09
1.87469e-09
2.32043e-09
2.8806e-09
3.01489e-09
2.69549e-09
2.105e-09
1.66924e-09
8.51351e-10
4.81203e-10
3.44516e-10
2.33117e-10
2.55378e-10
4.07994e-10
6.6614e-10
7.11164e-09
6.48401e-09
2.47693e-08
2.74799e-08
1.61085e-08
3.02694e-09
2.81799e-10
3.15406e-10
7.16975e-10
1.14069e-09
1.66193e-09
2.03704e-09
1.9064e-09
1.5876e-09
1.21416e-09
7.96701e-10
2.85428e-10
6.22704e-11
3.55096e-11
8.29673e-11
2.047e-10
3.95889e-10
6.52289e-10
2.77471e-08
2.90455e-08
3.21097e-08
2.10833e-08
6.05791e-09
4.17951e-10
4.31334e-11
4.68344e-11
1.53342e-10
3.29937e-10
6.00218e-10
7.39428e-10
6.4633e-10
4.93292e-10
4.34931e-10
2.84641e-10
9.29858e-11
2.2474e-11
2.34257e-11
4.66928e-11
1.05649e-10
2.43959e-10
4.24746e-10
3.59477e-08
3.54883e-08
2.43607e-08
7.61282e-09
6.28955e-10
1.65515e-11
1.18291e-11
1.17959e-11
1.53898e-11
3.30691e-11
7.34941e-11
9.98204e-11
1.01248e-10
1.62259e-10
1.39801e-10
8.71796e-11
3.1116e-11
1.17743e-11
1.16796e-11
1.69366e-11
3.42191e-11
9.69359e-11
1.82255e-10
2.44535e-08
1.92677e-08
7.19715e-09
7.5063e-10
1.6602e-11
6.96518e-12
6.80589e-12
6.88754e-12
7.599e-12
9.83322e-12
1.00831e-11
1.25683e-11
1.50045e-11
4.50882e-11
4.01108e-11
2.31657e-11
9.63422e-12
5.38393e-12
4.72378e-12
7.10149e-12
1.39883e-11
2.64562e-11
6.30658e-11
9.31829e-09
5.37534e-09
5.54312e-10
1.52371e-11
5.4582e-12
3.72577e-12
3.48684e-12
3.5424e-12
3.91283e-12
5.16773e-12
5.7555e-12
7.34435e-12
8.48084e-12
1.37373e-11
1.06121e-11
6.74827e-12
3.48538e-12
1.91508e-12
1.6125e-12
2.4844e-12
4.61783e-12
9.66176e-12
2.10051e-11
8.09395e-10
2.50705e-10
1.00118e-11
4.55269e-12
2.80311e-12
1.88835e-12
1.64889e-12
1.67672e-12
1.87561e-12
2.42874e-12
2.78163e-12
3.54952e-12
4.08903e-12
4.73295e-12
3.6056e-12
2.18151e-12
1.11821e-12
5.91086e-13
4.8138e-13
7.16761e-13
1.29602e-12
2.81234e-12
5.99587e-12
1.22676e-11
4.68048e-12
3.39151e-12
2.12983e-12
1.33236e-12
8.6328e-13
7.14889e-13
7.26466e-13
8.19082e-13
1.04305e-12
1.18634e-12
1.46374e-12
1.65221e-12
1.61304e-12
1.16111e-12
6.63124e-13
3.23419e-13
1.61329e-13
1.27258e-13
1.79378e-13
3.13812e-13
6.5586e-13
1.14097e-12
3.45074e-12
2.24622e-12
1.48819e-12
9.32927e-13
5.66455e-13
3.54478e-13
2.82704e-13
2.86871e-13
3.24871e-13
4.0583e-13
4.54571e-13
5.3509e-13
5.78152e-13
5.08651e-13
3.41878e-13
1.83539e-13
8.40963e-14
3.93674e-14
3.00132e-14
3.96981e-14
6.49869e-14
1.2175e-13
1.70054e-13
1.34859e-12
9.45661e-13
6.00568e-13
3.64991e-13
2.15034e-13
1.31106e-13
1.01872e-13
1.03214e-13
1.16923e-13
1.43183e-13
1.57348e-13
1.76712e-13
1.80112e-13
1.45975e-13
9.15433e-14
4.60755e-14
1.97534e-14
8.63363e-15
6.31071e-15
7.81524e-15
1.16907e-14
1.864e-14
2.05998e-14
5.11373e-13
3.49124e-13
2.16021e-13
1.27734e-13
7.33381e-14
4.38547e-14
3.34957e-14
3.38818e-14
3.8227e-14
4.59225e-14
4.93318e-14
5.29838e-14
5.06176e-14
3.80618e-14
2.22694e-14
1.04937e-14
4.20323e-15
1.71042e-15
1.18526e-15
1.36489e-15
1.82247e-15
2.39997e-15
2.10442e-15
1.76542e-13
1.15927e-13
6.98013e-14
4.0251e-14
2.25918e-14
1.33184e-14
1.00699e-14
1.01716e-14
1.13854e-14
1.3419e-14
1.40489e-14
1.44396e-14
1.29127e-14
9.03423e-15
4.93568e-15
2.17624e-15
8.13902e-16
3.07092e-16
1.98524e-16
2.10824e-16
2.48844e-16
2.67641e-16
1.86638e-16
5.56051e-14
3.4867e-14
2.03966e-14
1.14874e-14
6.31908e-15
3.68776e-15
2.77523e-15
2.8e-15
3.09947e-15
3.58143e-15
3.64415e-15
3.5805e-15
2.99817e-15
1.95526e-15
9.98135e-16
4.11799e-16
1.43832e-16
5.01767e-17
2.97879e-17
2.88499e-17
2.98755e-17
2.62108e-17
1.465e-17
1.60216e-14
9.53609e-15
5.41921e-15
2.98509e-15
1.61294e-15
9.34936e-16
7.03226e-16
7.08846e-16
7.74099e-16
8.75659e-16
8.63946e-16
8.09923e-16
6.355e-16
3.86869e-16
1.84644e-16
7.13071e-17
2.32672e-17
7.48734e-18
4.01942e-18
3.51059e-18
3.17957e-18
2.28868e-18
1.03161e-18
4.23075e-15
2.38214e-15
1.31579e-15
7.09814e-16
3.77484e-16
2.17929e-16
1.64369e-16
1.65546e-16
1.78031e-16
1.96805e-16
1.87941e-16
1.6778e-16
1.23449e-16
7.02429e-17
3.13708e-17
1.13467e-17
3.46019e-18
1.02481e-18
4.90566e-19
3.81912e-19
3.0174e-19
1.79617e-19
6.56587e-20
1.02679e-15
5.46096e-16
2.93404e-16
1.55205e-16
8.13799e-17
4.68998e-17
3.55597e-17
3.5786e-17
3.78516e-17
4.08131e-17
3.76655e-17
3.1967e-17
2.2068e-17
1.1749e-17
4.91327e-18
1.66522e-18
4.7486e-19
1.29276e-19
5.45168e-20
3.73772e-20
2.5705e-20
1.27505e-20
3.79302e-21
2.2989e-16
1.1543e-16
6.03706e-17
3.1353e-17
1.6235e-17
9.35777e-18
7.14645e-18
7.1859e-18
7.469e-18
7.84185e-18
6.98408e-18
5.62934e-18
3.64793e-18
1.81855e-18
7.12253e-19
2.26129e-19
6.02423e-20
1.50533e-20
5.55109e-21
3.3199e-21
1.98213e-21
8.24124e-22
2.00093e-22
4.76846e-17
2.26014e-17
1.15148e-17
5.87836e-18
3.01046e-18
1.73818e-18
1.33909e-18
1.34536e-18
1.37317e-18
1.40202e-18
1.20391e-18
9.21274e-19
5.60865e-19
2.62047e-19
9.61532e-20
2.85785e-20
7.10161e-21
1.6247e-21
5.2028e-22
2.69238e-22
1.39423e-22
4.88055e-23
9.72963e-24
9.20501e-18
4.11854e-18
2.04556e-18
1.02768e-18
5.21175e-19
3.01785e-19
2.34767e-19
2.35619e-19
2.3604e-19
2.34126e-19
1.93696e-19
1.40709e-19
8.05528e-20
3.53054e-20
1.2142e-20
3.37759e-21
7.82123e-22
1.63629e-22
4.534e-23
2.01266e-23
8.99577e-24
2.65511e-24
4.39015e-25
1.66127e-18
7.01763e-19
3.39937e-19
1.68251e-19
8.45873e-20
4.91679e-20
3.8652e-20
3.87449e-20
3.80882e-20
3.66736e-20
2.92207e-20
2.01623e-20
1.08653e-20
4.4699e-21
1.4408e-21
3.74575e-22
8.06038e-23
1.53959e-23
3.69562e-24
1.40453e-24
5.41646e-25
1.34618e-25
1.84002e-26
2.81434e-19
1.12373e-19
5.31317e-20
2.59323e-20
1.29357e-20
7.55262e-21
6.00059e-21
6.00279e-21
5.78667e-21
5.40393e-21
4.1447e-21
2.71787e-21
1.38001e-21
5.33187e-22
1.61112e-22
3.91157e-23
7.80585e-24
1.35822e-24
2.82557e-25
9.2018e-26
3.07303e-26
6.46366e-27
7.39822e-28
4.49639e-20
1.69907e-20
7.84304e-21
3.77508e-21
1.86844e-21
1.09665e-21
8.81799e-22
8.80632e-22
8.31742e-22
7.52327e-22
5.54151e-22
3.44739e-22
1.64425e-22
5.94104e-23
1.6733e-23
3.76934e-24
6.92681e-25
1.09309e-25
1.99263e-26
5.64977e-27
1.64227e-27
2.92434e-28
3.1107e-29
6.80905e-21
2.44341e-21
1.10311e-21
5.23901e-22
2.57342e-22
1.51939e-22
1.2372e-22
1.23273e-22
1.13933e-22
9.96428e-23
7.032e-23
4.14185e-23
1.85046e-23
6.22731e-24
1.6256e-24
3.37271e-25
5.65582e-26
8.02331e-27
1.28598e-27
3.22508e-28
8.22319e-29
1.2416e-29
2.19949e-30
9.84766e-22
3.36639e-22
1.4865e-22
6.95605e-23
3.38865e-23
2.01488e-23
1.66507e-23
1.65512e-23
1.49331e-23
1.25929e-23
8.4679e-24
4.69458e-24
1.94456e-24
6.00701e-25
1.42682e-25
2.66473e-26
3.96462e-27
4.91667e-28
7.03162e-29
1.64236e-29
3.6806e-30
4.76154e-31
7.84339e-31
)
;

boundaryField
{
    leftWall
    {
        type            zeroGradient;
    }
    rightWall
    {
        type            zeroGradient;
    }
    lowerWall
    {
        type            zeroGradient;
    }
    atmosphere
    {
        type            inletOutlet;
        inletValue      uniform 0;
        value           nonuniform List<scalar> 
23
(
9.84766e-22
3.36639e-22
1.4865e-22
6.95605e-23
3.38865e-23
2.01488e-23
1.66507e-23
1.65512e-23
1.49331e-23
1.25929e-23
8.4679e-24
4.69458e-24
1.94456e-24
6.00701e-25
1.42682e-25
2.66473e-26
3.96462e-27
4.91667e-28
7.03162e-29
1.64236e-29
3.6806e-30
4.76154e-31
7.84339e-31
)
;
    }
    defaultFaces
    {
        type            empty;
    }
    procBoundary2to0
    {
        type            processor;
        value           nonuniform List<scalar> 
24
(
7.24366e-08
2.20076e-07
3.20134e-07
2.73094e-07
1.61371e-07
8.07583e-08
4.90372e-08
3.83138e-09
4.49738e-09
5.21432e-09
2.23598e-08
2.04312e-08
9.88004e-09
1.32066e-09
1.19879e-09
1.7147e-09
2.09391e-09
2.39134e-09
2.95856e-09
3.22302e-09
3.0149e-09
2.75225e-09
5.85097e-09
5.85097e-09
)
;
    }
    procBoundary2to3
    {
        type            processor;
        value           nonuniform List<scalar> 
25
(
1.09268e-09
8.35145e-10
7.90563e-10
5.3563e-10
2.5468e-10
1.05604e-10
3.12954e-11
7.71043e-12
1.3388e-12
1.80955e-13
1.96962e-14
1.794e-15
1.40786e-16
9.723e-18
5.98591e-19
3.30531e-20
1.64007e-21
7.33428e-23
2.96824e-24
1.08636e-25
3.74613e-27
1.82983e-28
3.44114e-29
1.29877e-29
1.8011e-29
)
;
    }
}


// ************************************************************************* //
