/*--------------------------------*- C++ -*----------------------------------*\
| =========                 |                                                 |
| \\      /  F ield         | OpenFOAM: The Open Source CFD Toolbox           |
|  \\    /   O peration     | Version:  2.4.0                                 |
|   \\  /    A nd           | Web:      www.OpenFOAM.org                      |
|    \\/     M anipulation  |                                                 |
\*---------------------------------------------------------------------------*/
FoamFile
{
    version     2.0;
    format      ascii;
    class       volScalarField;
    location    "0.95";
    object      p;
}
// * * * * * * * * * * * * * * * * * * * * * * * * * * * * * * * * * * * * * //

dimensions      [1 -1 -2 0 0 0 0];

internalField   nonuniform List<scalar> 
559
(
2.60119
2.52186
2.46199
2.40545
2.34576
2.31422
2.31379
3.01997
2.96032
2.91435
2.87163
2.83909
2.81012
2.78612
2.76895
2.75667
2.74797
2.73866
2.7274
2.70703
2.67791
2.63922
2.59378
2.54285
2.48945
2.44487
2.3998
2.36145
2.34653
2.35005
2.91831
2.87927
2.82631
2.78271
2.74811
2.71794
2.69291
2.67373
2.65807
2.64549
2.63199
2.61886
2.59779
2.57221
2.54182
2.50782
2.47045
2.43247
2.39861
2.36499
2.33755
2.32963
2.33182
2.80066
2.77697
2.72665
2.68487
2.65019
2.61977
2.59452
2.57386
2.55648
2.54147
2.52753
2.51185
2.4924
2.47075
2.44593
2.41914
2.39051
2.36271
2.33719
2.31268
2.29425
2.28679
2.28665
2.66883
2.65451
2.61297
2.57703
2.54539
2.5161
2.49115
2.46992
2.45184
2.43583
2.42099
2.40532
2.38837
2.36963
2.34919
2.3277
2.30544
2.28427
2.26436
2.24598
2.23195
2.2251
2.22359
2.53086
2.52104
2.49049
2.46111
2.43256
2.40621
2.38296
2.36255
2.34468
2.32863
2.31373
2.29885
2.28355
2.26727
2.25031
2.23273
2.21501
2.19815
2.18234
2.16808
2.15733
2.15122
2.14884
2.39159
2.38412
2.36172
2.3386
2.31461
2.29178
2.27091
2.25206
2.23512
2.21968
2.20529
2.19131
2.17741
2.16321
2.14879
2.13417
2.11973
2.10602
2.09332
2.08206
2.07343
2.0682
2.06599
2.25316
2.24729
2.23079
2.21285
2.19332
2.17405
2.1558
2.13886
2.12326
2.10883
2.09534
2.08243
2.06985
2.05731
2.04491
2.03256
2.02057
2.00927
1.99896
1.99006
1.9832
1.97878
1.9768
2.11643
2.11175
2.0996
2.08566
2.06995
2.05393
2.03827
2.02336
2.00934
1.99621
1.98385
1.97207
1.96069
1.94958
1.93878
1.92825
1.91822
1.90885
1.90047
1.89324
1.88757
1.88409
1.88261
1.98158
1.97783
1.9688
1.95793
1.94536
1.93214
1.91887
1.90595
1.89358
1.88184
1.87068
1.86006
1.84988
1.84009
1.83068
1.82167
1.81317
1.80531
1.79834
1.79248
1.78806
1.78544
1.78414
1.84847
1.84549
1.83868
1.83016
1.82009
1.80923
1.79808
1.78701
1.77623
1.76587
1.75598
1.74654
1.73752
1.7289
1.7207
1.71292
1.70569
1.69911
1.69335
1.68852
1.68481
1.68244
1.68191
1.71683
1.71447
1.70925
1.70254
1.69446
1.68556
1.67625
1.66685
1.65757
1.64855
1.63987
1.63157
1.62365
1.61611
1.60898
1.60231
1.59616
1.59061
1.58579
1.58183
1.57887
1.57709
1.57673
1.58641
1.58455
1.58049
1.57516
1.56867
1.56139
1.55367
1.54575
1.53783
1.53006
1.52253
1.5153
1.50839
1.50184
1.49569
1.48998
1.48475
1.48009
1.47608
1.47284
1.47047
1.46912
1.46894
1.45699
1.45552
1.45234
1.4481
1.44287
1.43693
1.43054
1.4239
1.41721
1.41057
1.40411
1.39787
1.39192
1.38629
1.38102
1.37614
1.37172
1.36781
1.3645
1.36185
1.35996
1.35893
1.35889
1.32837
1.32721
1.3247
1.32132
1.3171
1.31226
1.307
1.30148
1.29586
1.29026
1.28476
1.27945
1.27437
1.26957
1.26509
1.26096
1.25724
1.25398
1.25124
1.24909
1.24759
1.24682
1.24686
1.20041
1.19949
1.1975
1.1948
1.1914
1.18747
1.18316
1.17861
1.17394
1.16925
1.16463
1.16015
1.15586
1.1518
1.14803
1.14457
1.14147
1.13878
1.13653
1.13479
1.1336
1.13302
1.13311
1.07297
1.07224
1.07067
1.06851
1.06579
1.06262
1.05911
1.05539
1.05155
1.04767
1.04383
1.0401
1.03652
1.03314
1.03
1.02714
1.02458
1.02236
1.02054
1.01913
1.0182
1.01777
1.01788
0.945948
0.945371
0.944133
0.942424
0.940256
0.937719
0.9349
0.931886
0.92876
0.925592
0.92245
0.919388
0.916451
0.913675
0.911098
0.908753
0.906673
0.904883
0.903416
0.9023
0.901566
0.901239
0.901352
0.819263
0.818819
0.817853
0.816514
0.814809
0.812805
0.810568
0.808165
0.805664
0.803122
0.800592
0.79812
0.795746
0.793505
0.791432
0.789551
0.787882
0.786452
0.785291
0.784419
0.783849
0.783602
0.783697
0.692839
0.692492
0.691748
0.690717
0.689404
0.687858
0.686128
0.684265
0.682315
0.680324
0.678337
0.676391
0.674521
0.672756
0.671121
0.669637
0.668327
0.667214
0.66631
0.66563
0.665189
0.664992
0.665041
0.566628
0.56637
0.565822
0.565057
0.56408
0.562927
0.561631
0.56023
0.558759
0.557253
0.555746
0.554266
0.552841
0.551494
0.550246
0.549116
0.548121
0.547272
0.54658
0.54606
0.545715
0.545545
0.545543
0.440572
0.440393
0.439999
0.439458
0.43877
0.437956
0.437039
0.436045
0.434998
0.433926
0.432851
0.431795
0.430775
0.429808
0.428908
0.42809
0.427363
0.42674
0.426231
0.425841
0.42557
0.425421
0.425392
0.314628
0.314523
0.314272
0.313922
0.313479
0.312953
0.312361
0.311719
0.311041
0.310345
0.309646
0.308958
0.30829
0.307654
0.30706
0.306517
0.306032
0.305613
0.305262
0.304982
0.304774
0.30463
0.304526
0.188741
0.188681
0.188553
0.188386
0.188164
0.187886
0.187575
0.18723
0.186865
0.186489
0.18611
0.185737
0.185377
0.185037
0.18472
0.184432
0.184175
0.183949
0.183756
0.1836
0.183475
0.183377
0.183315
0.0628946
0.0628657
0.0628214
0.0627729
0.0627174
0.0626363
0.0625766
0.0624839
0.062392
0.0622941
0.0621916
0.0620971
0.0620086
0.0619259
0.0618489
0.0617764
0.061706
0.0616403
0.0615791
0.0615177
0.0614552
0.0613853
0.0612871
)
;

boundaryField
{
    leftWall
    {
        type            fixedFluxPressure;
        gradient        uniform 0;
        value           nonuniform List<scalar> 
24
(
3.01997
2.91831
2.80066
2.66883
2.53086
2.39159
2.25316
2.11643
1.98158
1.84847
1.71683
1.58641
1.45699
1.32837
1.20041
1.07297
0.945948
0.819263
0.692839
0.566628
0.440572
0.314628
0.188741
0.0628946
)
;
    }
    rightWall
    {
        type            fixedFluxPressure;
        gradient        nonuniform 0();
        value           nonuniform 0();
    }
    lowerWall
    {
        type            fixedFluxPressure;
        gradient        nonuniform 0();
        value           nonuniform 0();
    }
    atmosphere
    {
        type            totalPressure;
        U               U.air;
        phi             phi.air;
        rho             rho;
        psi             none;
        gamma           1;
        p0              uniform 0;
        value           uniform 0;
    }
    defaultFaces
    {
        type            empty;
    }
    procBoundary2to0
    {
        type            processor;
        value           nonuniform List<scalar> 
24
(
2.63643
2.52164
2.43067
2.35295
2.26989
2.2034
2.17987
3.11781
3.04379
3.00697
2.96156
2.92642
2.89562
2.87336
2.85932
2.85467
2.85372
2.85033
2.84118
2.82519
2.79225
2.74103
2.676
2.676
)
;
    }
    procBoundary2to3
    {
        type            processor;
        value           nonuniform List<scalar> 
25
(
2.32732
2.35739
2.33794
2.29006
2.22574
2.15022
2.06693
1.97757
1.88333
1.78485
1.6827
1.57752
1.4697
1.35959
1.2475
1.13368
1.01836
0.901736
0.783984
0.665249
0.545673
0.425423
0.304485
0.1833
0.0611126
)
;
    }
}


// ************************************************************************* //
