/*--------------------------------*- C++ -*----------------------------------*\
| =========                 |                                                 |
| \\      /  F ield         | OpenFOAM: The Open Source CFD Toolbox           |
|  \\    /   O peration     | Version:  2.4.0                                 |
|   \\  /    A nd           | Web:      www.OpenFOAM.org                      |
|    \\/     M anipulation  |                                                 |
\*---------------------------------------------------------------------------*/
FoamFile
{
    version     2.0;
    format      ascii;
    class       surfaceScalarField;
    location    "0.95";
    object      phi;
}
// * * * * * * * * * * * * * * * * * * * * * * * * * * * * * * * * * * * * * //

dimensions      [0 3 -1 0 0 0 0];

internalField   nonuniform List<scalar> 
1070
(
0.000120075
7.17601e-05
0.000135835
6.65007e-05
0.000149317
4.73296e-05
0.000165248
2.18986e-05
0.000180252
5.83233e-06
0.00018706
-8.75439e-06
-3.29772e-05
3.1721e-05
0.000209929
4.62592e-05
0.000179426
5.3212e-05
0.000130511
5.59515e-05
9.62226e-05
5.58706e-05
8.01823e-05
5.55539e-05
7.47492e-05
5.46233e-05
7.11185e-05
5.44422e-05
7.08625e-05
5.86886e-05
7.38891e-05
6.6276e-05
8.03943e-05
7.21808e-05
8.36164e-05
7.48717e-05
7.81266e-05
7.66693e-05
7.2503e-05
8.00223e-05
7.03954e-05
8.62047e-05
6.8879e-05
9.58194e-05
6.55928e-05
0.000108857
5.87228e-05
0.000122498
5.28598e-05
0.000133548
3.62789e-05
0.000140832
1.46148e-05
0.000144996
1.66857e-06
0.000148012
-1.17707e-05
-3.12816e-05
3.17059e-05
0.000178223
4.96173e-05
0.000161514
5.66261e-05
0.000123502
5.716e-05
9.56887e-05
5.582e-05
8.15223e-05
5.44997e-05
7.60695e-05
5.31067e-05
7.25114e-05
5.25216e-05
7.14476e-05
5.43236e-05
7.20871e-05
6.06216e-05
7.40963e-05
6.83417e-05
7.58963e-05
7.34663e-05
7.30019e-05
7.59644e-05
7.0005e-05
7.96951e-05
6.66646e-05
8.5227e-05
6.33471e-05
9.29982e-05
5.78216e-05
0.000101467
5.02544e-05
0.0001118
4.25261e-05
0.000119956
2.81227e-05
0.00012236
1.22109e-05
0.000122759
1.27034e-06
0.000123631
-1.2643e-05
-2.74248e-05
2.73135e-05
0.000150909
4.60386e-05
0.000142789
5.44893e-05
0.000115051
5.56116e-05
9.45664e-05
5.41748e-05
8.2959e-05
5.25858e-05
7.76585e-05
5.15021e-05
7.35951e-05
5.14433e-05
7.15063e-05
5.31363e-05
7.03942e-05
5.74208e-05
6.98118e-05
6.35123e-05
6.98047e-05
6.87223e-05
6.77919e-05
7.31101e-05
6.56172e-05
7.7875e-05
6.18997e-05
8.36236e-05
5.75985e-05
9.03553e-05
5.10898e-05
9.6795e-05
4.38147e-05
0.000103796
3.55253e-05
0.000108189
2.37292e-05
0.000108496
1.19039e-05
0.000108511
1.2553e-06
0.000107131
-1.1263e-05
-2.18528e-05
2.15834e-05
0.000129326
3.85958e-05
0.000125777
4.71605e-05
0.000106487
4.94454e-05
9.22815e-05
4.92047e-05
8.31997e-05
4.89251e-05
7.79381e-05
4.89684e-05
7.35518e-05
4.97306e-05
7.07442e-05
5.16299e-05
6.84949e-05
5.48452e-05
6.65965e-05
5.93934e-05
6.52565e-05
6.39251e-05
6.32601e-05
6.89249e-05
6.06174e-05
7.40798e-05
5.67447e-05
7.95802e-05
5.20981e-05
8.51059e-05
4.55641e-05
9.00751e-05
3.88456e-05
9.45116e-05
3.10887e-05
9.68473e-05
2.13935e-05
9.72066e-05
1.15445e-05
9.65313e-05
1.93055e-06
9.40061e-05
-8.73779e-06
-1.66637e-05
1.62331e-05
0.000113093
3.05795e-05
0.00011143
3.855e-05
9.85161e-05
4.19802e-05
8.88513e-05
4.35057e-05
8.16742e-05
4.47391e-05
7.67047e-05
4.58745e-05
7.24163e-05
4.73974e-05
6.92212e-05
4.94893e-05
6.64031e-05
5.22092e-05
6.38765e-05
5.58244e-05
6.16413e-05
5.99775e-05
5.91071e-05
6.46143e-05
5.59806e-05
6.93246e-05
5.20344e-05
7.40667e-05
4.73561e-05
7.83485e-05
4.12822e-05
8.21581e-05
3.50359e-05
8.53575e-05
2.78894e-05
8.69692e-05
1.97817e-05
8.72032e-05
1.13104e-05
8.63887e-05
2.7451e-06
8.36529e-05
-6.00202e-06
-1.26469e-05
1.22389e-05
0.000100854
2.39451e-05
9.97241e-05
3.12346e-05
9.12266e-05
3.55094e-05
8.45765e-05
3.82549e-05
7.89287e-05
4.04871e-05
7.44726e-05
4.24532e-05
7.04502e-05
4.4546e-05
6.71285e-05
4.68988e-05
6.40503e-05
4.95308e-05
6.12445e-05
5.27011e-05
5.8471e-05
5.63695e-05
5.54387e-05
6.03688e-05
5.19812e-05
6.44397e-05
4.79635e-05
6.83695e-05
4.34262e-05
7.17657e-05
3.7886e-05
7.4717e-05
3.20846e-05
7.7062e-05
2.55443e-05
7.82587e-05
1.8585e-05
7.85869e-05
1.09822e-05
7.78512e-05
3.48072e-06
7.54966e-05
-3.64746e-06
-9.71003e-06
9.52039e-06
9.13333e-05
1.89637e-05
9.02808e-05
2.55453e-05
8.4645e-05
3.02028e-05
7.9919e-05
3.36623e-05
7.54693e-05
3.65457e-05
7.15891e-05
3.90842e-05
6.79117e-05
4.1576e-05
6.46367e-05
4.41414e-05
6.14848e-05
4.68704e-05
5.85155e-05
4.98157e-05
5.55257e-05
5.2976e-05
5.22784e-05
5.62882e-05
4.8669e-05
5.95639e-05
4.46878e-05
6.27964e-05
4.01937e-05
6.56376e-05
3.50448e-05
6.81532e-05
2.9569e-05
7.00304e-05
2.36671e-05
7.11018e-05
1.75136e-05
7.13155e-05
1.07685e-05
7.05369e-05
4.25928e-06
6.87976e-05
-1.90817e-06
-7.65052e-06
7.67251e-06
8.36608e-05
1.53338e-05
8.26196e-05
2.1225e-05
7.87538e-05
2.58668e-05
7.52772e-05
2.95995e-05
7.17365e-05
3.28096e-05
6.8379e-05
3.56551e-05
6.50662e-05
3.83509e-05
6.19409e-05
4.0995e-05
5.88407e-05
4.37288e-05
5.57816e-05
4.65284e-05
5.27261e-05
4.9432e-05
4.93747e-05
5.2342e-05
4.5759e-05
5.51956e-05
4.18342e-05
5.79028e-05
3.74866e-05
6.02191e-05
3.27285e-05
6.21483e-05
2.76398e-05
6.35679e-05
2.22475e-05
6.44282e-05
1.66532e-05
6.45658e-05
1.06308e-05
6.40647e-05
4.76033e-06
6.30029e-05
-8.46384e-07
-6.13732e-06
6.39142e-06
7.72694e-05
1.27433e-05
7.62677e-05
1.80078e-05
7.34893e-05
2.24438e-05
7.08412e-05
2.61999e-05
6.79804e-05
2.95074e-05
6.50715e-05
3.24725e-05
6.2101e-05
3.52484e-05
5.91651e-05
3.79271e-05
5.6162e-05
4.05654e-05
5.31433e-05
4.32042e-05
5.00873e-05
4.57913e-05
4.67876e-05
4.83198e-05
4.32305e-05
5.07481e-05
3.94058e-05
5.29804e-05
3.52543e-05
5.49484e-05
3.07604e-05
5.65937e-05
2.59945e-05
5.78604e-05
2.09808e-05
5.86373e-05
1.58762e-05
5.87783e-05
1.04898e-05
5.83513e-05
5.18728e-06
5.74911e-05
1.38362e-08
-5.03205e-06
5.4196e-06
7.18497e-05
1.07775e-05
7.09098e-05
1.54671e-05
6.87997e-05
1.96015e-05
6.67068e-05
2.32371e-05
6.43449e-05
2.64905e-05
6.1818e-05
2.94418e-05
5.91498e-05
3.2199e-05
5.64079e-05
3.48091e-05
5.35518e-05
3.73183e-05
5.06342e-05
3.97914e-05
4.76142e-05
4.21722e-05
4.44068e-05
4.44671e-05
4.09356e-05
4.66199e-05
3.7253e-05
4.85867e-05
3.32876e-05
5.02616e-05
2.90855e-05
5.16061e-05
2.46499e-05
5.25808e-05
2.00061e-05
5.31831e-05
1.52739e-05
5.33243e-05
1.03487e-05
5.30808e-05
5.43075e-06
5.24779e-05
6.16703e-07
-4.12369e-06
4.67525e-06
6.71745e-05
9.2877e-06
6.62973e-05
1.34765e-05
6.46109e-05
1.72847e-05
6.28985e-05
2.0724e-05
6.09056e-05
2.38448e-05
5.86972e-05
2.66983e-05
5.62963e-05
2.93534e-05
5.37528e-05
3.18398e-05
5.10654e-05
3.42129e-05
4.8261e-05
3.64895e-05
4.53375e-05
3.86595e-05
4.22369e-05
4.06897e-05
3.89054e-05
4.25736e-05
3.53691e-05
4.42396e-05
3.16215e-05
4.5672e-05
2.76532e-05
4.68406e-05
2.34813e-05
4.77171e-05
1.91296e-05
4.82854e-05
1.47056e-05
4.8462e-05
1.0172e-05
4.82588e-05
5.63395e-06
4.77453e-05
1.1302e-06
-3.35938e-06
4.06841e-06
6.31061e-05
8.08956e-06
6.22762e-05
1.1828e-05
6.08725e-05
1.52954e-05
5.94311e-05
1.84837e-05
5.77173e-05
2.14193e-05
5.57616e-05
2.41281e-05
5.35875e-05
2.66473e-05
5.12335e-05
2.89974e-05
4.87153e-05
3.12134e-05
4.60451e-05
3.33204e-05
4.32304e-05
3.53003e-05
4.0257e-05
3.71295e-05
3.70762e-05
3.87955e-05
3.37031e-05
4.02598e-05
3.01572e-05
4.15111e-05
2.64018e-05
4.25153e-05
2.24771e-05
4.3246e-05
1.83989e-05
4.36929e-05
1.42587e-05
4.3841e-05
1.00238e-05
4.37029e-05
5.77211e-06
4.32985e-05
1.53459e-06
-2.70407e-06
3.57158e-06
5.95345e-05
7.10471e-06
5.8743e-05
1.04429e-05
5.75343e-05
1.35796e-05
5.62944e-05
1.65046e-05
5.47923e-05
1.92282e-05
5.3038e-05
2.176e-05
5.10558e-05
2.41132e-05
4.88803e-05
2.63057e-05
4.65228e-05
2.83543e-05
4.39965e-05
3.02778e-05
4.13069e-05
3.20669e-05
3.84678e-05
3.37041e-05
3.5439e-05
3.51786e-05
3.22287e-05
3.64747e-05
2.88612e-05
3.75673e-05
2.53092e-05
3.8444e-05
2.16004e-05
3.90682e-05
1.77747e-05
3.94507e-05
1.38762e-05
3.95718e-05
9.90266e-06
3.94385e-05
5.90543e-06
3.90782e-05
1.89493e-06
-2.12692e-06
3.14668e-06
5.63878e-05
6.26746e-06
5.56222e-05
9.24925e-06
5.45525e-05
1.20776e-05
5.3466e-05
1.47399e-05
5.213e-05
1.72367e-05
5.05412e-05
1.95682e-05
4.87243e-05
2.17423e-05
4.67062e-05
2.37658e-05
4.44994e-05
2.56451e-05
4.21171e-05
2.73841e-05
3.95679e-05
2.89888e-05
3.68631e-05
3.04442e-05
3.39837e-05
3.17434e-05
3.09295e-05
3.28759e-05
2.77287e-05
3.38252e-05
2.43598e-05
3.45781e-05
2.08475e-05
3.51137e-05
1.72392e-05
3.54274e-05
1.35625e-05
3.5517e-05
9.81303e-06
3.53935e-05
6.02899e-06
3.50677e-05
2.22067e-06
-1.60697e-06
2.77258e-06
5.36152e-05
5.53294e-06
5.28619e-05
8.18927e-06
5.18962e-05
1.07286e-05
5.09266e-05
1.31371e-05
4.97216e-05
1.5406e-05
4.82723e-05
1.75301e-05
4.66002e-05
1.95117e-05
4.47246e-05
2.13496e-05
4.26614e-05
2.3055e-05
4.04117e-05
2.46238e-05
3.79991e-05
2.60647e-05
3.54221e-05
2.73661e-05
3.26823e-05
2.85167e-05
2.97789e-05
2.95076e-05
2.67378e-05
3.03197e-05
2.35477e-05
3.09367e-05
2.02305e-05
3.13677e-05
1.68081e-05
3.16195e-05
1.33108e-05
3.16836e-05
9.74886e-06
3.15567e-05
6.15596e-06
3.12481e-05
2.52927e-06
-1.12221e-06
2.44524e-06
5.117e-05
4.89022e-06
5.04169e-05
7.25419e-06
4.95322e-05
9.52307e-06
4.86578e-05
1.16831e-05
4.75615e-05
1.37216e-05
4.62339e-05
1.56333e-05
4.46885e-05
1.74171e-05
4.29407e-05
1.90699e-05
4.10087e-05
2.0595e-05
3.88866e-05
2.19963e-05
3.65978e-05
2.32694e-05
3.4149e-05
2.44117e-05
3.154e-05
2.54131e-05
2.87775e-05
2.62702e-05
2.58807e-05
2.69688e-05
2.2849e-05
2.75054e-05
1.9694e-05
2.7864e-05
1.64496e-05
2.80409e-05
1.31339e-05
2.80488e-05
9.741e-06
2.78987e-05
6.30604e-06
2.75886e-05
2.83931e-06
-6.64245e-07
2.15478e-06
4.90152e-05
4.31411e-06
4.82576e-05
6.41219e-06
4.74341e-05
8.42672e-06
4.66432e-05
1.03486e-05
4.56396e-05
1.21683e-05
4.44142e-05
1.38741e-05
4.29826e-05
1.54591e-05
4.13558e-05
1.69295e-05
3.95383e-05
1.8275e-05
3.75411e-05
1.94976e-05
3.53752e-05
2.0595e-05
3.30516e-05
2.15723e-05
3.05627e-05
2.24246e-05
2.79253e-05
2.31495e-05
2.51558e-05
2.37358e-05
2.22627e-05
2.41714e-05
1.92584e-05
2.44599e-05
1.6161e-05
2.46087e-05
1.29851e-05
2.45941e-05
9.75559e-06
2.44162e-05
6.48392e-06
2.4094e-05
3.16146e-06
-2.05547e-07
1.89242e-06
4.71228e-05
3.78938e-06
4.63606e-05
5.62937e-06
4.55942e-05
7.4054e-06
4.48672e-05
9.10691e-06
4.39381e-05
1.07219e-05
4.27993e-05
1.22422e-05
4.14623e-05
1.36603e-05
3.99376e-05
1.49744e-05
3.82241e-05
1.61725e-05
3.63431e-05
1.72545e-05
3.42932e-05
1.82217e-05
3.20844e-05
1.90608e-05
2.97236e-05
1.97642e-05
2.72218e-05
2.03319e-05
2.45882e-05
2.07614e-05
2.18332e-05
2.10552e-05
1.89646e-05
2.12289e-05
1.59873e-05
2.12769e-05
1.29372e-05
2.12127e-05
9.81977e-06
2.10387e-05
6.65796e-06
2.07251e-05
3.47508e-06
2.53273e-07
1.65498e-06
4.54678e-05
3.3142e-06
4.47014e-05
4.9323e-06
4.39761e-05
6.48541e-06
4.33141e-05
7.97029e-06
4.24532e-05
9.38139e-06
4.13882e-05
1.07131e-05
4.01306e-05
1.19553e-05
3.86955e-05
1.30946e-05
3.70849e-05
1.41277e-05
3.53099e-05
1.5048e-05
3.33728e-05
1.58524e-05
3.128e-05
1.65471e-05
2.90289e-05
1.71369e-05
2.6632e-05
1.76125e-05
2.41125e-05
1.7973e-05
2.14728e-05
1.82087e-05
1.87288e-05
1.82953e-05
1.59007e-05
1.82403e-05
1.29922e-05
1.80665e-05
9.99358e-06
1.7789e-05
6.93543e-06
1.74348e-05
3.82932e-06
7.01867e-07
1.46441e-06
4.40034e-05
2.86774e-06
4.32981e-05
4.22434e-06
4.26195e-05
5.53543e-06
4.2003e-05
6.79634e-06
4.11923e-05
8.00076e-06
4.01837e-05
9.14955e-06
3.89818e-05
1.02407e-05
3.76043e-05
1.12614e-05
3.60642e-05
1.21939e-05
3.43774e-05
1.30219e-05
3.25448e-05
1.3734e-05
3.05679e-05
1.43217e-05
2.84412e-05
1.4787e-05
2.61668e-05
1.5121e-05
2.37785e-05
1.5336e-05
2.12578e-05
1.54436e-05
1.86212e-05
1.54503e-05
1.58941e-05
1.53611e-05
1.30814e-05
1.51485e-05
1.02061e-05
1.48069e-05
7.27713e-06
1.43619e-05
4.27426e-06
1.21948e-06
1.25717e-06
4.27462e-05
2.44824e-06
4.2107e-05
3.60148e-06
4.14662e-05
4.7205e-06
4.0884e-05
5.79869e-06
4.01141e-05
6.8211e-06
3.91613e-05
7.78377e-06
3.80191e-05
8.6811e-06
3.67069e-05
9.51166e-06
3.52337e-05
1.02741e-05
3.3615e-05
1.09567e-05
3.18621e-05
1.15544e-05
2.99703e-05
1.20571e-05
2.79385e-05
1.24467e-05
2.57772e-05
1.27285e-05
2.34967e-05
1.28902e-05
2.10961e-05
1.29286e-05
1.85828e-05
1.2845e-05
1.59776e-05
1.26486e-05
1.32778e-05
1.2356e-05
1.04987e-05
1.19746e-05
7.65852e-06
1.14783e-05
4.77065e-06
1.84092e-06
1.05167e-06
4.16945e-05
1.90015e-06
4.12585e-05
2.65437e-06
4.0712e-05
3.38137e-06
4.0157e-05
4.09011e-06
3.94054e-05
4.76731e-06
3.84841e-05
5.40663e-06
3.73798e-05
6.00603e-06
3.61075e-05
6.5644e-06
3.46753e-05
7.08786e-06
3.30915e-05
7.576e-06
3.1374e-05
8.02425e-06
2.9522e-05
8.42225e-06
2.75405e-05
8.7657e-06
2.54338e-05
9.05255e-06
2.32099e-05
9.26869e-06
2.088e-05
9.40118e-06
1.84503e-05
9.44094e-06
1.59379e-05
9.37608e-06
1.33427e-05
9.19105e-06
1.06837e-05
8.87426e-06
7.97531e-06
8.42859e-06
5.21632e-06
2.37889e-06
7.57946e-07
4.09366e-05
1.26847e-06
4.0748e-05
1.76082e-06
4.02196e-05
2.27342e-06
3.96444e-05
2.77001e-06
3.89088e-05
3.24702e-06
3.80071e-05
3.69693e-06
3.69299e-05
4.11822e-06
3.56863e-05
4.51168e-06
3.42819e-05
4.87967e-06
3.27235e-05
5.22657e-06
3.10271e-05
5.54437e-06
2.92042e-05
5.82581e-06
2.72591e-05
6.06804e-06
2.51915e-05
6.26284e-06
2.30151e-05
6.40106e-06
2.07418e-05
6.4797e-06
1.83717e-05
6.4864e-06
1.59312e-05
6.41195e-06
1.34172e-05
6.24752e-06
1.08482e-05
5.97619e-06
8.24665e-06
5.56553e-06
5.62699e-06
2.9523e-06
2.67742e-07
2.40238e-07
1.50706e-07
8.73324e-08
3.9844e-08
1.8235e-08
8.26032e-09
9.16617e-09
1.92999e-08
3.71805e-08
6.48293e-08
1.02453e-07
1.47658e-07
1.97336e-07
2.50221e-07
3.04827e-07
3.52439e-07
3.96983e-07
4.26297e-07
4.35861e-07
4.19499e-07
3.74442e-07
)
;

boundaryField
{
    leftWall
    {
        type            calculated;
        value           uniform 0;
    }
    rightWall
    {
        type            calculated;
        value           nonuniform 0();
    }
    lowerWall
    {
        type            calculated;
        value           nonuniform 0();
    }
    atmosphere
    {
        type            calculated;
        value           nonuniform List<scalar> 
23
(
4.06689e-05
4.07755e-05
4.03092e-05
3.97077e-05
3.89563e-05
3.80287e-05
3.69398e-05
3.56854e-05
3.42717e-05
3.27056e-05
3.09994e-05
2.91666e-05
2.72139e-05
2.51419e-05
2.29622e-05
2.06872e-05
1.83241e-05
1.58866e-05
1.33879e-05
1.08386e-05
8.26302e-06
5.67205e-06
3.03489e-06
)
;
    }
    defaultFaces
    {
        type            empty;
        value           nonuniform 0();
    }
    procBoundary2to0
    {
        type            processor;
        value           nonuniform List<scalar> 
24
(
-9.21619e-05
-8.22603e-05
-6.08117e-05
-3.78301e-05
-2.08363e-05
1.94706e-06
3.74083e-05
-0.000241649
-0.000193964
-0.000137464
-9.89621e-05
-8.01014e-05
-7.44325e-05
-7.01879e-05
-7.06815e-05
-7.81356e-05
-8.79818e-05
-8.95212e-05
-8.08175e-05
-7.43006e-05
-7.37484e-05
-7.50614e-05
-9.96736e-05
-7.52075e-05
)
;
    }
    procBoundary2to3
    {
        type            processor;
        value           nonuniform List<scalar> 
25
(
0.000182628
0.000146317
0.000119774
0.000101559
8.8817e-05
7.9636e-05
7.25598e-05
6.67381e-05
6.14897e-05
5.63858e-05
5.15696e-05
4.69809e-05
4.26431e-05
3.8501e-05
3.45477e-05
3.07633e-05
2.71307e-05
2.36353e-05
2.02662e-05
1.69862e-05
1.38443e-05
1.08568e-05
7.89062e-06
4.99212e-06
2.91856e-07
)
;
    }
}


// ************************************************************************* //
