/*--------------------------------*- C++ -*----------------------------------*\
| =========                 |                                                 |
| \\      /  F ield         | OpenFOAM: The Open Source CFD Toolbox           |
|  \\    /   O peration     | Version:  2.4.0                                 |
|   \\  /    A nd           | Web:      www.OpenFOAM.org                      |
|    \\/     M anipulation  |                                                 |
\*---------------------------------------------------------------------------*/
FoamFile
{
    version     2.0;
    format      ascii;
    class       surfaceScalarField;
    location    "0.95";
    object      phi.water;
}
// * * * * * * * * * * * * * * * * * * * * * * * * * * * * * * * * * * * * * //

dimensions      [0 3 -1 0 0 0 0];

internalField   nonuniform List<scalar> 
1070
(
0.000120241
7.18137e-05
0.000135843
6.66516e-05
0.000149298
4.7482e-05
0.000165164
2.19984e-05
0.000180235
5.87367e-06
0.000187057
-8.74578e-06
-3.29784e-05
3.17293e-05
0.000209742
4.62805e-05
0.000179375
5.32496e-05
0.000130095
5.59129e-05
9.60861e-05
5.57992e-05
8.00823e-05
5.55382e-05
7.47144e-05
5.46284e-05
7.11209e-05
5.4448e-05
7.08644e-05
5.86982e-05
7.38901e-05
6.62862e-05
8.03984e-05
7.21882e-05
8.36161e-05
7.48753e-05
7.81196e-05
7.66705e-05
7.24925e-05
8.00209e-05
7.03887e-05
8.62025e-05
6.88775e-05
9.58139e-05
6.55966e-05
0.000108855
5.87274e-05
0.000122501
5.28632e-05
0.000133552
3.62796e-05
0.000140836
1.4612e-05
0.000144999
1.6642e-06
0.000148013
-1.17753e-05
-3.12863e-05
3.16839e-05
0.000176851
4.97922e-05
0.000160415
5.65827e-05
0.000123235
5.71151e-05
9.55515e-05
5.57701e-05
8.14085e-05
5.45049e-05
7.60589e-05
5.31114e-05
7.25164e-05
5.25265e-05
7.14519e-05
5.43305e-05
7.20907e-05
6.0632e-05
7.41012e-05
6.83495e-05
7.59031e-05
7.34697e-05
7.30056e-05
7.59669e-05
7.00049e-05
7.96972e-05
6.66664e-05
8.52279e-05
6.33495e-05
9.29979e-05
5.78241e-05
0.000101469
5.02551e-05
0.000111805
4.25254e-05
0.000119961
2.81211e-05
0.000122364
1.22084e-05
0.000122761
1.26737e-06
0.000123632
-1.26467e-05
-2.74305e-05
2.72975e-05
0.000150424
4.59881e-05
0.000142446
5.43403e-05
0.00011492
5.55545e-05
9.44276e-05
5.41727e-05
8.29299e-05
5.25905e-05
7.76639e-05
5.15065e-05
7.36011e-05
5.1448e-05
7.15117e-05
5.31416e-05
7.0399e-05
5.74276e-05
6.98165e-05
6.35182e-05
6.98098e-05
6.87267e-05
6.77963e-05
7.31142e-05
6.56214e-05
7.7879e-05
6.19023e-05
8.36269e-05
5.76005e-05
9.03585e-05
5.10915e-05
9.6799e-05
4.38152e-05
0.0001038
3.55249e-05
0.000108193
2.37283e-05
0.000108499
1.19024e-05
0.000108514
1.25339e-06
0.000107132
-1.12657e-05
-2.18573e-05
2.15459e-05
0.000129255
3.83164e-05
0.000125713
4.69731e-05
0.00010639
4.94296e-05
9.22677e-05
4.92079e-05
8.32058e-05
4.89286e-05
7.79445e-05
4.89722e-05
7.35576e-05
4.97347e-05
7.07495e-05
5.16343e-05
6.84997e-05
5.485e-05
6.66008e-05
5.93983e-05
6.52603e-05
6.39299e-05
6.32635e-05
6.89301e-05
6.06203e-05
7.40845e-05
5.67471e-05
7.95844e-05
5.21e-05
8.51099e-05
4.55654e-05
9.0079e-05
3.88462e-05
9.45152e-05
3.10888e-05
9.68506e-05
2.13931e-05
9.72095e-05
1.15438e-05
9.65335e-05
1.92953e-06
9.40075e-05
-8.73932e-06
-1.66659e-05
1.61579e-05
0.00011308
3.03456e-05
0.000111449
3.85071e-05
9.85384e-05
4.19807e-05
8.88597e-05
4.35082e-05
8.16806e-05
4.4742e-05
7.67106e-05
4.58778e-05
7.24218e-05
4.7401e-05
6.92263e-05
4.94931e-05
6.64076e-05
5.22133e-05
6.38806e-05
5.58287e-05
6.16449e-05
5.99818e-05
5.91102e-05
6.46188e-05
5.59832e-05
6.93288e-05
5.20366e-05
7.40707e-05
4.73578e-05
7.83523e-05
4.12835e-05
8.21617e-05
3.50368e-05
8.53607e-05
2.78898e-05
8.69721e-05
1.97818e-05
8.72058e-05
1.13102e-05
8.63908e-05
2.74468e-06
8.36545e-05
-6.00262e-06
-1.26477e-05
1.21913e-05
0.000100893
2.38773e-05
9.97663e-05
3.12329e-05
9.12363e-05
3.55111e-05
8.45826e-05
3.8257e-05
7.89345e-05
4.04896e-05
7.44781e-05
4.24561e-05
7.04553e-05
4.45491e-05
6.71332e-05
4.69022e-05
6.40546e-05
4.95344e-05
6.12484e-05
5.27049e-05
5.84745e-05
5.63733e-05
5.54417e-05
6.03727e-05
5.19838e-05
6.44435e-05
4.79657e-05
6.83731e-05
4.3428e-05
7.17691e-05
3.78874e-05
7.47201e-05
3.20857e-05
7.70649e-05
2.5545e-05
7.82613e-05
1.85854e-05
7.85893e-05
1.09824e-05
7.78533e-05
3.48069e-06
7.54984e-05
-3.64761e-06
-9.71022e-06
9.51544e-06
9.1345e-05
1.89619e-05
9.02888e-05
2.55463e-05
8.46506e-05
3.02042e-05
7.99245e-05
3.36641e-05
7.54746e-05
3.65478e-05
7.15942e-05
3.90867e-05
6.79164e-05
4.15787e-05
6.46412e-05
4.41444e-05
6.14888e-05
4.68736e-05
5.85192e-05
4.9819e-05
5.5529e-05
5.29794e-05
5.22813e-05
5.62917e-05
4.86715e-05
5.95673e-05
4.469e-05
6.27996e-05
4.01956e-05
6.56406e-05
3.50462e-05
6.8156e-05
2.95702e-05
7.0033e-05
2.36679e-05
7.11042e-05
1.75141e-05
7.13177e-05
1.07688e-05
7.0539e-05
4.25953e-06
6.87995e-05
-1.90803e-06
-7.65042e-06
7.67276e-06
8.36661e-05
1.53344e-05
8.26247e-05
2.12259e-05
7.87589e-05
2.5868e-05
7.52822e-05
2.9601e-05
7.17414e-05
3.28115e-05
6.83836e-05
3.56572e-05
6.50706e-05
3.83533e-05
6.1945e-05
4.09976e-05
5.88445e-05
4.37316e-05
5.57851e-05
4.65313e-05
5.27292e-05
4.94351e-05
4.93775e-05
5.23451e-05
4.57614e-05
5.51986e-05
4.18363e-05
5.79056e-05
3.74883e-05
6.02218e-05
3.27299e-05
6.21508e-05
2.7641e-05
6.35702e-05
2.22484e-05
6.44304e-05
1.66539e-05
6.45679e-05
1.06314e-05
6.40667e-05
4.76073e-06
6.30047e-05
-8.46076e-07
-6.13705e-06
6.39167e-06
7.72741e-05
1.27438e-05
7.62724e-05
1.80086e-05
7.34939e-05
2.24449e-05
7.08457e-05
2.62012e-05
6.79849e-05
2.9509e-05
6.50757e-05
3.24744e-05
6.21051e-05
3.52505e-05
5.91689e-05
3.79294e-05
5.61655e-05
4.05679e-05
5.31466e-05
4.32068e-05
5.00903e-05
4.5794e-05
4.67902e-05
4.83225e-05
4.32329e-05
5.07508e-05
3.94079e-05
5.2983e-05
3.52561e-05
5.49508e-05
3.07619e-05
5.6596e-05
2.59957e-05
5.78625e-05
2.09818e-05
5.86393e-05
1.5877e-05
5.87802e-05
1.04905e-05
5.83531e-05
5.18779e-06
5.74928e-05
1.42417e-08
-5.03172e-06
5.41984e-06
7.18541e-05
1.0778e-05
7.09141e-05
1.54678e-05
6.88039e-05
1.96024e-05
6.6711e-05
2.32382e-05
6.43489e-05
2.64919e-05
6.18219e-05
2.94434e-05
5.91535e-05
3.22008e-05
5.64114e-05
3.48111e-05
5.35551e-05
3.73204e-05
5.06372e-05
3.97937e-05
4.7617e-05
4.21746e-05
4.44093e-05
4.44695e-05
4.09378e-05
4.66223e-05
3.7255e-05
4.8589e-05
3.32892e-05
5.02638e-05
2.9087e-05
5.16081e-05
2.46511e-05
5.25827e-05
2.00071e-05
5.3185e-05
1.52747e-05
5.33261e-05
1.03493e-05
5.30825e-05
5.43131e-06
5.24796e-05
6.17159e-07
-4.12331e-06
4.67544e-06
6.71785e-05
9.28811e-06
6.63013e-05
1.34771e-05
6.46148e-05
1.72856e-05
6.29024e-05
2.0725e-05
6.09094e-05
2.3846e-05
5.87008e-05
2.66997e-05
5.62997e-05
2.9355e-05
5.3756e-05
3.18415e-05
5.10684e-05
3.42147e-05
4.82639e-05
3.64915e-05
4.53401e-05
3.86616e-05
4.22392e-05
4.06918e-05
3.89075e-05
4.25756e-05
3.5371e-05
4.42417e-05
3.16231e-05
4.56739e-05
2.76546e-05
4.68424e-05
2.34825e-05
4.77189e-05
1.91306e-05
4.8287e-05
1.47065e-05
4.84636e-05
1.01727e-05
4.82604e-05
5.63454e-06
4.77468e-05
1.13068e-06
-3.35899e-06
4.06859e-06
6.31098e-05
8.08992e-06
6.22798e-05
1.18285e-05
6.08761e-05
1.52961e-05
5.94346e-05
1.84846e-05
5.77207e-05
2.14204e-05
5.5765e-05
2.41293e-05
5.35907e-05
2.66487e-05
5.12365e-05
2.89989e-05
4.87182e-05
3.1215e-05
4.60477e-05
3.33222e-05
4.32329e-05
3.53022e-05
4.02592e-05
3.71314e-05
3.70782e-05
3.87974e-05
3.37049e-05
4.02615e-05
3.01588e-05
4.15128e-05
2.64032e-05
4.25169e-05
2.24783e-05
4.32475e-05
1.83999e-05
4.36944e-05
1.42596e-05
4.38425e-05
1.00246e-05
4.37043e-05
5.77271e-06
4.32999e-05
1.53508e-06
-2.70368e-06
3.57173e-06
5.95379e-05
7.10503e-06
5.87464e-05
1.04434e-05
5.75376e-05
1.35802e-05
5.62977e-05
1.65054e-05
5.47955e-05
1.92291e-05
5.30411e-05
2.1761e-05
5.10587e-05
2.41144e-05
4.88831e-05
2.6307e-05
4.65255e-05
2.83557e-05
4.39989e-05
3.02793e-05
4.13092e-05
3.20685e-05
3.84699e-05
3.37058e-05
3.54409e-05
3.51802e-05
3.22304e-05
3.64763e-05
2.88627e-05
3.75688e-05
2.53105e-05
3.84454e-05
2.16016e-05
3.90695e-05
1.77757e-05
3.9452e-05
1.38771e-05
3.95732e-05
9.90337e-06
3.94399e-05
5.90602e-06
3.90795e-05
1.89541e-06
-2.12655e-06
3.14682e-06
5.6391e-05
6.26774e-06
5.56254e-05
9.24967e-06
5.45556e-05
1.20782e-05
5.3469e-05
1.47406e-05
5.2133e-05
1.72375e-05
5.0544e-05
1.95691e-05
4.8727e-05
2.17433e-05
4.67088e-05
2.37669e-05
4.45018e-05
2.56463e-05
4.21195e-05
2.73854e-05
3.95701e-05
2.89902e-05
3.6865e-05
3.04456e-05
3.39855e-05
3.17448e-05
3.09311e-05
3.28772e-05
2.77301e-05
3.38266e-05
2.4361e-05
3.45794e-05
2.08486e-05
3.5115e-05
1.72401e-05
3.54286e-05
1.35634e-05
3.55182e-05
9.81373e-06
3.53947e-05
6.02956e-06
3.50689e-05
2.22114e-06
-1.60662e-06
2.77269e-06
5.36182e-05
5.53318e-06
5.28648e-05
8.18962e-06
5.18991e-05
1.07291e-05
5.09295e-05
1.31377e-05
4.97243e-05
1.54067e-05
4.8275e-05
1.75309e-05
4.66027e-05
1.95126e-05
4.4727e-05
2.13506e-05
4.26638e-05
2.30561e-05
4.04139e-05
2.46249e-05
3.80012e-05
2.60659e-05
3.5424e-05
2.73673e-05
3.2684e-05
2.8518e-05
2.97804e-05
2.95088e-05
2.67392e-05
3.03209e-05
2.35489e-05
3.09378e-05
2.02316e-05
3.13688e-05
1.68091e-05
3.16206e-05
1.33116e-05
3.16847e-05
9.74954e-06
3.15578e-05
6.15652e-06
3.12492e-05
2.52972e-06
-1.12188e-06
2.44535e-06
5.11728e-05
4.89043e-06
5.04196e-05
7.2545e-06
4.95349e-05
9.52348e-06
4.86604e-05
1.16836e-05
4.75641e-05
1.37222e-05
4.62364e-05
1.56339e-05
4.46909e-05
1.74179e-05
4.29431e-05
1.90707e-05
4.10109e-05
2.05959e-05
3.88887e-05
2.19973e-05
3.65997e-05
2.32705e-05
3.41508e-05
2.44128e-05
3.15417e-05
2.54141e-05
2.8779e-05
2.62712e-05
2.5882e-05
2.69699e-05
2.28502e-05
2.75064e-05
1.9695e-05
2.78649e-05
1.64505e-05
2.80419e-05
1.31347e-05
2.80497e-05
9.74165e-06
2.78997e-05
6.30658e-06
2.75897e-05
2.83973e-06
-6.63928e-07
2.15487e-06
4.90178e-05
4.31429e-06
4.82601e-05
6.41245e-06
4.74367e-05
8.42707e-06
4.66457e-05
1.0349e-05
4.56421e-05
1.21688e-05
4.44166e-05
1.38747e-05
4.29849e-05
1.54598e-05
4.1358e-05
1.69302e-05
3.95404e-05
1.82758e-05
3.75431e-05
1.94984e-05
3.5377e-05
2.05959e-05
3.30533e-05
2.15732e-05
3.05643e-05
2.24255e-05
2.79267e-05
2.31504e-05
2.51571e-05
2.37367e-05
2.22639e-05
2.41722e-05
1.92594e-05
2.44608e-05
1.61619e-05
2.46095e-05
1.29859e-05
2.45949e-05
9.75622e-06
2.44171e-05
6.48444e-06
2.40949e-05
3.16187e-06
-2.05252e-07
1.8925e-06
4.71253e-05
3.78953e-06
4.6363e-05
5.62959e-06
4.55966e-05
7.40569e-06
4.48696e-05
9.10727e-06
4.39404e-05
1.07223e-05
4.28015e-05
1.22427e-05
4.14645e-05
1.36609e-05
3.99397e-05
1.49751e-05
3.82261e-05
1.61732e-05
3.6345e-05
1.72553e-05
3.42949e-05
1.82225e-05
3.2086e-05
1.90616e-05
2.97251e-05
1.9765e-05
2.72232e-05
2.03326e-05
2.45894e-05
2.07622e-05
2.18343e-05
2.10559e-05
1.89656e-05
2.12297e-05
1.59881e-05
2.12776e-05
1.29379e-05
2.12135e-05
9.82039e-06
2.10394e-05
6.65846e-06
2.07259e-05
3.47547e-06
2.53554e-07
1.65504e-06
4.54702e-05
3.31433e-06
4.47037e-05
4.93249e-06
4.39784e-05
6.48565e-06
4.33164e-05
7.97059e-06
4.24554e-05
9.38174e-06
4.13903e-05
1.07136e-05
4.01326e-05
1.19558e-05
3.86975e-05
1.30951e-05
3.70868e-05
1.41283e-05
3.53117e-05
1.50486e-05
3.33745e-05
1.5853e-05
3.12816e-05
1.65477e-05
2.90304e-05
1.71375e-05
2.66334e-05
1.76132e-05
2.41137e-05
1.79736e-05
2.14738e-05
1.82094e-05
1.87298e-05
1.82959e-05
1.59016e-05
1.82409e-05
1.29929e-05
1.80671e-05
9.99419e-06
1.77897e-05
6.93592e-06
1.74355e-05
3.82971e-06
7.02134e-07
1.46446e-06
4.40057e-05
2.86783e-06
4.33003e-05
4.22448e-06
4.26217e-05
5.53562e-06
4.20052e-05
6.79658e-06
4.11945e-05
8.00105e-06
4.01858e-05
9.14988e-06
3.89838e-05
1.02411e-05
3.76062e-05
1.12618e-05
3.60661e-05
1.21943e-05
3.43792e-05
1.30224e-05
3.25464e-05
1.37345e-05
3.05695e-05
1.43222e-05
2.84426e-05
1.47875e-05
2.61681e-05
1.51215e-05
2.37796e-05
1.53365e-05
2.12589e-05
1.54441e-05
1.86221e-05
1.54508e-05
1.58949e-05
1.53616e-05
1.30821e-05
1.51491e-05
1.02067e-05
1.48074e-05
7.27762e-06
1.43625e-05
4.27464e-06
1.21974e-06
1.25721e-06
4.27484e-05
2.44831e-06
4.21092e-05
3.60159e-06
4.14684e-05
4.72065e-06
4.08861e-05
5.79887e-06
4.01162e-05
6.82131e-06
3.91634e-05
7.78402e-06
3.80211e-05
8.68138e-06
3.67088e-05
9.51196e-06
3.52355e-05
1.02744e-05
3.36167e-05
1.09571e-05
3.18638e-05
1.15548e-05
2.99718e-05
1.20575e-05
2.79399e-05
1.24471e-05
2.57785e-05
1.27289e-05
2.34979e-05
1.28905e-05
2.10972e-05
1.2929e-05
1.85838e-05
1.28454e-05
1.59784e-05
1.2649e-05
1.32786e-05
1.23564e-05
1.04993e-05
1.19751e-05
7.65901e-06
1.14787e-05
4.77103e-06
1.84117e-06
1.0517e-06
4.16967e-05
1.9002e-06
4.12607e-05
2.65444e-06
4.07141e-05
3.38147e-06
4.01591e-05
4.09024e-06
3.94074e-05
4.76746e-06
3.84861e-05
5.4068e-06
3.73817e-05
6.00622e-06
3.61094e-05
6.56461e-06
3.46771e-05
7.08809e-06
3.30932e-05
7.57624e-06
3.13756e-05
8.0245e-06
2.95235e-05
8.4225e-06
2.75419e-05
8.76597e-06
2.5435e-05
9.05282e-06
2.3211e-05
9.26897e-06
2.08811e-05
9.40146e-06
1.84513e-05
9.44122e-06
1.59387e-05
9.37636e-06
1.33434e-05
9.19134e-06
1.06843e-05
8.87456e-06
7.9758e-06
8.42889e-06
5.21669e-06
2.37914e-06
7.5796e-07
4.09387e-05
1.26849e-06
4.07501e-05
1.76086e-06
4.02217e-05
2.27348e-06
3.96464e-05
2.77007e-06
3.89108e-05
3.2471e-06
3.80091e-05
3.69703e-06
3.69318e-05
4.11833e-06
3.56881e-05
4.51179e-06
3.42836e-05
4.8798e-06
3.27252e-05
5.2267e-06
3.10287e-05
5.54451e-06
2.92057e-05
5.82595e-06
2.72604e-05
6.06819e-06
2.51928e-05
6.263e-06
2.30162e-05
6.40122e-06
2.07429e-05
6.47986e-06
1.83726e-05
6.48655e-06
1.5932e-05
6.41212e-06
1.34179e-05
6.24769e-06
1.08488e-05
5.97636e-06
8.24714e-06
5.56571e-06
5.62736e-06
2.95255e-06
2.67745e-07
2.40245e-07
1.50716e-07
8.73455e-08
3.98601e-08
1.82543e-08
8.283e-09
9.1922e-09
1.93292e-08
3.72128e-08
6.48641e-08
1.0249e-07
1.47698e-07
1.9738e-07
2.50266e-07
3.04873e-07
3.52484e-07
3.9703e-07
4.26346e-07
4.35913e-07
4.19555e-07
3.745e-07
)
;

boundaryField
{
    leftWall
    {
        type            fixedValue;
        value           uniform 0;
    }
    rightWall
    {
        type            fixedValue;
        value           nonuniform 0();
    }
    lowerWall
    {
        type            fixedValue;
        value           nonuniform 0();
    }
    atmosphere
    {
        type            calculated;
        value           nonuniform List<scalar> 
23
(
4.0671e-05
4.07776e-05
4.03113e-05
3.97098e-05
3.89583e-05
3.80307e-05
3.69417e-05
3.56872e-05
3.42735e-05
3.27073e-05
3.1001e-05
2.91681e-05
2.72152e-05
2.51431e-05
2.29633e-05
2.06882e-05
1.8325e-05
1.58875e-05
1.33886e-05
1.08392e-05
8.2635e-06
5.67241e-06
3.03514e-06
)
;
    }
    defaultFaces
    {
        type            empty;
        value           nonuniform 0();
    }
    procBoundary2to0
    {
        type            processor;
        value           nonuniform List<scalar> 
24
(
-9.18973e-05
-7.57243e-05
-5.44568e-05
-3.75266e-05
-2.26066e-05
1.00119e-06
3.67987e-05
-0.000241667
-0.000193959
-0.000137405
-9.87933e-05
-8.00081e-05
-7.43978e-05
-7.01885e-05
-7.06815e-05
-7.81343e-05
-8.79764e-05
-8.95106e-05
-8.08022e-05
-7.42832e-05
-7.37334e-05
-7.50544e-05
-9.96336e-05
-7.52525e-05
)
;
    }
    procBoundary2to3
    {
        type            processor;
        value           nonuniform List<scalar> 
25
(
0.000182624
0.000146316
0.000119774
0.000101559
8.88174e-05
7.9637e-05
7.25611e-05
6.67395e-05
6.14912e-05
5.63873e-05
5.1571e-05
4.69823e-05
4.26445e-05
3.85023e-05
3.45489e-05
3.07643e-05
2.71316e-05
2.36362e-05
2.0267e-05
1.69868e-05
1.38448e-05
1.08572e-05
7.89092e-06
4.99229e-06
2.9192e-07
)
;
    }
}


// ************************************************************************* //
