/*--------------------------------*- C++ -*----------------------------------*\
| =========                 |                                                 |
| \\      /  F ield         | OpenFOAM: The Open Source CFD Toolbox           |
|  \\    /   O peration     | Version:  2.4.0                                 |
|   \\  /    A nd           | Web:      www.OpenFOAM.org                      |
|    \\/     M anipulation  |                                                 |
\*---------------------------------------------------------------------------*/
FoamFile
{
    version     2.0;
    format      ascii;
    class       volVectorField;
    location    "0.95";
    object      U.oil;
}
// * * * * * * * * * * * * * * * * * * * * * * * * * * * * * * * * * * * * * //

dimensions      [0 1 -1 0 0 0 0];

internalField   nonuniform List<vector> 
559
(
(0.557041 0.426444 0)
(0.632623 0.381905 0)
(0.715919 0.284719 0)
(0.803269 0.148827 0)
(0.928612 0.0691294 0)
(0.992355 -0.0133651 0)
(0.968944 -0.173958 0)
(0.0923612 1.2134 0)
(0.222574 1.01503 0)
(0.2627 0.724629 0)
(0.306687 0.525012 0)
(0.298977 0.431127 0)
(0.297322 0.400752 0)
(0.296564 0.37891 0)
(0.289714 0.378981 0)
(0.295258 0.402641 0)
(0.335158 0.45626 0)
(0.378981 0.473238 0)
(0.39983 0.432385 0)
(0.406061 0.396135 0)
(0.419749 0.391298 0)
(0.441956 0.389415 0)
(0.486303 0.378084 0)
(0.536785 0.339769 0)
(0.626405 0.307224 0)
(0.683644 0.211598 0)
(0.729525 0.0823103 0)
(0.775624 0.00347537 0)
(0.788216 -0.0647929 0)
(0.784052 -0.187529 0)
(0.11421 1.03734 0)
(0.218067 0.918138 0)
(0.294108 0.685682 0)
(0.314852 0.516273 0)
(0.301219 0.435123 0)
(0.295952 0.405467 0)
(0.288681 0.387575 0)
(0.281437 0.383438 0)
(0.282287 0.391948 0)
(0.30334 0.410796 0)
(0.349556 0.428537 0)
(0.387016 0.409225 0)
(0.402223 0.387947 0)
(0.416181 0.374047 0)
(0.440217 0.360075 0)
(0.475925 0.332787 0)
(0.518406 0.289579 0)
(0.568019 0.248966 0)
(0.624365 0.164204 0)
(0.647718 0.0633922 0)
(0.659699 0.00675839 0)
(0.66385 -0.0731102 0)
(0.649799 -0.170143 0)
(0.106163 0.874928 0)
(0.192051 0.814096 0)
(0.281495 0.641753 0)
(0.304786 0.514319 0)
(0.293015 0.444643 0)
(0.286403 0.41644 0)
(0.278485 0.395786 0)
(0.274227 0.386644 0)
(0.278554 0.384605 0)
(0.29353 0.386046 0)
(0.325752 0.389714 0)
(0.356754 0.37905 0)
(0.382516 0.370196 0)
(0.404214 0.350668 0)
(0.431776 0.329127 0)
(0.465136 0.295208 0)
(0.50168 0.253899 0)
(0.534169 0.206761 0)
(0.573015 0.133968 0)
(0.577794 0.0622249 0)
(0.582112 0.00361099 0)
(0.581363 -0.0694403 0)
(0.559189 -0.137002 0)
(0.0829036 0.745501 0)
(0.155785 0.717286 0)
(0.241892 0.59498 0)
(0.265038 0.50498 0)
(0.263914 0.450482 0)
(0.262944 0.421701 0)
(0.262124 0.398242 0)
(0.263305 0.384834 0)
(0.271268 0.374804 0)
(0.284083 0.367024 0)
(0.306512 0.363169 0)
(0.331721 0.353918 0)
(0.356365 0.340917 0)
(0.383385 0.320695 0)
(0.41198 0.296475 0)
(0.440843 0.260116 0)
(0.47051 0.221918 0)
(0.493396 0.176369 0)
(0.515549 0.118508 0)
(0.517983 0.0606249 0)
(0.520376 0.006487 0)
(0.51258 -0.0567513 0)
(0.491077 -0.105286 0)
(0.058849 0.646628 0)
(0.120962 0.634913 0)
(0.195567 0.550608 0)
(0.218578 0.488738 0)
(0.229002 0.446215 0)
(0.236907 0.418437 0)
(0.242817 0.394994 0)
(0.249466 0.378551 0)
(0.259658 0.364379 0)
(0.272305 0.351912 0)
(0.289222 0.341607 0)
(0.310608 0.329618 0)
(0.3341 0.31381 0)
(0.359315 0.293154 0)
(0.384815 0.267299 0)
(0.408587 0.23283 0)
(0.430737 0.197131 0)
(0.448504 0.156537 0)
(0.464084 0.108058 0)
(0.464923 0.0587235 0)
(0.467905 0.0114302 0)
(0.455612 -0.0399187 0)
(0.438484 -0.078556 0)
(0.0413792 0.572985 0)
(0.0939312 0.566361 0)
(0.154894 0.510644 0)
(0.180428 0.468269 0)
(0.197954 0.434264 0)
(0.211499 0.408778 0)
(0.22235 0.386312 0)
(0.233144 0.368453 0)
(0.245075 0.352389 0)
(0.258607 0.337722 0)
(0.273596 0.323909 0)
(0.292532 0.308573 0)
(0.31299 0.291005 0)
(0.334677 0.269251 0)
(0.356717 0.244352 0)
(0.375883 0.213118 0)
(0.39303 0.180113 0)
(0.40675 0.142235 0)
(0.417815 0.101926 0)
(0.418837 0.0595625 0)
(0.422126 0.0156204 0)
(0.41045 -0.0264296 0)
(0.397781 -0.0596989 0)
(0.030479 0.515897 0)
(0.0743259 0.510151 0)
(0.123591 0.473541 0)
(0.150352 0.443818 0)
(0.171615 0.416962 0)
(0.188615 0.394536 0)
(0.202856 0.373814 0)
(0.216297 0.355971 0)
(0.229821 0.339015 0)
(0.244044 0.323618 0)
(0.259307 0.307738 0)
(0.275595 0.290428 0)
(0.293093 0.270835 0)
(0.310722 0.249196 0)
(0.328347 0.224979 0)
(0.344358 0.195902 0)
(0.359152 0.165515 0)
(0.370557 0.131951 0)
(0.379292 0.0964856 0)
(0.381436 0.056843 0)
(0.382243 0.0202106 0)
(0.37225 -0.0136375 0)
(0.364523 -0.0464754 0)
(0.0237972 0.47065 0)
(0.0602123 0.464923 0)
(0.100571 0.44019 0)
(0.12684 0.418624 0)
(0.149107 0.397318 0)
(0.167657 0.377841 0)
(0.183701 0.358988 0)
(0.198543 0.341668 0)
(0.212823 0.324754 0)
(0.227233 0.308285 0)
(0.242055 0.291955 0)
(0.25727 0.274187 0)
(0.27314 0.254698 0)
(0.288363 0.233391 0)
(0.30355 0.209012 0)
(0.317111 0.18255 0)
(0.328286 0.153629 0)
(0.337258 0.123027 0)
(0.343842 0.0914391 0)
(0.345565 0.0574124 0)
(0.345912 0.0238304 0)
(0.340221 -0.00755125 0)
(0.334554 -0.0368314 0)
(0.019495 0.433217 0)
(0.050151 0.427634 0)
(0.0840394 0.410248 0)
(0.108898 0.394062 0)
(0.130741 0.376983 0)
(0.149613 0.360119 0)
(0.166362 0.343188 0)
(0.18172 0.326798 0)
(0.196309 0.310249 0)
(0.210535 0.293717 0)
(0.224718 0.277208 0)
(0.238846 0.259087 0)
(0.252423 0.239821 0)
(0.265856 0.218823 0)
(0.278393 0.195997 0)
(0.289485 0.170739 0)
(0.299401 0.144184 0)
(0.306862 0.11603 0)
(0.31302 0.0867619 0)
(0.315066 0.0560878 0)
(0.314672 0.0265267 0)
(0.310254 -0.0018086 0)
(0.306029 -0.0301798 0)
(0.0163613 0.401696 0)
(0.0424899 0.396402 0)
(0.0713886 0.383487 0)
(0.0943477 0.370859 0)
(0.115115 0.3569 0)
(0.133537 0.342303 0)
(0.150163 0.327143 0)
(0.165384 0.311841 0)
(0.179844 0.296025 0)
(0.193475 0.280078 0)
(0.206872 0.263627 0)
(0.219988 0.246053 0)
(0.232414 0.226919 0)
(0.244456 0.206595 0)
(0.255425 0.18463 0)
(0.265323 0.161207 0)
(0.273585 0.136338 0)
(0.27941 0.110306 0)
(0.284094 0.0838935 0)
(0.285607 0.0559567 0)
(0.285833 0.0281388 0)
(0.283055 0.0014755 0)
(0.279671 -0.0246601 0)
(0.0140014 0.374562 0)
(0.0366601 0.369639 0)
(0.0617216 0.359557 0)
(0.0827155 0.349385 0)
(0.102122 0.337705 0)
(0.119693 0.324974 0)
(0.135709 0.311309 0)
(0.150424 0.297019 0)
(0.164253 0.282023 0)
(0.177187 0.26654 0)
(0.189728 0.250432 0)
(0.201686 0.233366 0)
(0.212903 0.21498 0)
(0.223484 0.195455 0)
(0.233021 0.17462 0)
(0.241281 0.152592 0)
(0.248338 0.129273 0)
(0.253634 0.104927 0)
(0.257822 0.0800905 0)
(0.259662 0.0548313 0)
(0.259839 0.0295974 0)
(0.257474 0.00463364 0)
(0.254646 -0.0201897 0)
(0.0120832 0.351161 0)
(0.0319524 0.346591 0)
(0.0538958 0.338381 0)
(0.0729102 0.329947 0)
(0.0907365 0.32 0)
(0.107161 0.308802 0)
(0.122284 0.296475 0)
(0.136287 0.28326 0)
(0.149351 0.269229 0)
(0.161574 0.254444 0)
(0.17318 0.238959 0)
(0.184151 0.222563 0)
(0.194372 0.204961 0)
(0.203833 0.186241 0)
(0.2122 0.166533 0)
(0.219427 0.145619 0)
(0.225619 0.123828 0)
(0.230141 0.101119 0)
(0.233463 0.077982 0)
(0.234914 0.0541852 0)
(0.235174 0.030402 0)
(0.233419 0.00694641 0)
(0.231045 -0.0163558 0)
(0.0105414 0.330565 0)
(0.028089 0.326149 0)
(0.0474194 0.31915 0)
(0.0645613 0.311943 0)
(0.0807932 0.303283 0)
(0.0959534 0.293274 0)
(0.110044 0.282067 0)
(0.123157 0.269856 0)
(0.135332 0.256711 0)
(0.146708 0.242691 0)
(0.157328 0.227838 0)
(0.167346 0.212171 0)
(0.176545 0.195443 0)
(0.184906 0.177682 0)
(0.192332 0.158999 0)
(0.19874 0.13922 0)
(0.204064 0.118557 0)
(0.208057 0.0971909 0)
(0.210848 0.0754741 0)
(0.212143 0.0533867 0)
(0.212248 0.0312278 0)
(0.210709 0.00905646 0)
(0.208559 -0.0130547 0)
(0.00921472 0.312548 0)
(0.0248035 0.308393 0)
(0.0418876 0.302316 0)
(0.0573083 0.296064 0)
(0.0720117 0.288422 0)
(0.0858647 0.279412 0)
(0.0988143 0.269146 0)
(0.110903 0.257807 0)
(0.122166 0.245462 0)
(0.132647 0.232212 0)
(0.142328 0.218057 0)
(0.151335 0.203066 0)
(0.159539 0.187067 0)
(0.166923 0.170098 0)
(0.173469 0.152358 0)
(0.179063 0.133727 0)
(0.183636 0.114266 0)
(0.187143 0.0942525 0)
(0.189416 0.0738034 0)
(0.190481 0.0529303 0)
(0.190475 0.0319199 0)
(0.189157 0.0108744 0)
(0.187153 -0.0101204 0)
(0.00807673 0.296554 0)
(0.0219048 0.292432 0)
(0.0370125 0.286931 0)
(0.0508281 0.281395 0)
(0.0640838 0.274561 0)
(0.0766471 0.266373 0)
(0.088442 0.256992 0)
(0.0994541 0.246521 0)
(0.109699 0.235013 0)
(0.119219 0.222528 0)
(0.127985 0.209137 0)
(0.136065 0.194865 0)
(0.143441 0.179721 0)
(0.150022 0.163696 0)
(0.155788 0.146869 0)
(0.160643 0.129102 0)
(0.164485 0.110555 0)
(0.167302 0.091525 0)
(0.169119 0.0721902 0)
(0.169999 0.0525049 0)
(0.169882 0.0326318 0)
(0.168661 0.0126134 0)
(0.166694 -0.00739852 0)
(0.00705362 0.282542 0)
(0.0193791 0.278507 0)
(0.0327349 0.273583 0)
(0.0450771 0.268622 0)
(0.0569471 0.262411 0)
(0.0682297 0.254921 0)
(0.0788323 0.246208 0)
(0.0887486 0.236387 0)
(0.09796 0.225559 0)
(0.10649 0.213762 0)
(0.114353 0.20105 0)
(0.12153 0.187486 0)
(0.12802 0.173078 0)
(0.133774 0.157768 0)
(0.13877 0.141743 0)
(0.142955 0.125033 0)
(0.146284 0.107652 0)
(0.148726 0.0896415 0)
(0.150141 0.0711243 0)
(0.150636 0.0522916 0)
(0.150285 0.0333469 0)
(0.149056 0.0142744 0)
(0.147068 -0.0048462 0)
(0.00617562 0.270146 0)
(0.0170939 0.266057 0)
(0.0289113 0.2614 0)
(0.0398758 0.256894 0)
(0.0504237 0.251235 0)
(0.0604808 0.24435 0)
(0.0699354 0.236329 0)
(0.0787816 0.227238 0)
(0.0869735 0.217156 0)
(0.0945272 0.206081 0)
(0.101441 0.194038 0)
(0.107664 0.181091 0)
(0.1132 0.167248 0)
(0.118124 0.152647 0)
(0.122387 0.137356 0)
(0.125913 0.12136 0)
(0.128666 0.104692 0)
(0.130592 0.0876831 0)
(0.131793 0.0703783 0)
(0.13221 0.0525672 0)
(0.131669 0.0343707 0)
(0.130344 0.015998 0)
(0.128267 -0.00238061 0)
(0.00536848 0.259196 0)
(0.0150744 0.255206 0)
(0.0253467 0.250997 0)
(0.0350353 0.246922 0)
(0.0443402 0.24172 0)
(0.0532574 0.235352 0)
(0.0616778 0.22792 0)
(0.0695634 0.219425 0)
(0.0769107 0.20984 0)
(0.0836503 0.199332 0)
(0.0897676 0.187943 0)
(0.0952595 0.175716 0)
(0.100144 0.162661 0)
(0.104298 0.148773 0)
(0.107701 0.13412 0)
(0.110369 0.118772 0)
(0.112289 0.102877 0)
(0.11358 0.0864038 0)
(0.114185 0.0694502 0)
(0.114092 0.0524218 0)
(0.113538 0.0352934 0)
(0.11228 0.0178062 0)
(0.110162 9.35938e-05 0)
(0.00464756 0.249751 0)
(0.0131618 0.245459 0)
(0.0222156 0.241342 0)
(0.0306966 0.237551 0)
(0.0388226 0.232708 0)
(0.0466052 0.226788 0)
(0.053976 0.219813 0)
(0.0609057 0.211848 0)
(0.0672802 0.20297 0)
(0.0731267 0.193173 0)
(0.0783775 0.182461 0)
(0.0829891 0.170844 0)
(0.0870252 0.158393 0)
(0.0904603 0.145204 0)
(0.0933221 0.13133 0)
(0.0955693 0.116858 0)
(0.0972437 0.101771 0)
(0.0981057 0.0860651 0)
(0.0981267 0.0699522 0)
(0.097592 0.0532918 0)
(0.0962928 0.0362831 0)
(0.0946553 0.0194051 0)
(0.0925359 0.0024739 0)
(0.00418931 0.241361 0)
(0.011587 0.237542 0)
(0.0190512 0.233924 0)
(0.0262428 0.23058 0)
(0.0331187 0.226106 0)
(0.0397261 0.220487 0)
(0.0460546 0.21382 0)
(0.0520542 0.206179 0)
(0.0577599 0.197608 0)
(0.0630077 0.188196 0)
(0.067747 0.17797 0)
(0.0719146 0.166946 0)
(0.0753984 0.155091 0)
(0.0782106 0.142456 0)
(0.0803763 0.129121 0)
(0.0818476 0.115098 0)
(0.0826749 0.100472 0)
(0.0829485 0.0854815 0)
(0.0827972 0.0700988 0)
(0.0820258 0.0543266 0)
(0.0805501 0.0382574 0)
(0.0784358 0.0216091 0)
(0.0757651 0.00482831 0)
(0.00363695 0.233915 0)
(0.00993409 0.229932 0)
(0.0162053 0.226083 0)
(0.0224015 0.222717 0)
(0.0282482 0.218403 0)
(0.0339144 0.213125 0)
(0.0392333 0.206871 0)
(0.0442323 0.199731 0)
(0.0488641 0.191768 0)
(0.0531417 0.183026 0)
(0.0570356 0.173545 0)
(0.0604898 0.163266 0)
(0.0634519 0.152199 0)
(0.065856 0.14038 0)
(0.0676782 0.127873 0)
(0.0688661 0.114673 0)
(0.0693996 0.100868 0)
(0.0693078 0.0864669 0)
(0.0685231 0.0714736 0)
(0.0671529 0.0561177 0)
(0.0653846 0.0404255 0)
(0.063182 0.024567 0)
(0.0601306 0.0084262 0)
(0.00320236 0.227683 0)
(0.00812456 0.224783 0)
(0.0122016 0.221908 0)
(0.0162612 0.219051 0)
(0.0200243 0.215046 0)
(0.0238193 0.210003 0)
(0.0273213 0.203891 0)
(0.0306558 0.196838 0)
(0.0337453 0.188932 0)
(0.0366578 0.18019 0)
(0.0393698 0.170692 0)
(0.0418875 0.160503 0)
(0.0441773 0.149636 0)
(0.0461659 0.138122 0)
(0.0478681 0.125947 0)
(0.0492499 0.113193 0)
(0.0501968 0.0998497 0)
(0.0506722 0.0859893 0)
(0.0506112 0.071676 0)
(0.0499728 0.0570145 0)
(0.0486504 0.0419947 0)
(0.0466439 0.0265966 0)
(0.0438964 0.0109558 0)
(0.0026158 0.222409 0)
(0.00553971 0.220152 0)
(0.00800061 0.216938 0)
(0.0109358 0.213776 0)
(0.0134961 0.209765 0)
(0.0161951 0.204959 0)
(0.0186525 0.199233 0)
(0.0209933 0.192641 0)
(0.023177 0.185192 0)
(0.0252164 0.17691 0)
(0.0271306 0.167887 0)
(0.0289241 0.158197 0)
(0.0305527 0.147827 0)
(0.031961 0.13673 0)
(0.0331485 0.125017 0)
(0.034052 0.112722 0)
(0.0346332 0.0999334 0)
(0.0348835 0.0867206 0)
(0.0347234 0.073073 0)
(0.0340944 0.0590496 0)
(0.0329381 0.0447939 0)
(0.0311802 0.0303456 0)
(0.0285972 0.0153182 0)
(0.00122322 0.219422 0)
(0.00164818 0.219998 0)
(0.000920362 0.217482 0)
(0.000690897 0.214237 0)
(0.000259762 0.210181 0)
(0.000154049 0.205175 0)
(5.01853e-05 0.199297 0)
(3.00235e-05 0.192526 0)
(6.73142e-05 0.184897 0)
(0.000133103 0.176445 0)
(0.000255053 0.167238 0)
(0.00043394 0.157346 0)
(0.000663363 0.146808 0)
(0.000922294 0.135626 0)
(0.00120663 0.123864 0)
(0.00149512 0.111588 0)
(0.00176592 0.0988368 0)
(0.00202833 0.0856853 0)
(0.00224012 0.0722035 0)
(0.00234326 0.0584505 0)
(0.00234915 0.0445563 0)
(0.00217908 0.0305806 0)
(0.0019279 0.016359 0)
)
;

boundaryField
{
    leftWall
    {
        type            fixedValue;
        value           uniform (0 0 0);
    }
    rightWall
    {
        type            fixedValue;
        value           nonuniform 0();
    }
    lowerWall
    {
        type            fixedValue;
        value           nonuniform 0();
    }
    atmosphere
    {
        type            fluxCorrectedVelocity;
        value           nonuniform List<vector> 
23
(
(0.00122322 0.219409 0)
(0.00164818 0.219984 0)
(0.000920362 0.217468 0)
(0.000690897 0.214224 0)
(0.000259762 0.21017 0)
(0.000154049 0.205165 0)
(5.01853e-05 0.199291 0)
(3.00235e-05 0.192523 0)
(6.73142e-05 0.184896 0)
(0.000133103 0.176447 0)
(0.000255053 0.167242 0)
(0.00043394 0.157354 0)
(0.000663363 0.146819 0)
(0.000922294 0.135641 0)
(0.00120663 0.123881 0)
(0.00149512 0.111608 0)
(0.00176592 0.0988586 0)
(0.00202833 0.0857086 0)
(0.00224012 0.0722276 0)
(0.00234326 0.0584744 0)
(0.00234915 0.044579 0)
(0.00217908 0.0306007 0)
(0.0019279 0.0163733 0)
)
;
    }
    defaultFaces
    {
        type            empty;
    }
    procBoundary2to0
    {
        type            processor;
        value           nonuniform List<vector> 
24
(
(0.37549 0.497764 0)
(0.362236 0.379868 0)
(0.500939 0.347408 0)
(0.779175 0.283781 0)
(0.922823 0.25377 0)
(0.972428 0.147832 0)
(1.07319 -0.0434374 0)
(0.0333479 1.41088 0)
(0.187971 1.09241 0)
(0.195578 0.774276 0)
(0.272772 0.553146 0)
(0.281562 0.437992 0)
(0.29543 0.402896 0)
(0.303687 0.376312 0)
(0.305736 0.382395 0)
(0.341849 0.437642 0)
(0.37332 0.490525 0)
(0.379963 0.491461 0)
(0.391546 0.442139 0)
(0.383956 0.408976 0)
(0.397406 0.41108 0)
(0.426173 0.42839 0)
(0.495651 0.438586 0)
(0.495651 0.438586 0)
)
;
    }
    procBoundary2to3
    {
        type            processor;
        value           nonuniform List<vector> 
25
(
(0.957371 -0.310385 0)
(0.770265 -0.271122 0)
(0.631995 -0.235916 0)
(0.533104 -0.180214 0)
(0.467001 -0.135654 0)
(0.4209 -0.104647 0)
(0.384524 -0.0828809 0)
(0.35477 -0.0692631 0)
(0.327419 -0.0579126 0)
(0.300733 -0.0498341 0)
(0.275155 -0.0430773 0)
(0.250813 -0.0375555 0)
(0.227663 -0.0328662 0)
(0.205576 -0.0288256 0)
(0.184464 -0.025216 0)
(0.164243 -0.0219166 0)
(0.144824 -0.0188201 0)
(0.126125 -0.0158657 0)
(0.108087 -0.012963 0)
(0.0905313 -0.0100843 0)
(0.0736109 -0.00745859 0)
(0.0575029 -0.00372022 0)
(0.0415755 -0.000861417 0)
(0.0260332 0.00389303 0)
(0.00143405 0.0052327 0)
)
;
    }
}


// ************************************************************************* //
