/*--------------------------------*- C++ -*----------------------------------*\
| =========                 |                                                 |
| \\      /  F ield         | OpenFOAM: The Open Source CFD Toolbox           |
|  \\    /   O peration     | Version:  2.4.0                                 |
|   \\  /    A nd           | Web:      www.OpenFOAM.org                      |
|    \\/     M anipulation  |                                                 |
\*---------------------------------------------------------------------------*/
FoamFile
{
    version     2.0;
    format      ascii;
    class       volScalarField;
    location    "0.7";
    object      alpha.mercury;
}
// * * * * * * * * * * * * * * * * * * * * * * * * * * * * * * * * * * * * * //

dimensions      [0 0 0 0 0 0 0];

internalField   nonuniform List<scalar> 
575
(
9.51819e-14
2.4414e-13
6.04528e-13
1.4502e-12
1.81722e-14
5.00772e-14
1.34611e-13
3.50843e-13
2.8288e-15
8.59781e-15
2.60893e-14
7.69838e-14
3.82617e-16
1.3366e-15
4.75029e-15
1.63552e-14
4.74101e-17
1.97674e-16
8.33035e-16
3.34629e-15
5.67797e-18
2.83318e-17
1.38145e-16
6.34314e-16
6.48652e-19
3.76107e-18
2.05214e-17
1.05345e-16
6.79392e-20
4.43432e-19
2.65502e-18
1.49853e-17
6.33869e-21
4.51068e-20
2.92975e-19
1.79901e-18
5.35475e-22
4.00184e-21
2.76584e-20
1.82349e-19
4.75319e-23
3.45887e-22
2.41481e-21
1.64822e-20
6.88163e-24
4.39502e-23
2.75598e-22
1.7311e-21
1.97057e-24
1.22298e-23
7.17933e-23
4.05154e-22
7.59187e-25
5.11281e-24
3.21906e-23
1.91149e-22
3.11692e-25
2.33154e-24
1.63076e-23
1.07465e-22
1.26648e-25
1.05592e-24
8.25557e-24
6.09997e-23
4.88868e-26
4.54444e-25
3.97727e-24
3.30554e-23
1.73467e-26
1.7972e-25
1.76151e-24
1.64933e-23
5.48928e-27
6.32165e-26
6.90593e-25
7.22119e-24
1.5278e-27
1.95143e-26
2.36394e-25
2.73141e-24
3.72547e-28
5.27263e-27
7.05601e-26
8.94631e-25
8.14915e-29
1.28653e-27
1.91255e-26
2.66931e-25
1.68412e-29
2.97854e-28
4.98967e-27
7.85976e-26
4.00971e-30
7.65686e-29
1.40447e-27
2.45669e-26
1.24046e-30
2.39898e-29
4.43478e-28
7.7214e-27
3.60213e-12
1.23491e-11
4.13316e-11
1.1003e-10
2.4686e-10
4.02114e-10
5.39248e-10
1.6558e-08
2.1874e-06
2.84563e-05
9.38272e-05
0.00015427
0.000210764
0.000350494
0.000699638
0.00146538
0.00374974
0.00761445
0.0104749
9.83896e-13
3.93385e-12
1.44073e-11
4.54544e-11
1.39716e-10
3.10621e-10
5.19361e-10
6.12662e-10
1.97632e-09
2.05463e-07
4.28545e-06
2.48917e-05
6.8546e-05
0.000122741
0.000191713
0.000336805
0.000671803
0.00152871
0.00210756
2.52574e-13
1.18916e-12
5.08907e-12
1.73531e-11
6.09236e-11
1.69448e-10
3.66464e-10
6.47853e-10
7.59204e-10
9.93531e-10
4.86746e-08
5.14742e-07
8.73165e-07
6.60609e-07
4.31413e-07
3.76219e-07
4.22888e-07
1.17776e-06
8.40695e-07
6.3253e-14
3.47116e-13
1.69761e-12
7.02322e-12
2.12882e-11
6.13058e-11
1.91577e-10
4.33973e-10
8.87024e-10
1.6778e-09
2.11009e-09
2.15881e-09
2.31833e-09
5.19249e-09
7.17686e-09
5.81145e-09
4.08684e-09
2.37951e-09
1.79146e-09
1.49879e-14
9.34916e-14
5.21548e-13
2.51666e-12
9.84951e-12
2.90153e-11
9.85713e-11
2.63661e-10
6.36793e-10
1.4788e-09
2.936e-09
3.54274e-09
3.42594e-09
4.60908e-09
7.63282e-09
5.30822e-09
4.07386e-09
2.14524e-09
7.53838e-10
3.20955e-15
2.23492e-14
1.41526e-13
7.76539e-13
3.52771e-12
1.35342e-11
4.87375e-11
1.62634e-10
5.21216e-10
1.51747e-09
3.65447e-09
4.7787e-09
4.32038e-09
4.57305e-09
5.95132e-09
9.28932e-09
8.9339e-09
5.27792e-09
7.87688e-10
5.91567e-16
4.56479e-15
3.26271e-14
2.01987e-13
1.06493e-12
5.16775e-12
2.44472e-11
1.14592e-10
4.78285e-10
1.69137e-09
4.55805e-09
6.74442e-09
6.65546e-09
5.18155e-09
4.86594e-09
8.54979e-09
7.90382e-09
5.43163e-09
3.74876e-10
9.18374e-17
7.78712e-16
6.20071e-15
4.32789e-14
2.71893e-13
1.74751e-12
1.18474e-11
7.46222e-11
4.22231e-10
1.89287e-09
5.82311e-09
1.01778e-08
9.0434e-09
5.40372e-09
4.87639e-09
8.6553e-09
6.12983e-09
3.1117e-09
1.28514e-10
1.18485e-17
1.09398e-16
9.54773e-16
7.52597e-15
5.70229e-14
4.90294e-13
4.7546e-12
4.29795e-11
3.67188e-10
2.18019e-09
7.26109e-09
1.43171e-08
1.07726e-08
5.39745e-09
7.06819e-09
8.36295e-09
2.5984e-09
1.16532e-09
3.81986e-11
1.27435e-18
1.26217e-17
1.18311e-16
1.03138e-15
9.08535e-15
1.00129e-13
1.43135e-12
2.18749e-11
3.38804e-10
2.72555e-09
8.66287e-09
1.41098e-08
1.23969e-08
7.79167e-09
8.22061e-09
3.09419e-09
5.08442e-10
1.1795e-10
1.22149e-11
1.18568e-19
1.22495e-18
1.20518e-17
1.13749e-16
1.1615e-15
1.67816e-14
3.792e-13
1.01274e-11
2.535e-10
2.16654e-09
7.59354e-09
1.29286e-08
1.34483e-08
1.16931e-08
5.87473e-09
5.35285e-10
9.48789e-11
1.48504e-11
8.37064e-12
1.16723e-20
1.19029e-19
1.16234e-18
1.13343e-17
1.29013e-16
2.28926e-15
6.8413e-14
2.25045e-12
5.857e-11
6.74867e-10
3.57994e-09
9.36636e-09
1.25883e-08
7.40937e-09
1.80247e-09
2.49666e-10
2.25262e-11
5.45489e-12
6.91007e-12
2.40506e-21
2.32028e-20
2.07601e-19
1.79618e-18
1.75435e-17
2.67938e-16
6.77019e-15
2.17114e-13
6.47441e-12
1.16832e-10
9.54808e-10
4.29133e-09
6.7813e-09
3.31022e-09
5.27671e-10
1.08026e-10
7.952e-12
3.39358e-12
5.93893e-12
1.16799e-21
1.21097e-20
1.12787e-19
9.43322e-19
7.27506e-18
5.87684e-17
7.18608e-16
1.78132e-14
5.94956e-13
1.45884e-11
2.10905e-10
1.12662e-09
3.06055e-09
1.16823e-09
3.54096e-10
4.17794e-11
5.70467e-12
2.40837e-12
5.02006e-12
7.23139e-22
8.51367e-21
8.95352e-20
8.32637e-19
6.81915e-18
4.90081e-17
3.20495e-16
2.6342e-15
5.29565e-14
1.45178e-12
3.03375e-11
3.05159e-10
7.2925e-10
3.49193e-10
2.93709e-10
4.15147e-11
7.60212e-12
2.18599e-12
4.09854e-12
4.5803e-22
6.18244e-21
7.45649e-20
7.96534e-19
7.47181e-18
6.06401e-17
4.18588e-16
2.46122e-15
1.42033e-14
1.58226e-13
3.48441e-12
2.76247e-11
1.22228e-10
1.20011e-10
2.19912e-10
7.50432e-11
1.23174e-11
2.47448e-12
3.24028e-12
2.78465e-22
4.33358e-21
6.05885e-20
7.55746e-19
8.33746e-18
7.98963e-17
6.4802e-16
4.33532e-15
2.36136e-14
1.10113e-13
6.29655e-13
3.83895e-12
1.61254e-11
4.89706e-11
1.54448e-10
8.1375e-11
1.72887e-11
3.31709e-12
2.50163e-12
1.56328e-22
2.80875e-21
4.58753e-20
6.82047e-19
9.20612e-18
1.10893e-16
1.15563e-15
1.00468e-14
7.03554e-14
3.86113e-13
1.60295e-12
4.67249e-12
1.22476e-11
4.10602e-11
1.14167e-10
6.87195e-11
1.67421e-11
4.33959e-12
2.08413e-12
7.56702e-23
1.51926e-21
2.75046e-20
4.49648e-19
6.61528e-18
8.62112e-17
9.71164e-16
9.18841e-15
7.07748e-14
4.25512e-13
1.87678e-12
5.90182e-12
1.42395e-11
4.11188e-11
7.96964e-11
4.67198e-11
1.11746e-11
4.09195e-12
1.7427e-12
3.10819e-23
6.75065e-22
1.29267e-20
2.18401e-19
3.25223e-18
4.23526e-17
4.75651e-16
4.51864e-15
3.55147e-14
2.25187e-13
1.09153e-12
4.03154e-12
1.21149e-11
3.63307e-11
3.67275e-11
1.74391e-11
7.56828e-12
2.79088e-12
1.28908e-12
1.09421e-23
2.52724e-22
5.00997e-21
8.5142e-20
1.24223e-18
1.55314e-17
1.65526e-16
1.48791e-15
1.11399e-14
6.86641e-14
3.36186e-13
1.42156e-12
6.29401e-12
1.84125e-11
1.48394e-11
7.134e-12
3.09389e-12
1.19455e-12
8.25008e-13
3.52716e-24
8.69848e-23
1.7931e-21
3.08285e-20
4.41554e-19
5.26707e-18
5.22747e-17
4.30489e-16
2.94727e-15
1.6785e-14
7.87335e-14
3.4718e-13
1.64023e-12
3.66407e-12
2.2144e-12
1.12049e-12
5.89164e-13
3.25244e-13
5.24508e-13
1.16887e-24
3.16038e-23
6.89244e-22
1.21505e-20
1.73361e-19
2.00186e-18
1.86907e-17
1.40655e-16
8.58113e-16
4.22493e-15
1.72474e-14
6.13034e-14
2.10861e-13
2.90591e-13
2.15852e-13
1.24901e-13
1.18751e-13
1.16119e-13
3.44656e-13
4.0875e-25
1.28594e-23
3.26425e-22
6.55847e-21
1.03333e-19
1.27308e-18
1.22253e-17
9.13021e-17
5.30979e-16
2.41263e-15
8.44735e-15
2.20516e-14
5.00447e-14
5.75079e-14
6.07837e-14
3.05256e-14
4.39694e-14
4.73851e-14
1.82455e-13
1.23579e-25
3.88486e-24
1.0163e-22
2.16028e-21
3.68629e-20
5.02804e-19
5.44784e-18
4.63176e-17
3.02405e-16
1.46609e-15
5.11739e-15
1.18417e-14
2.23277e-14
1.45458e-14
1.53293e-14
5.4627e-15
1.04097e-14
1.14082e-14
5.72302e-14
)
;

boundaryField
{
    leftWall
    {
        type            zeroGradient;
    }
    rightWall
    {
        type            zeroGradient;
    }
    lowerWall
    {
        type            zeroGradient;
    }
    atmosphere
    {
        type            inletOutlet;
        inletValue      uniform 0;
        value           nonuniform List<scalar> 
23
(
1.24046e-30
2.39898e-29
4.43478e-28
7.7214e-27
1.23579e-25
3.88486e-24
1.0163e-22
2.16028e-21
3.68629e-20
5.02804e-19
5.44784e-18
4.63176e-17
0
0
0
0
0
0
0
0
0
0
0
)
;
    }
    defaultFaces
    {
        type            empty;
    }
    procBoundary3to1
    {
        type            processor;
        value           nonuniform List<scalar> 
23
(
3.90779e-13
9.49071e-13
2.23095e-12
5.09386e-12
1.15842e-11
3.84284e-11
1.05241e-10
2.16746e-10
3.37526e-10
4.03572e-10
1.39468e-08
2.65839e-06
3.6314e-05
0.000107271
0.000136846
0.000144512
0.00018001
0.000267523
0.000452507
0.000785471
0.00203727
0.00573573
0.0109361
)
;
    }
    procBoundary3to2
    {
        type            processor;
        value           nonuniform List<scalar> 
25
(
2.06334e-14
3.66421e-15
5.20591e-16
6.15767e-17
6.39904e-18
6.29276e-19
6.05181e-20
5.61946e-21
4.90564e-22
4.14681e-23
4.05846e-24
6.54105e-25
1.77867e-25
6.03312e-26
2.16785e-26
7.7312e-27
2.62889e-27
8.24764e-28
2.3173e-28
5.74559e-29
1.24877e-29
2.42471e-30
4.47528e-31
9.92003e-32
3.00617e-32
)
;
    }
}


// ************************************************************************* //
