/*--------------------------------*- C++ -*----------------------------------*\
| =========                 |                                                 |
| \\      /  F ield         | OpenFOAM: The Open Source CFD Toolbox           |
|  \\    /   O peration     | Version:  2.4.0                                 |
|   \\  /    A nd           | Web:      www.OpenFOAM.org                      |
|    \\/     M anipulation  |                                                 |
\*---------------------------------------------------------------------------*/
FoamFile
{
    version     2.0;
    format      ascii;
    class       volScalarField;
    location    "0.7";
    object      alpha.water;
}
// * * * * * * * * * * * * * * * * * * * * * * * * * * * * * * * * * * * * * //

dimensions      [0 0 0 0 0 0 0];

internalField   nonuniform List<scalar> 
575
(
4.36863e-14
1.10039e-13
2.54162e-13
5.11111e-13
5.97356e-15
1.53538e-14
3.71356e-14
8.03051e-14
6.63662e-16
1.75714e-15
4.53453e-15
1.08909e-14
6.3269e-17
1.78812e-16
5.2427e-16
1.53861e-15
5.67918e-18
1.85424e-17
6.87521e-17
2.68395e-16
5.61001e-19
2.26862e-18
1.08838e-17
5.37941e-17
6.42321e-20
3.09782e-19
1.76586e-18
1.01265e-17
7.74053e-21
4.07637e-20
2.57227e-19
1.63043e-18
9.04981e-22
4.79946e-21
3.20394e-20
2.18406e-19
1.06774e-22
5.35187e-22
3.54427e-21
2.49226e-20
1.55048e-23
7.42308e-23
4.40716e-22
2.86726e-21
3.52962e-24
1.82665e-23
9.90416e-23
5.45645e-22
1.1876e-24
7.06239e-24
4.03133e-23
2.19719e-22
4.75139e-25
3.19352e-24
2.01532e-23
1.19903e-22
1.99207e-25
1.49699e-24
1.05286e-23
6.97751e-23
8.23046e-26
6.89721e-25
5.42134e-24
4.02801e-23
3.21649e-26
3.00348e-25
2.64081e-24
2.20531e-23
1.15104e-26
1.19694e-25
1.17752e-24
1.10642e-23
3.6626e-27
4.23021e-26
4.63422e-25
4.85771e-24
1.02303e-27
1.3096e-26
1.58978e-25
1.84017e-24
2.50048e-28
3.54489e-27
4.75135e-26
6.03224e-25
5.47896e-29
8.66106e-28
1.28906e-26
1.80092e-25
1.13403e-29
2.00774e-28
3.36652e-27
5.30724e-26
2.7052e-30
5.1701e-29
9.49081e-28
1.66137e-26
8.38675e-31
1.62286e-29
3.00167e-28
5.22899e-27
1.2266e-12
3.25974e-12
5.18073e-12
1.12574e-11
5.72367e-11
3.0783e-10
3.62675e-09
6.6641e-06
0.00056817
0.00560234
0.0143683
0.019978
0.0220895
0.0228138
0.0221849
0.0221766
0.0244192
0.0245717
0.0199528
2.0474e-13
5.91138e-13
1.32783e-12
4.10807e-12
1.60519e-11
5.93095e-11
3.13603e-10
1.45499e-08
4.72082e-06
0.000121322
0.0007106
0.00140588
0.00153216
0.00105896
0.000419647
0.000207574
0.000169243
0.000205009
0.000183972
3.12736e-14
1.15416e-13
4.18535e-13
1.74057e-12
6.6049e-12
1.99261e-11
5.36469e-11
8.03629e-10
5.39184e-09
4.05091e-07
3.89718e-06
6.2843e-06
4.40619e-06
1.30919e-06
2.35032e-07
8.80918e-08
7.12635e-08
9.97143e-08
3.7192e-08
5.5854e-15
2.9534e-14
1.5338e-13
7.54992e-13
3.11018e-12
1.03774e-11
2.89111e-11
9.8277e-11
2.53115e-10
1.95534e-09
1.13771e-08
9.65868e-09
1.09011e-08
6.77945e-09
2.80035e-09
1.59407e-09
9.16883e-10
3.26304e-10
3.63403e-11
1.27334e-15
8.77451e-15
5.59122e-14
3.13261e-13
1.4489e-12
5.6027e-12
1.91561e-11
5.53931e-11
1.48523e-10
3.70849e-10
7.57686e-10
2.53624e-09
4.82823e-09
3.59941e-09
1.7965e-09
1.47962e-09
1.36424e-09
5.0981e-10
3.63904e-11
3.06907e-16
2.46737e-15
1.80899e-14
1.14367e-13
6.00949e-13
2.71947e-12
1.09721e-11
3.92592e-11
1.34126e-10
4.07992e-10
9.66995e-10
1.52598e-09
2.69026e-09
2.4097e-09
1.58886e-09
2.54555e-09
2.41722e-09
9.61758e-10
3.59283e-11
6.51959e-17
5.86053e-16
4.84253e-15
3.44481e-14
2.0921e-13
1.15908e-12
6.02193e-12
2.94109e-11
1.28091e-10
4.66094e-10
1.26621e-09
1.72301e-09
2.09861e-09
1.89808e-09
1.29882e-09
2.37373e-09
2.04943e-09
7.42157e-10
1.4229e-11
1.14474e-17
1.1276e-16
1.03138e-15
8.22339e-15
5.86612e-14
4.16396e-13
3.01122e-12
1.9918e-11
1.15702e-10
5.27215e-10
1.61844e-09
2.48419e-09
2.29532e-09
1.46974e-09
1.26176e-09
2.40351e-09
1.3783e-09
1.91129e-10
8.10803e-12
1.63213e-18
1.73402e-17
1.72039e-16
1.52911e-15
1.28541e-14
1.1915e-13
1.22205e-12
1.15661e-11
1.01987e-10
6.0944e-10
2.00868e-09
3.71952e-09
2.55423e-09
1.45006e-09
1.95154e-09
2.15835e-09
2.95155e-10
2.36901e-11
5.96085e-12
1.92734e-19
2.15644e-18
2.2648e-17
2.1955e-16
2.11881e-15
2.50383e-14
3.77077e-13
6.01613e-12
9.50851e-11
7.6032e-10
2.36907e-09
3.72204e-09
2.9444e-09
1.9424e-09
2.27116e-09
6.25398e-10
2.21459e-11
4.1051e-12
5.34018e-12
2.11062e-20
2.34609e-19
2.50039e-18
2.56267e-17
2.82018e-16
4.33122e-15
1.0315e-13
2.86122e-12
7.19295e-11
6.06285e-10
2.06464e-09
3.41549e-09
3.40453e-09
2.79118e-09
1.61953e-09
3.92706e-11
2.67396e-12
3.09711e-12
5.16783e-12
3.34561e-21
3.31166e-20
3.17768e-19
3.0847e-18
3.52905e-17
6.33592e-16
1.94955e-14
7.30624e-13
1.86084e-11
1.98745e-10
1.02408e-09
2.52455e-09
3.19237e-09
2.04045e-09
4.56099e-10
5.2698e-12
2.35221e-12
2.36919e-12
4.91532e-12
1.25645e-21
1.18885e-20
1.03116e-19
8.38819e-19
7.18557e-18
8.99495e-17
2.11479e-15
7.1737e-14
2.18644e-12
3.48217e-11
2.8073e-10
1.21449e-09
1.89714e-09
1.01842e-09
5.10751e-11
1.95401e-12
1.70652e-12
1.7657e-12
4.44985e-12
7.34364e-22
7.65887e-21
7.16463e-20
5.98235e-19
4.50776e-18
3.27711e-17
3.12756e-16
6.60138e-15
2.14457e-13
4.96037e-12
6.20684e-11
3.35373e-10
8.83109e-10
3.35592e-10
4.04621e-12
2.65509e-12
1.38979e-12
1.34481e-12
3.80788e-12
4.72464e-22
5.60539e-21
5.94301e-20
5.57234e-19
4.59631e-18
3.30493e-17
2.09079e-16
1.4247e-15
2.11475e-14
5.25383e-13
9.16585e-12
8.82636e-11
2.22221e-10
5.91087e-11
4.13418e-12
2.26298e-12
1.30961e-12
1.07717e-12
3.09757e-12
3.04313e-22
4.13703e-21
5.02558e-20
5.40159e-19
5.08096e-18
4.1039e-17
2.77871e-16
1.55513e-15
7.76331e-15
6.40679e-14
1.10566e-12
9.78611e-12
3.5613e-11
8.95775e-12
3.94433e-12
2.23338e-12
1.35393e-12
9.29348e-13
2.40678e-12
1.86704e-22
2.91899e-21
4.08825e-20
5.07345e-19
5.49678e-18
5.06885e-17
3.84906e-16
2.3295e-15
1.09856e-14
4.17089e-14
1.86639e-13
1.47943e-12
5.50008e-12
4.11781e-12
2.87588e-12
1.93782e-12
1.32713e-12
8.7263e-13
1.75251e-12
1.05144e-22
1.88782e-21
3.05437e-20
4.42257e-19
5.66248e-18
6.25888e-17
5.77506e-16
4.28155e-15
2.44731e-14
1.03253e-13
3.01391e-13
6.23319e-13
1.69475e-12
2.04472e-12
1.98943e-12
1.6224e-12
1.22366e-12
8.00655e-13
1.23037e-12
5.09624e-23
1.02042e-21
1.826e-20
2.90454e-19
4.06562e-18
4.91029e-17
4.98591e-16
4.12242e-15
2.66199e-14
1.25671e-13
3.92844e-13
7.5069e-13
1.07572e-12
1.36174e-12
1.54643e-12
1.39425e-12
1.05744e-12
6.96466e-13
8.92048e-13
2.09552e-23
4.54134e-22
8.62158e-21
1.4278e-19
2.04944e-18
2.51969e-17
2.61032e-16
2.22829e-15
1.51982e-14
7.89893e-14
2.86792e-13
6.85168e-13
1.0327e-12
1.21334e-12
1.38053e-12
1.16604e-12
8.25099e-13
5.31361e-13
6.70211e-13
7.38279e-24
1.70331e-22
3.3599e-21
5.64149e-20
8.04172e-19
9.67423e-18
9.73844e-17
8.09677e-16
5.46578e-15
2.92861e-14
1.18078e-13
3.61946e-13
8.32974e-13
1.09248e-12
1.14235e-12
8.03686e-13
5.21781e-13
3.37549e-13
5.05419e-13
2.38118e-24
5.87064e-23
1.20738e-21
2.06323e-20
2.91853e-19
3.40541e-18
3.26352e-17
2.5544e-16
1.63011e-15
8.44154e-15
3.48245e-14
1.23708e-13
3.72853e-13
5.70392e-13
4.72797e-13
3.05996e-13
2.17223e-13
1.70467e-13
3.76206e-13
7.89736e-25
2.1356e-23
4.65408e-22
8.18566e-21
1.1621e-19
1.32951e-18
1.22199e-17
8.97369e-17
5.27714e-16
2.46761e-15
9.38133e-15
2.99844e-14
8.52937e-14
1.22528e-13
1.08375e-13
7.06086e-14
7.60145e-14
8.12598e-14
2.55836e-13
2.76612e-25
8.70731e-24
2.21094e-22
4.44169e-21
6.99308e-20
8.60132e-19
8.23491e-18
6.12037e-17
3.53263e-16
1.58823e-15
5.49401e-15
1.42561e-14
3.20205e-14
3.85933e-14
4.15468e-14
2.09223e-14
3.04933e-14
3.41715e-14
1.35847e-13
8.37323e-26
2.63362e-24
6.89294e-23
1.46573e-21
2.50175e-20
3.41273e-19
3.69759e-18
3.14341e-17
2.05188e-16
9.94559e-16
3.47249e-15
8.0501e-15
1.52215e-14
9.96237e-15
1.05263e-14
3.75212e-15
7.22965e-15
8.21967e-15
4.26123e-14
)
;

boundaryField
{
    leftWall
    {
        type            zeroGradient;
    }
    rightWall
    {
        type            zeroGradient;
    }
    lowerWall
    {
        type            zeroGradient;
    }
    atmosphere
    {
        type            inletOutlet;
        inletValue      uniform 0;
        value           nonuniform List<scalar> 
23
(
8.38675e-31
1.62286e-29
3.00167e-28
5.22899e-27
8.37323e-26
2.63362e-24
6.89294e-23
1.46573e-21
2.50175e-20
3.41273e-19
3.69759e-18
3.14341e-17
0
0
0
0
0
0
0
0
0
0
0
)
;
    }
    defaultFaces
    {
        type            empty;
    }
    procBoundary3to1
    {
        type            processor;
        value           nonuniform List<scalar> 
23
(
2.54086e-13
6.28482e-13
1.38211e-12
2.5659e-12
5.86131e-12
1.56639e-11
2.14019e-11
4.17552e-11
4.17695e-10
1.78839e-09
1.96431e-06
0.00053989
0.00887969
0.0303663
0.0455614
0.0540011
0.0701433
0.0827307
0.0954629
0.112323
0.127442
0.130162
0.122957
)
;
    }
    procBoundary3to2
    {
        type            processor;
        value           nonuniform List<scalar> 
25
(
9.80083e-15
1.30951e-15
1.42979e-16
1.34911e-17
1.22951e-18
1.26602e-19
1.53483e-20
1.98476e-21
2.50142e-22
3.04593e-23
3.81318e-24
5.78352e-25
1.27848e-25
3.92643e-26
1.39008e-26
5.00451e-27
1.7217e-27
5.45101e-28
1.54126e-28
3.83777e-29
8.36539e-30
1.62772e-30
3.00979e-31
6.68647e-32
2.03125e-32
)
;
    }
}


// ************************************************************************* //
