/*--------------------------------*- C++ -*----------------------------------*\
| =========                 |                                                 |
| \\      /  F ield         | OpenFOAM: The Open Source CFD Toolbox           |
|  \\    /   O peration     | Version:  2.4.0                                 |
|   \\  /    A nd           | Web:      www.OpenFOAM.org                      |
|    \\/     M anipulation  |                                                 |
\*---------------------------------------------------------------------------*/
FoamFile
{
    version     2.0;
    format      ascii;
    class       volScalarField;
    location    "0.7";
    object      alpha.oil;
}
// * * * * * * * * * * * * * * * * * * * * * * * * * * * * * * * * * * * * * //

dimensions      [0 0 0 0 0 0 0];

internalField   nonuniform List<scalar> 
575
(
8.86558e-10
7.93954e-10
1.30942e-09
1.59089e-09
1.86195e-10
2.56915e-10
3.02027e-10
5.14783e-10
7.37178e-11
8.14319e-11
7.96238e-11
6.65761e-11
4.36223e-11
3.18632e-11
2.93147e-11
2.5366e-11
2.17035e-11
1.3609e-11
1.0839e-11
9.64036e-12
8.84463e-12
5.36503e-12
3.95328e-12
3.41593e-12
3.01011e-12
1.84949e-12
1.31657e-12
1.08591e-12
8.64737e-13
5.47553e-13
3.87104e-13
3.05875e-13
2.14052e-13
1.3966e-13
9.95188e-14
7.67571e-14
4.58252e-14
3.09236e-14
2.24862e-14
1.77366e-14
8.4953e-15
5.99933e-15
4.57887e-15
4.19526e-15
1.38634e-15
1.03991e-15
8.87515e-16
1.18143e-15
2.02002e-16
1.6558e-16
1.7972e-16
4.16857e-16
2.68596e-17
2.58768e-17
4.55834e-17
1.86707e-16
3.39662e-18
4.75907e-18
1.70732e-17
1.03167e-16
4.51075e-19
1.22394e-18
7.55966e-18
5.55824e-17
8.07524e-20
4.61995e-19
3.80699e-18
3.15449e-17
2.26748e-20
2.03937e-19
1.95601e-18
1.7964e-17
7.2835e-21
8.03461e-20
8.61498e-19
8.75385e-18
2.1407e-21
2.68144e-20
3.18561e-19
3.56727e-18
5.45837e-22
7.60983e-21
9.97176e-20
1.22462e-18
1.22444e-22
1.89965e-21
2.75575e-20
3.72001e-19
2.55312e-23
4.43202e-22
7.2565e-21
1.11263e-19
6.13168e-24
1.16008e-22
2.112e-21
3.67881e-20
1.94383e-24
3.76737e-23
6.99397e-22
1.22566e-20
2.89966e-09
4.12838e-09
1.18665e-08
7.90128e-08
1.48977e-07
4.5079e-07
7.37007e-07
0.000359745
0.0303216
0.267891
0.593557
0.683912
0.677397
0.60382
0.519919
0.499172
0.543486
0.632786
0.650421
6.02373e-10
1.511e-09
4.08328e-09
2.10949e-08
5.82573e-08
1.61766e-07
3.69058e-07
9.58794e-07
0.00016218
0.00667528
0.050375
0.103137
0.110568
0.065803
0.0240959
0.0114356
0.00895034
0.0198054
0.0265484
5.17165e-11
3.47457e-10
1.18816e-09
4.94369e-09
1.51128e-08
4.75434e-08
1.45956e-07
4.08238e-07
2.0926e-06
3.80673e-05
0.000142129
0.000232742
0.000237857
6.54894e-05
5.14539e-06
9.53274e-06
8.04171e-05
0.000101608
5.85107e-06
2.2475e-11
3.47517e-11
3.6748e-10
1.15171e-09
3.94013e-09
8.81637e-09
4.32047e-08
1.15186e-07
2.69361e-07
8.62447e-07
1.40628e-06
1.85547e-06
2.31825e-06
2.37293e-06
2.36608e-06
7.38205e-06
4.53863e-05
1.60743e-05
2.5251e-06
1.04004e-11
1.83396e-11
1.12501e-10
4.2362e-10
1.50799e-09
4.31346e-09
1.47453e-08
3.80575e-08
7.62266e-08
1.58298e-07
4.20955e-07
1.24009e-06
1.99931e-06
2.41205e-06
2.4534e-06
6.51305e-06
1.39158e-05
2.05204e-06
2.47695e-06
3.89713e-12
9.20783e-12
3.12909e-11
1.43761e-10
5.59637e-10
2.05465e-09
7.23151e-09
2.05415e-08
5.75764e-08
1.55985e-07
3.5725e-07
8.17275e-07
1.55821e-06
2.13312e-06
2.49014e-06
2.1535e-06
1.61252e-06
1.64373e-06
2.55431e-06
1.21957e-12
3.25895e-12
1.33444e-11
4.3126e-11
1.96063e-10
8.31067e-10
3.4404e-09
1.39048e-08
5.21325e-08
1.7342e-07
4.56625e-07
8.46744e-07
1.47915e-06
2.0759e-06
2.46276e-06
2.14197e-06
1.61193e-06
1.85627e-06
2.77804e-06
3.2253e-13
8.78515e-13
3.97835e-12
1.64254e-11
6.22907e-11
3.13682e-10
1.67713e-09
9.13609e-09
4.58511e-08
1.95306e-07
6.02246e-07
1.04841e-06
1.61876e-06
2.1862e-06
2.50663e-06
2.07702e-06
1.883e-06
2.89853e-05
0.000440842
7.67779e-14
2.13192e-13
1.05237e-12
5.08045e-12
2.40983e-11
1.27338e-10
8.16373e-10
5.53783e-09
4.00505e-08
2.28817e-07
7.78042e-07
1.51501e-06
1.93808e-06
2.42334e-06
3.49174e-06
2.87117e-05
0.000548097
0.00665339
0.0336027
1.97986e-14
7.10885e-14
4.10287e-13
2.25999e-12
1.16557e-11
6.0603e-11
3.71861e-10
3.11904e-09
3.73803e-08
2.95165e-07
9.89016e-07
1.75771e-06
2.18676e-06
2.44892e-06
8.82742e-05
0.00293175
0.0313863
0.150781
0.371324
7.3656e-15
4.23045e-14
2.8831e-13
1.7878e-12
1.00089e-11
5.14583e-11
2.64374e-10
1.93528e-09
2.92295e-08
2.4025e-07
9.17533e-07
1.70737e-06
2.18837e-06
3.02871e-06
0.000477223
0.0176397
0.179363
0.590957
0.890947
3.68572e-15
2.84063e-14
2.15124e-13
1.4575e-12
8.84163e-12
4.80585e-11
2.31651e-10
1.08744e-09
8.18476e-09
6.77252e-08
3.75689e-07
1.10929e-06
1.65272e-06
4.56224e-06
0.000879402
0.0296623
0.270012
0.794685
0.985829
1.93393e-15
1.7742e-14
1.50054e-13
1.12953e-12
7.58006e-12
4.48114e-11
2.18412e-10
6.98501e-10
3.04401e-09
1.94788e-08
9.62113e-08
4.81825e-07
1.05333e-06
6.1421e-06
0.000989724
0.0257248
0.171606
0.575398
0.985829
1.09981e-15
1.16506e-14
1.10682e-13
9.27571e-13
6.81322e-12
4.29499e-11
2.13955e-10
7.0049e-10
2.68324e-09
1.0124e-08
4.245e-08
1.51e-07
5.74015e-07
7.15978e-06
0.000746283
0.00513328
0.0154086
0.107575
0.981979
7.08344e-16
8.60749e-15
9.27118e-14
8.71833e-13
7.08713e-12
4.87158e-11
2.67695e-10
9.95638e-10
3.0626e-09
1.00834e-08
3.22201e-08
1.16689e-07
5.7138e-07
7.89322e-06
0.000311247
0.000103228
2.89459e-05
0.00672297
0.922363
4.26781e-16
5.88256e-15
7.16166e-14
7.58476e-13
6.87785e-12
5.19518e-11
3.07889e-10
1.2304e-09
4.20687e-09
2.0603e-08
3.81995e-08
1.07239e-07
6.6183e-07
1.21282e-05
4.05035e-05
5.67182e-06
2.02126e-06
0.00547876
0.582894
2.64766e-16
4.05619e-15
5.48014e-14
6.45048e-13
6.51328e-12
5.43078e-11
3.40946e-10
1.36375e-09
9.51901e-09
2.86699e-08
8.54845e-08
1.3162e-07
5.86845e-07
8.82066e-06
1.17677e-05
3.15213e-06
2.04067e-06
0.00690718
0.0932048
1.64653e-16
2.79322e-15
4.18135e-14
5.50092e-13
6.29697e-12
6.00949e-11
4.28598e-10
2.02402e-09
1.78998e-08
7.54345e-08
2.35027e-07
6.30207e-07
9.2452e-07
7.06629e-06
6.95453e-06
2.34049e-06
2.10425e-06
0.000512138
0.000763452
8.76063e-17
1.63685e-15
2.67344e-14
3.79525e-13
4.58073e-12
4.38654e-11
3.13754e-10
2.60429e-09
1.98e-08
9.61795e-08
3.13043e-07
1.00893e-06
1.27677e-06
6.13222e-06
4.26621e-06
1.97204e-06
2.06583e-06
1.78067e-06
4.42759e-07
3.86982e-17
7.82383e-16
1.35509e-14
1.99513e-13
2.44674e-12
2.37882e-11
1.83717e-10
1.66057e-09
1.1981e-08
6.14808e-08
2.20308e-07
8.96355e-07
1.48451e-06
3.26406e-06
2.57296e-06
1.64714e-06
9.55434e-07
3.40532e-07
8.22941e-08
1.43083e-17
3.09701e-16
5.62284e-15
8.47472e-14
1.03701e-12
9.67026e-12
6.02334e-11
7.39037e-10
4.70845e-09
2.41827e-08
9.19725e-08
3.11301e-07
1.19497e-06
1.82496e-06
1.88599e-06
1.01773e-06
4.32481e-07
1.23445e-07
7.75581e-08
4.70457e-18
1.09516e-16
2.0966e-15
3.26241e-14
4.01364e-13
3.64744e-12
2.155e-11
2.79547e-10
1.56967e-09
7.51431e-09
2.92138e-08
9.42896e-08
3.39226e-07
7.24113e-07
7.68095e-07
2.92637e-07
7.82096e-08
4.55022e-08
7.38078e-08
1.60374e-18
4.18229e-17
8.74545e-16
1.46261e-14
1.94071e-13
2.02084e-12
1.68402e-11
1.28312e-10
6.9346e-10
3.01384e-09
1.06481e-08
3.37551e-08
9.49334e-08
1.93864e-07
2.27572e-07
7.06507e-08
3.80536e-08
2.90486e-08
4.45711e-08
6.12448e-19
1.93879e-17
4.96181e-16
1.00393e-14
1.58768e-13
1.95679e-12
1.87915e-11
1.40666e-10
8.08234e-10
3.58685e-09
1.2285e-08
3.68837e-08
8.79924e-08
1.23985e-07
6.84149e-08
1.20488e-08
3.92293e-08
2.66735e-08
8.6372e-09
1.97957e-19
6.30583e-18
1.6745e-16
3.61375e-15
6.25578e-14
8.64503e-13
9.47391e-12
8.12562e-11
5.30258e-10
2.52416e-09
8.46917e-09
1.67587e-08
2.05406e-08
1.39279e-09
1.32387e-08
5.46406e-09
1.73441e-08
1.19713e-08
3.09383e-09
)
;

boundaryField
{
    leftWall
    {
        type            zeroGradient;
    }
    rightWall
    {
        type            zeroGradient;
    }
    lowerWall
    {
        type            zeroGradient;
    }
    atmosphere
    {
        type            inletOutlet;
        inletValue      uniform 0;
        value           nonuniform List<scalar> 
23
(
1.94383e-24
3.76737e-23
6.99397e-22
1.22566e-20
1.97957e-19
6.30583e-18
1.6745e-16
3.61375e-15
6.25578e-14
8.64503e-13
9.47391e-12
8.12562e-11
0
0
0
0
0
0
0
0
0
0
0
)
;
    }
    defaultFaces
    {
        type            empty;
    }
    procBoundary3to1
    {
        type            processor;
        value           nonuniform List<scalar> 
23
(
2.0579e-09
2.96546e-09
3.58762e-09
5.17948e-09
7.61108e-09
1.20922e-08
3.8254e-08
2.06354e-07
3.74522e-07
1.01317e-06
0.000165843
0.0282684
0.317995
0.812869
0.925619
0.92579
0.908837
0.887276
0.864318
0.849679
0.844033
0.843859
0.843812
)
;
    }
    procBoundary3to2
    {
        type            processor;
        value           nonuniform List<scalar> 
25
(
6.90262e-10
2.9363e-10
1.53028e-10
9.3318e-11
4.66613e-11
1.79837e-11
5.87265e-12
1.60625e-12
3.84594e-13
7.9798e-14
1.41898e-14
2.17627e-15
2.92527e-16
3.49551e-17
3.77464e-18
3.75382e-19
3.58743e-20
3.73587e-21
5.17817e-22
9.63754e-23
1.94908e-23
3.75165e-24
6.92424e-25
1.53431e-25
4.70987e-26
)
;
    }
}


// ************************************************************************* //
