/*--------------------------------*- C++ -*----------------------------------*\
| =========                 |                                                 |
| \\      /  F ield         | OpenFOAM: The Open Source CFD Toolbox           |
|  \\    /   O peration     | Version:  2.4.0                                 |
|   \\  /    A nd           | Web:      www.OpenFOAM.org                      |
|    \\/     M anipulation  |                                                 |
\*---------------------------------------------------------------------------*/
FoamFile
{
    version     2.0;
    format      ascii;
    class       volScalarField;
    location    "0.7";
    object      p;
}
// * * * * * * * * * * * * * * * * * * * * * * * * * * * * * * * * * * * * * //

dimensions      [1 -1 -2 0 0 0 0];

internalField   nonuniform List<scalar> 
575
(
3.39822
3.37047
3.34056
3.30861
3.23226
3.20774
3.18159
3.15394
3.07158
3.04972
3.02663
3.00238
2.9152
2.89559
2.875
2.85348
2.76248
2.74472
2.72613
2.70679
2.61266
2.59641
2.57948
2.56193
2.46538
2.45042
2.43487
2.41877
2.32023
2.30637
2.29199
2.27713
2.17701
2.1641
2.15074
2.13694
2.03556
2.02349
2.01102
1.99814
1.89572
1.88442
1.87275
1.8607
1.75743
1.74684
1.7359
1.72462
1.62059
1.61069
1.60046
1.58989
1.48515
1.47593
1.4664
1.45654
1.35105
1.34252
1.33368
1.32454
1.21822
1.21039
1.20227
1.19386
1.08658
1.07948
1.07211
1.06446
0.956048
0.949698
0.943105
0.936262
0.826519
0.820951
0.815167
0.809161
0.697875
0.693117
0.688172
0.683036
0.569985
0.566061
0.561982
0.557744
0.442717
0.439644
0.43645
0.433133
0.315911
0.313708
0.311418
0.309038
0.189454
0.188124
0.186742
0.185307
0.063132
0.0626873
0.062226
0.0617466
3.25197
3.16446
3.07404
2.98869
2.91253
2.85333
2.80818
2.70293
2.52185
2.64776
3.14679
3.40947
3.4761
4.41559
5.31712
7.04453
13.2009
38.8786
61.1372
3.10531
3.03134
2.95503
2.88003
2.80665
2.73626
2.65879
2.54228
2.3602
2.35151
2.14274
2.06647
2.15564
2.15982
1.99555
1.74438
1.31872
0.859587
0.813246
2.96
2.896
2.82945
2.7623
2.69445
2.62613
2.55208
2.46509
2.36882
2.29408
2.20414
2.25113
2.3284
2.42868
2.55295
2.75418
3.04628
3.32032
3.6299
2.81601
2.75961
2.70061
2.64034
2.57873
2.51622
2.45154
2.38286
2.31021
2.25115
2.20886
2.23664
2.31376
2.38274
2.43311
2.49499
2.66913
2.86894
3.14191
2.67321
2.62282
2.56997
2.51574
2.46017
2.40383
2.34603
2.28575
2.22853
2.17757
2.14098
2.14882
2.19289
2.27793
2.35882
2.4542
2.58736
2.68659
2.85722
2.53154
2.48599
2.43825
2.38919
2.33892
2.28816
2.23605
2.18389
2.13332
2.08533
2.05214
2.04193
2.10256
2.24827
2.35333
2.46259
2.56762
2.66055
2.76192
2.39096
2.34943
2.30592
2.26118
2.2153
2.16903
2.12134
2.07469
2.02504
1.97142
1.92749
1.88808
1.95813
2.14717
2.31954
2.45027
2.56112
2.64985
2.69041
2.2515
2.21328
2.17325
2.13201
2.08968
2.04683
2.00262
1.9589
1.90938
1.84776
1.78056
1.69673
1.79575
2.0025
2.22405
2.40407
2.55632
2.69145
2.81046
2.11315
2.0777
2.04053
2.00208
1.96254
1.92223
1.88071
1.83842
1.78953
1.72603
1.63744
1.51698
1.62665
1.79962
2.00939
2.19166
2.51919
2.66398
2.57614
1.97593
1.94284
1.90802
1.87182
1.83441
1.79597
1.75637
1.71545
1.6689
1.61292
1.51758
1.41657
1.4634
1.54523
1.64841
1.74617
1.86586
1.10016
0.0937064
1.83991
1.80885
1.77602
1.74166
1.70588
1.66877
1.63025
1.58985
1.54473
1.49633
1.41802
1.33516
1.29478
1.2627
1.20417
1.26573
1.01973
-0.0182705
0.739535
1.70512
1.67588
1.64483
1.61206
1.5776
1.54145
1.50352
1.46348
1.41982
1.37122
1.30545
1.22648
1.12467
0.992832
0.73929
0.665613
0.590832
-0.790002
2.62734
1.57162
1.54411
1.51471
1.48342
1.45016
1.41477
1.37699
1.33622
1.29183
1.24224
1.18097
1.09052
0.954741
0.775389
0.443494
0.10882
0.523778
0.512149
3.01382
1.43946
1.41365
1.3859
1.35611
1.32414
1.28969
1.25238
1.21157
1.16602
1.11269
1.05024
0.956711
0.809723
0.591303
0.282826
-0.326803
0.097468
-0.3122
0.190563
1.30868
1.2846
1.25858
1.23044
1.19995
1.16678
1.13044
1.09013
1.0446
0.991225
0.926285
0.834149
0.690289
0.471767
0.195996
-0.439158
0.08614
-0.500305
-0.178296
1.17926
1.15701
1.13284
1.10656
1.07788
1.04641
1.01169
0.972907
0.928815
0.876949
0.813848
0.727676
0.599616
0.412432
0.219306
-0.302421
0.149596
-0.405543
2.65869
1.05118
1.03087
1.00873
0.98454
0.958006
0.928735
0.896211
0.859713
0.818148
0.769545
0.709937
0.629928
0.522025
0.377082
0.262607
-0.0790133
0.0545078
-0.176965
0.790146
0.924357
0.90612
0.886187
0.864341
0.840309
0.813722
0.784103
0.750721
0.712503
0.667141
0.610569
0.536372
0.447585
0.352204
0.297024
0.100868
0.0850777
0.0989115
0.293248
0.798705
0.782662
0.7651
0.745824
0.724598
0.701113
0.67493
0.645464
0.612531
0.573164
0.526054
0.467289
0.398097
0.351457
0.333607
0.244499
0.208467
0.293494
0.529283
0.674091
0.660355
0.64531
0.628793
0.610625
0.590589
0.568437
0.543889
0.516179
0.484691
0.449944
0.411798
0.378107
0.364148
0.360174
0.33661
0.305139
0.361568
0.446638
0.550362
0.539025
0.526607
0.512985
0.498027
0.481589
0.463513
0.443691
0.421989
0.398101
0.374707
0.352811
0.342857
0.353728
0.369418
0.370359
0.339321
0.362068
0.405509
0.427356
0.418488
0.408783
0.398149
0.386507
0.373773
0.359905
0.344885
0.328813
0.311291
0.296524
0.283892
0.284212
0.300095
0.326775
0.329348
0.298733
0.29775
0.319006
0.304888
0.298531
0.291586
0.283976
0.275669
0.266616
0.256809
0.24623
0.235707
0.222566
0.213809
0.204439
0.206401
0.214314
0.226848
0.223536
0.205233
0.199426
0.211647
0.182809
0.178985
0.174808
0.170239
0.165251
0.159813
0.153894
0.147595
0.140894
0.132347
0.127387
0.117418
0.115052
0.108121
0.103916
0.10391
0.0991105
0.0971579
0.112053
0.060912
0.0596338
0.0582433
0.0567375
0.0551224
0.0534039
0.051573
0.0493372
0.0461103
0.0415326
0.0378226
0.0250294
0.0153925
-0.00539631
-0.0171456
-0.0211775
-0.0199242
-0.0136014
0.010406
)
;

boundaryField
{
    leftWall
    {
        type            fixedFluxPressure;
        gradient        nonuniform 0();
        value           nonuniform 0();
    }
    rightWall
    {
        type            fixedFluxPressure;
        gradient        uniform 0;
        value           nonuniform List<scalar> 
25
(
61.1372
0.813246
3.6299
3.14191
2.85722
2.76192
2.69041
2.81046
2.57614
0.0937064
0.739535
2.62734
3.01382
0.190563
-0.178296
2.65869
0.790146
0.293248
0.529283
0.446638
0.405509
0.319006
0.211647
0.112053
0.010406
)
;
    }
    lowerWall
    {
        type            fixedFluxPressure;
        gradient        nonuniform 0();
        value           nonuniform 0();
    }
    atmosphere
    {
        type            totalPressure;
        U               U.air;
        phi             phi.air;
        rho             rho;
        psi             none;
        gamma           1;
        p0              uniform 0;
        value           nonuniform List<scalar> 
23
(
0
0
0
0
0
0
0
0
0
0
0
-0.000365675
-0.000647149
-0.00159941
-0.00315941
-0.0106532
-0.0182766
-0.0478154
-0.069676
-0.0911604
-0.103828
-0.103983
-0.0761911
)
;
    }
    defaultFaces
    {
        type            empty;
    }
    procBoundary3to1
    {
        type            processor;
        value           nonuniform List<scalar> 
23
(
3.57112
3.53956
3.50517
3.46798
3.40133
3.29481
3.18045
3.07437
2.99899
2.99965
3.00774
2.88096
2.51262
2.2583
6.93602
5.17197
5.90325
8.34644
10.1461
18.7038
40.1223
85.0584
114.092
)
;
    }
    procBoundary3to2
    {
        type            processor;
        value           nonuniform List<scalar> 
25
(
3.43792
3.26776
3.10355
2.94415
2.78882
2.63685
2.48774
2.34102
2.19642
2.05371
1.91274
1.77336
1.63548
1.49901
1.36387
1.22997
1.09724
0.965574
0.834869
0.70501
0.57587
0.447325
0.319219
0.191447
0.0637975
)
;
    }
}


// ************************************************************************* //
