/*--------------------------------*- C++ -*----------------------------------*\
| =========                 |                                                 |
| \\      /  F ield         | OpenFOAM: The Open Source CFD Toolbox           |
|  \\    /   O peration     | Version:  2.4.0                                 |
|   \\  /    A nd           | Web:      www.OpenFOAM.org                      |
|    \\/     M anipulation  |                                                 |
\*---------------------------------------------------------------------------*/
FoamFile
{
    version     2.0;
    format      ascii;
    class       surfaceScalarField;
    location    "0.7";
    object      phi;
}
// * * * * * * * * * * * * * * * * * * * * * * * * * * * * * * * * * * * * * //

dimensions      [0 3 -1 0 0 0 0];

internalField   nonuniform List<scalar> 
1102
(
1.31331e-05
2.59958e-05
1.67415e-05
2.63664e-05
2.04048e-05
2.68333e-05
2.71531e-05
2.42126e-05
1.56319e-05
2.31065e-05
1.86797e-05
2.33186e-05
2.18067e-05
2.37063e-05
2.39294e-05
2.50304e-05
1.7713e-05
2.06761e-05
2.01828e-05
2.08488e-05
2.28108e-05
2.10782e-05
2.11919e-05
2.55483e-05
1.76582e-05
1.85285e-05
1.98722e-05
1.86347e-05
2.22499e-05
1.87005e-05
1.87131e-05
2.47286e-05
1.81704e-05
1.67164e-05
2.0093e-05
1.67121e-05
2.22135e-05
1.65801e-05
1.64917e-05
2.44349e-05
1.766e-05
1.50585e-05
1.9389e-05
1.49831e-05
2.12228e-05
1.47462e-05
1.4547e-05
2.31674e-05
1.74592e-05
1.35771e-05
1.89455e-05
1.34967e-05
2.04291e-05
1.32625e-05
1.29787e-05
2.19975e-05
1.65002e-05
1.23567e-05
1.77961e-05
1.22008e-05
1.90876e-05
1.19709e-05
1.16593e-05
2.0407e-05
1.55005e-05
1.13548e-05
1.65707e-05
1.11305e-05
1.76781e-05
1.08636e-05
1.05407e-05
1.87966e-05
1.44845e-05
1.0489e-05
1.53629e-05
1.02521e-05
1.62474e-05
9.97897e-06
9.67478e-06
1.71133e-05
1.32698e-05
9.81686e-06
1.39771e-05
9.54477e-06
1.46848e-05
9.27129e-06
8.96254e-06
1.5397e-05
1.21225e-05
9.24302e-06
1.26913e-05
8.97596e-06
1.32661e-05
8.69644e-06
8.40064e-06
1.3828e-05
1.09521e-05
8.78496e-06
1.14105e-05
8.51755e-06
1.18661e-05
8.24082e-06
7.95437e-06
1.23123e-05
9.8168e-06
8.40195e-06
1.0191e-05
8.14337e-06
1.05577e-05
7.87401e-06
7.59647e-06
1.09156e-05
8.7009e-06
8.08741e-06
9.00548e-06
7.83878e-06
9.30331e-06
7.57615e-06
7.30914e-06
9.59063e-06
7.61589e-06
7.82772e-06
7.86699e-06
7.58766e-06
8.10994e-06
7.33318e-06
7.07101e-06
8.34806e-06
6.55034e-06
7.61674e-06
6.75521e-06
7.38279e-06
6.95266e-06
7.13572e-06
6.8784e-06
7.14525e-06
5.50081e-06
7.45198e-06
5.66326e-06
7.22032e-06
5.8194e-06
6.97956e-06
6.72544e-06
5.97236e-06
4.46211e-06
7.331e-06
4.57825e-06
7.10418e-06
4.6954e-06
6.86239e-06
6.61349e-06
4.80734e-06
3.43043e-06
7.25402e-06
3.50455e-06
7.03005e-06
3.57461e-06
6.79233e-06
6.54268e-06
3.64541e-06
2.41168e-06
7.22895e-06
2.43982e-06
7.00191e-06
2.46538e-06
6.76675e-06
6.51883e-06
2.48922e-06
1.42406e-06
7.26315e-06
1.39044e-06
7.03553e-06
1.35991e-06
6.79727e-06
6.5461e-06
1.33264e-06
4.8868e-07
7.2796e-06
4.36167e-07
7.08804e-06
3.58284e-07
6.87516e-06
6.64394e-06
2.6045e-07
-6.67675e-07
7.20517e-06
-6.36712e-07
7.05709e-06
-6.46621e-07
6.88507e-06
6.69231e-06
-6.94986e-07
-2.43279e-06
-2.32174e-06
-2.24156e-06
-2.19466e-06
3.39137e-05
6.47197e-05
4.41292e-05
6.40276e-05
5.54062e-05
6.22785e-05
6.7655e-05
5.82953e-05
7.60264e-05
5.24808e-05
7.31325e-05
4.37359e-05
5.93783e-05
3.85367e-05
-2.13255e-05
3.34692e-05
-0.000120916
-3.83486e-05
-0.000170279
-8.98593e-05
-0.000161128
-0.000131962
-0.000154304
-0.000120079
-0.000145968
-0.000117834
-0.000134805
-0.000116664
-0.000122385
-0.000110828
-0.00010718
-0.000105081
-8.8316e-05
-0.000100103
-5.22452e-05
-0.000124439
-0.000158682
3.33285e-05
5.64216e-05
4.22328e-05
5.51234e-05
5.20448e-05
5.24665e-05
6.17928e-05
4.85473e-05
7.10065e-05
4.32671e-05
7.80298e-05
3.67125e-05
8.60353e-05
3.05313e-05
9.62535e-05
2.3251e-05
4.48368e-05
1.30681e-05
-3.00848e-05
-1.49377e-05
-9.89142e-05
-6.31322e-05
-0.000117453
-0.00010154
-0.000108032
-0.000127255
-8.13201e-05
-0.000143376
-5.67548e-05
-0.000135393
-5.52773e-05
-0.000106558
-6.012e-05
-9.52607e-05
-2.83887e-05
-0.00015617
-0.000187071
3.26969e-05
4.9273e-05
4.03468e-05
4.74735e-05
4.85969e-05
4.42163e-05
5.6884e-05
4.02603e-05
6.5002e-05
3.51491e-05
7.36026e-05
2.81119e-05
8.26858e-05
2.1448e-05
9.51584e-05
1.07784e-05
0.000109326
-1.0997e-06
0.000107811
-1.34226e-05
6.55428e-05
-2.08639e-05
-3.8885e-06
-3.21089e-05
-6.95111e-05
-6.16324e-05
-9.40067e-05
-0.000118881
-0.0001033
-0.0001261
-8.76536e-05
-0.000122204
-4.93685e-05
-0.000133546
-2.35635e-05
-0.000181975
-0.000210634
3.10649e-05
4.29367e-05
3.80761e-05
4.04623e-05
4.51454e-05
3.7147e-05
5.22117e-05
3.31941e-05
5.95226e-05
2.78381e-05
6.71689e-05
2.04655e-05
7.50495e-05
1.35675e-05
8.42059e-05
1.62193e-06
8.95404e-05
-6.43416e-06
9.87641e-05
-2.26463e-05
0.000107082
-2.91814e-05
9.12143e-05
-1.62415e-05
2.89442e-05
6.37717e-07
-5.25385e-05
-3.73979e-05
-8.67024e-05
-9.19362e-05
-7.76209e-05
-0.000131286
-6.24484e-05
-0.000148718
-5.37965e-05
-0.000190627
-0.000264431
2.98159e-05
3.75557e-05
3.55931e-05
3.46851e-05
4.14421e-05
3.1298e-05
4.74378e-05
2.71984e-05
5.38022e-05
2.14737e-05
6.05344e-05
1.37332e-05
6.80439e-05
6.05797e-06
7.44204e-05
-4.75459e-06
8.51491e-05
-1.71629e-05
9.53837e-05
-3.28809e-05
0.000102216
-3.60138e-05
0.000104002
-1.80277e-05
7.62822e-05
2.83579e-05
1.14942e-05
2.73902e-05
-3.86069e-05
-4.18351e-05
-3.93847e-05
-0.000130508
-2.63775e-05
-0.000161725
-2.09729e-05
-0.000196032
-0.000285404
2.78783e-05
3.28449e-05
3.27219e-05
2.98415e-05
3.75766e-05
2.64433e-05
4.26528e-05
2.21223e-05
4.80344e-05
1.60921e-05
5.32815e-05
8.48609e-06
5.95596e-05
-2.20116e-07
6.5562e-05
-1.0757e-05
7.51699e-05
-2.67707e-05
8.60328e-05
-4.37438e-05
9.33123e-05
-4.32933e-05
9.47722e-05
-1.94876e-05
7.51683e-05
4.79619e-05
5.00279e-05
5.25305e-05
3.66886e-06
4.524e-06
-1.42082e-05
-0.000112631
-8.20466e-06
-0.000167729
-5.83044e-06
-0.000198406
-0.000291234
2.58199e-05
2.90224e-05
2.96961e-05
2.59653e-05
3.36468e-05
2.24926e-05
3.77318e-05
1.80373e-05
4.18461e-05
1.19778e-05
4.56982e-05
4.634e-06
5.03165e-05
-4.8385e-06
5.52939e-05
-1.57344e-05
6.13239e-05
-3.28007e-05
6.97687e-05
-5.21886e-05
7.78183e-05
-5.13429e-05
7.29442e-05
-1.46135e-05
5.77571e-05
6.3149e-05
3.90743e-05
7.12133e-05
1.17516e-05
3.18467e-05
-5.95293e-06
-9.49262e-05
-8.89739e-06
-0.000164785
-3.14469e-06
-0.000204159
-0.000294379
2.3583e-05
2.58463e-05
2.66727e-05
2.28757e-05
2.97826e-05
1.93827e-05
3.27895e-05
1.50304e-05
3.56004e-05
9.16698e-06
3.80367e-05
2.19761e-06
4.03957e-05
-7.19743e-06
4.26386e-05
-1.79774e-05
4.54954e-05
-3.56574e-05
4.96017e-05
-5.62949e-05
5.68195e-05
-5.85607e-05
4.34831e-05
-1.27712e-06
2.45581e-05
8.2074e-05
4.91957e-06
9.08519e-05
-1.06363e-05
4.74026e-05
-2.67852e-05
-7.87772e-05
-3.1948e-05
-0.000159622
-1.10398e-05
-0.000225067
-0.000305419
2.13416e-05
2.33013e-05
2.37489e-05
2.04685e-05
2.60392e-05
1.70924e-05
2.8061e-05
1.30086e-05
2.95613e-05
7.66662e-06
3.04896e-05
1.2693e-06
3.03305e-05
-7.03836e-06
2.95745e-05
-1.72213e-05
2.69681e-05
-3.30511e-05
2.17772e-05
-5.1104e-05
1.46419e-05
-5.14253e-05
-4.97649e-06
1.83413e-05
-2.04561e-05
9.75536e-05
-3.37596e-05
0.000104155
-4.41026e-05
5.77457e-05
-6.94962e-05
-5.33836e-05
-5.4467e-05
-0.000174651
-3.825e-06
-0.000275709
-0.000309244
1.9084e-05
2.13306e-05
2.09307e-05
1.86218e-05
2.25293e-05
1.54938e-05
2.37315e-05
1.18065e-05
2.4208e-05
7.19013e-06
2.36692e-05
1.80813e-06
2.14174e-05
-4.78666e-06
1.70452e-05
-1.28491e-05
7.5705e-06
-2.35764e-05
-8.61284e-06
-3.49206e-05
-2.79452e-05
-3.20929e-05
-4.45791e-05
3.49752e-05
-4.72925e-05
0.000100267
-5.71789e-05
0.000114042
-7.17429e-05
7.23097e-05
-7.78081e-05
-4.73184e-05
-1.23892e-05
-0.00024007
1.22652e-05
-0.000300363
-0.000296979
1.7021e-05
1.97065e-05
1.83608e-05
1.7282e-05
1.94119e-05
1.44428e-05
1.99757e-05
1.12427e-05
1.97355e-05
7.43035e-06
1.83123e-05
3.23131e-06
1.49897e-05
-1.46409e-06
8.78112e-06
-6.64048e-06
-2.76259e-06
-1.20327e-05
-2.28376e-05
-1.48456e-05
-4.64066e-05
-8.52386e-06
-5.7097e-05
4.56656e-05
-5.57997e-05
9.89696e-05
-5.90689e-05
0.000117311
-7.76596e-05
9.09004e-05
-4.16463e-05
-8.33318e-05
-1.6501e-06
-0.000280066
-3.54915e-07
-0.000301659
-0.000297334
1.50519e-05
1.84825e-05
1.60535e-05
1.62804e-05
1.67287e-05
1.37676e-05
1.69127e-05
1.10588e-05
1.62941e-05
8.04893e-06
1.45416e-05
4.98382e-06
1.1011e-05
2.06651e-06
4.80514e-06
-4.34666e-07
-5.73027e-06
-1.49729e-06
-2.15408e-05
9.64925e-07
-4.20299e-05
1.19652e-05
-4.81678e-05
5.18035e-05
-4.54956e-05
9.62974e-05
-4.44038e-05
0.000116219
-5.42846e-05
0.000100781
-1.91288e-05
-0.000118488
-2.3727e-06
-0.000296822
-1.73073e-06
-0.000302301
-0.000299064
1.3292e-05
1.75028e-05
1.40353e-05
1.55372e-05
1.44895e-05
1.33134e-05
1.44972e-05
1.10511e-05
1.38614e-05
8.68478e-06
1.23257e-05
6.51946e-06
9.47511e-06
4.91714e-06
4.74775e-06
4.2927e-06
-2.46305e-06
5.71351e-06
-1.31441e-05
1.1646e-05
-2.61327e-05
2.49538e-05
-2.98081e-05
5.54788e-05
-2.53015e-05
9.17908e-05
-2.25861e-05
0.000113504
-2.27847e-05
0.00010098
-1.92932e-05
-0.000121979
-1.34087e-05
-0.000302707
-5.35251e-07
-0.000315174
-0.0002996
1.16903e-05
1.6728e-05
1.22896e-05
1.49379e-05
1.26233e-05
1.29797e-05
1.26523e-05
1.10221e-05
1.2194e-05
9.14304e-06
1.11522e-05
7.5613e-06
9.34728e-06
6.72206e-06
6.586e-06
7.05398e-06
2.82879e-06
9.47072e-06
-1.6717e-06
1.61465e-05
-5.29878e-06
2.85808e-05
-2.96079e-06
5.31408e-05
4.51061e-06
8.43194e-05
2.72586e-06
0.000115289
8.3607e-07
0.000102869
-2.0295e-05
-0.000100848
-1.63809e-05
-0.000306621
3.13977e-06
-0.000334695
-0.00029646
1.02297e-05
1.6089e-05
1.07288e-05
1.44388e-05
1.10629e-05
1.26456e-05
1.11851e-05
1.08998e-05
1.10537e-05
9.27447e-06
1.06357e-05
7.9793e-06
1.00128e-05
7.34497e-06
9.28908e-06
7.77771e-06
8.71256e-06
1.00472e-05
9.12371e-06
1.57353e-05
1.17249e-05
2.59797e-05
1.86885e-05
4.61772e-05
2.71563e-05
7.58515e-05
3.34648e-05
0.00010898
4.42735e-05
9.20607e-05
1.49264e-05
-7.15007e-05
-1.11952e-05
-0.000280499
2.76042e-06
-0.00034865
-0.000293699
8.87555e-06
1.55615e-05
9.32311e-06
1.39912e-05
9.66807e-06
1.23007e-05
9.92424e-06
1.06437e-05
1.00993e-05
9.09941e-06
1.02944e-05
7.78424e-06
1.06593e-05
6.98007e-06
1.15052e-05
6.93179e-06
1.34284e-05
8.12404e-06
1.78614e-05
1.13024e-05
2.58653e-05
1.79758e-05
3.96092e-05
3.24333e-05
5.50777e-05
6.03829e-05
6.50904e-05
9.89675e-05
7.5308e-05
8.18431e-05
5.63142e-05
-5.25069e-05
-2.52884e-06
-0.000221656
-7.008e-06
-0.000344171
-0.000300707
7.57868e-06
1.5128e-05
7.98513e-06
1.35848e-05
8.34351e-06
1.19423e-05
8.70838e-06
1.02788e-05
9.14192e-06
8.66588e-06
9.78794e-06
7.13822e-06
1.09587e-05
5.80932e-06
1.31747e-05
4.7158e-06
1.72908e-05
4.00797e-06
2.49842e-05
3.60889e-06
3.79875e-05
4.97247e-06
5.53137e-05
1.51071e-05
7.05614e-05
4.51352e-05
7.94084e-05
9.01204e-05
8.5547e-05
7.57045e-05
7.37318e-05
-4.06917e-05
2.44646e-05
-0.000172389
-1.19449e-05
-0.000307762
-0.000312652
6.32208e-06
1.47783e-05
6.66641e-06
1.32405e-05
7.00972e-06
1.1599e-05
7.40248e-06
9.88607e-06
7.92701e-06
8.14135e-06
8.71377e-06
6.35148e-06
1.00247e-05
4.49839e-06
1.22948e-05
2.44573e-06
1.63465e-05
-4.3746e-08
2.35597e-05
-3.60432e-06
3.53728e-05
-6.84059e-06
5.0183e-05
2.96846e-07
6.43509e-05
3.09672e-05
7.68347e-05
7.76367e-05
8.68352e-05
6.5704e-05
8.66987e-05
-4.05552e-05
8.15683e-05
-0.000167258
4.60181e-05
-0.000272212
-0.000266634
5.06887e-06
1.45168e-05
5.33943e-06
1.29699e-05
5.6328e-06
1.13056e-05
5.99214e-06
9.52673e-06
6.48424e-06
7.64926e-06
7.21608e-06
5.61964e-06
8.32405e-06
3.39043e-06
9.93694e-06
8.32842e-07
1.21902e-05
-2.29701e-06
1.51057e-05
-6.51984e-06
1.98229e-05
-1.15578e-05
2.86909e-05
-8.57123e-06
4.35599e-05
1.60983e-05
6.41434e-05
5.70532e-05
8.32793e-05
4.6568e-05
9.42075e-05
-5.14834e-05
9.13004e-05
-0.000164351
4.613e-05
-0.000227041
-0.000220504
3.80788e-06
1.43543e-05
3.98464e-06
1.27932e-05
4.19056e-06
1.10997e-05
4.46014e-06
9.25715e-06
4.83579e-06
7.27362e-06
5.36474e-06
5.0907e-06
6.05316e-06
2.70202e-06
6.86519e-06
2.0811e-08
7.71055e-06
-3.14236e-06
7.77659e-06
-6.58588e-06
7.25311e-06
-1.10343e-05
9.412e-06
-1.07301e-05
2.15272e-05
3.98309e-06
5.0649e-05
2.79313e-05
8.33883e-05
1.38287e-05
9.98682e-05
-6.79633e-05
8.61886e-05
-0.000150672
4.53803e-05
-0.000186233
-0.000175124
2.54225e-06
1.43013e-05
2.60975e-06
1.27257e-05
2.70741e-06
1.10021e-05
2.86495e-06
9.09963e-06
3.11377e-06
7.0248e-06
3.48131e-06
4.72318e-06
4.01231e-06
2.17102e-06
4.62797e-06
-5.94845e-07
5.27114e-06
-3.78554e-06
5.62629e-06
-6.94103e-06
5.33961e-06
-1.07476e-05
6.92296e-06
-1.23135e-05
1.84562e-05
-7.55015e-06
4.91825e-05
-2.79509e-06
8.29153e-05
-1.9904e-05
9.56372e-05
-8.06852e-05
7.42854e-05
-0.00012932
3.86692e-05
-0.000150617
-0.000136455
1.263e-06
1.43709e-05
1.19748e-06
1.27912e-05
1.14802e-06
1.10516e-05
1.12548e-06
9.12217e-06
1.16141e-06
6.98889e-06
1.2875e-06
4.59709e-06
1.53822e-06
1.9203e-06
1.96561e-06
-1.02224e-06
2.54975e-06
-4.36968e-06
3.50623e-06
-7.89751e-06
4.71079e-06
-1.19522e-05
8.3321e-06
-1.59348e-05
1.81252e-05
-1.73433e-05
4.03747e-05
-2.50446e-05
6.24782e-05
-4.20075e-05
6.59691e-05
-8.41761e-05
4.65368e-05
-0.000109888
2.18847e-05
-0.000125964
-0.00011457
1.38564e-08
1.46175e-05
-2.16742e-07
1.30218e-05
-4.16925e-07
1.12518e-05
-5.81646e-07
9.2869e-06
-7.04754e-07
7.112e-06
-7.78209e-07
4.67055e-06
-7.87754e-07
1.92985e-06
-6.47796e-07
-1.1622e-06
-3.84454e-07
-4.63303e-06
7.632e-07
-9.04517e-06
1.97148e-06
-1.31605e-05
5.6181e-06
-1.95814e-05
1.20168e-05
-2.3742e-05
2.58709e-05
-3.88987e-05
3.63763e-05
-5.25128e-05
3.7148e-05
-8.49478e-05
2.66536e-05
-9.93933e-05
1.33539e-05
-0.000112665
-0.000101216
-9.64187e-07
1.48867e-05
-1.37956e-06
1.34372e-05
-1.87108e-06
1.17433e-05
-2.39065e-06
9.80648e-06
-2.89783e-06
7.61919e-06
-3.37748e-06
5.15021e-06
-3.79209e-06
2.34446e-06
-4.13495e-06
-8.19346e-07
-4.19634e-06
-4.57164e-06
-4.04961e-06
-9.19192e-06
-3.06611e-06
-1.4144e-05
1.06292e-06
-2.37105e-05
7.2719e-06
-2.9951e-05
2.01767e-05
-5.18036e-05
2.78829e-05
-6.02189e-05
2.86527e-05
-8.57176e-05
2.14311e-05
-9.21717e-05
1.21144e-05
-0.000103348
-8.91017e-05
-2.22631e-06
-2.42086e-06
-2.74679e-06
-3.17406e-06
-3.66821e-06
-4.22103e-06
-4.81161e-06
-5.29047e-06
-5.52347e-06
-5.0483e-06
-3.25771e-06
2.79631e-06
1.06235e-05
2.16071e-05
2.8171e-05
2.73492e-05
2.11617e-05
1.14688e-05
)
;

boundaryField
{
    leftWall
    {
        type            calculated;
        value           nonuniform 0();
    }
    rightWall
    {
        type            calculated;
        value           uniform 0;
    }
    lowerWall
    {
        type            calculated;
        value           nonuniform 0();
    }
    atmosphere
    {
        type            calculated;
        value           nonuniform List<scalar> 
23
(
7.06675e-06
6.94604e-06
6.80489e-06
6.64542e-06
1.49183e-05
1.36317e-05
1.20692e-05
1.02338e-05
8.11333e-06
5.70303e-06
2.93504e-06
-3.40488e-07
-4.33864e-06
-9.66708e-06
-1.59346e-05
-2.97645e-05
-3.77782e-05
-6.27871e-05
-6.67828e-05
-8.48959e-05
-8.59842e-05
-9.36551e-05
-7.76329e-05
)
;
    }
    defaultFaces
    {
        type            empty;
        value           nonuniform 0();
    }
    procBoundary3to1
    {
        type            processor;
        value           nonuniform List<scalar> 
23
(
-2.94192e-05
-2.99748e-05
-3.04965e-05
-3.09609e-05
-7.44209e-05
-7.42431e-05
-7.35555e-05
-7.05441e-05
-6.08521e-05
-4.08421e-05
-2.47825e-05
4.72346e-05
0.000137939
0.000139222
0.00012281
0.000113255
0.000109498
0.000105501
9.84077e-05
8.98758e-05
8.12393e-05
8.83681e-05
0.000106437
)
;
    }
    procBoundary3to2
    {
        type            processor;
        value           nonuniform List<scalar> 
25
(
-9.70972e-06
-1.27426e-05
-1.52826e-05
-1.55105e-05
-1.63584e-05
-1.60021e-05
-1.59777e-05
-1.52798e-05
-1.44986e-05
-1.36187e-05
-1.25976e-05
-1.15487e-05
-1.0494e-05
-9.4338e-06
-8.38635e-06
-7.35621e-06
-6.33936e-06
-5.33604e-06
-4.34113e-06
-3.35345e-06
-2.3866e-06
-1.45826e-06
-5.05129e-07
7.42103e-07
2.57121e-06
)
;
    }
}


// ************************************************************************* //
