/*--------------------------------*- C++ -*----------------------------------*\
| =========                 |                                                 |
| \\      /  F ield         | OpenFOAM: The Open Source CFD Toolbox           |
|  \\    /   O peration     | Version:  2.4.0                                 |
|   \\  /    A nd           | Web:      www.OpenFOAM.org                      |
|    \\/     M anipulation  |                                                 |
\*---------------------------------------------------------------------------*/
FoamFile
{
    version     2.0;
    format      ascii;
    class       surfaceScalarField;
    location    "0.7";
    object      phi.water;
}
// * * * * * * * * * * * * * * * * * * * * * * * * * * * * * * * * * * * * * //

dimensions      [0 3 -1 0 0 0 0];

internalField   nonuniform List<scalar> 
1102
(
1.3132e-05
2.59898e-05
1.67427e-05
2.63602e-05
2.04069e-05
2.68264e-05
2.71461e-05
2.42168e-05
1.56299e-05
2.31017e-05
1.8678e-05
2.33134e-05
2.18079e-05
2.3701e-05
2.39238e-05
2.50331e-05
1.77092e-05
2.06725e-05
2.01809e-05
2.08451e-05
2.28105e-05
2.10741e-05
2.11876e-05
2.55497e-05
1.7654e-05
1.85255e-05
1.98685e-05
1.86316e-05
2.22486e-05
1.86974e-05
1.87099e-05
2.47288e-05
1.81654e-05
1.67144e-05
2.00896e-05
1.67101e-05
2.22114e-05
1.65778e-05
1.64895e-05
2.44343e-05
1.7655e-05
1.50569e-05
1.93842e-05
1.49814e-05
2.12204e-05
1.47447e-05
1.45455e-05
2.31662e-05
1.74538e-05
1.35763e-05
1.89416e-05
1.3496e-05
2.04264e-05
1.32617e-05
1.29778e-05
2.1996e-05
1.64953e-05
1.23562e-05
1.77915e-05
1.22003e-05
1.90849e-05
1.19706e-05
1.1659e-05
2.04055e-05
1.54955e-05
1.1355e-05
1.6567e-05
1.11308e-05
1.76754e-05
1.08637e-05
1.0541e-05
1.87952e-05
1.448e-05
1.04893e-05
1.53586e-05
1.02525e-05
1.62451e-05
9.97954e-06
9.67539e-06
1.7112e-05
1.32653e-05
9.81766e-06
1.3974e-05
9.54572e-06
1.46826e-05
9.2722e-06
8.96351e-06
1.53959e-05
1.21188e-05
9.24394e-06
1.26879e-05
8.97693e-06
1.32642e-05
8.69761e-06
8.40188e-06
1.38271e-05
1.09485e-05
8.78631e-06
1.1408e-05
8.51905e-06
1.18645e-05
8.24226e-06
7.9559e-06
1.23118e-05
9.81386e-06
8.4033e-06
1.01882e-05
8.14476e-06
1.05566e-05
7.87563e-06
7.59815e-06
1.09152e-05
8.6981e-06
8.08905e-06
9.00379e-06
7.84058e-06
9.30237e-06
7.57793e-06
7.31097e-06
9.59045e-06
7.61376e-06
7.82935e-06
7.86514e-06
7.58934e-06
8.10924e-06
7.33504e-06
7.0729e-06
8.34803e-06
6.54839e-06
7.61862e-06
6.75415e-06
7.38479e-06
6.95216e-06
7.13766e-06
6.88039e-06
7.14533e-06
5.49938e-06
7.45372e-06
5.66193e-06
7.2221e-06
5.81909e-06
6.98152e-06
6.7274e-06
5.97237e-06
4.4608e-06
7.33288e-06
4.57772e-06
7.10618e-06
4.69511e-06
6.86434e-06
6.61545e-06
4.80735e-06
3.42969e-06
7.25574e-06
3.50373e-06
7.03179e-06
3.57439e-06
6.79422e-06
6.54458e-06
3.64536e-06
2.41103e-06
7.23075e-06
2.43965e-06
7.00381e-06
2.46522e-06
6.7686e-06
6.5207e-06
2.4892e-06
1.42385e-06
7.26474e-06
1.39e-06
7.03713e-06
1.35986e-06
6.79902e-06
6.54788e-06
1.33261e-06
4.88493e-07
7.28122e-06
4.3637e-07
7.08975e-06
3.58359e-07
6.87682e-06
6.64556e-06
2.60433e-07
-6.67485e-07
7.20646e-06
-6.36744e-07
7.05833e-06
-6.46737e-07
6.88631e-06
6.69355e-06
-6.95152e-07
-2.43281e-06
-2.32176e-06
-2.24168e-06
-2.19481e-06
3.39182e-05
6.47019e-05
4.41341e-05
6.4008e-05
5.54126e-05
6.22567e-05
6.76621e-05
5.82694e-05
7.60345e-05
5.24505e-05
7.30857e-05
4.36994e-05
-2.39741e-05
3.84551e-05
-0.000124373
-2.45706e-05
-0.000164761
-8.47944e-05
-0.000176401
-0.000127049
-0.000170515
-0.000135696
-0.000162273
-0.000127688
-0.000153263
-0.00011986
-0.000143578
-0.000123228
-0.000128846
-0.000131957
-0.000103978
-0.000144735
-7.63194e-05
-0.000157295
-4.9266e-05
-0.000174125
-0.000196357
3.33315e-05
5.64072e-05
4.22358e-05
5.51074e-05
5.2048e-05
5.24484e-05
6.17956e-05
4.85268e-05
7.10092e-05
4.32439e-05
7.8031e-05
3.66866e-05
8.59751e-05
3.05052e-05
2.70768e-05
2.31912e-05
-4.15675e-05
-1.92611e-05
-9.70117e-05
-7.6426e-05
-0.000116266
-8.19076e-05
-0.000127076
-0.00010557
-0.000124323
-0.000111476
-0.000118342
-0.00010456
-0.000106013
-8.88e-05
-8.17517e-05
-8.70352e-05
-5.19001e-05
-9.47244e-05
-2.69437e-05
-0.000112101
-0.000120663
3.26985e-05
4.92619e-05
4.03481e-05
4.7461e-05
4.8598e-05
4.42024e-05
5.68845e-05
4.02448e-05
6.50022e-05
3.51321e-05
7.36024e-05
2.80938e-05
8.26952e-05
2.14296e-05
9.5187e-05
1.07689e-05
8.54373e-05
-1.12233e-06
6.4386e-05
-8.87753e-06
1.07406e-05
-1.53351e-05
-7.71359e-05
-4.17342e-05
-0.000102897
-5.96172e-05
-8.89768e-05
-8.26321e-05
-9.92293e-05
-0.000110246
-8.60446e-05
-0.000116433
-4.531e-05
-0.000132114
-2.16474e-05
-0.000180375
-0.000200595
3.10653e-05
4.29284e-05
3.80763e-05
4.04529e-05
4.51452e-05
3.71368e-05
5.2211e-05
3.3183e-05
5.95218e-05
2.78264e-05
6.71682e-05
2.04534e-05
7.50504e-05
1.35552e-05
8.42093e-05
1.6094e-06
8.95465e-05
-6.44744e-06
9.88731e-05
-2.26684e-05
0.000107109
-2.92659e-05
9.12258e-05
-1.63631e-05
2.9431e-05
2.51043e-07
-5.22564e-05
-3.78485e-05
-8.6669e-05
-9.20574e-05
-7.71903e-05
-0.000131348
-6.18837e-05
-0.000149523
-5.3634e-05
-0.000191469
-0.000264446
2.98155e-05
3.75497e-05
3.55926e-05
3.46786e-05
4.14411e-05
3.1291e-05
4.74367e-05
2.7191e-05
5.3801e-05
2.14661e-05
6.05336e-05
1.37256e-05
6.80444e-05
6.05037e-06
7.44227e-05
-4.76249e-06
8.5156e-05
-1.71719e-05
9.53919e-05
-3.28938e-05
0.000102246
-3.60328e-05
0.000103992
-1.80418e-05
7.63629e-05
2.83003e-05
1.16679e-05
2.73408e-05
-3.85861e-05
-4.18595e-05
-3.93202e-05
-0.000130529
-2.6331e-05
-0.000161787
-2.09816e-05
-0.000196061
-0.000285416
2.78774e-05
3.28409e-05
3.27209e-05
2.98373e-05
3.75753e-05
2.64389e-05
4.26514e-05
2.21179e-05
4.80332e-05
1.60877e-05
5.32807e-05
8.48179e-06
5.95599e-05
-2.24406e-07
6.55634e-05
-1.07616e-05
7.51775e-05
-2.67766e-05
8.60382e-05
-4.37536e-05
9.33212e-05
-4.33107e-05
9.4777e-05
-1.95084e-05
7.51936e-05
4.79244e-05
5.0073e-05
5.24979e-05
3.62891e-06
4.50375e-06
-1.4199e-05
-0.000112646
-8.19826e-06
-0.000167733
-5.83945e-06
-0.000198407
-0.000291268
2.5819e-05
2.90202e-05
2.96949e-05
2.59631e-05
3.36455e-05
2.24905e-05
3.77304e-05
1.80352e-05
4.18449e-05
1.19759e-05
4.56973e-05
4.6322e-06
5.03166e-05
-4.84032e-06
5.52944e-05
-1.57365e-05
6.13306e-05
-3.2804e-05
6.97709e-05
-5.21958e-05
7.78214e-05
-5.13625e-05
7.29524e-05
-1.4634e-05
5.77807e-05
6.31271e-05
3.91052e-05
7.11889e-05
1.17275e-05
3.18393e-05
-5.94214e-06
-9.49308e-05
-8.89505e-06
-0.000164789
-3.16971e-06
-0.000205931
-0.000301145
2.3582e-05
2.58457e-05
2.66716e-05
2.28752e-05
2.97814e-05
1.93824e-05
3.27883e-05
1.50302e-05
3.55992e-05
9.16702e-06
3.80359e-05
2.19767e-06
4.03954e-05
-7.19747e-06
4.26387e-05
-1.79778e-05
4.55005e-05
-3.56589e-05
4.95974e-05
-5.62999e-05
5.68193e-05
-5.85778e-05
4.35005e-05
-1.27922e-06
2.46017e-05
8.20595e-05
4.94155e-06
9.08358e-05
-1.06423e-05
4.73855e-05
-2.67676e-05
-8.00082e-05
-3.18378e-05
-0.000176202
-9.15506e-06
-0.0003121
-0.000401146
2.13406e-05
2.33018e-05
2.3748e-05
2.04693e-05
2.60381e-05
1.70934e-05
2.80599e-05
1.301e-05
2.95602e-05
7.66807e-06
3.04887e-05
1.27073e-06
3.033e-05
-7.03717e-06
2.95743e-05
-1.72205e-05
2.6968e-05
-3.30513e-05
2.17563e-05
-5.11065e-05
1.46134e-05
-5.14315e-05
-4.93281e-06
1.83207e-05
-2.04195e-05
9.75316e-05
-3.37411e-05
0.000104136
-4.40449e-05
5.42046e-05
-6.43916e-05
-0.000126086
-3.99059e-05
-0.000314957
-1.00499e-06
-0.000364571
-0.000352254
1.90833e-05
2.13322e-05
2.093e-05
1.86237e-05
2.25285e-05
1.5496e-05
2.37305e-05
1.18089e-05
2.42069e-05
7.1926e-06
2.3668e-05
1.81047e-06
2.14166e-05
-4.78465e-06
1.70443e-05
-1.28474e-05
7.5629e-06
-2.3576e-05
-8.6601e-06
-3.49274e-05
-2.79802e-05
-3.21088e-05
-4.4565e-05
3.49546e-05
-4.72615e-05
0.000100234
-5.67121e-05
0.000113994
-6.29483e-05
4.40248e-05
-4.70853e-05
-0.000179858
-1.52475e-05
-0.000307942
1.21508e-06
-0.000318868
-0.00030758
1.70206e-05
1.97089e-05
1.83603e-05
1.72848e-05
1.94113e-05
1.44458e-05
1.99748e-05
1.12458e-05
1.97343e-05
7.43349e-06
1.83109e-05
3.2342e-06
1.49886e-05
-1.46151e-06
8.78007e-06
-6.63828e-06
-2.76994e-06
-1.20317e-05
-2.28881e-05
-1.48547e-05
-4.64381e-05
-8.55608e-06
-5.70968e-05
4.56435e-05
-5.57921e-05
9.8935e-05
-5.71485e-05
0.000117222
-5.7044e-05
3.60782e-05
-2.79662e-05
-0.000202179
-1.23864e-05
-0.0002947
-3.68797e-07
-0.000305029
-0.000297657
1.50516e-05
1.84857e-05
1.60533e-05
1.62838e-05
1.67283e-05
1.37712e-05
1.69117e-05
1.10624e-05
1.62926e-05
8.05245e-06
1.45399e-05
4.98703e-06
1.10095e-05
2.06945e-06
4.80443e-06
-4.32041e-07
-5.73206e-06
-1.49508e-06
-2.15592e-05
9.63895e-07
-4.20629e-05
1.195e-05
-4.81703e-05
5.17802e-05
-4.55067e-05
9.62697e-05
-4.29372e-05
0.0001161
-4.27736e-05
3.25521e-05
-2.00172e-05
-0.00021359
-1.26035e-05
-0.000293445
-5.52617e-07
-0.000297684
-0.000299035
1.32919e-05
1.75064e-05
1.40353e-05
1.55411e-05
1.44891e-05
1.33174e-05
1.44962e-05
1.1055e-05
1.38597e-05
8.68847e-06
1.23238e-05
6.52291e-06
9.47343e-06
4.92033e-06
4.74701e-06
4.29578e-06
-2.46281e-06
5.71634e-06
-1.3146e-05
1.1648e-05
-2.61465e-05
2.49522e-05
-2.98127e-05
5.54704e-05
-2.53202e-05
9.17823e-05
-2.35575e-05
0.000113398
-2.60066e-05
3.75744e-05
-1.74752e-05
-0.000212549
-1.43351e-05
-0.000333168
1.58643e-06
-0.000322634
-0.000299753
1.16905e-05
1.67321e-05
1.22896e-05
1.49422e-05
1.26228e-05
1.29839e-05
1.26511e-05
1.10261e-05
1.21922e-05
9.14684e-06
1.11501e-05
7.56493e-06
9.3455e-06
6.72556e-06
6.58509e-06
7.05753e-06
2.82892e-06
9.47412e-06
-1.671e-06
1.61495e-05
-5.29943e-06
2.85826e-05
-2.96183e-06
5.3141e-05
4.48987e-06
8.43176e-05
-7.12361e-07
0.00011522
-7.35907e-06
6.06732e-05
-1.91891e-05
-0.000186921
-2.081e-05
-0.000472717
4.71207e-06
-0.000391745
-0.000296416
1.02299e-05
1.60934e-05
1.07288e-05
1.44432e-05
1.10623e-05
1.265e-05
1.11837e-05
1.09039e-05
1.10517e-05
9.2784e-06
1.06335e-05
7.98309e-06
1.00111e-05
7.34891e-06
9.28802e-06
7.78174e-06
8.71237e-06
1.00513e-05
9.12402e-06
1.5739e-05
1.17251e-05
2.59826e-05
1.86878e-05
4.61794e-05
2.71376e-05
7.58537e-05
3.01915e-05
0.000108904
3.89809e-05
7.94074e-05
1.27761e-05
-7.73495e-05
-2.12438e-05
-0.000285629
1.30025e-05
-0.000365255
-0.000289413
8.8758e-06
1.5566e-05
9.32307e-06
1.39957e-05
9.66729e-06
1.2305e-05
9.92266e-06
1.06478e-05
1.00972e-05
9.10346e-06
1.02922e-05
7.78833e-06
1.06576e-05
6.98448e-06
1.15041e-05
6.93639e-06
1.34279e-05
8.1287e-06
1.78611e-05
1.13067e-05
2.58646e-05
1.79795e-05
3.96078e-05
3.24364e-05
5.50331e-05
6.0385e-05
6.46297e-05
9.89149e-05
7.478e-05
8.13002e-05
5.63053e-05
-5.25031e-05
1.95327e-05
-0.000221653
5.40448e-05
-0.000310826
-0.000305908
7.57889e-06
1.51326e-05
7.98496e-06
1.35893e-05
8.34257e-06
1.19466e-05
8.70675e-06
1.0283e-05
9.13983e-06
8.67008e-06
9.78603e-06
7.14274e-06
1.09572e-05
5.81415e-06
1.31737e-05
4.72097e-06
1.72901e-05
4.01316e-06
2.49833e-05
3.61382e-06
3.79861e-05
4.97691e-06
5.53112e-05
1.51107e-05
7.05343e-05
4.51372e-05
7.9344e-05
9.01115e-05
8.54764e-05
7.56894e-05
7.3715e-05
-4.06829e-05
4.16906e-05
-0.000172382
6.42092e-05
-0.000294416
-0.000465537
6.32221e-06
1.47829e-05
6.66608e-06
1.32449e-05
7.00871e-06
1.16033e-05
7.40085e-06
9.89038e-06
7.92519e-06
8.14585e-06
8.71211e-06
6.35638e-06
1.00235e-05
4.5037e-06
1.22939e-05
2.45134e-06
1.63456e-05
-3.81082e-08
2.35584e-05
-3.59891e-06
3.53705e-05
-6.83557e-06
5.01796e-05
3.01224e-07
6.43356e-05
3.09707e-05
7.68126e-05
7.76381e-05
8.68123e-05
6.57061e-05
8.66889e-05
-4.05502e-05
8.07389e-05
-0.000167254
8.07155e-05
-0.000269422
-0.000289824
5.06889e-06
1.45213e-05
5.33899e-06
1.29743e-05
5.63179e-06
1.131e-05
5.99067e-06
9.53121e-06
6.48275e-06
7.65413e-06
7.21475e-06
5.6249e-06
8.32308e-06
3.39615e-06
9.93606e-06
8.38785e-07
1.21891e-05
-2.29103e-06
1.5104e-05
-6.514e-06
1.982e-05
-1.15522e-05
2.86868e-05
-8.56587e-06
4.35508e-05
1.61033e-05
6.41318e-05
5.70581e-05
8.32697e-05
4.65739e-05
9.42016e-05
-5.14775e-05
9.12965e-05
-0.000164345
4.61272e-05
-0.000227027
-0.000220496
3.8078e-06
1.43588e-05
3.98418e-06
1.27976e-05
4.18963e-06
1.11042e-05
4.45899e-06
9.26187e-06
4.83463e-06
7.27874e-06
5.3638e-06
5.09626e-06
6.05237e-06
2.70796e-06
6.86433e-06
2.69355e-08
7.70932e-06
-3.13617e-06
7.77458e-06
-6.57976e-06
7.25012e-06
-1.10282e-05
9.40782e-06
-1.07239e-05
2.15217e-05
3.98962e-06
5.06424e-05
2.79386e-05
8.33822e-05
1.38369e-05
9.98632e-05
-6.79543e-05
8.61836e-05
-0.000150661
4.53774e-05
-0.000186223
-0.000175114
2.54214e-06
1.43056e-05
2.60934e-06
1.27301e-05
2.70668e-06
1.10067e-05
2.86412e-06
9.10453e-06
3.11297e-06
7.03005e-06
3.48067e-06
4.72886e-06
4.01168e-06
2.17696e-06
4.62717e-06
-5.88712e-07
5.26986e-06
-3.77931e-06
5.62429e-06
-6.9347e-06
5.33677e-06
-1.0741e-05
6.9192e-06
-1.23064e-05
1.84517e-05
-7.5422e-06
4.91778e-05
-2.78601e-06
8.29104e-05
-1.98935e-05
9.5633e-05
-8.06737e-05
7.4281e-05
-0.000129308
3.86694e-05
-0.000150604
-0.000136441
1.26293e-06
1.43751e-05
1.19719e-06
1.27954e-05
1.14756e-06
1.1056e-05
1.12495e-06
9.12684e-06
1.16096e-06
6.99388e-06
1.28709e-06
4.60236e-06
1.53775e-06
1.92579e-06
1.96489e-06
-1.01658e-06
2.54856e-06
-4.36386e-06
3.50446e-06
-7.89139e-06
4.70835e-06
-1.19456e-05
8.32909e-06
-1.59274e-05
1.81217e-05
-1.73348e-05
4.03712e-05
-2.50347e-05
6.24748e-05
-4.1996e-05
6.59652e-05
-8.41635e-05
4.65337e-05
-0.000109874
2.18841e-05
-0.00012595
-0.000114556
1.3836e-08
1.46212e-05
-2.16901e-07
1.30254e-05
-4.1716e-07
1.12555e-05
-5.81915e-07
9.29078e-06
-7.04977e-07
7.11609e-06
-7.78451e-07
4.67479e-06
-7.88096e-07
1.93422e-06
-6.48386e-07
-1.15767e-06
-3.85396e-07
-4.62825e-06
7.61817e-07
-9.03999e-06
1.96972e-06
-1.31546e-05
5.61591e-06
-1.95747e-05
1.20145e-05
-2.37342e-05
2.58685e-05
-3.88897e-05
3.6374e-05
-5.25022e-05
3.7145e-05
-8.49361e-05
2.6652e-05
-9.93797e-05
1.33531e-05
-0.000112651
-0.000101203
-9.64245e-07
1.48896e-05
-1.37962e-06
1.34401e-05
-1.87119e-06
1.17463e-05
-2.39075e-06
9.80954e-06
-2.89793e-06
7.62233e-06
-3.3776e-06
5.15343e-06
-3.79232e-06
2.34778e-06
-4.13534e-06
-8.1586e-07
-4.19698e-06
-4.56787e-06
-4.05048e-06
-9.18765e-06
-3.06725e-06
-1.41391e-05
1.06164e-06
-2.37047e-05
7.27043e-06
-2.99444e-05
2.01754e-05
-5.17958e-05
2.78813e-05
-6.02101e-05
2.86516e-05
-8.57076e-05
2.14297e-05
-9.21609e-05
1.21137e-05
-0.000103336
-8.90891e-05
-2.22635e-06
-2.42089e-06
-2.74682e-06
-3.17409e-06
-3.66824e-06
-4.22107e-06
-4.81169e-06
-5.29063e-06
-5.52373e-06
-5.04868e-06
-3.25821e-06
2.79571e-06
1.06227e-05
2.16064e-05
2.81702e-05
2.73486e-05
2.11611e-05
1.14687e-05
)
;

boundaryField
{
    leftWall
    {
        type            fixedValue;
        value           nonuniform 0();
    }
    rightWall
    {
        type            fixedValue;
        value           uniform 0;
    }
    lowerWall
    {
        type            fixedValue;
        value           nonuniform 0();
    }
    atmosphere
    {
        type            calculated;
        value           nonuniform List<scalar> 
23
(
7.0677e-06
6.94698e-06
6.80584e-06
6.64641e-06
1.49209e-05
1.36344e-05
1.20719e-05
1.02365e-05
8.11615e-06
5.7059e-06
2.938e-06
-3.37326e-07
-4.33517e-06
-9.66312e-06
-1.59299e-05
-2.97591e-05
-3.77718e-05
-6.27801e-05
-6.67746e-05
-8.48873e-05
-8.59739e-05
-9.3644e-05
-7.76204e-05
)
;
    }
    defaultFaces
    {
        type            empty;
        value           nonuniform 0();
    }
    procBoundary3to1
    {
        type            processor;
        value           nonuniform List<scalar> 
23
(
-2.94111e-05
-2.9966e-05
-3.04876e-05
-3.09515e-05
-7.4398e-05
-7.42182e-05
-7.3527e-05
-7.05117e-05
-6.08115e-05
-4.07433e-05
1.44132e-05
0.000102264
0.000122646
0.000135348
0.00012121
0.000106166
0.000103302
0.000100588
9.74449e-05
9.48207e-05
8.80132e-05
8.30957e-05
9.20508e-05
)
;
    }
    procBoundary3to2
    {
        type            processor;
        value           nonuniform List<scalar> 
25
(
-9.70725e-06
-1.2739e-05
-1.52776e-05
-1.55054e-05
-1.63524e-05
-1.59966e-05
-1.59718e-05
-1.52744e-05
-1.44929e-05
-1.36138e-05
-1.25927e-05
-1.15444e-05
-1.04898e-05
-9.43038e-06
-8.38305e-06
-7.3536e-06
-6.33686e-06
-5.33425e-06
-4.33946e-06
-3.35242e-06
-2.38566e-06
-1.45788e-06
-5.04836e-07
7.42106e-07
2.57104e-06
)
;
    }
}


// ************************************************************************* //
