/*--------------------------------*- C++ -*----------------------------------*\
| =========                 |                                                 |
| \\      /  F ield         | OpenFOAM: The Open Source CFD Toolbox           |
|  \\    /   O peration     | Version:  2.4.0                                 |
|   \\  /    A nd           | Web:      www.OpenFOAM.org                      |
|    \\/     M anipulation  |                                                 |
\*---------------------------------------------------------------------------*/
FoamFile
{
    version     2.0;
    format      ascii;
    class       surfaceScalarField;
    location    "0.7";
    object      phi.oil;
}
// * * * * * * * * * * * * * * * * * * * * * * * * * * * * * * * * * * * * * //

dimensions      [0 3 -1 0 0 0 0];

internalField   nonuniform List<scalar> 
1102
(
1.31305e-05
2.59899e-05
1.67418e-05
2.63602e-05
2.04047e-05
2.68267e-05
2.71463e-05
2.42167e-05
1.56297e-05
2.31016e-05
1.86777e-05
2.33133e-05
2.18076e-05
2.3701e-05
2.3924e-05
2.50325e-05
1.77091e-05
2.06724e-05
2.01808e-05
2.08451e-05
2.28104e-05
2.10741e-05
2.11876e-05
2.55496e-05
1.7654e-05
1.85255e-05
1.98685e-05
1.86316e-05
2.22485e-05
1.86974e-05
1.87099e-05
2.47288e-05
1.81654e-05
1.67144e-05
2.00896e-05
1.67101e-05
2.22113e-05
1.65778e-05
1.64895e-05
2.44343e-05
1.7655e-05
1.50569e-05
1.93842e-05
1.49814e-05
2.12204e-05
1.47447e-05
1.45455e-05
2.31662e-05
1.74538e-05
1.35763e-05
1.89416e-05
1.3496e-05
2.04264e-05
1.32617e-05
1.29778e-05
2.1996e-05
1.64953e-05
1.23562e-05
1.77915e-05
1.22003e-05
1.90849e-05
1.19706e-05
1.1659e-05
2.04055e-05
1.54955e-05
1.1355e-05
1.6567e-05
1.11308e-05
1.76754e-05
1.08637e-05
1.0541e-05
1.87952e-05
1.448e-05
1.04893e-05
1.53586e-05
1.02525e-05
1.62451e-05
9.97954e-06
9.67539e-06
1.7112e-05
1.32653e-05
9.81766e-06
1.3974e-05
9.54572e-06
1.46826e-05
9.2722e-06
8.96351e-06
1.53959e-05
1.21188e-05
9.24394e-06
1.26879e-05
8.97693e-06
1.32642e-05
8.69761e-06
8.40188e-06
1.38271e-05
1.09485e-05
8.78631e-06
1.1408e-05
8.51905e-06
1.18645e-05
8.24226e-06
7.9559e-06
1.23118e-05
9.81386e-06
8.4033e-06
1.01882e-05
8.14476e-06
1.05566e-05
7.87563e-06
7.59815e-06
1.09152e-05
8.6981e-06
8.08905e-06
9.00379e-06
7.84058e-06
9.30237e-06
7.57793e-06
7.31097e-06
9.59045e-06
7.61376e-06
7.82935e-06
7.86514e-06
7.58934e-06
8.10924e-06
7.33504e-06
7.0729e-06
8.34803e-06
6.54839e-06
7.61862e-06
6.75415e-06
7.38479e-06
6.95216e-06
7.13766e-06
6.88039e-06
7.14533e-06
5.49938e-06
7.45372e-06
5.66193e-06
7.2221e-06
5.81909e-06
6.98152e-06
6.7274e-06
5.97237e-06
4.4608e-06
7.33288e-06
4.57772e-06
7.10618e-06
4.69511e-06
6.86434e-06
6.61545e-06
4.80735e-06
3.42969e-06
7.25574e-06
3.50373e-06
7.03179e-06
3.57439e-06
6.79422e-06
6.54458e-06
3.64536e-06
2.41103e-06
7.23075e-06
2.43965e-06
7.00381e-06
2.46522e-06
6.7686e-06
6.5207e-06
2.4892e-06
1.42385e-06
7.26474e-06
1.39e-06
7.03713e-06
1.35986e-06
6.79902e-06
6.54788e-06
1.33261e-06
4.88493e-07
7.28122e-06
4.3637e-07
7.08975e-06
3.58359e-07
6.87682e-06
6.64556e-06
2.60433e-07
-6.67485e-07
7.20646e-06
-6.36744e-07
7.05833e-06
-6.46737e-07
6.88631e-06
6.69355e-06
-6.95152e-07
-2.43281e-06
-2.32176e-06
-2.24168e-06
-2.19481e-06
3.39168e-05
6.47059e-05
4.41577e-05
6.40115e-05
5.54658e-05
6.22744e-05
6.75771e-05
5.82517e-05
7.32147e-05
5.21352e-05
7.12732e-05
4.16165e-05
-4.79765e-05
3.49875e-05
-0.000134323
-6.9915e-05
-0.000152776
-0.000145929
-0.000162668
-0.000148511
-0.000161112
-0.000143266
-0.000154213
-0.000129259
-0.000144286
-0.000125052
-0.00013339
-0.000131277
-0.000119443
-0.00014943
-9.97668e-05
-0.000181591
-7.39596e-05
-0.000218396
-4.56106e-05
-0.000267565
-0.000312534
3.33337e-05
5.6408e-05
4.2243e-05
5.51088e-05
5.21015e-05
5.24514e-05
6.18094e-05
4.85413e-05
7.06854e-05
4.32062e-05
7.63559e-05
3.63485e-05
7.92803e-05
2.96605e-05
9.00243e-06
1.79797e-05
-7.1223e-05
-9.07712e-05
-0.000114225
-0.000140038
-0.000128365
-0.000159231
-0.000125269
-0.000164477
-0.000116077
-0.000169467
-9.97933e-05
-0.000193203
-7.37278e-05
-0.000163762
-5.42341e-05
-0.000186978
-2.93931e-05
-0.000283265
3.85962e-07
-0.000440284
-0.0003838
3.26993e-05
4.92618e-05
4.03503e-05
4.74615e-05
4.86101e-05
4.42029e-05
5.69015e-05
4.02496e-05
6.50478e-05
3.51414e-05
7.31171e-05
2.81118e-05
8.06179e-05
2.13577e-05
7.18775e-05
1.08799e-05
6.40123e-06
-8.98429e-06
-9.39409e-05
-5.72202e-05
-0.000140926
-8.89982e-05
-0.000155304
-9.74584e-05
-0.000168813
-0.000105984
-0.000143065
-0.00014573
-9.78296e-05
-0.00015578
-2.29071e-05
-0.000169197
7.68398e-06
-0.000248834
1.23558e-05
-0.000483009
-0.000323568
3.10653e-05
4.29283e-05
3.80772e-05
4.04529e-05
4.5147e-05
3.71367e-05
5.22165e-05
3.31824e-05
5.95335e-05
2.78247e-05
6.71468e-05
2.04478e-05
7.49231e-05
1.35576e-05
8.31647e-05
1.55931e-06
8.23254e-05
-6.27279e-06
9.6451e-05
-2.15277e-05
0.000106459
-2.869e-05
9.45964e-05
-1.90055e-05
3.9043e-05
-3.04171e-06
-4.19933e-05
-3.59342e-05
-5.91713e-05
-8.99689e-05
-2.53162e-05
-0.000150024
-1.70167e-05
-0.000227271
-2.32524e-05
-0.000330932
-0.000280145
2.98155e-05
3.75497e-05
3.55928e-05
3.46785e-05
4.14417e-05
3.12909e-05
4.74386e-05
2.71908e-05
5.38081e-05
2.14654e-05
6.05402e-05
1.37214e-05
6.80911e-05
6.03984e-06
7.43168e-05
-4.79887e-06
8.50216e-05
-1.72532e-05
9.3e-05
-3.33389e-05
9.54398e-05
-3.67487e-05
0.000102721
-1.92965e-05
7.70948e-05
2.48021e-05
1.51832e-05
2.46969e-05
-2.8664e-05
-4.21208e-05
-2.03317e-05
-0.000122028
-1.17219e-05
-0.000165234
-1.34346e-05
-0.000224729
-0.000298782
2.78774e-05
3.28409e-05
3.27209e-05
2.98373e-05
3.75755e-05
2.64389e-05
4.26521e-05
2.21178e-05
4.80365e-05
1.60872e-05
5.32824e-05
8.47951e-06
5.96058e-05
-2.31965e-07
6.54423e-05
-1.07982e-05
7.52029e-05
-2.69444e-05
8.44566e-05
-4.43969e-05
9.02095e-05
-4.47824e-05
9.22958e-05
-2.2319e-05
7.82982e-05
4.38701e-05
5.3177e-05
4.79767e-05
1.01415e-05
2.93372e-06
-9.4604e-06
-0.000112289
-4.81092e-06
-0.000169525
-2.02024e-06
-0.000218852
-0.000344254
2.5819e-05
2.90202e-05
2.96949e-05
2.59631e-05
3.36455e-05
2.24905e-05
3.77306e-05
1.80352e-05
4.1846e-05
1.19757e-05
4.56971e-05
4.63095e-06
5.03538e-05
-4.84621e-06
5.51367e-05
-1.57677e-05
6.12402e-05
-3.29687e-05
6.73693e-05
-5.2936e-05
7.60191e-05
-5.35259e-05
7.26616e-05
-1.83686e-05
6.23775e-05
5.83922e-05
4.48096e-05
6.52546e-05
1.78251e-05
2.75983e-05
-1.47315e-06
-0.000102285
-5.91549e-06
-0.000208882
8.00365e-07
-0.000352844
-0.00035198
2.3582e-05
2.58457e-05
2.66716e-05
2.28752e-05
2.97814e-05
1.93824e-05
3.27883e-05
1.50302e-05
3.55995e-05
9.1669e-06
3.80354e-05
2.19702e-06
4.04104e-05
-7.20158e-06
4.24851e-05
-1.8003e-05
4.51846e-05
-3.58144e-05
4.60998e-05
-5.70136e-05
5.48946e-05
-6.0965e-05
4.50484e-05
-5.04821e-06
3.06608e-05
7.63908e-05
1.33727e-05
8.20605e-05
-3.63871e-06
2.23345e-05
-2.1581e-05
-0.000206957
-1.90687e-05
-0.000273794
5.15142e-06
-0.000416026
-0.000451899
2.13406e-05
2.33018e-05
2.3748e-05
2.04693e-05
2.60381e-05
1.70934e-05
2.80599e-05
1.301e-05
2.95602e-05
7.66801e-06
3.04882e-05
1.27038e-06
3.03284e-05
-7.0397e-06
2.94505e-05
-1.72398e-05
2.60262e-05
-3.32021e-05
1.78464e-05
-5.16511e-05
1.17321e-05
-5.29308e-05
-1.55061e-06
1.54819e-05
-1.35563e-05
9.01856e-05
-2.75163e-05
9.09712e-05
-4.05278e-05
-9.15067e-05
-3.38329e-05
-0.000284944
-2.11234e-05
-0.000393548
3.80152e-07
-0.000390161
-0.000359922
1.90833e-05
2.13322e-05
2.093e-05
1.86237e-05
2.25285e-05
1.5496e-05
2.37305e-05
1.18089e-05
2.42068e-05
7.19256e-06
2.36676e-05
1.81025e-06
2.14109e-05
-4.78601e-06
1.68796e-05
-1.28604e-05
6.07516e-06
-2.37453e-05
-1.26049e-05
-3.61101e-05
-3.02339e-05
-3.41721e-05
-4.2002e-05
3.24065e-05
-4.28845e-05
9.09735e-05
-3.80129e-05
8.63698e-05
-4.30489e-05
-0.000188723
-3.006e-05
-0.000280273
-1.59179e-05
-0.000323908
-5.97173e-08
-0.000320799
-0.000308223
1.70206e-05
1.97089e-05
1.83603e-05
1.72848e-05
1.94113e-05
1.44458e-05
1.99748e-05
1.12458e-05
1.97342e-05
7.43346e-06
1.83105e-05
3.23401e-06
1.49838e-05
-1.46251e-06
8.63412e-06
-6.64683e-06
-3.9281e-06
-1.22171e-05
-2.63852e-05
-1.63411e-05
-4.78332e-05
-1.1895e-05
-5.7365e-05
4.14263e-05
-5.57896e-05
8.85078e-05
-3.93924e-05
6.62445e-05
-4.07083e-05
-0.000202308
-2.42609e-05
-0.000257252
-1.33775e-05
-0.000296546
-3.6777e-07
-0.000305219
-0.000297669
1.50516e-05
1.84857e-05
1.60533e-05
1.62838e-05
1.67283e-05
1.37712e-05
1.69117e-05
1.10624e-05
1.62926e-05
8.05242e-06
1.45395e-05
4.98685e-06
1.10069e-05
2.06859e-06
4.76927e-06
-4.36547e-07
-6.12632e-06
-1.54008e-06
-2.3229e-05
5.11541e-07
-4.21227e-05
9.43385e-06
-4.92809e-05
4.59201e-05
-4.59444e-05
8.64856e-05
-3.46814e-05
5.39451e-05
-3.51326e-05
-0.000203827
-2.0217e-05
-0.000254303
-1.32774e-05
-0.000293032
-5.09736e-07
-0.00029747
-0.00029903
1.32919e-05
1.75064e-05
1.40353e-05
1.55411e-05
1.44891e-05
1.33174e-05
1.44962e-05
1.1055e-05
1.38597e-05
8.68845e-06
1.23235e-05
6.52275e-06
9.47208e-06
4.91953e-06
4.73759e-06
4.2932e-06
-2.5483e-06
5.70474e-06
-1.36282e-05
1.15581e-05
-2.68076e-05
2.44721e-05
-3.03565e-05
5.20728e-05
-2.52176e-05
8.57805e-05
-2.81202e-05
5.93963e-05
-2.8485e-05
-0.00019451
-1.69485e-05
-0.000273054
-1.44156e-05
-0.000342574
1.68295e-06
-0.0003234
-0.000299756
1.16905e-05
1.67321e-05
1.22896e-05
1.49422e-05
1.26228e-05
1.29839e-05
1.26511e-05
1.10261e-05
1.21921e-05
9.14681e-06
1.11498e-05
7.56477e-06
9.34448e-06
6.72473e-06
6.57966e-06
7.05474e-06
2.80407e-06
9.4642e-06
-1.78084e-06
1.61132e-05
-5.65881e-06
2.84435e-05
-3.50605e-06
5.26818e-05
-4.59635e-06
8.24637e-05
-2.16065e-05
7.73642e-05
-2.29236e-05
-0.000162772
-1.81363e-05
-0.000364403
-2.23885e-05
-0.000679577
4.82887e-06
-0.000415605
-0.000296422
1.02299e-05
1.60934e-05
1.07288e-05
1.44432e-05
1.10623e-05
1.265e-05
1.11837e-05
1.09039e-05
1.10517e-05
9.27837e-06
1.06333e-05
7.98291e-06
1.00101e-05
7.34791e-06
9.28491e-06
7.77787e-06
8.70152e-06
1.00385e-05
9.10185e-06
1.56744e-05
1.1597e-05
2.58508e-05
1.73826e-05
4.58183e-05
1.03292e-05
7.40722e-05
-1.20028e-05
7.47574e-05
-1.87052e-05
-7.78323e-05
-3.63172e-05
-0.000235808
-3.96363e-05
-0.000567275
1.43067e-05
-0.000383608
-0.000289214
8.8758e-06
1.5566e-05
9.32307e-06
1.39957e-05
9.66729e-06
1.2305e-05
9.92266e-06
1.06478e-05
1.00972e-05
9.10343e-06
1.02921e-05
7.78814e-06
1.06571e-05
6.98335e-06
1.15029e-05
6.93193e-06
1.34298e-05
8.09692e-06
1.78672e-05
1.11997e-05
2.58598e-05
1.74894e-05
3.67873e-05
3.18744e-05
2.73355e-05
5.96854e-05
1.94523e-05
7.51142e-05
1.71593e-05
2.72101e-05
4.64654e-05
-3.64747e-05
5.37385e-05
-0.000208533
6.52858e-05
-0.000275266
-0.000306533
7.57889e-06
1.51326e-05
7.98496e-06
1.35893e-05
8.34257e-06
1.19466e-05
8.70675e-06
1.0283e-05
9.13982e-06
8.67006e-06
9.78599e-06
7.14254e-06
1.09572e-05
5.81281e-06
1.31798e-05
4.71469e-06
1.73122e-05
3.95078e-06
2.50997e-05
3.25899e-06
3.80119e-05
3.64274e-06
5.2777e-05
1.08971e-05
4.03227e-05
4.2531e-05
5.25985e-05
8.1281e-05
4.9922e-05
6.71085e-05
6.95703e-05
-2.10911e-05
6.58365e-05
-0.000163562
9.46405e-05
-0.000275438
-0.000546052
6.32221e-06
1.47829e-05
6.66608e-06
1.32449e-05
7.00871e-06
1.16033e-05
7.40085e-06
9.89038e-06
7.92519e-06
8.14583e-06
8.71212e-06
6.35621e-06
1.00238e-05
4.50257e-06
1.23048e-05
2.44359e-06
1.63819e-05
-9.60659e-08
2.35082e-05
-3.87818e-06
3.42952e-05
-7.68492e-06
4.89393e-05
-1.3464e-06
4.34175e-05
2.87973e-05
6.23722e-05
7.46688e-05
6.62069e-05
6.30492e-05
8.27631e-05
-3.14253e-05
6.5437e-05
-0.000156534
0.000232929
-0.000218153
-0.00039938
5.06889e-06
1.45213e-05
5.33899e-06
1.29743e-05
5.63179e-06
1.131e-05
5.99067e-06
9.53121e-06
6.48275e-06
7.65412e-06
7.21476e-06
5.62479e-06
8.32361e-06
3.39543e-06
9.94026e-06
8.32933e-07
1.21595e-05
-2.33107e-06
1.47367e-05
-6.70498e-06
1.77904e-05
-1.20742e-05
2.72325e-05
-9.91247e-06
3.37033e-05
1.5007e-05
5.52169e-05
5.57984e-05
7.28917e-05
4.60217e-05
9.32323e-05
-5.02178e-05
8.99152e-05
-0.000151457
4.38343e-05
-0.000217101
-0.000208312
3.8078e-06
1.43588e-05
3.98418e-06
1.27976e-05
4.18963e-06
1.11042e-05
4.45899e-06
9.26187e-06
4.83463e-06
7.27873e-06
5.36379e-06
5.09621e-06
6.05242e-06
2.70762e-06
6.86365e-06
2.37192e-08
7.67112e-06
-3.15716e-06
7.53055e-06
-6.68555e-06
5.80066e-06
-1.13292e-05
8.70764e-06
-1.11036e-05
2.10247e-05
3.20164e-06
4.68043e-05
2.87984e-05
7.95616e-05
1.39306e-05
9.42239e-05
-6.47669e-05
9.02784e-05
-0.000143675
4.50171e-05
-0.00018351
-0.000174887
2.54214e-06
1.43056e-05
2.60934e-06
1.27301e-05
2.70668e-06
1.10067e-05
2.86412e-06
9.10453e-06
3.11297e-06
7.03005e-06
3.48067e-06
4.72884e-06
4.01168e-06
2.17684e-06
4.62724e-06
-5.90075e-07
5.25993e-06
-3.78695e-06
5.60639e-06
-6.96796e-06
4.89862e-06
-1.0835e-05
7.21421e-06
-1.21941e-05
1.95497e-05
-6.73836e-06
4.97735e-05
-2.49306e-06
7.80822e-05
-1.69986e-05
8.86014e-05
-7.10637e-05
7.66789e-05
-0.0001234
3.9051e-05
-0.000150748
-0.000136591
1.26293e-06
1.43751e-05
1.19719e-06
1.27954e-05
1.14756e-06
1.1056e-05
1.12495e-06
9.12684e-06
1.16096e-06
6.99388e-06
1.28708e-06
4.60236e-06
1.53773e-06
1.92573e-06
1.96501e-06
-1.01715e-06
2.54676e-06
-4.3667e-06
3.52281e-06
-7.90144e-06
4.64777e-06
-1.19705e-05
8.91661e-06
-1.58812e-05
1.86011e-05
-1.65775e-05
4.10606e-05
-2.23534e-05
5.92901e-05
-3.86009e-05
6.37919e-05
-8.20503e-05
4.6961e-05
-0.000110071
2.18e-05
-0.000126122
-0.000114838
1.3836e-08
1.46212e-05
-2.16901e-07
1.30254e-05
-4.1716e-07
1.12555e-05
-5.81915e-07
9.29078e-06
-7.04977e-07
7.11609e-06
-7.78453e-07
4.67478e-06
-7.88115e-07
1.93417e-06
-6.48359e-07
-1.15806e-06
-3.86382e-07
-4.63038e-06
7.72225e-07
-9.049e-06
1.94953e-06
-1.31845e-05
5.87079e-06
-1.96688e-05
1.20319e-05
-2.39713e-05
2.62321e-05
-3.89458e-05
3.65131e-05
-5.18964e-05
3.68745e-05
-8.48021e-05
2.67633e-05
-9.95004e-05
1.34163e-05
-0.000112758
-0.000101439
-9.64245e-07
1.48896e-05
-1.37962e-06
1.34401e-05
-1.87119e-06
1.17463e-05
-2.39075e-06
9.80954e-06
-2.89793e-06
7.62233e-06
-3.37761e-06
5.15343e-06
-3.79235e-06
2.34773e-06
-4.13548e-06
-8.16213e-07
-4.1982e-06
-4.56984e-06
-4.04194e-06
-9.19573e-06
-3.08932e-06
-1.4162e-05
1.30825e-06
-2.36809e-05
7.24631e-06
-2.96376e-05
1.94937e-05
-5.03337e-05
2.81271e-05
-5.98986e-05
2.88085e-05
-8.57297e-05
2.16042e-05
-9.23121e-05
1.20037e-05
-0.000103453
-8.91408e-05
-2.22635e-06
-2.42089e-06
-2.74682e-06
-3.17409e-06
-3.66824e-06
-4.22107e-06
-4.81171e-06
-5.29076e-06
-5.52434e-06
-5.04144e-06
-3.26407e-06
2.82127e-06
1.06165e-05
2.17587e-05
2.82262e-05
2.74316e-05
2.12423e-05
1.14142e-05
)
;

boundaryField
{
    leftWall
    {
        type            fixedValue;
        value           nonuniform 0();
    }
    rightWall
    {
        type            fixedValue;
        value           uniform 0;
    }
    lowerWall
    {
        type            fixedValue;
        value           nonuniform 0();
    }
    atmosphere
    {
        type            calculated;
        value           nonuniform List<scalar> 
23
(
7.0677e-06
6.94698e-06
6.80584e-06
6.64641e-06
1.49209e-05
1.36344e-05
1.20719e-05
1.02365e-05
8.11615e-06
5.7059e-06
2.93798e-06
-3.37568e-07
-4.3347e-06
-9.66031e-06
-1.59195e-05
-2.97339e-05
-3.77408e-05
-6.27765e-05
-6.67697e-05
-8.4887e-05
-8.59994e-05
-9.36647e-05
-7.76262e-05
)
;
    }
    defaultFaces
    {
        type            empty;
        value           nonuniform 0();
    }
    procBoundary3to1
    {
        type            processor;
        value           nonuniform List<scalar> 
23
(
-2.94101e-05
-2.9966e-05
-3.04871e-05
-3.09519e-05
-7.4401e-05
-7.42354e-05
-7.35949e-05
-7.01962e-05
-5.93415e-05
-3.42011e-05
6.58417e-05
0.000131398
0.000137827
0.000140489
0.000126737
0.000114394
0.000111385
0.00010878
0.000106141
0.000102976
9.70974e-05
0.000101106
0.000118935
)
;
    }
    procBoundary3to2
    {
        type            processor;
        value           nonuniform List<scalar> 
25
(
-9.70648e-06
-1.27385e-05
-1.52774e-05
-1.55053e-05
-1.63524e-05
-1.59966e-05
-1.59718e-05
-1.52744e-05
-1.44929e-05
-1.36138e-05
-1.25927e-05
-1.15444e-05
-1.04898e-05
-9.43038e-06
-8.38305e-06
-7.3536e-06
-6.33686e-06
-5.33425e-06
-4.33946e-06
-3.35242e-06
-2.38566e-06
-1.45788e-06
-5.04836e-07
7.42106e-07
2.57104e-06
)
;
    }
}


// ************************************************************************* //
