/*--------------------------------*- C++ -*----------------------------------*\
| =========                 |                                                 |
| \\      /  F ield         | OpenFOAM: The Open Source CFD Toolbox           |
|  \\    /   O peration     | Version:  2.4.0                                 |
|   \\  /    A nd           | Web:      www.OpenFOAM.org                      |
|    \\/     M anipulation  |                                                 |
\*---------------------------------------------------------------------------*/
FoamFile
{
    version     2.0;
    format      ascii;
    class       surfaceScalarField;
    location    "0.7";
    object      phi.air;
}
// * * * * * * * * * * * * * * * * * * * * * * * * * * * * * * * * * * * * * //

dimensions      [0 3 -1 0 0 0 0];

internalField   nonuniform List<scalar> 
1102
(
1.31331e-05
2.59959e-05
1.67415e-05
2.63665e-05
2.04048e-05
2.68333e-05
2.71532e-05
2.42126e-05
1.56319e-05
2.31066e-05
1.86798e-05
2.33186e-05
2.18067e-05
2.37063e-05
2.39294e-05
2.50305e-05
1.7713e-05
2.06762e-05
2.01828e-05
2.08488e-05
2.28109e-05
2.10783e-05
2.11919e-05
2.55484e-05
1.76582e-05
1.85285e-05
1.98723e-05
1.86348e-05
2.22499e-05
1.87006e-05
1.87132e-05
2.47287e-05
1.81704e-05
1.67164e-05
2.00931e-05
1.67121e-05
2.22135e-05
1.65801e-05
1.64918e-05
2.44349e-05
1.766e-05
1.50586e-05
1.9389e-05
1.49831e-05
2.12229e-05
1.47462e-05
1.45471e-05
2.31675e-05
1.74592e-05
1.35772e-05
1.89456e-05
1.34967e-05
2.04292e-05
1.32625e-05
1.29787e-05
2.19975e-05
1.65003e-05
1.23568e-05
1.77962e-05
1.22008e-05
1.90877e-05
1.1971e-05
1.16593e-05
2.04071e-05
1.55005e-05
1.13549e-05
1.65708e-05
1.11305e-05
1.76781e-05
1.08636e-05
1.05408e-05
1.87966e-05
1.44846e-05
1.0489e-05
1.53629e-05
1.02522e-05
1.62475e-05
9.97901e-06
9.67482e-06
1.71134e-05
1.32698e-05
9.8169e-06
1.39772e-05
9.54481e-06
1.46848e-05
9.27133e-06
8.96258e-06
1.5397e-05
1.21226e-05
9.24305e-06
1.26913e-05
8.976e-06
1.32662e-05
8.69648e-06
8.40068e-06
1.3828e-05
1.09521e-05
8.78499e-06
1.14105e-05
8.51759e-06
1.18661e-05
8.24086e-06
7.95441e-06
1.23124e-05
9.81684e-06
8.40198e-06
1.0191e-05
8.14341e-06
1.05578e-05
7.87405e-06
7.59651e-06
1.09157e-05
8.70093e-06
8.08744e-06
9.00552e-06
7.83881e-06
9.30335e-06
7.57619e-06
7.30917e-06
9.59067e-06
7.61592e-06
7.82775e-06
7.86702e-06
7.58769e-06
8.10998e-06
7.33322e-06
7.07104e-06
8.3481e-06
6.55036e-06
7.61677e-06
6.75524e-06
7.38281e-06
6.95269e-06
7.13575e-06
6.87843e-06
7.14528e-06
5.50082e-06
7.452e-06
5.66328e-06
7.22034e-06
5.81942e-06
6.97959e-06
6.72546e-06
5.97238e-06
4.46212e-06
7.33102e-06
4.57826e-06
7.10419e-06
4.69542e-06
6.86242e-06
6.61351e-06
4.80735e-06
3.43044e-06
7.25404e-06
3.50456e-06
7.03007e-06
3.57462e-06
6.79235e-06
6.5427e-06
3.64542e-06
2.41169e-06
7.22896e-06
2.43982e-06
7.00192e-06
2.46539e-06
6.76677e-06
6.51885e-06
2.48923e-06
1.42406e-06
7.26316e-06
1.39044e-06
7.03554e-06
1.35992e-06
6.79729e-06
6.54612e-06
1.33264e-06
4.8868e-07
7.27961e-06
4.36168e-07
7.08806e-06
3.58285e-07
6.87517e-06
6.64395e-06
2.6045e-07
-6.67676e-07
7.20519e-06
-6.36714e-07
7.0571e-06
-6.46622e-07
6.88509e-06
6.69232e-06
-6.94987e-07
-2.43279e-06
-2.32175e-06
-2.24156e-06
-2.19466e-06
3.39138e-05
6.47199e-05
4.41294e-05
6.40278e-05
5.54064e-05
6.22787e-05
6.76552e-05
5.82954e-05
7.60265e-05
5.24809e-05
7.31325e-05
4.37359e-05
5.93979e-05
3.85367e-05
-1.95343e-05
3.3488e-05
-0.000115153
-3.66693e-05
-0.000176033
-8.03709e-05
-0.00016069
-0.000126491
-0.000153955
-0.000113877
-0.000148699
-0.000113009
-0.000136286
-0.000109059
-0.000125389
-9.58502e-05
-0.000116185
-7.78494e-05
-0.000112068
-5.31319e-05
-6.66486e-05
-5.26624e-05
-7.80253e-05
3.33286e-05
5.64217e-05
4.22329e-05
5.51236e-05
5.2045e-05
5.24666e-05
6.17929e-05
4.85475e-05
7.10066e-05
4.32672e-05
7.80299e-05
3.67126e-05
8.60352e-05
3.05313e-05
9.62606e-05
2.3251e-05
4.52403e-05
1.30767e-05
-2.75843e-05
-1.45126e-05
-9.64426e-05
-6.0634e-05
-0.0001165
-9.8104e-05
-0.00010723
-0.00012479
-8.04201e-05
-0.0001417
-5.64286e-05
-0.000135058
-5.52847e-05
-0.000106096
-6.06015e-05
-9.4398e-05
-2.90992e-05
-0.000153293
-0.000184343
3.2697e-05
4.92731e-05
4.03469e-05
4.74737e-05
4.85971e-05
4.42165e-05
5.68841e-05
4.02604e-05
6.50021e-05
3.51491e-05
7.36027e-05
2.81119e-05
8.26858e-05
2.1448e-05
9.51584e-05
1.07784e-05
0.000109328
-1.09969e-06
0.000107829
-1.34217e-05
6.55816e-05
-2.08589e-05
-3.85241e-06
-3.21011e-05
-6.94958e-05
-6.1627e-05
-9.40047e-05
-0.000118879
-0.000103299
-0.0001261
-8.76564e-05
-0.000122204
-4.93736e-05
-0.000133538
-2.35653e-05
-0.000181957
-0.000210633
3.10649e-05
4.29368e-05
3.80762e-05
4.04624e-05
4.51456e-05
3.71471e-05
5.22118e-05
3.31942e-05
5.95227e-05
2.78381e-05
6.7169e-05
2.04656e-05
7.50495e-05
1.35675e-05
8.42059e-05
1.62193e-06
8.95403e-05
-6.43416e-06
9.8764e-05
-2.26463e-05
0.000107081
-2.91813e-05
9.12141e-05
-1.62414e-05
2.89441e-05
6.37724e-07
-5.25384e-05
-3.73978e-05
-8.67024e-05
-9.1936e-05
-7.76221e-05
-0.000131285
-6.24497e-05
-0.000148716
-5.37967e-05
-0.000190625
-0.00026443
2.98159e-05
3.75558e-05
3.55932e-05
3.46852e-05
4.14422e-05
3.12981e-05
4.74379e-05
2.71985e-05
5.38022e-05
2.14738e-05
6.05345e-05
1.37333e-05
6.80439e-05
6.05797e-06
7.44204e-05
-4.75459e-06
8.51491e-05
-1.71629e-05
9.53836e-05
-3.28809e-05
0.000102216
-3.60138e-05
0.000104002
-1.80277e-05
7.62821e-05
2.83579e-05
1.14942e-05
2.73901e-05
-3.86068e-05
-4.1835e-05
-3.93848e-05
-0.000130508
-2.63776e-05
-0.000161725
-2.09729e-05
-0.000196031
-0.000285403
2.78783e-05
3.28449e-05
3.27219e-05
2.98415e-05
3.75767e-05
2.64434e-05
4.26529e-05
2.21223e-05
4.80344e-05
1.60922e-05
5.32816e-05
8.4861e-06
5.95596e-05
-2.20116e-07
6.5562e-05
-1.0757e-05
7.51698e-05
-2.67707e-05
8.60327e-05
-4.37438e-05
9.33122e-05
-4.32932e-05
9.4772e-05
-1.94876e-05
7.51681e-05
4.79618e-05
5.00278e-05
5.25304e-05
3.66884e-06
4.52399e-06
-1.42082e-05
-0.00011263
-8.20465e-06
-0.000167729
-5.83044e-06
-0.000198406
-0.000291233
2.582e-05
2.90224e-05
2.96961e-05
2.59654e-05
3.36468e-05
2.24927e-05
3.77318e-05
1.80373e-05
4.18461e-05
1.19778e-05
4.56982e-05
4.634e-06
5.03165e-05
-4.8385e-06
5.52939e-05
-1.57344e-05
6.13238e-05
-3.28007e-05
6.97686e-05
-5.21885e-05
7.78182e-05
-5.13428e-05
7.29441e-05
-1.46135e-05
5.77569e-05
6.31489e-05
3.90742e-05
7.12132e-05
1.17516e-05
3.18466e-05
-5.95293e-06
-9.49259e-05
-8.89737e-06
-0.000164784
-3.14469e-06
-0.000204156
-0.000294365
2.35831e-05
2.58464e-05
2.66727e-05
2.28758e-05
2.97826e-05
1.93827e-05
3.27896e-05
1.50304e-05
3.56004e-05
9.16698e-06
3.80367e-05
2.19761e-06
4.03956e-05
-7.19743e-06
4.26386e-05
-1.79773e-05
4.54953e-05
-3.56574e-05
4.96017e-05
-5.62949e-05
5.68194e-05
-5.85606e-05
4.3483e-05
-1.27711e-06
2.45581e-05
8.20739e-05
4.91953e-06
9.08517e-05
-1.06363e-05
4.74025e-05
-2.67852e-05
-7.87751e-05
-3.19482e-05
-0.00015959
-1.10436e-05
-0.000224426
-0.000302882
2.13416e-05
2.33013e-05
2.37489e-05
2.04685e-05
2.60392e-05
1.70925e-05
2.8061e-05
1.30087e-05
2.95613e-05
7.66663e-06
3.04896e-05
1.2693e-06
3.03305e-05
-7.03835e-06
2.95745e-05
-1.72213e-05
2.69681e-05
-3.30511e-05
2.17772e-05
-5.1104e-05
1.46419e-05
-5.14253e-05
-4.97648e-06
1.83412e-05
-2.0456e-05
9.75534e-05
-3.37595e-05
0.000104155
-4.41026e-05
5.77524e-05
-6.95064e-05
-5.30403e-05
-5.45874e-05
-0.000171099
-3.91137e-06
-0.000265929
-0.000296378
1.90841e-05
2.13306e-05
2.09307e-05
1.86219e-05
2.25294e-05
1.54939e-05
2.37315e-05
1.18065e-05
2.4208e-05
7.19014e-06
2.36692e-05
1.80813e-06
2.14174e-05
-4.78666e-06
1.70452e-05
-1.28491e-05
7.5705e-06
-2.35764e-05
-8.61283e-06
-3.49206e-05
-2.79452e-05
-3.20929e-05
-4.4579e-05
3.49751e-05
-4.72924e-05
0.000100267
-5.71796e-05
0.000114042
-7.17862e-05
7.23834e-05
-7.86416e-05
-4.48974e-05
-1.20355e-05
-0.000230195
1.66193e-05
-0.000288316
-0.000277738
1.70211e-05
1.97065e-05
1.83609e-05
1.72821e-05
1.94119e-05
1.44428e-05
1.99757e-05
1.12427e-05
1.97355e-05
7.43036e-06
1.83123e-05
3.23131e-06
1.49897e-05
-1.46409e-06
8.78112e-06
-6.64048e-06
-2.76259e-06
-1.20327e-05
-2.28376e-05
-1.48456e-05
-4.64066e-05
-8.52385e-06
-5.70969e-05
4.56655e-05
-5.57996e-05
9.89695e-05
-5.90736e-05
0.000117311
-7.79973e-05
9.10993e-05
-4.35458e-05
-7.91186e-05
5.69638e-06
-0.00027529
-3.18143e-07
-0.000293627
-0.000292212
1.5052e-05
1.84826e-05
1.60536e-05
1.62805e-05
1.67288e-05
1.37676e-05
1.69127e-05
1.10588e-05
1.62941e-05
8.04894e-06
1.45416e-05
4.98382e-06
1.1011e-05
2.06651e-06
4.80514e-06
-4.34666e-07
-5.73027e-06
-1.49729e-06
-2.15408e-05
9.64925e-07
-4.20298e-05
1.19652e-05
-4.81677e-05
5.18034e-05
-4.54955e-05
9.62973e-05
-4.4408e-05
0.000116219
-5.45815e-05
0.000101066
-1.89369e-05
-0.000114619
1.00406e-05
-0.000297896
-1.16354e-05
-0.000312805
-0.000301411
1.32921e-05
1.75028e-05
1.40354e-05
1.55372e-05
1.44896e-05
1.33134e-05
1.44972e-05
1.10511e-05
1.38614e-05
8.68479e-06
1.23257e-05
6.51946e-06
9.47511e-06
4.91714e-06
4.74775e-06
4.2927e-06
-2.46305e-06
5.71351e-06
-1.31441e-05
1.1646e-05
-2.61327e-05
2.49538e-05
-2.9808e-05
5.54788e-05
-2.53014e-05
9.17907e-05
-2.25834e-05
0.000113504
-2.27074e-05
0.000101236
-1.95499e-05
-0.000119611
-1.28085e-05
-0.000298594
-8.42788e-06
-0.000310907
-0.000290018
1.16904e-05
1.67281e-05
1.22896e-05
1.4938e-05
1.26233e-05
1.29798e-05
1.26523e-05
1.10221e-05
1.2194e-05
9.14305e-06
1.11522e-05
7.5613e-06
9.34728e-06
6.72206e-06
6.586e-06
7.05398e-06
2.82879e-06
9.47072e-06
-1.6717e-06
1.61465e-05
-5.29878e-06
2.85809e-05
-2.96079e-06
5.31408e-05
4.51064e-06
8.43193e-05
2.73502e-06
0.000115289
9.06122e-07
0.00010301
-2.03174e-05
-0.000100156
-1.59873e-05
-0.000303719
1.11838e-06
-0.00032979
-0.000297197
1.02297e-05
1.6089e-05
1.07288e-05
1.44388e-05
1.10629e-05
1.26457e-05
1.11852e-05
1.08999e-05
1.10537e-05
9.27448e-06
1.06357e-05
7.9793e-06
1.00128e-05
7.34497e-06
9.28908e-06
7.77771e-06
8.71256e-06
1.00472e-05
9.12371e-06
1.57354e-05
1.17249e-05
2.59797e-05
1.86885e-05
4.61772e-05
2.71564e-05
7.58515e-05
3.3472e-05
0.00010898
4.42865e-05
9.20905e-05
1.49298e-05
-7.14916e-05
-1.10988e-05
-0.000280494
-7.25665e-06
-0.000348435
-0.000307344
8.87558e-06
1.55615e-05
9.32314e-06
1.39913e-05
9.66808e-06
1.23007e-05
9.92425e-06
1.06437e-05
1.00993e-05
9.09942e-06
1.02944e-05
7.78424e-06
1.06593e-05
6.98008e-06
1.15052e-05
6.9318e-06
1.34284e-05
8.12404e-06
1.78614e-05
1.13024e-05
2.58653e-05
1.79758e-05
3.96091e-05
3.24333e-05
5.50778e-05
6.03829e-05
6.50915e-05
9.89676e-05
7.53093e-05
8.18444e-05
5.63141e-05
-5.25068e-05
-2.68346e-06
-0.000221656
-3.71404e-05
-0.0003446
-0.000297732
7.5787e-06
1.51281e-05
7.98515e-06
1.35848e-05
8.34352e-06
1.19423e-05
8.70839e-06
1.02788e-05
9.14192e-06
8.66589e-06
9.78794e-06
7.13823e-06
1.09587e-05
5.80932e-06
1.31747e-05
4.71581e-06
1.72908e-05
4.00797e-06
2.49842e-05
3.60889e-06
3.79875e-05
4.97247e-06
5.53137e-05
1.51071e-05
7.05615e-05
4.51351e-05
7.94086e-05
9.01204e-05
8.55471e-05
7.57045e-05
7.37317e-05
-4.06917e-05
2.43211e-05
-0.000172389
-1.75612e-05
-0.000307882
-0.000301145
6.3221e-06
1.47784e-05
6.66642e-06
1.32405e-05
7.00973e-06
1.1599e-05
7.40249e-06
9.88608e-06
7.92702e-06
8.14136e-06
8.71377e-06
6.35148e-06
1.00247e-05
4.4984e-06
1.22948e-05
2.44573e-06
1.63465e-05
-4.3746e-08
2.35597e-05
-3.60432e-06
3.53727e-05
-6.84059e-06
5.0183e-05
2.96847e-07
6.4351e-05
3.09672e-05
7.68346e-05
7.76366e-05
8.68351e-05
6.57039e-05
8.66985e-05
-4.05551e-05
8.15723e-05
-0.000167258
4.58988e-05
-0.000272225
-0.000266583
5.06889e-06
1.45168e-05
5.33944e-06
1.29699e-05
5.6328e-06
1.13057e-05
5.99215e-06
9.52674e-06
6.48424e-06
7.64927e-06
7.21608e-06
5.61965e-06
8.32405e-06
3.39043e-06
9.93695e-06
8.32843e-07
1.21902e-05
-2.29701e-06
1.51057e-05
-6.51984e-06
1.98229e-05
-1.15578e-05
2.86909e-05
-8.57122e-06
4.35599e-05
1.60982e-05
6.41434e-05
5.70531e-05
8.32792e-05
4.65679e-05
9.42073e-05
-5.14833e-05
9.13004e-05
-0.000164351
4.613e-05
-0.000227041
-0.000220504
3.80789e-06
1.43543e-05
3.98465e-06
1.27932e-05
4.19056e-06
1.10997e-05
4.46015e-06
9.25716e-06
4.8358e-06
7.27362e-06
5.36474e-06
5.09071e-06
6.05316e-06
2.70202e-06
6.8652e-06
2.0811e-08
7.71055e-06
-3.14237e-06
7.77659e-06
-6.58588e-06
7.25311e-06
-1.10343e-05
9.41199e-06
-1.07301e-05
2.15271e-05
3.98308e-06
5.0649e-05
2.79312e-05
8.33882e-05
1.38287e-05
9.98681e-05
-6.79632e-05
8.61886e-05
-0.000150672
4.53803e-05
-0.000186233
-0.000175124
2.54226e-06
1.43013e-05
2.60976e-06
1.27257e-05
2.70741e-06
1.10021e-05
2.86495e-06
9.09963e-06
3.11378e-06
7.02481e-06
3.48131e-06
4.72318e-06
4.01231e-06
2.17102e-06
4.62797e-06
-5.94846e-07
5.27115e-06
-3.78554e-06
5.62629e-06
-6.94103e-06
5.33961e-06
-1.07476e-05
6.92295e-06
-1.23135e-05
1.84562e-05
-7.55014e-06
4.91825e-05
-2.79509e-06
8.29152e-05
-1.9904e-05
9.56371e-05
-8.06852e-05
7.42854e-05
-0.00012932
3.86692e-05
-0.000150617
-0.000136455
1.26301e-06
1.43709e-05
1.19748e-06
1.27912e-05
1.14802e-06
1.10516e-05
1.12548e-06
9.12218e-06
1.16141e-06
6.98889e-06
1.2875e-06
4.59709e-06
1.53822e-06
1.9203e-06
1.96561e-06
-1.02224e-06
2.54976e-06
-4.36969e-06
3.50623e-06
-7.89752e-06
4.71079e-06
-1.19522e-05
8.3321e-06
-1.59348e-05
1.81252e-05
-1.73433e-05
4.03747e-05
-2.50446e-05
6.24782e-05
-4.20075e-05
6.59691e-05
-8.41761e-05
4.65368e-05
-0.000109888
2.18847e-05
-0.000125964
-0.00011457
1.38564e-08
1.46175e-05
-2.16743e-07
1.30218e-05
-4.16925e-07
1.12518e-05
-5.81647e-07
9.28691e-06
-7.04754e-07
7.11201e-06
-7.7821e-07
4.67056e-06
-7.87755e-07
1.92985e-06
-6.47796e-07
-1.1622e-06
-3.84454e-07
-4.63303e-06
7.63201e-07
-9.04518e-06
1.97148e-06
-1.31605e-05
5.6181e-06
-1.95814e-05
1.20168e-05
-2.3742e-05
2.58709e-05
-3.88987e-05
3.63763e-05
-5.25128e-05
3.7148e-05
-8.49478e-05
2.66536e-05
-9.93933e-05
1.33539e-05
-0.000112665
-0.000101216
-9.64188e-07
1.48867e-05
-1.37956e-06
1.34372e-05
-1.87109e-06
1.17433e-05
-2.39065e-06
9.80649e-06
-2.89783e-06
7.61919e-06
-3.37748e-06
5.15021e-06
-3.7921e-06
2.34447e-06
-4.13495e-06
-8.19347e-07
-4.19635e-06
-4.57164e-06
-4.04961e-06
-9.19192e-06
-3.06611e-06
-1.4144e-05
1.06292e-06
-2.37105e-05
7.27191e-06
-2.9951e-05
2.01767e-05
-5.18036e-05
2.78829e-05
-6.02189e-05
2.86527e-05
-8.57176e-05
2.14311e-05
-9.21717e-05
1.21144e-05
-0.000103348
-8.91017e-05
-2.22631e-06
-2.42086e-06
-2.74679e-06
-3.17406e-06
-3.66821e-06
-4.22103e-06
-4.81161e-06
-5.29047e-06
-5.52347e-06
-5.04831e-06
-3.25771e-06
2.79631e-06
1.06235e-05
2.16071e-05
2.8171e-05
2.73492e-05
2.11617e-05
1.14688e-05
)
;

boundaryField
{
    leftWall
    {
        type            fixedValue;
        value           nonuniform 0();
    }
    rightWall
    {
        type            fixedValue;
        value           uniform 0;
    }
    lowerWall
    {
        type            fixedValue;
        value           nonuniform 0();
    }
    atmosphere
    {
        type            calculated;
        value           nonuniform List<scalar> 
23
(
7.06677e-06
6.94605e-06
6.8049e-06
6.64543e-06
1.49184e-05
1.36317e-05
1.20692e-05
1.02338e-05
8.11334e-06
5.70303e-06
2.93504e-06
-3.40488e-07
-4.33864e-06
-9.66708e-06
-1.59346e-05
-2.97645e-05
-3.77782e-05
-6.27871e-05
-6.67828e-05
-8.48959e-05
-8.59842e-05
-9.36551e-05
-7.76329e-05
)
;
    }
    defaultFaces
    {
        type            empty;
        value           nonuniform 0();
    }
    procBoundary3to1
    {
        type            processor;
        value           nonuniform List<scalar> 
23
(
-2.94193e-05
-2.99748e-05
-3.04966e-05
-3.0961e-05
-7.44211e-05
-7.42433e-05
-7.35557e-05
-7.05443e-05
-6.08522e-05
-4.08421e-05
-2.47901e-05
4.59966e-05
0.000138051
0.000137831
0.000108861
0.00010912
0.000101976
9.46846e-05
7.71747e-05
5.44273e-05
3.1274e-05
4.01279e-05
6.24058e-05
)
;
    }
    procBoundary3to2
    {
        type            processor;
        value           nonuniform List<scalar> 
25
(
-9.70974e-06
-1.27426e-05
-1.52826e-05
-1.55105e-05
-1.63584e-05
-1.60022e-05
-1.59778e-05
-1.52799e-05
-1.44986e-05
-1.36188e-05
-1.25977e-05
-1.15487e-05
-1.04941e-05
-9.43383e-06
-8.38638e-06
-7.35623e-06
-6.33937e-06
-5.33605e-06
-4.34114e-06
-3.35346e-06
-2.38661e-06
-1.45826e-06
-5.0513e-07
7.42104e-07
2.57121e-06
)
;
    }
}


// ************************************************************************* //
