/*--------------------------------*- C++ -*----------------------------------*\
| =========                 |                                                 |
| \\      /  F ield         | OpenFOAM: The Open Source CFD Toolbox           |
|  \\    /   O peration     | Version:  2.4.0                                 |
|   \\  /    A nd           | Web:      www.OpenFOAM.org                      |
|    \\/     M anipulation  |                                                 |
\*---------------------------------------------------------------------------*/
FoamFile
{
    version     2.0;
    format      ascii;
    class       surfaceScalarField;
    location    "0.7";
    object      phi.mercury;
}
// * * * * * * * * * * * * * * * * * * * * * * * * * * * * * * * * * * * * * //

dimensions      [0 3 -1 0 0 0 0];

internalField   nonuniform List<scalar> 
1102
(
1.3132e-05
2.59898e-05
1.67427e-05
2.63602e-05
2.04069e-05
2.68264e-05
2.71461e-05
2.42168e-05
1.56299e-05
2.31017e-05
1.8678e-05
2.33134e-05
2.18079e-05
2.3701e-05
2.39238e-05
2.50332e-05
1.77092e-05
2.06725e-05
2.01809e-05
2.08451e-05
2.28105e-05
2.10741e-05
2.11876e-05
2.55497e-05
1.7654e-05
1.85255e-05
1.98685e-05
1.86316e-05
2.22486e-05
1.86974e-05
1.87099e-05
2.47288e-05
1.81654e-05
1.67144e-05
2.00896e-05
1.67101e-05
2.22114e-05
1.65778e-05
1.64895e-05
2.44343e-05
1.7655e-05
1.50569e-05
1.93842e-05
1.49814e-05
2.12204e-05
1.47447e-05
1.45455e-05
2.31662e-05
1.74538e-05
1.35763e-05
1.89416e-05
1.3496e-05
2.04264e-05
1.32617e-05
1.29778e-05
2.1996e-05
1.64953e-05
1.23562e-05
1.77915e-05
1.22003e-05
1.90849e-05
1.19706e-05
1.1659e-05
2.04055e-05
1.54955e-05
1.1355e-05
1.6567e-05
1.11308e-05
1.76754e-05
1.08637e-05
1.0541e-05
1.87952e-05
1.448e-05
1.04893e-05
1.53586e-05
1.02525e-05
1.62451e-05
9.97954e-06
9.67539e-06
1.7112e-05
1.32653e-05
9.81766e-06
1.3974e-05
9.54572e-06
1.46826e-05
9.2722e-06
8.96351e-06
1.53959e-05
1.21188e-05
9.24394e-06
1.26879e-05
8.97693e-06
1.32642e-05
8.69761e-06
8.40188e-06
1.38271e-05
1.09485e-05
8.78631e-06
1.1408e-05
8.51905e-06
1.18645e-05
8.24226e-06
7.9559e-06
1.23118e-05
9.81386e-06
8.4033e-06
1.01882e-05
8.14476e-06
1.05566e-05
7.87563e-06
7.59815e-06
1.09152e-05
8.6981e-06
8.08905e-06
9.00379e-06
7.84058e-06
9.30237e-06
7.57793e-06
7.31097e-06
9.59045e-06
7.61376e-06
7.82935e-06
7.86514e-06
7.58934e-06
8.10924e-06
7.33504e-06
7.0729e-06
8.34803e-06
6.54839e-06
7.61862e-06
6.75415e-06
7.38479e-06
6.95216e-06
7.13766e-06
6.88039e-06
7.14533e-06
5.49938e-06
7.45372e-06
5.66193e-06
7.2221e-06
5.81909e-06
6.98152e-06
6.7274e-06
5.97237e-06
4.4608e-06
7.33288e-06
4.57772e-06
7.10618e-06
4.69511e-06
6.86434e-06
6.61545e-06
4.80735e-06
3.42969e-06
7.25574e-06
3.50373e-06
7.03179e-06
3.57439e-06
6.79422e-06
6.54458e-06
3.64536e-06
2.41103e-06
7.23075e-06
2.43965e-06
7.00381e-06
2.46522e-06
6.7686e-06
6.5207e-06
2.4892e-06
1.42385e-06
7.26474e-06
1.39e-06
7.03713e-06
1.35986e-06
6.79902e-06
6.54788e-06
1.33261e-06
4.88493e-07
7.28122e-06
4.3637e-07
7.08975e-06
3.58359e-07
6.87682e-06
6.64556e-06
2.60433e-07
-6.67485e-07
7.20646e-06
-6.36744e-07
7.05833e-06
-6.46737e-07
6.88631e-06
6.69355e-06
-6.95152e-07
-2.43281e-06
-2.32176e-06
-2.24168e-06
-2.19481e-06
3.39189e-05
6.4702e-05
4.41369e-05
6.40084e-05
5.54197e-05
6.22585e-05
6.76757e-05
5.82732e-05
7.60298e-05
5.24471e-05
7.31199e-05
4.36731e-05
3.89451e-05
3.84323e-05
-8.87611e-05
1.85984e-05
-0.000142505
-8.2528e-05
-0.000159496
-8.58854e-05
-0.000156739
-0.000131742
-0.000142798
-0.000127073
-0.000124241
-0.000111075
-0.000101599
-9.62014e-05
-7.83115e-05
-8.53715e-05
-5.42644e-05
-7.44161e-05
-3.04594e-05
-7.20254e-05
-9.32436e-06
-8.54629e-05
-9.20048e-05
3.33317e-05
5.64072e-05
4.22367e-05
5.51075e-05
5.20511e-05
5.24487e-05
6.18025e-05
4.85273e-05
7.10235e-05
4.32432e-05
7.80205e-05
3.66817e-05
8.6018e-05
3.0487e-05
9.19365e-05
2.31789e-05
-1.31466e-05
8.80609e-06
-6.28033e-05
-6.7647e-05
-0.000107931
-9.49521e-05
-0.000118894
-0.000106268
-0.000104926
-0.000122357
-8.60783e-05
-0.00012301
-6.85688e-05
-0.000122761
-5.18741e-05
-0.0001143
-3.21143e-05
-0.000123069
-1.43603e-05
-0.00018509
-0.000264942
3.26986e-05
4.92619e-05
4.03484e-05
4.7461e-05
4.85991e-05
4.42025e-05
5.68872e-05
4.02448e-05
6.50122e-05
3.51329e-05
7.36055e-05
2.80957e-05
8.27038e-05
2.143e-05
9.51377e-05
1.07656e-05
0.000108157
-1.17029e-06
6.70488e-05
-1.4247e-05
1.08732e-05
-1.78383e-05
-7.59137e-05
-3.77902e-05
-0.000116296
-6.0589e-05
-0.000107109
-7.90815e-05
-8.83052e-05
-9.423e-05
-6.04721e-05
-9.38874e-05
-2.30997e-05
-0.000100638
6.14947e-07
-0.000126611
-0.000212199
3.10653e-05
4.29284e-05
3.80764e-05
4.04529e-05
4.51456e-05
3.71368e-05
5.22118e-05
3.31829e-05
5.9525e-05
2.7826e-05
6.71727e-05
2.04527e-05
7.50681e-05
1.35528e-05
8.42123e-05
1.59484e-06
8.94963e-05
-6.47293e-06
9.87905e-05
-2.27672e-05
0.000107126
-2.92825e-05
9.12964e-05
-1.62863e-05
2.55564e-05
8.57669e-07
-5.3581e-05
-3.83845e-05
-8.61765e-05
-9.16158e-05
-7.69032e-05
-0.000131618
-6.11577e-05
-0.000149826
-5.35285e-05
-0.000191874
-0.0002651
2.98155e-05
3.75497e-05
3.55926e-05
3.46786e-05
4.14413e-05
3.1291e-05
4.74371e-05
2.7191e-05
5.38024e-05
2.1466e-05
6.05359e-05
1.37249e-05
6.806e-05
6.04864e-06
7.44205e-05
-4.77148e-06
8.52248e-05
-1.71967e-05
9.53565e-05
-3.30189e-05
0.000102314
-3.63491e-05
0.000104127
-1.84712e-05
7.57765e-05
2.81345e-05
9.2785e-06
2.72432e-05
-3.75598e-05
-4.25435e-05
-3.88864e-05
-0.000130227
-2.58318e-05
-0.000162143
-2.11351e-05
-0.000195926
-0.00028548
2.78774e-05
3.28409e-05
3.27209e-05
2.98373e-05
3.75754e-05
2.64389e-05
4.26516e-05
2.21179e-05
4.80338e-05
1.60877e-05
5.32813e-05
8.48143e-06
5.95731e-05
-2.25897e-07
6.55493e-05
-1.07699e-05
7.53205e-05
-2.6818e-05
8.58287e-05
-4.3933e-05
9.33516e-05
-4.3761e-05
9.49715e-05
-2.00592e-05
7.55114e-05
4.76221e-05
4.97133e-05
5.22395e-05
2.80404e-06
3.94766e-06
-1.36317e-05
-0.00011306
-7.69036e-06
-0.000167746
-6.01044e-06
-0.000198402
-0.00029125
2.5819e-05
2.90202e-05
2.96949e-05
2.59631e-05
3.36455e-05
2.24905e-05
3.77304e-05
1.80352e-05
4.18451e-05
1.19759e-05
4.56974e-05
4.63201e-06
5.03265e-05
-4.84143e-06
5.52686e-05
-1.57434e-05
6.14682e-05
-3.28446e-05
6.93739e-05
-5.24003e-05
7.7672e-05
-5.20329e-05
7.32438e-05
-1.54845e-05
5.86627e-05
6.22507e-05
3.97073e-05
7.06491e-05
1.1151e-05
3.14624e-05
-5.32964e-06
-9.52443e-05
-8.29378e-06
-0.00016503
-3.71579e-06
-0.000206031
-0.000302052
2.3582e-05
2.58457e-05
2.66716e-05
2.28752e-05
2.97814e-05
1.93824e-05
3.27883e-05
1.50302e-05
3.55993e-05
9.16701e-06
3.80358e-05
2.19759e-06
4.03993e-05
-7.19818e-06
4.26099e-05
-1.79832e-05
4.55821e-05
-3.56972e-05
4.88473e-05
-5.64941e-05
5.63128e-05
-5.92706e-05
4.4155e-05
-2.15128e-06
2.60978e-05
8.12179e-05
5.70995e-06
9.00091e-05
-1.048e-05
4.64735e-05
-2.54982e-05
-8.13878e-05
-3.13789e-05
-0.000179505
-1.06024e-05
-0.000319058
-0.000401503
2.13406e-05
2.33018e-05
2.3748e-05
2.04693e-05
2.60381e-05
1.70934e-05
2.80599e-05
1.301e-05
2.95602e-05
7.66807e-06
3.04886e-05
1.2707e-06
3.03298e-05
-7.03754e-06
2.95495e-05
-1.72245e-05
2.6835e-05
-3.30886e-05
2.05463e-05
-5.1249e-05
1.33896e-05
-5.18022e-05
-3.82548e-06
1.73134e-05
-1.88333e-05
9.61612e-05
-3.30907e-05
0.00010281
-4.31689e-05
5.29596e-05
-6.4636e-05
-0.000126492
-4.0966e-05
-0.000317851
-1.13994e-06
-0.000365494
-0.000352267
1.90833e-05
2.13322e-05
2.093e-05
1.86237e-05
2.25285e-05
1.5496e-05
2.37305e-05
1.18089e-05
2.42069e-05
7.1926e-06
2.3668e-05
1.81046e-06
2.14155e-05
-4.78478e-06
1.70067e-05
-1.285e-05
7.14649e-06
-2.36189e-05
-1.03382e-05
-3.52799e-05
-2.9052e-05
-3.27707e-05
-4.41786e-05
3.40343e-05
-4.6016e-05
9.85418e-05
-5.63135e-05
0.00011143
-6.4879e-05
4.48949e-05
-4.80709e-05
-0.000180495
-1.52692e-05
-0.000308002
1.2123e-06
-0.000318889
-0.000307581
1.70206e-05
1.97089e-05
1.83603e-05
1.72848e-05
1.94113e-05
1.44458e-05
1.99748e-05
1.12458e-05
1.97343e-05
7.43349e-06
1.83109e-05
3.2342e-06
1.49879e-05
-1.46155e-06
8.7461e-06
-6.63962e-06
-3.13633e-06
-1.20775e-05
-2.45783e-05
-1.53233e-05
-4.72594e-05
-9.8147e-06
-5.73543e-05
4.44878e-05
-5.5836e-05
9.72844e-05
-5.864e-05
0.000114589
-5.94781e-05
3.6253e-05
-2.80138e-05
-0.000202184
-1.23868e-05
-0.000294703
-3.68959e-07
-0.000305029
-0.000297657
1.50516e-05
1.84857e-05
1.60533e-05
1.62838e-05
1.67283e-05
1.37712e-05
1.69117e-05
1.10624e-05
1.62926e-05
8.05245e-06
1.45399e-05
4.98703e-06
1.10094e-05
2.06945e-06
4.79716e-06
-4.32323e-07
-5.85056e-06
-1.50482e-06
-2.23175e-05
8.26898e-07
-4.28163e-05
1.12131e-05
-4.84347e-05
5.02666e-05
-4.58841e-05
9.39967e-05
-4.46141e-05
0.000114135
-4.34228e-05
3.25047e-05
-2.00274e-05
-0.000213584
-1.26037e-05
-0.000293443
-5.52619e-07
-0.000297684
-0.000299035
1.32919e-05
1.75064e-05
1.40353e-05
1.55411e-05
1.44891e-05
1.33174e-05
1.44962e-05
1.1055e-05
1.38597e-05
8.68847e-06
1.23238e-05
6.52291e-06
9.47342e-06
4.92033e-06
4.74639e-06
4.29576e-06
-2.47813e-06
5.71556e-06
-1.331e-05
1.16316e-05
-2.66614e-05
2.4812e-05
-3.01135e-05
5.47684e-05
-2.60201e-05
9.08294e-05
-2.39432e-05
0.00011277
-2.61207e-05
3.75547e-05
-1.74765e-05
-0.000212542
-1.43352e-05
-0.000333168
1.58642e-06
-0.000322634
-0.000299753
1.16905e-05
1.67321e-05
1.22896e-05
1.49422e-05
1.26228e-05
1.29839e-05
1.26511e-05
1.10261e-05
1.21922e-05
9.14684e-06
1.11501e-05
7.56493e-06
9.3455e-06
6.72556e-06
6.58505e-06
7.05753e-06
2.82781e-06
9.47408e-06
-1.68829e-06
1.61484e-05
-5.39079e-06
2.85704e-05
-3.0517e-06
5.30964e-05
4.02233e-06
8.39708e-05
-5.68578e-07
0.000115016
-7.38418e-06
6.06729e-05
-1.91872e-05
-0.000186916
-2.08101e-05
-0.000472723
4.71196e-06
-0.000391746
-0.000296416
1.02299e-05
1.60934e-05
1.07288e-05
1.44432e-05
1.10623e-05
1.265e-05
1.11837e-05
1.09039e-05
1.10517e-05
9.2784e-06
1.06335e-05
7.98309e-06
1.00111e-05
7.34891e-06
9.28802e-06
7.78174e-06
8.71233e-06
1.00513e-05
9.12366e-06
1.5739e-05
1.17239e-05
2.59825e-05
1.86817e-05
4.61915e-05
2.70222e-05
7.58889e-05
3.01935e-05
0.000108928
3.89647e-05
7.94305e-05
1.27807e-05
-7.73204e-05
-2.12397e-05
-0.000285636
1.30019e-05
-0.000365254
-0.000289413
8.8758e-06
1.5566e-05
9.32307e-06
1.39957e-05
9.66729e-06
1.2305e-05
9.92266e-06
1.06478e-05
1.00972e-05
9.10346e-06
1.02922e-05
7.78833e-06
1.06576e-05
6.98448e-06
1.15041e-05
6.93639e-06
1.34279e-05
8.1287e-06
1.78612e-05
1.13067e-05
2.58659e-05
1.79798e-05
3.96184e-05
3.24419e-05
5.50165e-05
6.04142e-05
6.46192e-05
9.89216e-05
7.4793e-05
8.12979e-05
5.62569e-05
-5.24707e-05
1.95658e-05
-0.000221646
5.4044e-05
-0.000310826
-0.000305908
7.57889e-06
1.51326e-05
7.98496e-06
1.35893e-05
8.34257e-06
1.19466e-05
8.70675e-06
1.0283e-05
9.13983e-06
8.67008e-06
9.78603e-06
7.14274e-06
1.09572e-05
5.81415e-06
1.31737e-05
4.72097e-06
1.72901e-05
4.01316e-06
2.49834e-05
3.61377e-06
3.79866e-05
4.97663e-06
5.53132e-05
1.51103e-05
7.05352e-05
4.5137e-05
7.93722e-05
9.01124e-05
8.55081e-05
7.5696e-05
7.36479e-05
-4.06645e-05
4.1742e-05
-0.000172378
6.42087e-05
-0.000294427
-0.000465538
6.32221e-06
1.47829e-05
6.66608e-06
1.32449e-05
7.00871e-06
1.16033e-05
7.40085e-06
9.89038e-06
7.92519e-06
8.14585e-06
8.71211e-06
6.35638e-06
1.00235e-05
4.5037e-06
1.22939e-05
2.45134e-06
1.63456e-05
-3.81137e-08
2.35585e-05
-3.59894e-06
3.53709e-05
-6.83572e-06
5.01808e-05
3.00745e-07
6.43391e-05
3.097e-05
7.68377e-05
7.76391e-05
8.68268e-05
6.57145e-05
8.66379e-05
-4.05366e-05
8.07616e-05
-0.000167251
8.07148e-05
-0.000269422
-0.000289828
5.06889e-06
1.45213e-05
5.33899e-06
1.29743e-05
5.63179e-06
1.131e-05
5.99067e-06
9.53121e-06
6.48275e-06
7.65413e-06
7.21475e-06
5.6249e-06
8.32308e-06
3.39615e-06
9.93606e-06
8.38785e-07
1.21891e-05
-2.29103e-06
1.5104e-05
-6.51402e-06
1.98201e-05
-1.15523e-05
2.86878e-05
-8.56594e-06
4.35578e-05
1.61036e-05
6.41471e-05
5.70609e-05
8.32714e-05
4.65917e-05
9.41749e-05
-5.14654e-05
9.1304e-05
-0.000164343
4.61276e-05
-0.000227027
-0.000220496
3.8078e-06
1.43588e-05
3.98418e-06
1.27976e-05
4.18963e-06
1.11042e-05
4.45899e-06
9.26187e-06
4.83463e-06
7.27874e-06
5.3638e-06
5.09626e-06
6.05237e-06
2.70796e-06
6.86433e-06
2.69353e-08
7.70932e-06
-3.13617e-06
7.77457e-06
-6.57977e-06
7.24998e-06
-1.10282e-05
9.40833e-06
-1.0724e-05
2.15286e-05
3.99046e-06
5.06427e-05
2.7948e-05
8.33781e-05
1.38494e-05
9.98587e-05
-6.79502e-05
8.61881e-05
-0.000150662
4.53778e-05
-0.000186223
-0.000175114
2.54214e-06
1.43056e-05
2.60934e-06
1.27301e-05
2.70668e-06
1.10067e-05
2.86412e-06
9.10453e-06
3.11297e-06
7.03005e-06
3.48067e-06
4.72886e-06
4.01168e-06
2.17696e-06
4.62717e-06
-5.88712e-07
5.26986e-06
-3.77931e-06
5.62429e-06
-6.93471e-06
5.33672e-06
-1.0741e-05
6.91966e-06
-1.23064e-05
1.84547e-05
-7.54161e-06
4.91756e-05
-2.78026e-06
8.2909e-05
-1.9888e-05
9.56323e-05
-8.06722e-05
7.42825e-05
-0.000129309
3.86696e-05
-0.000150604
-0.000136441
1.26293e-06
1.43751e-05
1.19719e-06
1.27954e-05
1.14756e-06
1.1056e-05
1.12495e-06
9.12684e-06
1.16096e-06
6.99388e-06
1.28709e-06
4.60236e-06
1.53775e-06
1.92579e-06
1.96489e-06
-1.01658e-06
2.54856e-06
-4.36386e-06
3.50446e-06
-7.89139e-06
4.70834e-06
-1.19456e-05
8.32927e-06
-1.59274e-05
1.8122e-05
-1.73347e-05
4.03705e-05
-2.5034e-05
6.24749e-05
-4.19956e-05
6.59652e-05
-8.41635e-05
4.65338e-05
-0.000109874
2.18841e-05
-0.00012595
-0.000114556
1.3836e-08
1.46212e-05
-2.16901e-07
1.30254e-05
-4.1716e-07
1.12555e-05
-5.81915e-07
9.29078e-06
-7.04977e-07
7.11609e-06
-7.78451e-07
4.67479e-06
-7.88096e-07
1.93422e-06
-6.48386e-07
-1.15767e-06
-3.85396e-07
-4.62825e-06
7.61818e-07
-9.03999e-06
1.96972e-06
-1.31546e-05
5.61593e-06
-1.95747e-05
1.20145e-05
-2.37342e-05
2.58685e-05
-3.88897e-05
3.6374e-05
-5.25022e-05
3.7145e-05
-8.49361e-05
2.6652e-05
-9.93797e-05
1.33532e-05
-0.000112651
-0.000101203
-9.64245e-07
1.48896e-05
-1.37962e-06
1.34401e-05
-1.87119e-06
1.17463e-05
-2.39075e-06
9.80954e-06
-2.89793e-06
7.62233e-06
-3.3776e-06
5.15343e-06
-3.79232e-06
2.34778e-06
-4.13534e-06
-8.1586e-07
-4.19698e-06
-4.56787e-06
-4.05048e-06
-9.18765e-06
-3.06725e-06
-1.41391e-05
1.06164e-06
-2.37047e-05
7.27043e-06
-2.99444e-05
2.01754e-05
-5.17958e-05
2.78813e-05
-6.02101e-05
2.86516e-05
-8.57076e-05
2.14297e-05
-9.21609e-05
1.21138e-05
-0.000103336
-8.90891e-05
-2.22635e-06
-2.42089e-06
-2.74682e-06
-3.17409e-06
-3.66824e-06
-4.22107e-06
-4.81169e-06
-5.29063e-06
-5.52373e-06
-5.04868e-06
-3.25821e-06
2.79571e-06
1.06227e-05
2.16064e-05
2.81702e-05
2.73486e-05
2.11611e-05
1.14687e-05
)
;

boundaryField
{
    leftWall
    {
        type            fixedValue;
        value           nonuniform 0();
    }
    rightWall
    {
        type            fixedValue;
        value           uniform 0;
    }
    lowerWall
    {
        type            fixedValue;
        value           nonuniform 0();
    }
    atmosphere
    {
        type            calculated;
        value           nonuniform List<scalar> 
23
(
7.0677e-06
6.94698e-06
6.80584e-06
6.64641e-06
1.49209e-05
1.36344e-05
1.20719e-05
1.02365e-05
8.11615e-06
5.7059e-06
2.938e-06
-3.37326e-07
-4.33517e-06
-9.66312e-06
-1.59299e-05
-2.97591e-05
-3.77718e-05
-6.27801e-05
-6.67746e-05
-8.48873e-05
-8.59739e-05
-9.3644e-05
-7.76204e-05
)
;
    }
    defaultFaces
    {
        type            empty;
        value           nonuniform 0();
    }
    procBoundary3to1
    {
        type            processor;
        value           nonuniform List<scalar> 
23
(
-2.94111e-05
-2.9966e-05
-3.04876e-05
-3.09516e-05
-7.43984e-05
-7.42201e-05
-7.35329e-05
-7.0523e-05
-6.0799e-05
-4.07404e-05
-1.24586e-05
8.54227e-05
0.000121693
0.000130251
0.000117391
0.000100806
9.3695e-05
8.11939e-05
6.36907e-05
4.48935e-05
2.82924e-05
2.43256e-05
3.24063e-05
)
;
    }
    procBoundary3to2
    {
        type            processor;
        value           nonuniform List<scalar> 
25
(
-9.70725e-06
-1.2739e-05
-1.52776e-05
-1.55054e-05
-1.63524e-05
-1.59966e-05
-1.59718e-05
-1.52744e-05
-1.44929e-05
-1.36138e-05
-1.25927e-05
-1.15444e-05
-1.04898e-05
-9.43038e-06
-8.38305e-06
-7.3536e-06
-6.33686e-06
-5.33425e-06
-4.33946e-06
-3.35242e-06
-2.38566e-06
-1.45788e-06
-5.04836e-07
7.42106e-07
2.57104e-06
)
;
    }
}


// ************************************************************************* //
