/*--------------------------------*- C++ -*----------------------------------*\
| =========                 |                                                 |
| \\      /  F ield         | OpenFOAM: The Open Source CFD Toolbox           |
|  \\    /   O peration     | Version:  2.4.0                                 |
|   \\  /    A nd           | Web:      www.OpenFOAM.org                      |
|    \\/     M anipulation  |                                                 |
\*---------------------------------------------------------------------------*/
FoamFile
{
    version     2.0;
    format      ascii;
    class       volScalarField;
    location    "0.7";
    object      rho;
}
// * * * * * * * * * * * * * * * * * * * * * * * * * * * * * * * * * * * * * //

dimensions      [1 -3 0 0 0 0 0];

internalField   nonuniform List<scalar> 
575
(
0.999999
0.999998
0.999999
0.999998
0.999999
0.999999
0.999998
0.999998
0.999999
0.999998
0.999998
0.999998
0.999999
0.999999
0.999998
0.999998
0.999999
0.999998
0.999998
0.999998
0.999999
0.999999
0.999998
0.999998
0.999998
0.999998
0.999997
0.999997
0.999998
0.999998
0.999997
0.999997
0.999997
0.999997
0.999996
0.999996
0.999997
0.999997
0.999996
0.999996
0.999997
0.999996
0.999996
0.999996
0.999997
0.999996
0.999995
0.999995
0.999996
0.999996
0.999995
0.999995
0.999996
0.999995
0.999995
0.999995
0.999997
0.999996
0.999995
0.999995
0.999997
0.999996
0.999995
0.999996
0.999997
0.999997
0.999995
0.999996
0.999997
0.999996
0.999996
0.999996
0.999998
0.999998
0.999996
0.999997
0.999997
0.999997
0.999997
0.999997
0.999998
0.999998
0.999997
0.999998
0.999998
0.999998
0.999998
0.999998
0.999998
0.999999
0.999998
0.999998
0.999998
0.999997
0.999998
0.999998
0.999998
0.999998
0.999998
0.999999
0.999999
0.999999
1
1.00004
1.00008
1.00023
1.00038
1.1864
16.7277
140.659
312.808
364.317
363.94
329.839
292.067
292.065
347.321
444.316
487.198
0.999998
0.999998
0.999999
1.00001
1.00003
1.00008
1.00019
1.0005
1.08567
4.45495
26.905
54.2065
58.6315
36.5541
16.0366
11.47
14.7234
31.7681
42.9425
0.999998
0.999997
0.999998
1
1.00001
1.00002
1.00008
1.00021
1.00106
1.01942
1.07548
1.12938
1.13491
1.04293
1.00864
1.00994
1.04592
1.06674
1.01433
0.999998
0.999997
0.999998
0.999998
1
1
1.00002
1.00006
1.00015
1.00046
1.00074
1.00097
1.0012
1.00126
1.00128
1.00377
1.02271
1.00806
1.00129
0.999998
0.999998
0.999998
0.999998
0.999999
1
1.00001
1.00002
1.00005
1.0001
1.00025
1.00067
1.00105
1.00127
1.00133
1.00333
1.007
1.00106
1.00125
0.999998
0.999998
0.999998
0.999998
0.999999
1
1
1.00001
1.00004
1.0001
1.00023
1.00048
1.00084
1.00113
1.00133
1.00121
1.00093
1.00089
1.00129
0.999998
0.999998
0.999998
0.999998
0.999999
1
1
1.00001
1.00003
1.00011
1.00029
1.00052
1.00083
1.00111
1.0013
1.00119
1.00092
1.001
1.00139
0.999998
0.999998
0.999998
0.999999
0.999999
1
1
1.00001
1.00003
1.00012
1.00038
1.00066
1.00093
1.00117
1.00132
1.00116
1.00103
1.01451
1.21998
0.999997
0.999997
0.999998
0.999999
0.999999
1
1
1
1.00003
1.00014
1.00049
1.00096
1.00112
1.00129
1.00184
1.01444
1.27354
4.32006
17.7677
0.999997
0.999997
0.999998
0.999999
0.999999
1
1
1
1.00002
1.00019
1.00061
1.00107
1.00126
1.00133
1.04416
2.46299
16.6618
76.2396
186.291
0.999997
0.999997
0.999998
0.999998
0.999999
1
1
1
1.00002
1.00015
1.00056
1.00103
1.00128
1.00167
1.23822
9.80223
90.5023
295.888
445.583
0.999996
0.999997
0.999997
0.999998
0.999999
1
1
1
1
1.00004
1.00024
1.00068
1.001
1.00238
1.43885
15.8015
135.736
397.548
492.928
0.999996
0.999997
0.999997
0.999998
0.999999
1
1
1
1
1.00001
1.00006
1.0003
1.00062
1.00311
1.49388
13.8367
86.6313
288.124
492.928
0.999996
0.999997
0.999997
0.999998
0.999999
1
1
1
1
1.00001
1.00002
1.00009
1.00033
1.00359
1.3724
3.56151
8.68888
54.6797
491.007
0.999996
0.999997
0.999997
0.999998
0.999999
1
1
1
1
1
1.00002
1.00006
1.0003
1.00394
1.15532
1.05151
1.01445
4.35476
461.259
0.999997
0.999997
0.999998
0.999998
0.999999
1
1
1
1
1.00001
1.00002
1.00005
1.00033
1.00605
1.02022
1.00283
1.00101
3.7339
291.864
0.999997
0.999997
0.999998
0.999999
0.999999
1
1
1
1
1.00001
1.00004
1.00007
1.00029
1.0044
1.00588
1.00158
1.00102
4.44668
47.5092
0.999997
0.999998
0.999998
0.999999
0.999999
0.999999
1
1
1.00001
1.00004
1.00012
1.00032
1.00046
1.00353
1.00347
1.00117
1.00105
1.25556
1.38096
0.999998
0.999998
0.999998
0.999999
0.999999
0.999999
1
1
1.00001
1.00005
1.00016
1.0005
1.00064
1.00306
1.00213
1.00099
1.00103
1.00089
1.00022
0.999998
0.999998
0.999999
0.999999
0.999999
0.999999
1
1
1.00001
1.00003
1.00011
1.00045
1.00074
1.00163
1.00129
1.00082
1.00048
1.00017
1.00004
0.999998
0.999999
0.999999
0.999999
0.999999
0.999999
0.999999
1
1
1.00001
1.00005
1.00016
1.0006
1.00091
1.00094
1.00051
1.00022
1.00006
1.00004
0.999999
0.999999
0.999999
0.999999
0.999999
0.999999
0.999999
0.999999
1
1
1.00001
1.00005
1.00017
1.00036
1.00038
1.00015
1.00004
1.00002
1.00004
0.999999
0.999999
0.999999
0.999999
0.999999
0.999999
0.999999
0.999999
1
1
1
1.00002
1.00005
1.0001
1.00011
1.00004
1.00002
1.00001
1.00002
0.999999
0.999999
0.999999
0.999999
0.999999
0.999999
0.999999
0.999999
1
1
1.00001
1.00002
1.00004
1.00006
1.00003
1.00001
1.00002
1.00001
1
0.999999
0.999999
0.999999
0.999999
0.999999
0.999999
0.999999
0.999999
0.999999
1
1
1.00001
1.00001
1
1.00001
1
1.00001
1.00001
1
)
;

boundaryField
{
    leftWall
    {
        type            calculated;
        value           nonuniform 0();
    }
    rightWall
    {
        type            calculated;
        value           nonuniform List<scalar> 
25
(
487.198
42.9425
1.01433
1.00129
1.00125
1.00129
1.00139
1.21998
17.7677
186.291
445.583
492.928
492.928
491.007
461.259
291.864
47.5092
1.38096
1.00022
1.00004
1.00004
1.00004
1.00002
1
1
)
;
    }
    lowerWall
    {
        type            calculated;
        value           nonuniform 0();
    }
    atmosphere
    {
        type            calculated;
        value           nonuniform List<scalar> 
23
(
0.999998
0.999998
0.999998
0.999999
0.999999
0.999999
0.999999
0.999999
0.999999
0.999999
0.999999
0.999999
1
1
1
1
1
1
1
1
1
1
1
)
;
    }
    defaultFaces
    {
        type            empty;
    }
    procBoundary3to1
    {
        type            processor;
        value           nonuniform List<scalar> 
23
(
0.999999
0.999999
0.999999
1
1
1
1.00002
1.0001
1.00019
1.00051
1.08491
15.6813
169.042
438.409
510.251
518.872
527.018
530.018
533.784
547.826
577.048
629.71
692.839
)
;
    }
    procBoundary3to2
    {
        type            processor;
        value           nonuniform List<scalar> 
25
(
0.999999
0.999999
1
1
1
0.999999
0.999999
0.999998
0.999998
0.999997
0.999997
0.999997
0.999997
0.999998
0.999998
0.999998
0.999998
0.999999
0.999999
0.999999
0.999999
0.999999
1
0.999999
0.999999
)
;
    }
}


// ************************************************************************* //
