/*--------------------------------*- C++ -*----------------------------------*\
| =========                 |                                                 |
| \\      /  F ield         | OpenFOAM: The Open Source CFD Toolbox           |
|  \\    /   O peration     | Version:  2.4.0                                 |
|   \\  /    A nd           | Web:      www.OpenFOAM.org                      |
|    \\/     M anipulation  |                                                 |
\*---------------------------------------------------------------------------*/
FoamFile
{
    version     2.0;
    format      ascii;
    class       volVectorField;
    location    "0.7";
    object      U;
}
// * * * * * * * * * * * * * * * * * * * * * * * * * * * * * * * * * * * * * //

dimensions      [0 1 -1 0 0 0 0];

internalField   nonuniform List<vector> 
575
(
(0.0611111 0.316841 0)
(0.0801223 0.322305 0)
(0.0999878 0.328003 0)
(0.11921 0.332465 0)
(0.075873 0.278069 0)
(0.0920195 0.281162 0)
(0.108917 0.286467 0)
(0.125056 0.289821 0)
(0.0884934 0.249685 0)
(0.101772 0.251751 0)
(0.115461 0.255508 0)
(0.129128 0.257595 0)
(0.088865 0.224136 0)
(0.10071 0.226266 0)
(0.113099 0.22805 0)
(0.125842 0.228432 0)
(0.0924564 0.200109 0)
(0.1023 0.200499 0)
(0.113662 0.20041 0)
(0.125197 0.200613 0)
(0.0901309 0.182484 0)
(0.0991204 0.181811 0)
(0.108977 0.178956 0)
(0.119317 0.176752 0)
(0.089674 0.162831 0)
(0.097546 0.161796 0)
(0.105586 0.159199 0)
(0.113826 0.156313 0)
(0.0853875 0.147486 0)
(0.0918432 0.146699 0)
(0.0989022 0.144239 0)
(0.106091 0.140807 0)
(0.0803803 0.135716 0)
(0.0859923 0.132838 0)
(0.0917732 0.130059 0)
(0.0978343 0.126002 0)
(0.0755778 0.124035 0)
(0.080071 0.12184 0)
(0.0846761 0.118563 0)
(0.0894955 0.115219 0)
(0.0694407 0.116041 0)
(0.0731358 0.112788 0)
(0.076926 0.109852 0)
(0.0805146 0.106128 0)
(0.0635952 0.108554 0)
(0.0666391 0.10558 0)
(0.0696888 0.10232 0)
(0.072642 0.0988897 0)
(0.0575815 0.102921 0)
(0.0600389 0.0997529 0)
(0.062544 0.0965911 0)
(0.0647451 0.0932013 0)
(0.0517046 0.0980452 0)
(0.0537252 0.0950351 0)
(0.0557552 0.091892 0)
(0.0575235 0.0886452 0)
(0.0458891 0.0941069 0)
(0.0475543 0.0911781 0)
(0.0492522 0.0881358 0)
(0.0506644 0.0849911 0)
(0.0402098 0.0908328 0)
(0.041574 0.0880318 0)
(0.043001 0.085079 0)
(0.0441333 0.0820356 0)
(0.0346185 0.0881535 0)
(0.0357138 0.0854426 0)
(0.036903 0.0825779 0)
(0.0378186 0.0796045 0)
(0.0291021 0.0860191 0)
(0.0299571 0.0833747 0)
(0.0309123 0.0805759 0)
(0.0316391 0.0776555 0)
(0.0236427 0.084402 0)
(0.0242512 0.0817938 0)
(0.0249597 0.0790437 0)
(0.0255038 0.0761565 0)
(0.0182238 0.0832861 0)
(0.018604 0.0806959 0)
(0.0190461 0.0779846 0)
(0.0193829 0.0751264 0)
(0.0129018 0.0826883 0)
(0.01301 0.0801216 0)
(0.0131961 0.0774207 0)
(0.0132994 0.0745735 0)
(0.00773007 0.0827719 0)
(0.00754201 0.0801432 0)
(0.00739685 0.0774346 0)
(0.00722311 0.0746302 0)
(0.00276764 0.0833413 0)
(0.00252314 0.0808273 0)
(0.00217427 0.0781032 0)
(0.00166955 0.0752213 0)
(-0.00374921 0.0834555 0)
(-0.00345391 0.0815107 0)
(-0.00338432 0.0792888 0)
(-0.00353346 0.0768355 0)
(-0.0134328 0.0806743 0)
(-0.012685 0.0792964 0)
(-0.012191 0.0776851 0)
(-0.0118319 0.0758647 0)
(0.1564 0.338462 0)
(0.208763 0.336984 0)
(0.265838 0.331085 0)
(0.326133 0.309727 0)
(0.388573 0.270752 0)
(0.410053 0.227886 0)
(0.400832 0.181404 0)
(0.24068 0.156779 0)
(-0.515285 -0.555175 0)
(-0.854578 -0.632277 0)
(-0.872382 -0.619177 0)
(-0.847602 -0.555434 0)
(-0.807414 -0.530745 0)
(-0.764934 -0.513802 0)
(-0.701018 -0.506511 0)
(-0.638568 -0.490238 0)
(-0.541081 -0.481597 0)
(-0.331667 -0.515496 0)
(-0.19937 -0.582936 0)
(0.156948 0.292848 0)
(0.201781 0.288173 0)
(0.251553 0.276749 0)
(0.306112 0.256289 0)
(0.351523 0.227766 0)
(0.408088 0.197754 0)
(0.432741 0.180395 0)
(0.512154 0.155169 0)
(0.457256 0.155422 0)
(0.0796224 -0.123288 0)
(-0.462937 -0.462014 0)
(-0.614057 -0.571536 0)
(-0.612261 -0.577352 0)
(-0.528721 -0.500564 0)
(-0.38242 -0.325533 0)
(-0.249336 -0.0148171 0)
(-0.418176 0.282469 0)
(-0.245541 0.165718 0)
(0.000157843 -0.112572 0)
(0.156192 0.257335 0)
(0.195693 0.250044 0)
(0.237 0.23539 0)
(0.284324 0.216384 0)
(0.322575 0.190839 0)
(0.376521 0.156056 0)
(0.411028 0.129599 0)
(0.480083 0.0917946 0)
(0.553422 0.00281746 0)
(0.596769 0.00240672 0)
(0.537312 -0.0236858 0)
(0.198723 -0.199136 0)
(-0.248485 -0.436914 0)
(-0.468338 -0.600425 0)
(-0.559704 -0.661546 0)
(-0.537314 -0.643691 0)
(-0.356961 -0.730533 0)
(-0.216899 -0.828003 0)
(0.0104409 -0.698581 0)
(0.14921 0.223071 0)
(0.184731 0.212927 0)
(0.223404 0.196151 0)
(0.261292 0.176498 0)
(0.296786 0.151144 0)
(0.343285 0.116584 0)
(0.373674 0.0832279 0)
(0.428535 0.0205799 0)
(0.467692 -0.0158492 0)
(0.485617 -0.118023 0)
(0.571711 -0.165695 0)
(0.555571 -0.108842 0)
(0.455914 -0.122219 0)
(-0.129234 -0.511439 0)
(-0.473783 -0.644704 0)
(-0.474678 -0.736932 0)
(-0.332914 -0.815388 0)
(-0.366928 -1.10666 0)
(-0.130046 -1.52445 0)
(0.145465 0.195579 0)
(0.174701 0.181849 0)
(0.206976 0.165607 0)
(0.238371 0.146435 0)
(0.26895 0.119334 0)
(0.310676 0.0808975 0)
(0.337198 0.0458754 0)
(0.391995 -0.00739035 0)
(0.414007 -0.0514155 0)
(0.4819 -0.115719 0)
(0.52125 -0.139129 0)
(0.584883 -0.062397 0)
(0.538821 0.120044 0)
(0.286964 0.100637 0)
(-0.170075 -0.301698 0)
(-0.25564 -0.578276 0)
(-0.1448 -0.686507 0)
(-0.159342 -0.868685 0)
(-0.030469 -1.23899 0)
(0.136575 0.170561 0)
(0.161968 0.156213 0)
(0.188787 0.139676 0)
(0.214958 0.118652 0)
(0.242047 0.0894247 0)
(0.275974 0.0518493 0)
(0.293667 0.0123484 0)
(0.351094 -0.037708 0)
(0.354377 -0.115186 0)
(0.444398 -0.19343 0)
(0.463679 -0.196497 0)
(0.511906 -0.103426 0)
(0.491973 0.180341 0)
(0.366886 0.204128 0)
(0.142008 -0.0664139 0)
(-0.103635 -0.633156 0)
(-0.0429971 -0.830208 0)
(-0.0491196 -0.954924 0)
(-0.00165973 -1.40625 0)
(0.12853 0.149296 0)
(0.148304 0.13491 0)
(0.1701 0.118121 0)
(0.191762 0.0967352 0)
(0.212441 0.0666792 0)
(0.239296 0.0298474 0)
(0.249045 -0.0146697 0)
(0.300594 -0.066908 0)
(0.289311 -0.150763 0)
(0.368583 -0.241224 0)
(0.378136 -0.233033 0)
(0.409041 -0.0911547 0)
(0.390406 0.274113 0)
(0.280294 0.304846 0)
(0.13676 0.117739 0)
(-0.0252252 -0.468164 0)
(-0.037677 -0.807671 0)
(-0.0534901 -0.968742 0)
(0.0184953 -1.4342 0)
(0.118274 0.133505 0)
(0.134288 0.117956 0)
(0.151607 0.10115 0)
(0.168551 0.0789478 0)
(0.183012 0.0494636 0)
(0.201068 0.0147242 0)
(0.205873 -0.0318556 0)
(0.237455 -0.0849185 0)
(0.21931 -0.16899 0)
(0.275084 -0.275397 0)
(0.262427 -0.282786 0)
(0.288206 -0.0626421 0)
(0.214756 0.324845 0)
(0.0784315 0.3913 0)
(-0.0135405 0.210694 0)
(-0.104333 -0.406941 0)
(-0.181679 -0.772629 0)
(-0.154318 -1.00542 0)
(0.0427859 -1.40048 0)
(0.108511 0.118187 0)
(0.120494 0.104981 0)
(0.133711 0.0877732 0)
(0.146 0.0671796 0)
(0.154542 0.0395134 0)
(0.163781 0.00632603 0)
(0.163664 -0.0368015 0)
(0.168983 -0.0884607 0)
(0.150737 -0.17315 0)
(0.149176 -0.266619 0)
(0.0871457 -0.295274 0)
(0.0352677 0.0455077 0)
(-0.0725452 0.475726 0)
(-0.139592 0.491675 0)
(-0.201117 0.264083 0)
(-0.29903 -0.322974 0)
(-0.414567 -0.704128 0)
(-0.144793 -1.02326 0)
(0.0871107 -1.34255 0)
(0.0973823 0.108642 0)
(0.107411 0.0942726 0)
(0.116569 0.0785767 0)
(0.125058 0.0593162 0)
(0.128916 0.0348747 0)
(0.130778 0.00591643 0)
(0.123781 -0.0301821 0)
(0.11007 -0.0754462 0)
(0.0727278 -0.140314 0)
(0.0158794 -0.213301 0)
(-0.119933 -0.191059 0)
(-0.218595 0.152275 0)
(-0.220487 0.501743 0)
(-0.286106 0.543525 0)
(-0.300616 0.315769 0)
(-0.513559 -0.195959 0)
(-0.224435 -0.958546 0)
(0.0118144 -1.5216 0)
(0.0965006 -1.58911 0)
(0.0875557 0.0990882 0)
(0.0951151 0.0870135 0)
(0.101298 0.0721957 0)
(0.106767 0.0553384 0)
(0.107127 0.0347605 0)
(0.104203 0.0113757 0)
(0.0922229 -0.0157965 0)
(0.0698833 -0.0477028 0)
(0.0230885 -0.0855024 0)
(-0.0465836 -0.117829 0)
(-0.215205 -0.0998245 0)
(-0.310881 0.20746 0)
(-0.280859 0.484422 0)
(-0.312933 0.559634 0)
(-0.333631 0.373454 0)
(-0.473706 -0.290346 0)
(-0.0064849 -1.41333 0)
(-0.0654414 -1.48828 0)
(0.0650721 -1.48741 0)
(0.0777761 0.0926761 0)
(0.0838198 0.081191 0)
(0.0880233 0.0681756 0)
(0.0912886 0.0536897 0)
(0.0898396 0.0371595 0)
(0.0846119 0.0195635 0)
(0.0711743 0.00159042 0)
(0.0474119 -0.0161464 0)
(0.00437659 -0.0302766 0)
(-0.0621523 -0.0280363 0)
(-0.179118 0.015317 0)
(-0.280501 0.228217 0)
(-0.232158 0.464438 0)
(-0.228634 0.553078 0)
(-0.312516 0.444558 0)
(-0.200205 -0.565408 0)
(-0.025847 -1.41287 0)
(-0.0781373 -1.44679 0)
(0.0693142 -1.46354 0)
(0.0689454 0.0871783 0)
(0.0738066 0.0771284 0)
(0.0766165 0.0655506 0)
(0.0786835 0.053431 0)
(0.0768494 0.0404305 0)
(0.0717511 0.0279564 0)
(0.06042 0.0175943 0)
(0.041585 0.0111252 0)
(0.00959398 0.0139119 0)
(-0.035535 0.0366117 0)
(-0.103686 0.0960209 0)
(-0.173927 0.256436 0)
(-0.143346 0.452725 0)
(-0.0949035 0.554339 0)
(-0.18996 0.498436 0)
(-0.115991 -0.642451 0)
(-0.0995139 -1.3779 0)
(-0.099579 -1.44464 0)
(0.0977983 -1.46071 0)
(0.0607793 0.0830272 0)
(0.0647642 0.0738961 0)
(0.0669583 0.063708 0)
(0.0685449 0.0534747 0)
(0.0672704 0.0432334 0)
(0.0637874 0.0343904 0)
(0.05622 0.0290642 0)
(0.0445772 0.0294612 0)
(0.0266707 0.0398956 0)
(0.00438445 0.0723149 0)
(-0.0175503 0.135752 0)
(-0.0324702 0.264864 0)
(0.00385422 0.41854 0)
(0.0487493 0.537198 0)
(-0.013273 0.482621 0)
(-0.0199021 -0.540669 0)
(-0.0898833 -1.35605 0)
(-0.154248 -1.53914 0)
(0.160381 -1.45648 0)
(0.053265 0.0796008 0)
(0.0566557 0.0712644 0)
(0.0585685 0.0621485 0)
(0.0601686 0.0531624 0)
(0.0599963 0.0447482 0)
(0.0588134 0.0380147 0)
(0.0558232 0.0349326 0)
(0.0521319 0.0373053 0)
(0.0484645 0.0494538 0)
(0.0464578 0.080177 0)
(0.0560538 0.134847 0)
(0.0765555 0.241827 0)
(0.130916 0.392518 0)
(0.170166 0.56443 0)
(0.233679 0.495305 0)
(0.103659 -0.384622 0)
(0.153091 -1.37138 0)
(-0.352694 -1.63603 0)
(0.247556 -1.42805 0)
(0.0462079 0.0768106 0)
(0.0491438 0.0689991 0)
(0.0509988 0.0605542 0)
(0.0528516 0.0522699 0)
(0.053882 0.0446382 0)
(0.0548635 0.0384372 0)
(0.0561056 0.0352153 0)
(0.0591505 0.0368443 0)
(0.0659038 0.0464946 0)
(0.0803108 0.0703148 0)
(0.117855 0.115119 0)
(0.169919 0.204677 0)
(0.265926 0.342566 0)
(0.330561 0.496647 0)
(0.43907 0.424066 0)
(0.199146 -0.257345 0)
(0.587466 -1.19104 0)
(-0.712445 -1.66476 0)
(0.330068 -1.3849 0)
(0.0394857 0.0745074 0)
(0.0420217 0.0669487 0)
(0.0438151 0.0588716 0)
(0.045873 0.0507769 0)
(0.0478531 0.0431196 0)
(0.0506761 0.0362628 0)
(0.0551667 0.0312321 0)
(0.0635803 0.0287066 0)
(0.0796868 0.030166 0)
(0.108883 0.0372335 0)
(0.166431 0.0561253 0)
(0.250119 0.104664 0)
(0.348508 0.233605 0)
(0.397341 0.453014 0)
(0.526952 0.392418 0)
(0.254007 -0.203422 0)
(0.68045 -0.899958 0)
(-0.506882 -1.58572 0)
(0.451585 -1.26138 0)
(0.0329229 0.0726263 0)
(0.0350204 0.0651491 0)
(0.036694 0.057172 0)
(0.0387227 0.0489658 0)
(0.0410633 0.0408045 0)
(0.0444921 0.0327233 0)
(0.0499016 0.0249237 0)
(0.059021 0.0169663 0)
(0.0750317 0.0079223 0)
(0.103386 -0.00491058 0)
(0.154691 -0.0128715 0)
(0.223519 0.0308971 0)
(0.309773 0.185986 0)
(0.371802 0.418082 0)
(0.51198 0.354022 0)
(0.326257 -0.171873 0)
(0.687072 -0.812849 0)
(0.118942 -1.35405 0)
(0.43276 -1.12483 0)
(0.0264412 0.0711631 0)
(0.0280496 0.0636726 0)
(0.0294387 0.055636 0)
(0.0311949 0.0471473 0)
(0.033426 0.0383413 0)
(0.0366453 0.0290358 0)
(0.0413433 0.0190342 0)
(0.0488582 0.00739205 0)
(0.0591574 -0.00782262 0)
(0.0732536 -0.0291827 0)
(0.0926244 -0.0514192 0)
(0.114955 -0.0255099 0)
(0.183184 0.12299 0)
(0.289269 0.350522 0)
(0.441576 0.296242 0)
(0.390511 -0.207417 0)
(0.659738 -0.787443 0)
(0.26343 -1.19731 0)
(0.307002 -1.14401 0)
(0.0199561 0.0701578 0)
(0.0209885 0.0626041 0)
(0.0219435 0.0544763 0)
(0.0231996 0.0457081 0)
(0.0249044 0.0363608 0)
(0.0272966 0.0261559 0)
(0.0305206 0.0149436 0)
(0.0348956 0.00200741 0)
(0.0398295 -0.0138867 0)
(0.041741 -0.0321679 0)
(0.0427203 -0.0562629 0)
(0.0329793 -0.0528385 0)
(0.0644515 0.0522877 0)
(0.173632 0.230947 0)
(0.393589 0.166882 0)
(0.464577 -0.282842 0)
(0.613594 -0.757595 0)
(0.27553 -0.985023 0)
(0.260091 -0.976769 0)
(0.0134718 0.0695867 0)
(0.0138747 0.061968 0)
(0.0142713 0.0536609 0)
(0.014914 0.0445459 0)
(0.0159908 0.034672 0)
(0.0176298 0.0237674 0)
(0.0199803 0.0118238 0)
(0.0230807 -0.00143419 0)
(0.0272975 -0.0166597 0)
(0.027566 -0.0314778 0)
(0.0339661 -0.0505281 0)
(0.0195436 -0.0518712 0)
(0.0560847 -0.00977476 0)
(0.145871 0.0559022 0)
(0.40064 -0.0188301 0)
(0.468789 -0.353915 0)
(0.525071 -0.666128 0)
(0.251029 -0.815705 0)
(0.197675 -0.72227 0)
(0.00696988 0.0697307 0)
(0.00660772 0.0620783 0)
(0.00628481 0.0537235 0)
(0.00607203 0.0444427 0)
(0.00607216 0.0342593 0)
(0.00648474 0.022887 0)
(0.00747935 0.0101502 0)
(0.00880926 -0.0039799 0)
(0.0127666 -0.019568 0)
(0.0130818 -0.0348457 0)
(0.0259264 -0.0526981 0)
(0.0206569 -0.0660241 0)
(0.0717936 -0.0650224 0)
(0.122991 -0.0838981 0)
(0.331893 -0.168543 0)
(0.326654 -0.422932 0)
(0.345089 -0.581775 0)
(0.14226 -0.668239 0)
(0.113428 -0.598901 0)
(0.000674204 0.0701992 0)
(-0.000493876 0.062532 0)
(-0.00172981 0.0540374 0)
(-0.00267103 0.0446163 0)
(-0.00343959 0.0341018 0)
(-0.00400137 0.022316 0)
(-0.00425687 0.00913302 0)
(-0.0042494 -0.00577592 0)
(-0.00178048 -0.0222952 0)
(-0.0035781 -0.0422604 0)
(0.0126275 -0.0629139 0)
(0.00580753 -0.0913804 0)
(0.0584493 -0.107239 0)
(0.0690337 -0.167118 0)
(0.223545 -0.254857 0)
(0.156378 -0.426247 0)
(0.224001 -0.512867 0)
(0.0548072 -0.58584 0)
(0.101171 -0.522426 0)
(-0.00417948 0.0722322 0)
(-0.00614924 0.0645018 0)
(-0.00865834 0.0558336 0)
(-0.0114036 0.0462329 0)
(-0.0141306 0.035647 0)
(-0.0167995 0.0236631 0)
(-0.0192598 0.00995354 0)
(-0.0214121 -0.00588817 0)
(-0.0223644 -0.023489 0)
(-0.0254233 -0.0450536 0)
(-0.0143511 -0.0656347 0)
(-0.0223408 -0.0994487 0)
(0.0356795 -0.127181 0)
(0.0380583 -0.223037 0)
(0.18166 -0.276496 0)
(0.115731 -0.416127 0)
(0.185388 -0.460092 0)
(0.0365732 -0.507552 0)
(0.104291 -0.441902 0)
(-0.0116981 0.0724436 0)
(-0.0123112 0.0661962 0)
(-0.0137366 0.0586086 0)
(-0.0157714 0.0496941 0)
(-0.0182568 0.0393928 0)
(-0.0210488 0.0276791 0)
(-0.0241058 0.0142237 0)
(-0.0269932 -0.00169262 0)
(-0.0291734 -0.0210238 0)
(-0.0315749 -0.0467846 0)
(-0.0183083 -0.0771127 0)
(-0.0205999 -0.143807 0)
(0.0539699 -0.182334 0)
(0.0519355 -0.303901 0)
(0.184978 -0.323741 0)
(0.111414 -0.412748 0)
(0.182675 -0.419185 0)
(0.0345687 -0.457161 0)
(0.101581 -0.379416 0)
)
;

boundaryField
{
    leftWall
    {
        type            calculated;
        value           nonuniform 0();
    }
    rightWall
    {
        type            calculated;
        value           uniform (0 0 0);
    }
    lowerWall
    {
        type            calculated;
        value           nonuniform 0();
    }
    atmosphere
    {
        type            calculated;
        value           nonuniform List<vector> 
23
(
(-0.0134328 0.0806723 0)
(-0.012685 0.0792943 0)
(-0.012191 0.0776829 0)
(-0.0118319 0.0758625 0)
(-0.0116981 0.0724412 0)
(-0.0123112 0.0661936 0)
(-0.0137366 0.0586062 0)
(-0.0157714 0.0496935 0)
(-0.0182568 0.0393971 0)
(-0.0210488 0.027693 0)
(-0.0241058 0.0142521 0)
(-0.0269932 -0.00165336 0)
(-0.0291735 -0.0210678 0)
(-0.0315749 -0.0469419 0)
(-0.0183083 -0.0773758 0)
(-0.0205999 -0.144532 0)
(0.0539699 -0.183445 0)
(0.0519355 -0.304885 0)
(0.184978 -0.324287 0)
(0.111414 -0.412242 0)
(0.182675 -0.417526 0)
(0.0345687 -0.454775 0)
(0.101581 -0.376973 0)
)
;
    }
    defaultFaces
    {
        type            empty;
    }
    procBoundary3to1
    {
        type            processor;
        value           nonuniform List<vector> 
23
(
(0.0394255 0.35606 0)
(0.06055 0.363766 0)
(0.0826611 0.370185 0)
(0.104719 0.376574 0)
(0.147731 0.387291 0)
(0.209538 0.391185 0)
(0.278258 0.393004 0)
(0.35802 0.37827 0)
(0.43142 0.303471 0)
(0.395907 0.120712 0)
(0.14121 0.0409808 0)
(-0.490536 -0.666505 0)
(-0.945016 -0.750579 0)
(-0.972825 -0.703232 0)
(-0.928665 -0.574351 0)
(-0.898597 -0.526073 0)
(-0.852813 -0.513644 0)
(-0.824695 -0.490702 0)
(-0.774952 -0.452782 0)
(-0.695148 -0.413456 0)
(-0.551194 -0.336327 0)
(-0.349812 -0.317555 0)
(-0.151444 -0.377631 0)
)
;
    }
    procBoundary3to2
    {
        type            processor;
        value           nonuniform List<vector> 
25
(
(0.033033 0.303602 0)
(0.0526464 0.268402 0)
(0.0684047 0.240636 0)
(0.0714554 0.215661 0)
(0.0785224 0.195454 0)
(0.0774597 0.180751 0)
(0.078145 0.163622 0)
(0.0752836 0.150167 0)
(0.0728019 0.13807 0)
(0.0681191 0.129134 0)
(0.063884 0.119845 0)
(0.0586792 0.11336 0)
(0.0536172 0.107173 0)
(0.0483284 0.102345 0)
(0.0431039 0.0982032 0)
(0.0379227 0.0948347 0)
(0.0327663 0.0920877 0)
(0.0276653 0.0899164 0)
(0.0225943 0.0882798 0)
(0.0175559 0.0871307 0)
(0.012623 0.0864867 0)
(0.00807258 0.0868652 0)
(0.00260555 0.0868526 0)
(-0.00437941 0.0862115 0)
(-0.0145264 0.0825908 0)
)
;
    }
}


// ************************************************************************* //
