/*--------------------------------*- C++ -*----------------------------------*\
| =========                 |                                                 |
| \\      /  F ield         | OpenFOAM: The Open Source CFD Toolbox           |
|  \\    /   O peration     | Version:  2.4.0                                 |
|   \\  /    A nd           | Web:      www.OpenFOAM.org                      |
|    \\/     M anipulation  |                                                 |
\*---------------------------------------------------------------------------*/
FoamFile
{
    version     2.0;
    format      ascii;
    class       volVectorField;
    location    "0.7";
    object      U.air;
}
// * * * * * * * * * * * * * * * * * * * * * * * * * * * * * * * * * * * * * //

dimensions      [0 1 -1 0 0 0 0];

internalField   nonuniform List<vector> 
575
(
(0.0611112 0.316842 0)
(0.0801225 0.322306 0)
(0.099988 0.328003 0)
(0.11921 0.332466 0)
(0.0758731 0.27807 0)
(0.0920196 0.281162 0)
(0.108917 0.286468 0)
(0.125056 0.289822 0)
(0.0884935 0.249685 0)
(0.101772 0.251751 0)
(0.115461 0.255509 0)
(0.129129 0.257595 0)
(0.0888651 0.224136 0)
(0.10071 0.226266 0)
(0.113099 0.22805 0)
(0.125842 0.228433 0)
(0.0924565 0.20011 0)
(0.102301 0.2005 0)
(0.113662 0.200411 0)
(0.125197 0.200613 0)
(0.090131 0.182485 0)
(0.0991205 0.181811 0)
(0.108978 0.178956 0)
(0.119318 0.176753 0)
(0.0896742 0.162831 0)
(0.0975462 0.161796 0)
(0.105586 0.1592 0)
(0.113826 0.156313 0)
(0.0853876 0.147487 0)
(0.0918434 0.1467 0)
(0.0989025 0.14424 0)
(0.106092 0.140808 0)
(0.0803805 0.135716 0)
(0.0859926 0.132839 0)
(0.0917736 0.130059 0)
(0.0978346 0.126002 0)
(0.075578 0.124035 0)
(0.0800713 0.121841 0)
(0.0846765 0.118563 0)
(0.0894958 0.11522 0)
(0.0694409 0.116042 0)
(0.0731361 0.112789 0)
(0.0769264 0.109853 0)
(0.0805149 0.106128 0)
(0.0635954 0.108555 0)
(0.0666394 0.105581 0)
(0.0696891 0.102321 0)
(0.0726423 0.0988902 0)
(0.0575817 0.102921 0)
(0.0600392 0.0997533 0)
(0.0625443 0.0965916 0)
(0.0647454 0.0932017 0)
(0.0517048 0.0980456 0)
(0.0537255 0.0950356 0)
(0.0557554 0.0918925 0)
(0.0575238 0.0886456 0)
(0.0458892 0.0941073 0)
(0.0475545 0.0911785 0)
(0.0492524 0.0881363 0)
(0.0506646 0.0849915 0)
(0.04021 0.0908331 0)
(0.0415742 0.0880322 0)
(0.0430012 0.0850794 0)
(0.0441335 0.0820359 0)
(0.0346186 0.0881537 0)
(0.0357139 0.0854429 0)
(0.0369031 0.0825783 0)
(0.0378188 0.0796048 0)
(0.0291022 0.0860194 0)
(0.0299573 0.0833751 0)
(0.0309124 0.0805762 0)
(0.0316393 0.0776557 0)
(0.0236428 0.0844022 0)
(0.0242513 0.081794 0)
(0.0249598 0.079044 0)
(0.0255039 0.0761568 0)
(0.0182239 0.0832863 0)
(0.0186041 0.0806962 0)
(0.0190462 0.0779848 0)
(0.019383 0.0751266 0)
(0.0129019 0.0826884 0)
(0.01301 0.0801218 0)
(0.0131962 0.0774209 0)
(0.0132994 0.0745736 0)
(0.00773008 0.0827721 0)
(0.00754203 0.0801434 0)
(0.00739687 0.0774348 0)
(0.00722312 0.0746304 0)
(0.00276765 0.0833414 0)
(0.00252314 0.0808274 0)
(0.00217427 0.0781034 0)
(0.00166955 0.0752214 0)
(-0.00374921 0.0834557 0)
(-0.00345392 0.0815109 0)
(-0.00338433 0.079289 0)
(-0.00353346 0.0768356 0)
(-0.0134329 0.0806745 0)
(-0.012685 0.0792966 0)
(-0.012191 0.0776852 0)
(-0.011832 0.0758648 0)
(0.156401 0.338463 0)
(0.208763 0.336985 0)
(0.265839 0.331086 0)
(0.326134 0.309728 0)
(0.388574 0.270753 0)
(0.410054 0.227886 0)
(0.400832 0.181404 0)
(0.240991 0.157047 0)
(-0.506585 -0.55287 0)
(-0.85492 -0.628024 0)
(-0.876249 -0.571182 0)
(-0.84685 -0.516484 0)
(-0.813701 -0.488157 0)
(-0.775689 -0.45247 0)
(-0.712163 -0.429782 0)
(-0.667578 -0.371752 0)
(-0.624419 -0.287374 0)
(-0.434113 -0.174435 0)
(-0.238045 -0.158171 0)
(0.156948 0.292849 0)
(0.201782 0.288174 0)
(0.251554 0.27675 0)
(0.306113 0.256289 0)
(0.351524 0.227767 0)
(0.408089 0.197754 0)
(0.432741 0.180395 0)
(0.512154 0.155169 0)
(0.457361 0.15557 0)
(0.0838412 -0.118723 0)
(-0.451064 -0.44818 0)
(-0.605602 -0.557876 0)
(-0.606968 -0.566761 0)
(-0.523849 -0.485292 0)
(-0.37993 -0.311964 0)
(-0.248488 -0.00139176 0)
(-0.419635 0.299067 0)
(-0.249909 0.209213 0)
(-0.00106327 -0.052314 0)
(0.156192 0.257336 0)
(0.195693 0.250045 0)
(0.237 0.235391 0)
(0.284325 0.216384 0)
(0.322576 0.190839 0)
(0.376521 0.156056 0)
(0.411028 0.129599 0)
(0.480083 0.0917945 0)
(0.553422 0.00281763 0)
(0.596801 0.00242759 0)
(0.537487 -0.0235725 0)
(0.198961 -0.198971 0)
(-0.248338 -0.436783 0)
(-0.468305 -0.600386 0)
(-0.559702 -0.661543 0)
(-0.537315 -0.643687 0)
(-0.356989 -0.730487 0)
(-0.216929 -0.827849 0)
(0.0104405 -0.698572 0)
(0.14921 0.223071 0)
(0.184731 0.212928 0)
(0.223405 0.196152 0)
(0.261293 0.176499 0)
(0.296787 0.151145 0)
(0.343286 0.116585 0)
(0.373674 0.083228 0)
(0.428535 0.0205799 0)
(0.467692 -0.0158492 0)
(0.485617 -0.118023 0)
(0.571711 -0.165695 0)
(0.55557 -0.108842 0)
(0.455912 -0.122218 0)
(-0.129233 -0.511438 0)
(-0.473782 -0.644703 0)
(-0.474678 -0.736929 0)
(-0.332926 -0.815371 0)
(-0.366931 -1.10663 0)
(-0.130046 -1.52445 0)
(0.145465 0.195579 0)
(0.174702 0.181849 0)
(0.206977 0.165607 0)
(0.238371 0.146435 0)
(0.26895 0.119334 0)
(0.310677 0.0808976 0)
(0.337198 0.0458754 0)
(0.391995 -0.00739035 0)
(0.414007 -0.0514155 0)
(0.481899 -0.115719 0)
(0.521249 -0.139129 0)
(0.584882 -0.0623969 0)
(0.53882 0.120044 0)
(0.286963 0.100636 0)
(-0.170075 -0.301698 0)
(-0.25564 -0.578274 0)
(-0.144801 -0.6865 0)
(-0.159342 -0.868683 0)
(-0.030469 -1.23898 0)
(0.136576 0.170562 0)
(0.161968 0.156214 0)
(0.188788 0.139677 0)
(0.214958 0.118652 0)
(0.242047 0.0894248 0)
(0.275974 0.0518493 0)
(0.293668 0.0123484 0)
(0.351094 -0.037708 0)
(0.354377 -0.115186 0)
(0.444398 -0.193429 0)
(0.463678 -0.196497 0)
(0.511906 -0.103426 0)
(0.491972 0.180341 0)
(0.366885 0.204127 0)
(0.142008 -0.0664137 0)
(-0.103635 -0.633154 0)
(-0.042997 -0.830206 0)
(-0.0491195 -0.954922 0)
(-0.00165976 -1.40625 0)
(0.12853 0.149297 0)
(0.148305 0.13491 0)
(0.170101 0.118121 0)
(0.191762 0.0967353 0)
(0.212442 0.0666793 0)
(0.239297 0.0298474 0)
(0.249045 -0.0146697 0)
(0.300593 -0.066908 0)
(0.289311 -0.150763 0)
(0.368582 -0.241224 0)
(0.378136 -0.233033 0)
(0.40904 -0.0911545 0)
(0.390406 0.274112 0)
(0.280294 0.304845 0)
(0.13676 0.117739 0)
(-0.0252252 -0.468163 0)
(-0.037677 -0.80767 0)
(-0.05349 -0.96874 0)
(0.0184952 -1.4342 0)
(0.118274 0.133506 0)
(0.134289 0.117956 0)
(0.151607 0.10115 0)
(0.168552 0.0789479 0)
(0.183013 0.0494636 0)
(0.201068 0.0147242 0)
(0.205873 -0.0318556 0)
(0.237455 -0.0849185 0)
(0.21931 -0.16899 0)
(0.275083 -0.275396 0)
(0.262426 -0.282786 0)
(0.288206 -0.062642 0)
(0.214755 0.324845 0)
(0.0784312 0.391299 0)
(-0.0135405 0.210693 0)
(-0.104332 -0.40694 0)
(-0.181678 -0.772627 0)
(-0.154319 -1.00538 0)
(0.0427444 -1.39977 0)
(0.108512 0.118188 0)
(0.120494 0.104982 0)
(0.133712 0.0877734 0)
(0.146 0.0671797 0)
(0.154542 0.0395134 0)
(0.163781 0.00632603 0)
(0.163664 -0.0368015 0)
(0.168983 -0.0884607 0)
(0.150737 -0.17315 0)
(0.149176 -0.266619 0)
(0.0871457 -0.295274 0)
(0.0352677 0.0455076 0)
(-0.0725451 0.475725 0)
(-0.139592 0.491674 0)
(-0.201117 0.264083 0)
(-0.29903 -0.322936 0)
(-0.414692 -0.70314 0)
(-0.145124 -1.014 0)
(0.0867402 -1.3155 0)
(0.0973826 0.108643 0)
(0.107412 0.0942728 0)
(0.116569 0.0785768 0)
(0.125058 0.0593163 0)
(0.128916 0.0348747 0)
(0.130778 0.00591643 0)
(0.123781 -0.0301821 0)
(0.11007 -0.0754462 0)
(0.0727278 -0.140314 0)
(0.0158794 -0.213301 0)
(-0.119933 -0.191059 0)
(-0.218595 0.152275 0)
(-0.220486 0.501741 0)
(-0.286105 0.543524 0)
(-0.300616 0.315864 0)
(-0.514337 -0.191932 0)
(-0.228025 -0.930723 0)
(0.0273561 -1.47923 0)
(0.109443 -1.55804 0)
(0.087556 0.0990886 0)
(0.0951154 0.0870138 0)
(0.101298 0.0721959 0)
(0.106767 0.0553385 0)
(0.107128 0.0347606 0)
(0.104203 0.0113757 0)
(0.0922229 -0.0157965 0)
(0.0698833 -0.0477028 0)
(0.0230885 -0.0855024 0)
(-0.0465836 -0.117829 0)
(-0.215204 -0.0998244 0)
(-0.310881 0.207459 0)
(-0.280859 0.484421 0)
(-0.312932 0.559633 0)
(-0.333656 0.374072 0)
(-0.478808 -0.271755 0)
(0.0103578 -1.38954 0)
(-0.0572922 -1.46426 0)
(0.0539082 -1.52 0)
(0.0777764 0.0926765 0)
(0.0838201 0.0811913 0)
(0.0880235 0.0681758 0)
(0.0912887 0.0536897 0)
(0.0898396 0.0371595 0)
(0.0846119 0.0195635 0)
(0.0711743 0.00159042 0)
(0.0474119 -0.0161464 0)
(0.00437659 -0.0302766 0)
(-0.0621523 -0.0280363 0)
(-0.179118 0.015317 0)
(-0.2805 0.228217 0)
(-0.232157 0.464437 0)
(-0.228634 0.553079 0)
(-0.312575 0.445799 0)
(-0.201887 -0.543995 0)
(-0.00687587 -1.40351 0)
(-0.0927184 -1.45789 0)
(0.0291043 -1.49326 0)
(0.0689457 0.0871786 0)
(0.0738068 0.0771287 0)
(0.0766167 0.0655508 0)
(0.0786837 0.0534311 0)
(0.0768495 0.0404305 0)
(0.0717511 0.0279565 0)
(0.06042 0.0175943 0)
(0.041585 0.0111252 0)
(0.00959398 0.0139119 0)
(-0.035535 0.0366117 0)
(-0.103686 0.0960209 0)
(-0.173927 0.256436 0)
(-0.143346 0.452725 0)
(-0.094903 0.55434 0)
(-0.189939 0.499888 0)
(-0.116342 -0.626156 0)
(-0.103208 -1.36685 0)
(-0.125973 -1.44984 0)
(0.0624111 -1.44034 0)
(0.0607795 0.0830275 0)
(0.0647645 0.0738964 0)
(0.0669584 0.0637082 0)
(0.068545 0.0534748 0)
(0.0672704 0.0432334 0)
(0.0637874 0.0343904 0)
(0.05622 0.0290642 0)
(0.0445772 0.0294612 0)
(0.0266707 0.0398956 0)
(0.00438445 0.072315 0)
(-0.0175504 0.135752 0)
(-0.0324702 0.264864 0)
(0.00385422 0.418539 0)
(0.0487499 0.537199 0)
(-0.0131429 0.48365 0)
(-0.0196751 -0.536153 0)
(-0.0892457 -1.34761 0)
(-0.159245 -1.51963 0)
(0.14253 -1.43222 0)
(0.0532652 0.0796011 0)
(0.0566559 0.0712647 0)
(0.0585687 0.0621486 0)
(0.0601687 0.0531625 0)
(0.0599964 0.0447482 0)
(0.0588134 0.0380147 0)
(0.0558232 0.0349326 0)
(0.0521319 0.0373053 0)
(0.0484645 0.0494538 0)
(0.0464578 0.080177 0)
(0.0560538 0.134847 0)
(0.0765555 0.241827 0)
(0.130916 0.392517 0)
(0.170166 0.56443 0)
(0.233794 0.495669 0)
(0.103677 -0.384442 0)
(0.153104 -1.37128 0)
(-0.35439 -1.63132 0)
(0.237042 -1.46281 0)
(0.0462081 0.0768109 0)
(0.0491439 0.0689993 0)
(0.050999 0.0605543 0)
(0.0528517 0.05227 0)
(0.053882 0.0446382 0)
(0.0548635 0.0384372 0)
(0.0561056 0.0352153 0)
(0.0591506 0.0368443 0)
(0.0659038 0.0464946 0)
(0.0803108 0.0703148 0)
(0.117855 0.115119 0)
(0.169919 0.204677 0)
(0.265926 0.342566 0)
(0.330562 0.496648 0)
(0.439085 0.424084 0)
(0.199146 -0.257344 0)
(0.587465 -1.19104 0)
(-0.718204 -1.66625 0)
(0.284729 -1.38053 0)
(0.0394859 0.0745076 0)
(0.0420218 0.0669489 0)
(0.0438152 0.0588717 0)
(0.045873 0.050777 0)
(0.0478531 0.0431197 0)
(0.0506761 0.0362628 0)
(0.0551668 0.0312321 0)
(0.0635804 0.0287066 0)
(0.0796868 0.030166 0)
(0.108883 0.0372335 0)
(0.166431 0.0561253 0)
(0.250119 0.104664 0)
(0.348508 0.233605 0)
(0.397341 0.453014 0)
(0.526953 0.392418 0)
(0.254006 -0.203422 0)
(0.680449 -0.899957 0)
(-0.512977 -1.58789 0)
(0.431161 -1.22763 0)
(0.032923 0.0726265 0)
(0.0350205 0.0651492 0)
(0.0366941 0.0571721 0)
(0.0387227 0.0489658 0)
(0.0410634 0.0408046 0)
(0.0444921 0.0327234 0)
(0.0499016 0.0249237 0)
(0.059021 0.0169663 0)
(0.0750317 0.0079223 0)
(0.103386 -0.00491058 0)
(0.154691 -0.0128715 0)
(0.223518 0.030897 0)
(0.309773 0.185985 0)
(0.371802 0.418082 0)
(0.51198 0.354022 0)
(0.326256 -0.171873 0)
(0.687071 -0.812847 0)
(0.118833 -1.35403 0)
(0.431432 -1.12287 0)
(0.0264412 0.0711633 0)
(0.0280496 0.0636727 0)
(0.0294388 0.0556361 0)
(0.0311949 0.0471473 0)
(0.033426 0.0383414 0)
(0.0366454 0.0290358 0)
(0.0413433 0.0190342 0)
(0.0488583 0.00739205 0)
(0.0591574 -0.00782262 0)
(0.0732536 -0.0291827 0)
(0.0926244 -0.0514191 0)
(0.114955 -0.0255098 0)
(0.183183 0.12299 0)
(0.289269 0.350522 0)
(0.441575 0.296242 0)
(0.39051 -0.207417 0)
(0.659737 -0.787442 0)
(0.26343 -1.19731 0)
(0.307002 -1.14401 0)
(0.0199561 0.070158 0)
(0.0209885 0.0626042 0)
(0.0219435 0.0544764 0)
(0.0231996 0.0457082 0)
(0.0249044 0.0363608 0)
(0.0272966 0.026156 0)
(0.0305206 0.0149436 0)
(0.0348957 0.00200741 0)
(0.0398296 -0.0138867 0)
(0.041741 -0.0321679 0)
(0.0427202 -0.0562629 0)
(0.0329793 -0.0528384 0)
(0.0644514 0.0522876 0)
(0.173632 0.230947 0)
(0.393588 0.166881 0)
(0.464576 -0.282842 0)
(0.613593 -0.757594 0)
(0.27553 -0.985023 0)
(0.260091 -0.976769 0)
(0.0134719 0.0695869 0)
(0.0138747 0.0619681 0)
(0.0142713 0.0536609 0)
(0.014914 0.044546 0)
(0.0159909 0.034672 0)
(0.0176298 0.0237674 0)
(0.0199803 0.0118238 0)
(0.0230807 -0.00143419 0)
(0.0272975 -0.0166598 0)
(0.0275661 -0.0314778 0)
(0.0339661 -0.0505281 0)
(0.0195436 -0.0518712 0)
(0.0560846 -0.00977474 0)
(0.145871 0.0559021 0)
(0.40064 -0.01883 0)
(0.468789 -0.353915 0)
(0.52507 -0.666128 0)
(0.251029 -0.815705 0)
(0.197675 -0.72227 0)
(0.00696989 0.0697308 0)
(0.00660772 0.0620784 0)
(0.00628482 0.0537236 0)
(0.00607203 0.0444427 0)
(0.00607216 0.0342593 0)
(0.00648474 0.022887 0)
(0.00747935 0.0101502 0)
(0.00880926 -0.00397991 0)
(0.0127666 -0.019568 0)
(0.0130818 -0.0348457 0)
(0.0259264 -0.0526982 0)
(0.0206569 -0.0660241 0)
(0.0717935 -0.0650224 0)
(0.122991 -0.083898 0)
(0.331893 -0.168543 0)
(0.326654 -0.422932 0)
(0.345089 -0.581775 0)
(0.14226 -0.668239 0)
(0.113428 -0.598901 0)
(0.000674205 0.0701993 0)
(-0.000493877 0.0625321 0)
(-0.00172981 0.0540375 0)
(-0.00267103 0.0446163 0)
(-0.00343959 0.0341018 0)
(-0.00400137 0.0223161 0)
(-0.00425687 0.00913303 0)
(-0.0042494 -0.00577593 0)
(-0.00178048 -0.0222953 0)
(-0.0035781 -0.0422604 0)
(0.0126275 -0.0629139 0)
(0.00580753 -0.0913804 0)
(0.0584493 -0.107239 0)
(0.0690338 -0.167118 0)
(0.223545 -0.254857 0)
(0.156378 -0.426247 0)
(0.224001 -0.512867 0)
(0.0548072 -0.58584 0)
(0.101171 -0.522426 0)
(-0.00417948 0.0722323 0)
(-0.00614924 0.0645019 0)
(-0.00865835 0.0558337 0)
(-0.0114036 0.0462329 0)
(-0.0141306 0.035647 0)
(-0.0167995 0.0236631 0)
(-0.0192598 0.00995355 0)
(-0.0214122 -0.00588818 0)
(-0.0223644 -0.023489 0)
(-0.0254233 -0.0450536 0)
(-0.0143511 -0.0656347 0)
(-0.0223409 -0.0994488 0)
(0.0356795 -0.127181 0)
(0.0380583 -0.223037 0)
(0.18166 -0.276496 0)
(0.115731 -0.416127 0)
(0.185388 -0.460092 0)
(0.0365732 -0.507552 0)
(0.104291 -0.441902 0)
(-0.0116981 0.0724436 0)
(-0.0123112 0.0661963 0)
(-0.0137366 0.0586087 0)
(-0.0157714 0.0496941 0)
(-0.0182568 0.0393928 0)
(-0.0210489 0.0276791 0)
(-0.0241058 0.0142237 0)
(-0.0269932 -0.00169262 0)
(-0.0291735 -0.0210238 0)
(-0.0315749 -0.0467846 0)
(-0.0183083 -0.0771128 0)
(-0.0205999 -0.143807 0)
(0.0539699 -0.182334 0)
(0.0519355 -0.303901 0)
(0.184978 -0.323741 0)
(0.111414 -0.412748 0)
(0.182675 -0.419185 0)
(0.0345687 -0.457161 0)
(0.101581 -0.379416 0)
)
;

boundaryField
{
    leftWall
    {
        type            fixedValue;
        value           nonuniform 0();
    }
    rightWall
    {
        type            fixedValue;
        value           uniform (0 0 0);
    }
    lowerWall
    {
        type            fixedValue;
        value           nonuniform 0();
    }
    atmosphere
    {
        type            fluxCorrectedVelocity;
        value           nonuniform List<vector> 
23
(
(-0.0134329 0.0806724 0)
(-0.012685 0.0792944 0)
(-0.012191 0.077683 0)
(-0.011832 0.0758626 0)
(-0.0116981 0.0724412 0)
(-0.0123112 0.0661936 0)
(-0.0137366 0.0586063 0)
(-0.0157714 0.0496936 0)
(-0.0182568 0.0393971 0)
(-0.0210489 0.027693 0)
(-0.0241058 0.0142521 0)
(-0.0269932 -0.00165336 0)
(-0.0291735 -0.0210678 0)
(-0.0315749 -0.0469419 0)
(-0.0183083 -0.0773758 0)
(-0.0205999 -0.144532 0)
(0.0539699 -0.183445 0)
(0.0519355 -0.304885 0)
(0.184978 -0.324287 0)
(0.111414 -0.412242 0)
(0.182675 -0.417526 0)
(0.0345687 -0.454775 0)
(0.101581 -0.376973 0)
)
;
    }
    defaultFaces
    {
        type            empty;
    }
    procBoundary3to1
    {
        type            processor;
        value           nonuniform List<vector> 
23
(
(0.0394256 0.356061 0)
(0.0605502 0.363767 0)
(0.0826613 0.370186 0)
(0.10472 0.376575 0)
(0.147731 0.387292 0)
(0.209539 0.391186 0)
(0.278259 0.393005 0)
(0.358021 0.37827 0)
(0.43142 0.303472 0)
(0.395907 0.120712 0)
(0.141372 0.0410874 0)
(-0.476131 -0.666239 0)
(-0.931479 -0.773666 0)
(-1.00555 -0.694025 0)
(-0.956089 -0.5046 0)
(-0.892327 -0.457167 0)
(-0.872366 -0.442246 0)
(-0.851631 -0.421899 0)
(-0.826967 -0.380909 0)
(-0.809477 -0.299662 0)
(-0.750327 -0.157792 0)
(-0.561655 -0.152056 0)
(-0.241036 -0.211339 0)
)
;
    }
    procBoundary3to2
    {
        type            processor;
        value           nonuniform List<vector> 
25
(
(0.033033 0.303603 0)
(0.0526465 0.268402 0)
(0.0684048 0.240636 0)
(0.0714555 0.215661 0)
(0.0785224 0.195454 0)
(0.0774598 0.180751 0)
(0.0781451 0.163622 0)
(0.0752838 0.150167 0)
(0.0728021 0.13807 0)
(0.0681193 0.129134 0)
(0.0638842 0.119846 0)
(0.0586793 0.113361 0)
(0.0536173 0.107173 0)
(0.0483285 0.102345 0)
(0.043104 0.0982034 0)
(0.0379228 0.0948349 0)
(0.0327664 0.0920878 0)
(0.0276653 0.0899165 0)
(0.0225943 0.0882799 0)
(0.0175559 0.0871308 0)
(0.012623 0.0864868 0)
(0.00807258 0.0868652 0)
(0.00260555 0.0868527 0)
(-0.00437942 0.0862116 0)
(-0.0145264 0.0825908 0)
)
;
    }
}


// ************************************************************************* //
