/*--------------------------------*- C++ -*----------------------------------*\
| =========                 |                                                 |
| \\      /  F ield         | OpenFOAM: The Open Source CFD Toolbox           |
|  \\    /   O peration     | Version:  2.4.0                                 |
|   \\  /    A nd           | Web:      www.OpenFOAM.org                      |
|    \\/     M anipulation  |                                                 |
\*---------------------------------------------------------------------------*/
FoamFile
{
    version     2.0;
    format      ascii;
    class       volVectorField;
    location    "0.7";
    object      U.mercury;
}
// * * * * * * * * * * * * * * * * * * * * * * * * * * * * * * * * * * * * * //

dimensions      [0 1 -1 0 0 0 0];

internalField   nonuniform List<vector> 
575
(
(0.0611015 0.31676 0)
(0.0801224 0.322219 0)
(0.0999967 0.327912 0)
(0.119227 0.33237 0)
(0.0758578 0.278007 0)
(0.0920092 0.281096 0)
(0.108916 0.286398 0)
(0.125066 0.289749 0)
(0.0884699 0.249636 0)
(0.101757 0.2517 0)
(0.115455 0.255455 0)
(0.129131 0.257539 0)
(0.0888402 0.224098 0)
(0.100689 0.226227 0)
(0.113086 0.228009 0)
(0.125839 0.228389 0)
(0.0924271 0.200081 0)
(0.102278 0.20047 0)
(0.113647 0.20038 0)
(0.125189 0.200582 0)
(0.0901027 0.182464 0)
(0.0990941 0.18179 0)
(0.108958 0.178935 0)
(0.119308 0.176731 0)
(0.0896435 0.162817 0)
(0.097521 0.161782 0)
(0.105569 0.159186 0)
(0.113814 0.156299 0)
(0.0853596 0.147479 0)
(0.0918176 0.146692 0)
(0.0988828 0.144233 0)
(0.10608 0.140801 0)
(0.0803517 0.135714 0)
(0.0859689 0.132837 0)
(0.0917562 0.130058 0)
(0.0978236 0.126002 0)
(0.0755525 0.124038 0)
(0.0800475 0.121844 0)
(0.0846586 0.118567 0)
(0.0894857 0.115224 0)
(0.0694155 0.116047 0)
(0.0731154 0.112796 0)
(0.076912 0.109861 0)
(0.0805058 0.106137 0)
(0.0635738 0.108564 0)
(0.0666201 0.105591 0)
(0.0696749 0.102332 0)
(0.0726347 0.0989023 0)
(0.0575607 0.102934 0)
(0.0600228 0.099767 0)
(0.0625333 0.096606 0)
(0.0647395 0.0932171 0)
(0.0516876 0.0980607 0)
(0.05371 0.0950517 0)
(0.0557448 0.0919095 0)
(0.0575193 0.0886634 0)
(0.0458727 0.094124 0)
(0.0475422 0.0911963 0)
(0.0492451 0.0881552 0)
(0.0506613 0.085011 0)
(0.0401971 0.0908515 0)
(0.0415634 0.0880517 0)
(0.0429942 0.0850997 0)
(0.0441313 0.0820568 0)
(0.0346066 0.0881735 0)
(0.0357057 0.0854636 0)
(0.0368988 0.0825996 0)
(0.0378175 0.0796266 0)
(0.0290935 0.0860398 0)
(0.0299497 0.0833963 0)
(0.0309079 0.0805982 0)
(0.0316383 0.077678 0)
(0.0236348 0.0844226 0)
(0.0242463 0.0818153 0)
(0.0249575 0.079066 0)
(0.0255031 0.0761789 0)
(0.0182191 0.0833066 0)
(0.0185998 0.0807173 0)
(0.0190434 0.0780064 0)
(0.0193822 0.0751484 0)
(0.0128975 0.0827084 0)
(0.0130078 0.0801424 0)
(0.0131953 0.077442 0)
(0.0132989 0.0745949 0)
(0.00772848 0.0827913 0)
(0.00754026 0.0801632 0)
(0.00739554 0.0774551 0)
(0.00722288 0.074651 0)
(0.00276635 0.0833597 0)
(0.00252318 0.0808462 0)
(0.00217501 0.0781227 0)
(0.0016697 0.0752406 0)
(-0.0037487 0.0834721 0)
(-0.00345349 0.0815276 0)
(-0.00338472 0.0793053 0)
(-0.00353421 0.0768517 0)
(-0.0134325 0.0806871 0)
(-0.0126851 0.0793089 0)
(-0.0121914 0.0776976 0)
(-0.0118327 0.0758775 0)
(0.156422 0.33836 0)
(0.208784 0.336869 0)
(0.265857 0.330943 0)
(0.326141 0.309541 0)
(0.388559 0.270483 0)
(0.410015 0.227467 0)
(0.400728 0.179893 0)
(0.107705 0.0403487 0)
(-0.763795 -0.619365 0)
(-0.87562 -0.614126 0)
(-0.885123 -0.610117 0)
(-0.808896 -0.520012 0)
(-0.72791 -0.465485 0)
(-0.629916 -0.398396 0)
(-0.503644 -0.320783 0)
(-0.370174 -0.237632 0)
(-0.226015 -0.200852 0)
(-0.0877481 -0.221411 0)
(-0.00783056 -0.262852 0)
(0.156963 0.29277 0)
(0.201797 0.288084 0)
(0.251566 0.276644 0)
(0.306117 0.256153 0)
(0.351506 0.227574 0)
(0.408022 0.197469 0)
(0.432573 0.179983 0)
(0.511896 0.153776 0)
(0.412966 0.0904889 0)
(-0.235658 -0.502632 0)
(-0.576803 -0.78267 0)
(-0.684312 -0.696755 0)
(-0.61786 -0.586748 0)
(-0.525073 -0.516379 0)
(-0.416809 -0.486106 0)
(-0.331692 -0.463401 0)
(-0.232499 -0.467578 0)
(-0.107843 -0.566413 0)
(-0.0432773 -0.578808 0)
(0.1562 0.257273 0)
(0.1957 0.249974 0)
(0.237005 0.235309 0)
(0.284325 0.216286 0)
(0.322563 0.190709 0)
(0.376482 0.155871 0)
(0.41093 0.129343 0)
(0.479895 0.091498 0)
(0.553219 0.00248618 0)
(0.579728 -0.011389 0)
(0.416517 -0.0916983 0)
(-0.180693 -0.406843 0)
(-0.615019 -0.655462 0)
(-0.628638 -0.734953 0)
(-0.532585 -0.821738 0)
(-0.416158 -0.791101 0)
(-0.220631 -0.872802 0)
(-0.0563563 -1.28219 0)
(0.0711882 -2.08175 0)
(0.149212 0.223024 0)
(0.184732 0.212874 0)
(0.223404 0.196091 0)
(0.261288 0.17643 0)
(0.296778 0.151062 0)
(0.343269 0.116475 0)
(0.37363 0.0830652 0)
(0.428446 0.020339 0)
(0.467525 -0.0161361 0)
(0.48537 -0.118444 0)
(0.571708 -0.167986 0)
(0.555992 -0.113004 0)
(0.456484 -0.1264 0)
(-0.128885 -0.516292 0)
(-0.471187 -0.646666 0)
(-0.470732 -0.7424 0)
(-0.324656 -0.82558 0)
(-0.362069 -1.12519 0)
(-0.130461 -1.52991 0)
(0.145462 0.195544 0)
(0.174699 0.18181 0)
(0.206972 0.165564 0)
(0.238365 0.146388 0)
(0.268942 0.119282 0)
(0.310665 0.0808344 0)
(0.337177 0.0457798 0)
(0.391953 -0.00755431 0)
(0.413911 -0.0517118 0)
(0.481748 -0.116327 0)
(0.521187 -0.140103 0)
(0.585284 -0.063688 0)
(0.539619 0.118562 0)
(0.287927 0.0993021 0)
(-0.167197 -0.301673 0)
(-0.251607 -0.579098 0)
(-0.141542 -0.691466 0)
(-0.157428 -0.870831 0)
(-0.0302438 -1.23968 0)
(0.13657 0.170537 0)
(0.161963 0.156187 0)
(0.188781 0.139649 0)
(0.214951 0.118623 0)
(0.24204 0.0893933 0)
(0.275966 0.0518132 0)
(0.293657 0.0122947 0)
(0.351072 -0.0378135 0)
(0.354301 -0.11545 0)
(0.444272 -0.194157 0)
(0.463437 -0.198064 0)
(0.512436 -0.105728 0)
(0.493577 0.17802 0)
(0.368864 0.202904 0)
(0.144011 -0.0671518 0)
(-0.100399 -0.633281 0)
(-0.0399077 -0.830036 0)
(-0.047395 -0.954679 0)
(-0.00158845 -1.40642 0)
(0.128523 0.149282 0)
(0.148299 0.134894 0)
(0.170094 0.118105 0)
(0.191755 0.0967194 0)
(0.212434 0.0666632 0)
(0.23929 0.0298295 0)
(0.249038 -0.0146973 0)
(0.300579 -0.0669768 0)
(0.289232 -0.151003 0)
(0.368349 -0.24211 0)
(0.377463 -0.235439 0)
(0.40947 -0.0952185 0)
(0.393234 0.270326 0)
(0.283509 0.302511 0)
(0.139315 0.116491 0)
(-0.02183 -0.469466 0)
(-0.0344831 -0.807809 0)
(-0.0515845 -0.968036 0)
(0.0185192 -1.4348 0)
(0.118267 0.133499 0)
(0.134283 0.117949 0)
(0.1516 0.101144 0)
(0.168545 0.0789423 0)
(0.183006 0.0494589 0)
(0.201063 0.0147188 0)
(0.205868 -0.0318664 0)
(0.237445 -0.0849607 0)
(0.219232 -0.169203 0)
(0.274689 -0.276383 0)
(0.260766 -0.286033 0)
(0.288618 -0.0686255 0)
(0.219102 0.319405 0)
(0.0823687 0.387862 0)
(-0.0102413 0.207604 0)
(-0.0999107 -0.410636 0)
(-0.17635 -0.775493 0)
(-0.152764 -1.04276 0)
(0.0585945 -1.66819 0)
(0.108505 0.118187 0)
(0.120489 0.104982 0)
(0.133706 0.0877749 0)
(0.145994 0.0671824 0)
(0.154536 0.0395169 0)
(0.163775 0.00632932 0)
(0.163659 -0.0368014 0)
(0.168976 -0.0884817 0)
(0.150667 -0.173333 0)
(0.148572 -0.26767 0)
(0.0844065 -0.298816 0)
(0.0350738 0.0389592 0)
(-0.0676711 0.469524 0)
(-0.136086 0.486879 0)
(-0.196705 0.256857 0)
(-0.290822 -0.351237 0)
(-0.368997 -1.06215 0)
(-0.118613 -1.75644 0)
(0.0950952 -1.92184 0)
(0.0973766 0.108648 0)
(0.107408 0.0942792 0)
(0.116565 0.0785844 0)
(0.125053 0.0593253 0)
(0.128911 0.0348842 0)
(0.130772 0.00592551 0)
(0.123776 -0.0301753 0)
(0.110064 -0.0754519 0)
(0.0726687 -0.140469 0)
(0.0151039 -0.214414 0)
(-0.122856 -0.193978 0)
(-0.219672 0.147627 0)
(-0.217566 0.494311 0)
(-0.283767 0.535664 0)
(-0.297418 0.266967 0)
(-0.410931 -0.729167 0)
(-0.142832 -1.59018 0)
(-0.064484 -1.7296 0)
(0.0762671 -1.63749 0)
(0.0875514 0.0990981 0)
(0.0951125 0.0870247 0)
(0.101295 0.0722084 0)
(0.106763 0.055352 0)
(0.107122 0.0347741 0)
(0.104196 0.0113883 0)
(0.092216 -0.0157856 0)
(0.0698778 -0.0476988 0)
(0.0230444 -0.0856078 0)
(-0.0472336 -0.118749 0)
(-0.217436 -0.101932 0)
(-0.313338 0.203134 0)
(-0.282157 0.475987 0)
(-0.314242 0.547723 0)
(-0.325244 0.178393 0)
(-0.287909 -0.967244 0)
(-0.0740829 -1.50875 0)
(-0.0707588 -1.50387 0)
(0.0663703 -1.48354 0)
(0.0777731 0.0926899 0)
(0.0838185 0.0812059 0)
(0.0880214 0.0681918 0)
(0.0912848 0.0537062 0)
(0.0898332 0.0371757 0)
(0.0846036 0.0195783 0)
(0.071166 0.00160375 0)
(0.0474063 -0.0161364 0)
(0.00436604 -0.0303119 0)
(-0.0623344 -0.0284403 0)
(-0.180198 0.0140933 0)
(-0.283254 0.224394 0)
(-0.23668 0.456919 0)
(-0.23307 0.54589 0)
(-0.298171 0.139645 0)
(-0.161002 -1.0642 0)
(-0.0720828 -1.43554 0)
(-0.0745033 -1.4439 0)
(0.0698578 -1.46314 0)
(0.0689438 0.0871949 0)
(0.0738063 0.0771462 0)
(0.0766152 0.0655691 0)
(0.0786795 0.0534495 0)
(0.0768421 0.040448 0)
(0.0717414 0.0279726 0)
(0.0604104 0.0176091 0)
(0.0415785 0.0111387 0)
(0.00959238 0.013916 0)
(-0.0355577 0.0365158 0)
(-0.103987 0.0954568 0)
(-0.1758 0.254155 0)
(-0.14719 0.448606 0)
(-0.0976836 0.551151 0)
(-0.195132 0.158783 0)
(-0.106874 -1.06588 0)
(-0.0841585 -1.42391 0)
(-0.0812228 -1.44101 0)
(0.0982868 -1.46102 0)
(0.0607785 0.0830461 0)
(0.0647647 0.073916 0)
(0.0669571 0.0637279 0)
(0.0685403 0.0534942 0)
(0.067262 0.0432516 0)
(0.0637767 0.0344076 0)
(0.0562095 0.0290804 0)
(0.04457 0.0294772 0)
(0.0266685 0.0399098 0)
(0.00438446 0.07231 0)
(-0.0176151 0.13559 0)
(-0.033083 0.26408 0)
(0.00170422 0.416983 0)
(0.0475337 0.536024 0)
(-0.0474833 0.21311 0)
(-0.0391242 -0.921887 0)
(-0.113857 -1.67229 0)
(-0.120182 -1.67229 0)
(0.160702 -1.4569 0)
(0.0532652 0.0796215 0)
(0.0566564 0.0712854 0)
(0.058567 0.0621692 0)
(0.0601631 0.0531822 0)
(0.0599871 0.0447669 0)
(0.0588019 0.0380327 0)
(0.0558125 0.0349506 0)
(0.0521244 0.0373237 0)
(0.0484611 0.0494718 0)
(0.0464578 0.0801911 0)
(0.0560436 0.134827 0)
(0.0763984 0.241638 0)
(0.13038 0.39206 0)
(0.169681 0.563978 0)
(0.193019 0.367604 0)
(0.0939755 -0.481672 0)
(0.140027 -1.46799 0)
(-0.232587 -1.96912 0)
(0.248393 -1.42516 0)
(0.0462085 0.0768323 0)
(0.0491444 0.0690207 0)
(0.0509966 0.0605752 0)
(0.0528453 0.0522898 0)
(0.053872 0.0446575 0)
(0.0548521 0.0384563 0)
(0.0560952 0.0352356 0)
(0.0591431 0.0368653 0)
(0.0658997 0.0465158 0)
(0.0803085 0.0703341 0)
(0.117851 0.115131 0)
(0.169894 0.204651 0)
(0.265812 0.342507 0)
(0.330023 0.496112 0)
(0.432645 0.416444 0)
(0.199084 -0.25718 0)
(0.587495 -1.19096 0)
(-0.218759 -1.53728 0)
(0.360576 -1.38779 0)
(0.0394865 0.0745296 0)
(0.0420218 0.0669705 0)
(0.0438122 0.0588925 0)
(0.0458661 0.0507971 0)
(0.0478431 0.0431397 0)
(0.0506654 0.0362837 0)
(0.0551575 0.0312545 0)
(0.0635737 0.0287302 0)
(0.0796823 0.0301899 0)
(0.108879 0.0372559 0)
(0.166425 0.0561443 0)
(0.250107 0.104676 0)
(0.348482 0.233596 0)
(0.397126 0.452921 0)
(0.526183 0.392283 0)
(0.253939 -0.203258 0)
(0.680375 -0.89992 0)
(-0.0733953 -1.43129 0)
(0.613879 -1.52965 0)
(0.0329233 0.0726486 0)
(0.0350199 0.0651708 0)
(0.0366904 0.0571929 0)
(0.0387156 0.0489864 0)
(0.0410541 0.0408256 0)
(0.0444827 0.0327462 0)
(0.0498938 0.0249482 0)
(0.0590152 0.0169924 0)
(0.0750267 0.00794859 0)
(0.10338 -0.00488564 0)
(0.154681 -0.0128491 0)
(0.223502 0.0309149 0)
(0.309748 0.185996 0)
(0.371693 0.418078 0)
(0.511774 0.35404 0)
(0.326204 -0.171768 0)
(0.687021 -0.8128 0)
(0.137892 -1.35745 0)
(0.809483 -1.68246 0)
(0.0264413 0.0711853 0)
(0.0280484 0.0636942 0)
(0.0294349 0.0556571 0)
(0.0311882 0.0471686 0)
(0.033418 0.0383641 0)
(0.0366378 0.0290605 0)
(0.0413371 0.019061 0)
(0.0488533 0.00742014 0)
(0.059152 -0.00779443 0)
(0.0732459 -0.0291556 0)
(0.0926118 -0.0513938 0)
(0.114935 -0.025487 0)
(0.183155 0.123011 0)
(0.289205 0.350544 0)
(0.441505 0.296274 0)
(0.390474 -0.207355 0)
(0.659706 -0.78741 0)
(0.263429 -1.19737 0)
(0.307001 -1.14394 0)
(0.0199557 0.0701797 0)
(0.020987 0.0626255 0)
(0.0219398 0.0544979 0)
(0.023194 0.0457305 0)
(0.0248981 0.036385 0)
(0.027291 0.0261822 0)
(0.0305159 0.014972 0)
(0.0348912 0.00203674 0)
(0.0398239 -0.0138571 0)
(0.0417323 -0.0321389 0)
(0.0427068 -0.0562348 0)
(0.0329595 -0.0528112 0)
(0.064425 0.0523154 0)
(0.173599 0.23098 0)
(0.393552 0.166916 0)
(0.464545 -0.282793 0)
(0.613574 -0.757552 0)
(0.275497 -0.984984 0)
(0.26011 -0.976765 0)
(0.0134715 0.0696082 0)
(0.0138733 0.0619895 0)
(0.0142682 0.0536828 0)
(0.0149098 0.0445693 0)
(0.0159865 0.0346971 0)
(0.0176259 0.0237947 0)
(0.0199769 0.0118526 0)
(0.0230769 -0.00140441 0)
(0.0272919 -0.0166296 0)
(0.0275572 -0.0314476 0)
(0.0339531 -0.0504973 0)
(0.0195256 -0.0518393 0)
(0.0560625 -0.00974116 0)
(0.145847 0.0559397 0)
(0.400615 -0.0187878 0)
(0.468766 -0.353865 0)
(0.52505 -0.666073 0)
(0.251015 -0.815653 0)
(0.197688 -0.722209 0)
(0.00696961 0.0697515 0)
(0.00660674 0.0620993 0)
(0.00628279 0.0537453 0)
(0.00606936 0.0444659 0)
(0.00606951 0.0342842 0)
(0.00648241 0.0229136 0)
(0.00747696 0.0101779 0)
(0.00880604 -0.00395128 0)
(0.0127614 -0.0195387 0)
(0.0130738 -0.0348155 0)
(0.0259151 -0.0526662 0)
(0.0206422 -0.0659891 0)
(0.0717761 -0.0649836 0)
(0.122973 -0.0838546 0)
(0.331875 -0.168493 0)
(0.326635 -0.422876 0)
(0.345072 -0.581714 0)
(0.142248 -0.668172 0)
(0.11343 -0.598834 0)
(0.000674106 0.0702183 0)
(-0.000494356 0.062551 0)
(-0.00173086 0.0540571 0)
(-0.00267238 0.0446371 0)
(-0.00344091 0.0341239 0)
(-0.00400262 0.0223391 0)
(-0.00425843 0.00915698 0)
(-0.00425188 -0.0057512 0)
(-0.00178463 -0.0222695 0)
(-0.00358439 -0.0422329 0)
(0.0126191 -0.0628836 0)
(0.00579688 -0.0913463 0)
(0.0584372 -0.1072 0)
(0.0690211 -0.167073 0)
(0.223533 -0.254805 0)
(0.156363 -0.426188 0)
(0.223989 -0.512802 0)
(0.0548 -0.585772 0)
(0.10117 -0.522359 0)
(-0.00418008 0.0722481 0)
(-0.00614956 0.0645176 0)
(-0.0086588 0.0558498 0)
(-0.0114042 0.0462497 0)
(-0.0141311 0.0356645 0)
(-0.0168001 0.0236812 0)
(-0.0192607 0.00997222 0)
(-0.0214138 -0.00586871 0)
(-0.0223672 -0.0234681 0)
(-0.0254273 -0.0450306 0)
(-0.0143565 -0.0656083 0)
(-0.0223474 -0.0994183 0)
(0.035672 -0.127145 0)
(0.0380507 -0.222995 0)
(0.181652 -0.276448 0)
(0.115723 -0.416072 0)
(0.185382 -0.46003 0)
(0.0365676 -0.507489 0)
(0.104289 -0.441837 0)
(-0.0116986 0.0724569 0)
(-0.0123114 0.0662098 0)
(-0.0137367 0.0586224 0)
(-0.0157715 0.0497083 0)
(-0.018257 0.0394073 0)
(-0.0210491 0.0276939 0)
(-0.0241061 0.0142389 0)
(-0.0269938 -0.00167652 0)
(-0.0291746 -0.0210062 0)
(-0.0315766 -0.0467647 0)
(-0.0183106 -0.0770897 0)
(-0.0206029 -0.14378 0)
(0.0539662 -0.182303 0)
(0.0519315 -0.303866 0)
(0.184975 -0.323701 0)
(0.11141 -0.412704 0)
(0.182672 -0.419136 0)
(0.0345663 -0.457106 0)
(0.101582 -0.379356 0)
)
;

boundaryField
{
    leftWall
    {
        type            fixedValue;
        value           nonuniform 0();
    }
    rightWall
    {
        type            fixedValue;
        value           uniform (0 0 0);
    }
    lowerWall
    {
        type            fixedValue;
        value           nonuniform 0();
    }
    atmosphere
    {
        type            fluxCorrectedVelocity;
        value           nonuniform List<vector> 
23
(
(-0.0134325 0.0806724 0)
(-0.0126851 0.0792944 0)
(-0.0121914 0.077683 0)
(-0.0118327 0.0758626 0)
(-0.0116986 0.0724412 0)
(-0.0123114 0.0661936 0)
(-0.0137367 0.0586063 0)
(-0.0157715 0.0496936 0)
(-0.018257 0.0393971 0)
(-0.0210491 0.027693 0)
(-0.0241061 0.0142521 0)
(-0.0269938 -0.00165336 0)
(-0.0291746 -0.0210678 0)
(-0.0315766 -0.0469419 0)
(-0.0183106 -0.0773758 0)
(-0.0206029 -0.144532 0)
(0.0539662 -0.183445 0)
(0.0519315 -0.304885 0)
(0.184975 -0.324287 0)
(0.11141 -0.412242 0)
(0.182672 -0.417526 0)
(0.0345663 -0.454775 0)
(0.101582 -0.376973 0)
)
;
    }
    defaultFaces
    {
        type            empty;
    }
    procBoundary3to1
    {
        type            processor;
        value           nonuniform List<vector> 
23
(
(0.0394308 0.355961 0)
(0.0605597 0.363659 0)
(0.0826772 0.370073 0)
(0.104742 0.376457 0)
(0.147757 0.387166 0)
(0.209562 0.391036 0)
(0.278267 0.39282 0)
(0.358022 0.378061 0)
(0.431465 0.303198 0)
(0.396046 0.120241 0)
(0.0316382 -0.0371597 0)
(-0.903076 -0.658228 0)
(-0.964969 -0.661247 0)
(-0.9523 -0.66079 0)
(-0.907488 -0.526439 0)
(-0.848314 -0.460145 0)
(-0.771087 -0.445571 0)
(-0.696394 -0.39577 0)
(-0.578579 -0.312616 0)
(-0.400524 -0.210198 0)
(-0.165564 -0.0768734 0)
(-0.00358059 -0.0182589 0)
(0.083289 -0.055586 0)
)
;
    }
    procBoundary3to2
    {
        type            processor;
        value           nonuniform List<vector> 
25
(
(0.0330286 0.303529 0)
(0.052633 0.268345 0)
(0.0683853 0.24059 0)
(0.0714329 0.215625 0)
(0.0784971 0.195427 0)
(0.077434 0.180731 0)
(0.0781184 0.163607 0)
(0.0752577 0.150158 0)
(0.0727762 0.138067 0)
(0.0680953 0.129135 0)
(0.0638612 0.11985 0)
(0.0586584 0.113368 0)
(0.0535977 0.107184 0)
(0.0483114 0.102358 0)
(0.0430885 0.0982186 0)
(0.0379096 0.0948517 0)
(0.0327547 0.0921059 0)
(0.0276561 0.0899352 0)
(0.0225866 0.0882989 0)
(0.0175502 0.0871497 0)
(0.0126187 0.0865055 0)
(0.00807018 0.0868832 0)
(0.00260397 0.0868702 0)
(-0.00437938 0.0862271 0)
(-0.0145259 0.0826037 0)
)
;
    }
}


// ************************************************************************* //
