/*--------------------------------*- C++ -*----------------------------------*\
| =========                 |                                                 |
| \\      /  F ield         | OpenFOAM: The Open Source CFD Toolbox           |
|  \\    /   O peration     | Version:  2.4.0                                 |
|   \\  /    A nd           | Web:      www.OpenFOAM.org                      |
|    \\/     M anipulation  |                                                 |
\*---------------------------------------------------------------------------*/
FoamFile
{
    version     2.0;
    format      ascii;
    class       volVectorField;
    location    "0.7";
    object      U.oil;
}
// * * * * * * * * * * * * * * * * * * * * * * * * * * * * * * * * * * * * * //

dimensions      [0 1 -1 0 0 0 0];

internalField   nonuniform List<vector> 
575
(
(0.0610943 0.316738 0)
(0.0801153 0.322194 0)
(0.0999844 0.327879 0)
(0.119211 0.332328 0)
(0.0758565 0.278 0)
(0.0920072 0.281089 0)
(0.108913 0.286388 0)
(0.125062 0.289736 0)
(0.0884694 0.249634 0)
(0.101756 0.251698 0)
(0.115455 0.255453 0)
(0.12913 0.257536 0)
(0.0888399 0.224097 0)
(0.100689 0.226226 0)
(0.113086 0.228008 0)
(0.125839 0.228389 0)
(0.092427 0.200081 0)
(0.102278 0.20047 0)
(0.113647 0.20038 0)
(0.125189 0.200581 0)
(0.0901027 0.182464 0)
(0.0990941 0.18179 0)
(0.108958 0.178935 0)
(0.119308 0.176731 0)
(0.0896435 0.162817 0)
(0.097521 0.161782 0)
(0.105569 0.159186 0)
(0.113814 0.156299 0)
(0.0853595 0.147479 0)
(0.0918176 0.146692 0)
(0.0988828 0.144233 0)
(0.10608 0.140801 0)
(0.0803517 0.135714 0)
(0.0859689 0.132837 0)
(0.0917562 0.130058 0)
(0.0978236 0.126002 0)
(0.0755525 0.124038 0)
(0.0800475 0.121844 0)
(0.0846586 0.118567 0)
(0.0894857 0.115224 0)
(0.0694155 0.116047 0)
(0.0731154 0.112796 0)
(0.076912 0.109861 0)
(0.0805058 0.106137 0)
(0.0635738 0.108564 0)
(0.0666201 0.105591 0)
(0.0696749 0.102332 0)
(0.0726347 0.0989023 0)
(0.0575607 0.102934 0)
(0.0600228 0.099767 0)
(0.0625333 0.096606 0)
(0.0647395 0.0932171 0)
(0.0516876 0.0980607 0)
(0.05371 0.0950517 0)
(0.0557448 0.0919095 0)
(0.0575193 0.0886634 0)
(0.0458727 0.094124 0)
(0.0475422 0.0911963 0)
(0.0492451 0.0881552 0)
(0.0506613 0.085011 0)
(0.0401971 0.0908515 0)
(0.0415634 0.0880517 0)
(0.0429942 0.0850997 0)
(0.0441313 0.0820568 0)
(0.0346066 0.0881735 0)
(0.0357057 0.0854636 0)
(0.0368988 0.0825996 0)
(0.0378175 0.0796266 0)
(0.0290935 0.0860398 0)
(0.0299497 0.0833963 0)
(0.0309079 0.0805982 0)
(0.0316383 0.077678 0)
(0.0236348 0.0844226 0)
(0.0242463 0.0818153 0)
(0.0249575 0.079066 0)
(0.0255031 0.0761789 0)
(0.0182191 0.0833066 0)
(0.0185998 0.0807173 0)
(0.0190434 0.0780064 0)
(0.0193822 0.0751484 0)
(0.0128975 0.0827084 0)
(0.0130078 0.0801424 0)
(0.0131953 0.077442 0)
(0.0132989 0.0745949 0)
(0.00772848 0.0827913 0)
(0.00754026 0.0801632 0)
(0.00739554 0.0774551 0)
(0.00722288 0.074651 0)
(0.00276635 0.0833597 0)
(0.00252318 0.0808462 0)
(0.00217501 0.0781227 0)
(0.0016697 0.0752406 0)
(-0.0037487 0.0834721 0)
(-0.00345349 0.0815276 0)
(-0.00338472 0.0793053 0)
(-0.00353421 0.0768517 0)
(-0.0134325 0.0806871 0)
(-0.0126851 0.0793089 0)
(-0.0121914 0.0776976 0)
(-0.0118327 0.0758775 0)
(0.156392 0.338297 0)
(0.20874 0.336787 0)
(0.26576 0.330743 0)
(0.32551 0.308458 0)
(0.387538 0.268296 0)
(0.407621 0.219225 0)
(0.39477 0.16244 0)
(-0.614215 -0.582863 0)
(-0.786482 -0.628566 0)
(-0.852314 -0.644879 0)
(-0.868796 -0.651469 0)
(-0.846755 -0.573426 0)
(-0.803231 -0.550783 0)
(-0.756893 -0.552637 0)
(-0.689417 -0.574711 0)
(-0.611169 -0.603318 0)
(-0.480299 -0.633972 0)
(-0.281251 -0.697645 0)
(-0.183469 -0.795669 0)
(0.156958 0.292752 0)
(0.201784 0.288054 0)
(0.251534 0.276565 0)
(0.305972 0.255725 0)
(0.351093 0.226617 0)
(0.406718 0.194614 0)
(0.428732 0.173881 0)
(0.476245 0.10503 0)
(-0.185961 -0.746131 0)
(-0.538244 -0.792359 0)
(-0.684674 -0.719704 0)
(-0.686815 -0.688982 0)
(-0.653574 -0.661916 0)
(-0.595992 -0.714782 0)
(-0.478529 -0.866651 0)
(-0.315423 -1.14704 0)
(-0.271433 -1.47543 0)
(-0.041023 -1.91435 0)
(0.0489925 -2.27208 0)
(0.156199 0.25727 0)
(0.195698 0.249965 0)
(0.236996 0.235281 0)
(0.284294 0.216163 0)
(0.322462 0.190369 0)
(0.376133 0.154949 0)
(0.409641 0.127071 0)
(0.476023 0.0857647 0)
(0.437133 -0.0783987 0)
(-0.262194 -0.54567 0)
(-0.6941 -0.817505 0)
(-0.810501 -0.899572 0)
(-0.855467 -0.980449 0)
(-0.962366 -1.17276 0)
(-0.749554 -1.00278 0)
(-0.323963 -0.864594 0)
(0.000264998 -1.27908 0)
(0.0784197 -2.31682 0)
(0.0759485 -1.61739 0)
(0.149211 0.223023 0)
(0.184732 0.212872 0)
(0.223401 0.196083 0)
(0.261281 0.176399 0)
(0.296751 0.150968 0)
(0.343219 0.116225 0)
(0.373319 0.0822331 0)
(0.427694 0.0185512 0)
(0.465689 -0.0198992 0)
(0.480184 -0.128931 0)
(0.568923 -0.1738 0)
(0.564104 -0.118851 0)
(0.48502 -0.129438 0)
(-0.0764454 -0.484069 0)
(-0.409551 -0.622578 0)
(-0.304366 -0.872384 0)
(-0.0447277 -1.15941 0)
(-0.147637 -2.44837 0)
(-0.119829 -1.59132 0)
(0.145462 0.195544 0)
(0.174699 0.18181 0)
(0.206971 0.165562 0)
(0.238362 0.14638 0)
(0.268933 0.119254 0)
(0.31064 0.0807665 0)
(0.337087 0.045503 0)
(0.391744 -0.00822769 0)
(0.413522 -0.0530022 0)
(0.481214 -0.11919 0)
(0.520873 -0.145133 0)
(0.591553 -0.0730589 0)
(0.548197 0.0988267 0)
(0.300127 0.0801432 0)
(-0.145364 -0.314615 0)
(-0.189352 -0.656842 0)
(-0.0517978 -1.10778 0)
(-0.126224 -1.14869 0)
(-0.00927453 -1.30146 0)
(0.13657 0.170537 0)
(0.161963 0.156187 0)
(0.188781 0.139648 0)
(0.21495 0.11862 0)
(0.242037 0.0893829 0)
(0.275955 0.0517803 0)
(0.293618 0.0121832 0)
(0.350978 -0.0381065 0)
(0.354027 -0.116171 0)
(0.443856 -0.196012 0)
(0.462701 -0.202146 0)
(0.515335 -0.115163 0)
(0.508102 0.166078 0)
(0.391924 0.190415 0)
(0.167457 -0.0684281 0)
(-0.0715552 -0.626328 0)
(-0.0227551 -0.831845 0)
(-0.0312721 -0.969386 0)
(0.0124474 -1.47983 0)
(0.128523 0.149282 0)
(0.148299 0.134894 0)
(0.170093 0.118105 0)
(0.191755 0.0967184 0)
(0.212433 0.0666593 0)
(0.239286 0.0298147 0)
(0.249022 -0.0147528 0)
(0.30052 -0.0671649 0)
(0.288966 -0.151675 0)
(0.367679 -0.24442 0)
(0.375645 -0.241312 0)
(0.41067 -0.107142 0)
(0.410347 0.254264 0)
(0.315692 0.28069 0)
(0.171879 0.103954 0)
(0.00244124 -0.474207 0)
(-0.0184587 -0.825417 0)
(-0.0428867 -1.14503 0)
(0.0493644 -1.84666 0)
(0.118267 0.133499 0)
(0.134283 0.117949 0)
(0.1516 0.101144 0)
(0.168545 0.078942 0)
(0.183006 0.0494576 0)
(0.201061 0.0147128 0)
(0.20586 -0.0318938 0)
(0.237406 -0.0850896 0)
(0.21898 -0.16982 0)
(0.273593 -0.278988 0)
(0.256302 -0.294294 0)
(0.289322 -0.0832691 0)
(0.239992 0.298763 0)
(0.122938 0.356098 0)
(0.0339146 0.179275 0)
(-0.0780203 -0.482287 0)
(-0.160342 -1.17709 0)
(-0.108262 -2.59018 0)
(0.136539 -2.98567 0)
(0.108505 0.118187 0)
(0.120489 0.104982 0)
(0.133706 0.0877749 0)
(0.145994 0.0671823 0)
(0.154536 0.0395164 0)
(0.163775 0.0063268 0)
(0.163655 -0.0368152 0)
(0.168951 -0.0885641 0)
(0.150445 -0.173885 0)
(0.146884 -0.270507 0)
(0.0768873 -0.307994 0)
(0.0348403 0.0231272 0)
(-0.0435261 0.443551 0)
(-0.0950712 0.441415 0)
(-0.183888 0.0469011 0)
(-0.294708 -1.61702 0)
(-0.185132 -2.50197 0)
(-0.0953795 -2.40551 0)
(0.0977575 -2.1203 0)
(0.0973766 0.108648 0)
(0.107408 0.0942792 0)
(0.116565 0.0785844 0)
(0.125053 0.0593253 0)
(0.128911 0.0348839 0)
(0.130772 0.00592423 0)
(0.123774 -0.0301826 0)
(0.11005 -0.0755022 0)
(0.072478 -0.140961 0)
(0.0128472 -0.217698 0)
(-0.131158 -0.201952 0)
(-0.220491 0.138362 0)
(-0.200098 0.461945 0)
(-0.259308 0.466967 0)
(-0.295108 -0.766757 0)
(-0.248662 -1.56537 0)
(-0.113628 -1.81715 0)
(-0.0757194 -1.76022 0)
(0.0745868 -1.64171 0)
(0.0875514 0.0990981 0)
(0.0951125 0.0870247 0)
(0.101295 0.0722084 0)
(0.106763 0.0553519 0)
(0.107122 0.034774 0)
(0.104196 0.0113874 0)
(0.0922147 -0.0157905 0)
(0.0698685 -0.0477302 0)
(0.0228945 -0.0859772 0)
(-0.0491672 -0.121486 0)
(-0.224377 -0.108084 0)
(-0.318768 0.193804 0)
(-0.281956 0.434947 0)
(-0.314184 0.371084 0)
(-0.27959 -0.921855 0)
(-0.189554 -1.32565 0)
(-0.0835452 -1.52215 0)
(-0.0710819 -1.5049 0)
(0.0664385 -1.48342 0)
(0.0777731 0.0926899 0)
(0.0838185 0.0812059 0)
(0.0880214 0.0681918 0)
(0.0912848 0.0537062 0)
(0.0898332 0.0371755 0)
(0.0846033 0.0195774 0)
(0.0711648 0.0015995 0)
(0.0474006 -0.0161565 0)
(0.00432166 -0.0304828 0)
(-0.0628459 -0.0295473 0)
(-0.183305 0.0112214 0)
(-0.290082 0.215796 0)
(-0.247158 0.421253 0)
(-0.252495 0.260417 0)
(-0.244568 -0.965618 0)
(-0.145187 -1.26586 0)
(-0.0771361 -1.43816 0)
(-0.0743698 -1.44392 0)
(0.0698922 -1.46311 0)
(0.0689438 0.0871949 0)
(0.0738063 0.0771462 0)
(0.0766152 0.0655691 0)
(0.0786795 0.0534494 0)
(0.0768421 0.0404479 0)
(0.0717412 0.0279718 0)
(0.0604092 0.0176051 0)
(0.0415747 0.0111247 0)
(0.00957438 0.0138484 0)
(-0.0356912 0.0361254 0)
(-0.104823 0.0940351 0)
(-0.181038 0.249827 0)
(-0.161741 0.425388 0)
(-0.158652 0.257333 0)
(-0.211604 -0.968262 0)
(-0.10269 -1.25955 0)
(-0.0816812 -1.43122 0)
(-0.0801015 -1.44079 0)
(0.0983068 -1.461 0)
(0.0607785 0.0830461 0)
(0.0647647 0.073916 0)
(0.0669571 0.0637279 0)
(0.0685403 0.0534941 0)
(0.067262 0.0432514 0)
(0.0637765 0.0344068 0)
(0.0562084 0.0290763 0)
(0.044566 0.0294636 0)
(0.0266514 0.0398598 0)
(0.00431014 0.0721056 0)
(-0.0180102 0.134832 0)
(-0.0351592 0.261574 0)
(-0.00925694 0.408036 0)
(-0.0488806 0.327515 0)
(-0.187392 -0.895898 0)
(-0.0638807 -1.41563 0)
(-0.130615 -1.89526 0)
(-0.112796 -1.70095 0)
(0.160708 -1.45692 0)
(0.0532652 0.0796215 0)
(0.0566564 0.0712854 0)
(0.058567 0.0621692 0)
(0.0601631 0.0531822 0)
(0.059987 0.0447668 0)
(0.0588017 0.0380319 0)
(0.0558111 0.0349461 0)
(0.0521188 0.037307 0)
(0.0484414 0.0494162 0)
(0.0463796 0.0799753 0)
(0.0557127 0.134234 0)
(0.0747404 0.239749 0)
(0.119816 0.38505 0)
(0.0522117 0.414029 0)
(-0.136826 -0.6747 0)
(-0.0684585 -2.11725 0)
(-0.314249 -4.79787 0)
(-0.102035 -2.3322 0)
(0.248441 -1.42512 0)
(0.0462085 0.0768323 0)
(0.0491444 0.0690207 0)
(0.0509966 0.0605752 0)
(0.0528453 0.0522898 0)
(0.053872 0.0446574 0)
(0.0548519 0.0384555 0)
(0.0560937 0.0352305 0)
(0.0591365 0.0368454 0)
(0.065873 0.0464288 0)
(0.0801519 0.0700142 0)
(0.117458 0.114375 0)
(0.168236 0.202806 0)
(0.254321 0.337782 0)
(0.180312 0.326728 0)
(0.0606818 -0.0440917 0)
(0.133814 -0.252205 0)
(0.508404 -1.10026 0)
(0.333123 -1.3949 0)
(0.362512 -1.38803 0)
(0.0394865 0.0745296 0)
(0.0420218 0.0669705 0)
(0.0438121 0.0588925 0)
(0.0458661 0.0507971 0)
(0.0478431 0.0431395 0)
(0.0506652 0.0362828 0)
(0.0551559 0.0312487 0)
(0.0635668 0.0287061 0)
(0.0796271 0.0300292 0)
(0.10867 0.0366675 0)
(0.165666 0.0546056 0)
(0.248659 0.101842 0)
(0.341103 0.228363 0)
(0.286694 0.392641 0)
(0.310544 0.337847 0)
(0.21901 -0.0913917 0)
(0.649405 -0.860449 0)
(0.369524 -1.27348 0)
(0.650287 -1.58974 0)
(0.0329233 0.0726486 0)
(0.0350199 0.0651708 0)
(0.0366904 0.0571929 0)
(0.0387156 0.0489864 0)
(0.0410541 0.0408255 0)
(0.0444825 0.0327453 0)
(0.0498921 0.0249423 0)
(0.0590057 0.0169618 0)
(0.0749258 0.00771455 0)
(0.102846 -0.00583451 0)
(0.152636 -0.0156969 0)
(0.217321 0.024537 0)
(0.300711 0.179395 0)
(0.300027 0.395321 0)
(0.405069 0.343834 0)
(0.292459 -0.0983396 0)
(0.670613 -0.75498 0)
(0.330431 -1.39233 0)
(2.17115 -3.6979 0)
(0.0264413 0.0711853 0)
(0.0280484 0.0636942 0)
(0.0294349 0.0556571 0)
(0.0311882 0.0471686 0)
(0.033418 0.038364 0)
(0.0366376 0.0290598 0)
(0.041336 0.0190562 0)
(0.0488426 0.00738843 0)
(0.0590574 -0.00802869 0)
(0.0726996 -0.0301922 0)
(0.0905118 -0.0544542 0)
(0.107139 -0.0329187 0)
(0.173943 0.117661 0)
(0.246466 0.342792 0)
(0.396942 0.292638 0)
(0.378391 -0.19511 0)
(0.655992 -0.758374 0)
(0.271453 -1.44656 0)
(0.301776 -1.19453 0)
(0.0199557 0.0701797 0)
(0.020987 0.0626255 0)
(0.0219398 0.0544979 0)
(0.023194 0.0457305 0)
(0.0248981 0.036385 0)
(0.0272909 0.0261818 0)
(0.0305154 0.0149691 0)
(0.0348856 0.00201266 0)
(0.0397779 -0.0140221 0)
(0.041468 -0.0328893 0)
(0.0416707 -0.058429 0)
(0.0288761 -0.0587154 0)
(0.0593232 0.0478496 0)
(0.16174 0.226866 0)
(0.380701 0.161986 0)
(0.461804 -0.282651 0)
(0.613357 -0.746908 0)
(0.286596 -0.981252 0)
(0.260052 -0.975097 0)
(0.0134715 0.0696082 0)
(0.0138733 0.0619895 0)
(0.0142682 0.0536828 0)
(0.0149098 0.0445693 0)
(0.0159865 0.0346971 0)
(0.0176259 0.0237945 0)
(0.0199768 0.0118513 0)
(0.0230749 -0.00141702 0)
(0.027278 -0.0167108 0)
(0.0274835 -0.0318297 0)
(0.0336845 -0.0516838 0)
(0.0188588 -0.0550566 0)
(0.0558742 -0.0158451 0)
(0.147464 0.0504582 0)
(0.401374 -0.0254422 0)
(0.467641 -0.350892 0)
(0.524852 -0.662508 0)
(0.253404 -0.81493 0)
(0.197699 -0.722329 0)
(0.00696961 0.0697515 0)
(0.00660674 0.0620993 0)
(0.00628279 0.0537453 0)
(0.00606936 0.0444659 0)
(0.00606951 0.0342842 0)
(0.00648241 0.0229135 0)
(0.00747692 0.0101775 0)
(0.00880547 -0.00395662 0)
(0.012758 -0.0195698 0)
(0.0130582 -0.0349625 0)
(0.0258644 -0.0531719 0)
(0.0205693 -0.0674082 0)
(0.072189 -0.0688184 0)
(0.124911 -0.0905316 0)
(0.333199 -0.177036 0)
(0.32598 -0.425562 0)
(0.344223 -0.58276 0)
(0.142094 -0.668522 0)
(0.11339 -0.599541 0)
(0.000674106 0.0702183 0)
(-0.000494356 0.062551 0)
(-0.00173086 0.0540571 0)
(-0.00267238 0.0446371 0)
(-0.00344091 0.0341238 0)
(-0.00400262 0.0223391 0)
(-0.00425846 0.0091567 0)
(-0.00425206 -0.00575376 0)
(-0.0017857 -0.0222833 0)
(-0.00358874 -0.0422942 0)
(0.0126059 -0.0631002 0)
(0.00577594 -0.0920027 0)
(0.0584957 -0.109063 0)
(0.069181 -0.170742 0)
(0.22338 -0.259216 0)
(0.156347 -0.427395 0)
(0.223838 -0.513484 0)
(0.0547005 -0.586228 0)
(0.101182 -0.52286 0)
(-0.00418008 0.0722481 0)
(-0.00614956 0.0645176 0)
(-0.0086588 0.0558498 0)
(-0.0114042 0.0462497 0)
(-0.0141311 0.0356645 0)
(-0.0168001 0.0236812 0)
(-0.0192607 0.00997199 0)
(-0.0214139 -0.00587039 0)
(-0.022368 -0.0234775 0)
(-0.0254303 -0.0450702 0)
(-0.0143688 -0.0657408 0)
(-0.022379 -0.0997985 0)
(0.0356032 -0.128099 0)
(0.0379126 -0.224359 0)
(0.181545 -0.277874 0)
(0.115747 -0.416437 0)
(0.185401 -0.460641 0)
(0.0366197 -0.507882 0)
(0.104298 -0.442097 0)
(-0.0116986 0.0724569 0)
(-0.0123114 0.0662098 0)
(-0.0137367 0.0586224 0)
(-0.0157715 0.0497083 0)
(-0.018257 0.0394073 0)
(-0.0210491 0.0276939 0)
(-0.0241061 0.0142387 0)
(-0.0269939 -0.00167795 0)
(-0.0291749 -0.02101 0)
(-0.0315778 -0.0467791 0)
(-0.0183198 -0.077135 0)
(-0.020628 -0.143911 0)
(0.0539262 -0.182637 0)
(0.0519289 -0.304347 0)
(0.184984 -0.324028 0)
(0.11142 -0.412775 0)
(0.182702 -0.419439 0)
(0.0346019 -0.457314 0)
(0.101582 -0.37942 0)
)
;

boundaryField
{
    leftWall
    {
        type            fixedValue;
        value           nonuniform 0();
    }
    rightWall
    {
        type            fixedValue;
        value           uniform (0 0 0);
    }
    lowerWall
    {
        type            fixedValue;
        value           nonuniform 0();
    }
    atmosphere
    {
        type            fluxCorrectedVelocity;
        value           nonuniform List<vector> 
23
(
(-0.0134325 0.0806724 0)
(-0.0126851 0.0792944 0)
(-0.0121914 0.077683 0)
(-0.0118327 0.0758626 0)
(-0.0116986 0.0724412 0)
(-0.0123114 0.0661936 0)
(-0.0137367 0.0586063 0)
(-0.0157715 0.0496936 0)
(-0.018257 0.0393971 0)
(-0.0210491 0.027693 0)
(-0.0241061 0.0142521 0)
(-0.0269939 -0.00165336 0)
(-0.0291749 -0.0210678 0)
(-0.0315778 -0.0469419 0)
(-0.0183198 -0.0773758 0)
(-0.020628 -0.144532 0)
(0.0539262 -0.183445 0)
(0.0519289 -0.304885 0)
(0.184984 -0.324287 0)
(0.11142 -0.412242 0)
(0.182702 -0.417526 0)
(0.0346019 -0.454775 0)
(0.101582 -0.376973 0)
)
;
    }
    defaultFaces
    {
        type            empty;
    }
    procBoundary3to1
    {
        type            processor;
        value           nonuniform List<vector> 
23
(
(0.039411 0.355904 0)
(0.0605303 0.363582 0)
(0.0826371 0.369977 0)
(0.104682 0.376339 0)
(0.147667 0.387018 0)
(0.209416 0.390847 0)
(0.277814 0.392314 0)
(0.356154 0.376879 0)
(0.429763 0.301287 0)
(0.399404 0.112075 0)
(-0.833017 -0.599255 0)
(-0.975046 -0.675915 0)
(-0.971341 -0.704454 0)
(-0.966785 -0.706489 0)
(-0.928209 -0.577456 0)
(-0.899053 -0.528891 0)
(-0.852892 -0.516891 0)
(-0.825193 -0.495002 0)
(-0.775057 -0.458758 0)
(-0.696117 -0.422533 0)
(-0.55288 -0.347773 0)
(-0.351096 -0.331431 0)
(-0.154669 -0.395219 0)
)
;
    }
    procBoundary3to2
    {
        type            processor;
        value           nonuniform List<vector> 
25
(
(0.0330237 0.30351 0)
(0.0526312 0.268337 0)
(0.0683843 0.240587 0)
(0.0714324 0.215623 0)
(0.0784968 0.195426 0)
(0.0774339 0.18073 0)
(0.0781183 0.163607 0)
(0.0752577 0.150158 0)
(0.0727762 0.138067 0)
(0.0680953 0.129135 0)
(0.0638612 0.11985 0)
(0.0586584 0.113368 0)
(0.0535977 0.107184 0)
(0.0483114 0.102358 0)
(0.0430885 0.0982186 0)
(0.0379096 0.0948517 0)
(0.0327547 0.0921059 0)
(0.0276561 0.0899352 0)
(0.0225866 0.0882989 0)
(0.0175502 0.0871497 0)
(0.0126187 0.0865055 0)
(0.00807018 0.0868832 0)
(0.00260397 0.0868702 0)
(-0.00437938 0.0862271 0)
(-0.0145259 0.0826037 0)
)
;
    }
}


// ************************************************************************* //
