/*--------------------------------*- C++ -*----------------------------------*\
| =========                 |                                                 |
| \\      /  F ield         | OpenFOAM: The Open Source CFD Toolbox           |
|  \\    /   O peration     | Version:  2.4.0                                 |
|   \\  /    A nd           | Web:      www.OpenFOAM.org                      |
|    \\/     M anipulation  |                                                 |
\*---------------------------------------------------------------------------*/
FoamFile
{
    version     2.0;
    format      ascii;
    class       volVectorField;
    location    "0.7";
    object      U.water;
}
// * * * * * * * * * * * * * * * * * * * * * * * * * * * * * * * * * * * * * //

dimensions      [0 1 -1 0 0 0 0];

internalField   nonuniform List<vector> 
575
(
(0.0611016 0.31676 0)
(0.0801225 0.32222 0)
(0.0999969 0.327912 0)
(0.119227 0.332371 0)
(0.0758578 0.278007 0)
(0.0920093 0.281096 0)
(0.108916 0.286398 0)
(0.125066 0.289749 0)
(0.0884699 0.249636 0)
(0.101757 0.2517 0)
(0.115455 0.255455 0)
(0.129131 0.257539 0)
(0.0888402 0.224098 0)
(0.100689 0.226227 0)
(0.113086 0.228009 0)
(0.125839 0.228389 0)
(0.0924271 0.200081 0)
(0.102278 0.20047 0)
(0.113647 0.20038 0)
(0.125189 0.200582 0)
(0.0901027 0.182464 0)
(0.0990941 0.18179 0)
(0.108958 0.178935 0)
(0.119308 0.176731 0)
(0.0896435 0.162817 0)
(0.097521 0.161782 0)
(0.105569 0.159186 0)
(0.113814 0.156299 0)
(0.0853596 0.147479 0)
(0.0918176 0.146692 0)
(0.0988828 0.144233 0)
(0.10608 0.140801 0)
(0.0803517 0.135714 0)
(0.0859689 0.132837 0)
(0.0917562 0.130058 0)
(0.0978236 0.126002 0)
(0.0755525 0.124038 0)
(0.0800475 0.121844 0)
(0.0846586 0.118567 0)
(0.0894857 0.115224 0)
(0.0694155 0.116047 0)
(0.0731154 0.112796 0)
(0.076912 0.109861 0)
(0.0805058 0.106137 0)
(0.0635738 0.108564 0)
(0.0666201 0.105591 0)
(0.0696749 0.102332 0)
(0.0726347 0.0989023 0)
(0.0575607 0.102934 0)
(0.0600228 0.099767 0)
(0.0625333 0.096606 0)
(0.0647395 0.0932171 0)
(0.0516876 0.0980607 0)
(0.05371 0.0950517 0)
(0.0557448 0.0919095 0)
(0.0575193 0.0886634 0)
(0.0458727 0.094124 0)
(0.0475422 0.0911963 0)
(0.0492451 0.0881552 0)
(0.0506613 0.085011 0)
(0.0401971 0.0908515 0)
(0.0415634 0.0880517 0)
(0.0429942 0.0850997 0)
(0.0441313 0.0820568 0)
(0.0346066 0.0881735 0)
(0.0357057 0.0854636 0)
(0.0368988 0.0825996 0)
(0.0378175 0.0796266 0)
(0.0290935 0.0860398 0)
(0.0299497 0.0833963 0)
(0.0309079 0.0805982 0)
(0.0316383 0.077678 0)
(0.0236348 0.0844226 0)
(0.0242463 0.0818153 0)
(0.0249575 0.079066 0)
(0.0255031 0.0761789 0)
(0.0182191 0.0833066 0)
(0.0185998 0.0807173 0)
(0.0190434 0.0780064 0)
(0.0193822 0.0751484 0)
(0.0128975 0.0827084 0)
(0.0130078 0.0801424 0)
(0.0131953 0.077442 0)
(0.0132989 0.0745949 0)
(0.00772848 0.0827913 0)
(0.00754026 0.0801632 0)
(0.00739554 0.0774551 0)
(0.00722288 0.074651 0)
(0.00276635 0.0833597 0)
(0.00252318 0.0808462 0)
(0.00217501 0.0781227 0)
(0.0016697 0.0752406 0)
(-0.0037487 0.0834721 0)
(-0.00345349 0.0815276 0)
(-0.00338472 0.0793053 0)
(-0.00353421 0.0768517 0)
(-0.0134325 0.0806871 0)
(-0.0126851 0.0793089 0)
(-0.0121914 0.0776976 0)
(-0.0118327 0.0758775 0)
(0.156423 0.338363 0)
(0.208788 0.336876 0)
(0.265868 0.330962 0)
(0.326167 0.309583 0)
(0.388611 0.270571 0)
(0.410081 0.227638 0)
(0.400467 0.177957 0)
(-0.317884 -0.225359 0)
(-0.87888 -0.566685 0)
(-0.918126 -0.581075 0)
(-0.914794 -0.594499 0)
(-0.887908 -0.516704 0)
(-0.850874 -0.495831 0)
(-0.803893 -0.49046 0)
(-0.749359 -0.495281 0)
(-0.648742 -0.511084 0)
(-0.480358 -0.540267 0)
(-0.308771 -0.566057 0)
(-0.199642 -0.610528 0)
(0.156963 0.29277 0)
(0.201797 0.288086 0)
(0.25157 0.276652 0)
(0.306128 0.256176 0)
(0.351537 0.227635 0)
(0.408096 0.197598 0)
(0.432737 0.180189 0)
(0.510693 0.150035 0)
(0.163682 -0.160009 0)
(-0.463717 -0.67251 0)
(-0.596422 -0.66383 0)
(-0.659443 -0.6524 0)
(-0.697062 -0.610693 0)
(-0.640663 -0.642304 0)
(-0.633513 -0.715328 0)
(-0.507188 -0.813411 0)
(-0.373514 -0.886784 0)
(-0.178192 -1.01444 0)
(-0.103337 -1.23286 0)
(0.1562 0.257273 0)
(0.195701 0.249975 0)
(0.237006 0.235312 0)
(0.284328 0.216296 0)
(0.322576 0.190741 0)
(0.37652 0.155948 0)
(0.411027 0.129484 0)
(0.48008 0.0915563 0)
(0.553329 -0.000842138 0)
(0.567749 -0.0197331 0)
(0.379237 -0.117765 0)
(-0.257954 -0.456721 0)
(-0.574464 -0.620496 0)
(-0.590921 -0.676982 0)
(-0.559231 -0.652341 0)
(-0.532486 -0.635214 0)
(-0.340476 -0.73798 0)
(-0.190826 -0.8896 0)
(0.0131966 -0.708772 0)
(0.149212 0.223024 0)
(0.184732 0.212874 0)
(0.223404 0.196093 0)
(0.26129 0.176434 0)
(0.296782 0.151075 0)
(0.34328 0.116511 0)
(0.373672 0.0831525 0)
(0.428543 0.0204956 0)
(0.467712 -0.015977 0)
(0.485636 -0.119878 0)
(0.571815 -0.169171 0)
(0.55568 -0.112592 0)
(0.456079 -0.125782 0)
(-0.128972 -0.514197 0)
(-0.47373 -0.646269 0)
(-0.474337 -0.73799 0)
(-0.328619 -0.821167 0)
(-0.364682 -1.12113 0)
(-0.130057 -1.52486 0)
(0.145462 0.195544 0)
(0.174699 0.18181 0)
(0.206972 0.165565 0)
(0.238365 0.14639 0)
(0.268943 0.119287 0)
(0.310671 0.0808494 0)
(0.337196 0.0458269 0)
(0.392 -0.0074409 0)
(0.414023 -0.0514726 0)
(0.481925 -0.115805 0)
(0.521279 -0.139314 0)
(0.584941 -0.0625885 0)
(0.538904 0.119807 0)
(0.287064 0.100446 0)
(-0.170018 -0.301803 0)
(-0.25551 -0.578482 0)
(-0.144307 -0.688696 0)
(-0.159313 -0.86899 0)
(-0.0304786 -1.23903 0)
(0.13657 0.170537 0)
(0.161963 0.156187 0)
(0.188781 0.139649 0)
(0.214951 0.118623 0)
(0.24204 0.0893954 0)
(0.275968 0.0518203 0)
(0.293665 0.0123193 0)
(0.351097 -0.0377388 0)
(0.354388 -0.115223 0)
(0.444416 -0.193482 0)
(0.463694 -0.196573 0)
(0.511936 -0.103539 0)
(0.492055 0.180204 0)
(0.366964 0.204013 0)
(0.142049 -0.0664718 0)
(-0.103584 -0.633198 0)
(-0.0429402 -0.830227 0)
(-0.0491129 -0.954934 0)
(-0.00167802 -1.40634 0)
(0.128523 0.149282 0)
(0.148299 0.134894 0)
(0.170094 0.118105 0)
(0.191755 0.0967196 0)
(0.212434 0.0666639 0)
(0.239291 0.0298325 0)
(0.249042 -0.0146847 0)
(0.300595 -0.0669246 0)
(0.289318 -0.150785 0)
(0.368591 -0.241262 0)
(0.378136 -0.233107 0)
(0.409063 -0.0912657 0)
(0.390489 0.27399 0)
(0.28039 0.304753 0)
(0.136814 0.117701 0)
(-0.025162 -0.4682 0)
(-0.0376264 -0.807674 0)
(-0.05358 -0.96881 0)
(0.0184631 -1.43458 0)
(0.118267 0.133499 0)
(0.134283 0.117949 0)
(0.1516 0.101144 0)
(0.168545 0.0789424 0)
(0.183006 0.0494591 0)
(0.201063 0.0147199 0)
(0.205869 -0.0318601 0)
(0.237456 -0.0849249 0)
(0.219315 -0.169002 0)
(0.275088 -0.275426 0)
(0.262407 -0.282865 0)
(0.288231 -0.0627728 0)
(0.214863 0.324728 0)
(0.0785364 0.391223 0)
(-0.0134619 0.210644 0)
(-0.10425 -0.406979 0)
(-0.181769 -0.77266 0)
(-0.153509 -1.04006 0)
(0.0585968 -1.66825 0)
(0.108505 0.118187 0)
(0.120489 0.104982 0)
(0.133706 0.0877749 0)
(0.145994 0.0671824 0)
(0.154536 0.039517 0)
(0.163776 0.00632966 0)
(0.16366 -0.0367987 0)
(0.168982 -0.0884599 0)
(0.15074 -0.173154 0)
(0.149174 -0.266642 0)
(0.0871049 -0.295351 0)
(0.0352853 0.0453803 0)
(-0.072423 0.475612 0)
(-0.139484 0.491582 0)
(-0.20098 0.263841 0)
(-0.298822 -0.346115 0)
(-0.368767 -1.06347 0)
(-0.118498 -1.75665 0)
(0.0950955 -1.92183 0)
(0.0973766 0.108648 0)
(0.107408 0.0942792 0)
(0.116565 0.0785844 0)
(0.125053 0.0593253 0)
(0.128911 0.0348842 0)
(0.130772 0.0059256 0)
(0.123776 -0.0301744 0)
(0.110067 -0.0754402 0)
(0.0727297 -0.140313 0)
(0.0158743 -0.21332 0)
(-0.119975 -0.191116 0)
(-0.218592 0.152176 0)
(-0.220392 0.501608 0)
(-0.286006 0.543366 0)
(-0.300272 0.270937 0)
(-0.410317 -0.729283 0)
(-0.142767 -1.59014 0)
(-0.0644872 -1.72957 0)
(0.0762671 -1.63749 0)
(0.0875514 0.0990981 0)
(0.0951125 0.0870247 0)
(0.101295 0.0722084 0)
(0.106763 0.055352 0)
(0.107122 0.0347741 0)
(0.104196 0.0113884 0)
(0.0922161 -0.0157854 0)
(0.0698794 -0.0476934 0)
(0.0230896 -0.0854966 0)
(-0.0465864 -0.117841 0)
(-0.21523 -0.0998619 0)
(-0.310906 0.207375 0)
(-0.280852 0.484257 0)
(-0.312913 0.559302 0)
(-0.325465 0.179483 0)
(-0.287875 -0.967141 0)
(-0.0740862 -1.50874 0)
(-0.0707588 -1.50387 0)
(0.0663703 -1.48354 0)
(0.0777731 0.0926899 0)
(0.0838185 0.0812059 0)
(0.0880214 0.0681918 0)
(0.0912848 0.0537062 0)
(0.0898332 0.0371757 0)
(0.0846036 0.0195783 0)
(0.071166 0.00160381 0)
(0.0474066 -0.0161346 0)
(0.00437726 -0.0302669 0)
(-0.0621468 -0.0280361 0)
(-0.179122 0.0152951 0)
(-0.280536 0.228138 0)
(-0.232231 0.464274 0)
(-0.228731 0.552553 0)
(-0.297828 0.140063 0)
(-0.160999 -1.06418 0)
(-0.072083 -1.43554 0)
(-0.0745033 -1.4439 0)
(0.0698578 -1.46314 0)
(0.0689438 0.0871949 0)
(0.0738063 0.0771462 0)
(0.0766152 0.0655691 0)
(0.0786795 0.0534495 0)
(0.0768421 0.040448 0)
(0.0717414 0.0279726 0)
(0.0604104 0.0176091 0)
(0.0415786 0.0111391 0)
(0.00959353 0.0139245 0)
(-0.0355288 0.03662 0)
(-0.103679 0.0960141 0)
(-0.173952 0.256383 0)
(-0.14342 0.452618 0)
(-0.0950801 0.553736 0)
(-0.194986 0.158889 0)
(-0.106874 -1.06588 0)
(-0.0841584 -1.42391 0)
(-0.0812228 -1.44101 0)
(0.0982868 -1.46102 0)
(0.0607785 0.0830461 0)
(0.0647647 0.073916 0)
(0.0669571 0.0637279 0)
(0.0685403 0.0534942 0)
(0.067262 0.0432516 0)
(0.0637767 0.0344076 0)
(0.0562095 0.0290804 0)
(0.04457 0.0294773 0)
(0.0266686 0.0399108 0)
(0.00438779 0.0723276 0)
(-0.0175449 0.135757 0)
(-0.0324779 0.264846 0)
(0.00380375 0.418494 0)
(0.0485354 0.536788 0)
(-0.0473266 0.213176 0)
(-0.0391234 -0.921882 0)
(-0.113858 -1.67229 0)
(-0.120182 -1.67229 0)
(0.160702 -1.4569 0)
(0.0532652 0.0796215 0)
(0.0566564 0.0712854 0)
(0.058567 0.0621692 0)
(0.0601631 0.0531822 0)
(0.0599871 0.0447669 0)
(0.0588019 0.0380327 0)
(0.0558125 0.0349506 0)
(0.0521244 0.0373237 0)
(0.0484611 0.0494719 0)
(0.0464582 0.0801931 0)
(0.0560549 0.134859 0)
(0.0765507 0.241829 0)
(0.130895 0.392506 0)
(0.169961 0.564185 0)
(0.193241 0.367689 0)
(0.0939721 -0.481712 0)
(0.140024 -1.46799 0)
(-0.232587 -1.96912 0)
(0.248393 -1.42516 0)
(0.0462085 0.0768323 0)
(0.0491444 0.0690207 0)
(0.0509966 0.0605752 0)
(0.0528453 0.0522898 0)
(0.053872 0.0446575 0)
(0.0548521 0.0384563 0)
(0.0560952 0.0352356 0)
(0.0591431 0.0368653 0)
(0.0658997 0.0465158 0)
(0.0803086 0.0703343 0)
(0.117852 0.115135 0)
(0.169912 0.204688 0)
(0.265912 0.342571 0)
(0.330101 0.496148 0)
(0.432889 0.416451 0)
(0.199047 -0.257352 0)
(0.587498 -1.19098 0)
(-0.218759 -1.53728 0)
(0.360576 -1.38779 0)
(0.0394865 0.0745296 0)
(0.0420218 0.0669705 0)
(0.0438122 0.0588925 0)
(0.0458661 0.0507971 0)
(0.0478431 0.0431397 0)
(0.0506654 0.0362837 0)
(0.0551575 0.0312545 0)
(0.0635737 0.0287302 0)
(0.0796823 0.0301899 0)
(0.108879 0.037256 0)
(0.166425 0.056145 0)
(0.250109 0.10468 0)
(0.348492 0.233613 0)
(0.397148 0.452928 0)
(0.526291 0.392269 0)
(0.253929 -0.203382 0)
(0.680389 -0.899938 0)
(-0.0733963 -1.43129 0)
(0.61388 -1.52965 0)
(0.0329233 0.0726486 0)
(0.0350199 0.0651708 0)
(0.0366904 0.0571929 0)
(0.0387156 0.0489864 0)
(0.0410541 0.0408256 0)
(0.0444827 0.0327462 0)
(0.0498938 0.0249482 0)
(0.0590152 0.0169925 0)
(0.0750267 0.00794861 0)
(0.10338 -0.00488553 0)
(0.154682 -0.0128486 0)
(0.223503 0.0309163 0)
(0.309752 0.185999 0)
(0.371703 0.418076 0)
(0.511815 0.354028 0)
(0.326209 -0.17184 0)
(0.687032 -0.812823 0)
(0.137886 -1.35745 0)
(0.809482 -1.68246 0)
(0.0264413 0.0711853 0)
(0.0280484 0.0636942 0)
(0.0294349 0.0556571 0)
(0.0311882 0.0471686 0)
(0.033418 0.0383641 0)
(0.0366378 0.0290605 0)
(0.0413371 0.019061 0)
(0.0488533 0.00742014 0)
(0.059152 -0.0077944 0)
(0.073246 -0.0291554 0)
(0.0926121 -0.0513934 0)
(0.114936 -0.025486 0)
(0.183158 0.123012 0)
(0.289209 0.35054 0)
(0.441516 0.296265 0)
(0.390479 -0.207394 0)
(0.659709 -0.787423 0)
(0.263424 -1.19737 0)
(0.307001 -1.14394 0)
(0.0199557 0.0701797 0)
(0.020987 0.0626255 0)
(0.0219398 0.0544979 0)
(0.023194 0.0457305 0)
(0.0248981 0.036385 0)
(0.027291 0.0261822 0)
(0.0305159 0.014972 0)
(0.0348912 0.00203675 0)
(0.0398239 -0.0138571 0)
(0.0417324 -0.0321389 0)
(0.0427069 -0.0562345 0)
(0.03296 -0.0528104 0)
(0.0644259 0.0523161 0)
(0.173599 0.230977 0)
(0.393554 0.166915 0)
(0.464548 -0.282806 0)
(0.613575 -0.757557 0)
(0.275494 -0.984985 0)
(0.26011 -0.976764 0)
(0.0134715 0.0696082 0)
(0.0138733 0.0619895 0)
(0.0142682 0.0536828 0)
(0.0149098 0.0445693 0)
(0.0159865 0.0346971 0)
(0.0176259 0.0237947 0)
(0.0199769 0.0118526 0)
(0.0230769 -0.00140441 0)
(0.0272919 -0.0166296 0)
(0.0275572 -0.0314476 0)
(0.0339531 -0.0504971 0)
(0.0195257 -0.0518388 0)
(0.0560625 -0.00973994 0)
(0.145846 0.0559414 0)
(0.400615 -0.0187868 0)
(0.468766 -0.353867 0)
(0.52505 -0.666074 0)
(0.251015 -0.815653 0)
(0.197688 -0.722208 0)
(0.00696961 0.0697515 0)
(0.00660674 0.0620993 0)
(0.00628279 0.0537453 0)
(0.00606936 0.0444659 0)
(0.00606951 0.0342842 0)
(0.00648241 0.0229136 0)
(0.00747696 0.0101779 0)
(0.00880604 -0.00395128 0)
(0.0127614 -0.0195387 0)
(0.0130738 -0.0348155 0)
(0.0259151 -0.0526661 0)
(0.0206422 -0.0659889 0)
(0.0717761 -0.0649828 0)
(0.122973 -0.0838523 0)
(0.331875 -0.168491 0)
(0.326635 -0.422875 0)
(0.345072 -0.581714 0)
(0.142248 -0.668172 0)
(0.11343 -0.598834 0)
(0.000674106 0.0702183 0)
(-0.000494356 0.062551 0)
(-0.00173086 0.0540571 0)
(-0.00267238 0.0446371 0)
(-0.00344091 0.0341239 0)
(-0.00400262 0.0223391 0)
(-0.00425843 0.00915698 0)
(-0.00425188 -0.0057512 0)
(-0.00178463 -0.0222695 0)
(-0.00358439 -0.0422329 0)
(0.0126191 -0.0628836 0)
(0.00579688 -0.0913462 0)
(0.0584372 -0.1072 0)
(0.0690211 -0.167073 0)
(0.223533 -0.254805 0)
(0.156363 -0.426188 0)
(0.223989 -0.512801 0)
(0.0548 -0.585772 0)
(0.10117 -0.522359 0)
(-0.00418008 0.0722481 0)
(-0.00614956 0.0645176 0)
(-0.0086588 0.0558498 0)
(-0.0114042 0.0462497 0)
(-0.0141311 0.0356645 0)
(-0.0168001 0.0236812 0)
(-0.0192607 0.00997222 0)
(-0.0214138 -0.00586871 0)
(-0.0223672 -0.0234681 0)
(-0.0254273 -0.0450306 0)
(-0.0143565 -0.0656083 0)
(-0.0223474 -0.0994183 0)
(0.035672 -0.127145 0)
(0.0380507 -0.222995 0)
(0.181652 -0.276448 0)
(0.115723 -0.416072 0)
(0.185382 -0.46003 0)
(0.0365676 -0.507489 0)
(0.104289 -0.441837 0)
(-0.0116986 0.0724569 0)
(-0.0123114 0.0662098 0)
(-0.0137367 0.0586224 0)
(-0.0157715 0.0497083 0)
(-0.018257 0.0394073 0)
(-0.0210491 0.0276939 0)
(-0.0241061 0.0142389 0)
(-0.0269938 -0.00167652 0)
(-0.0291746 -0.0210062 0)
(-0.0315766 -0.0467647 0)
(-0.0183106 -0.0770897 0)
(-0.0206029 -0.14378 0)
(0.0539662 -0.182303 0)
(0.0519315 -0.303866 0)
(0.184975 -0.323701 0)
(0.11141 -0.412704 0)
(0.182672 -0.419135 0)
(0.0345662 -0.457106 0)
(0.101582 -0.379356 0)
)
;

boundaryField
{
    leftWall
    {
        type            fixedValue;
        value           nonuniform 0();
    }
    rightWall
    {
        type            fixedValue;
        value           uniform (0 0 0);
    }
    lowerWall
    {
        type            fixedValue;
        value           nonuniform 0();
    }
    atmosphere
    {
        type            fluxCorrectedVelocity;
        value           nonuniform List<vector> 
23
(
(-0.0134325 0.0806724 0)
(-0.0126851 0.0792944 0)
(-0.0121914 0.077683 0)
(-0.0118327 0.0758626 0)
(-0.0116986 0.0724412 0)
(-0.0123114 0.0661936 0)
(-0.0137367 0.0586063 0)
(-0.0157715 0.0496936 0)
(-0.018257 0.0393971 0)
(-0.0210491 0.027693 0)
(-0.0241061 0.0142521 0)
(-0.0269938 -0.00165336 0)
(-0.0291746 -0.0210678 0)
(-0.0315766 -0.0469419 0)
(-0.0183106 -0.0773758 0)
(-0.0206029 -0.144532 0)
(0.0539662 -0.183445 0)
(0.0519315 -0.304885 0)
(0.184975 -0.324287 0)
(0.11141 -0.412242 0)
(0.182672 -0.417526 0)
(0.0345662 -0.454775 0)
(0.101582 -0.376973 0)
)
;
    }
    defaultFaces
    {
        type            empty;
    }
    procBoundary3to1
    {
        type            processor;
        value           nonuniform List<vector> 
23
(
(0.0394309 0.355961 0)
(0.06056 0.36366 0)
(0.0826778 0.370074 0)
(0.104744 0.37646 0)
(0.14776 0.387172 0)
(0.209575 0.391055 0)
(0.278305 0.392859 0)
(0.358083 0.3781 0)
(0.431507 0.303226 0)
(0.395992 0.119683 0)
(-0.229609 -0.192106 0)
(-1.0314 -0.650205 0)
(-1.02799 -0.652513 0)
(-0.965699 -0.663649 0)
(-0.920671 -0.555296 0)
(-0.893211 -0.503515 0)
(-0.846171 -0.492944 0)
(-0.810063 -0.469604 0)
(-0.753247 -0.429272 0)
(-0.651985 -0.383909 0)
(-0.504789 -0.301775 0)
(-0.323792 -0.266516 0)
(-0.133934 -0.31573 0)
)
;
    }
    procBoundary3to2
    {
        type            processor;
        value           nonuniform List<vector> 
25
(
(0.0330286 0.303529 0)
(0.052633 0.268345 0)
(0.0683853 0.24059 0)
(0.0714329 0.215625 0)
(0.0784971 0.195427 0)
(0.077434 0.180731 0)
(0.0781184 0.163607 0)
(0.0752577 0.150158 0)
(0.0727762 0.138067 0)
(0.0680953 0.129135 0)
(0.0638612 0.11985 0)
(0.0586584 0.113368 0)
(0.0535977 0.107184 0)
(0.0483114 0.102358 0)
(0.0430885 0.0982186 0)
(0.0379096 0.0948517 0)
(0.0327547 0.0921059 0)
(0.0276561 0.0899352 0)
(0.0225866 0.0882989 0)
(0.0175502 0.0871497 0)
(0.0126187 0.0865055 0)
(0.00807018 0.0868832 0)
(0.00260397 0.0868702 0)
(-0.00437938 0.0862271 0)
(-0.0145259 0.0826037 0)
)
;
    }
}


// ************************************************************************* //
