/*--------------------------------*- C++ -*----------------------------------*\
| =========                 |                                                 |
| \\      /  F ield         | OpenFOAM: The Open Source CFD Toolbox           |
|  \\    /   O peration     | Version:  2.4.0                                 |
|   \\  /    A nd           | Web:      www.OpenFOAM.org                      |
|    \\/     M anipulation  |                                                 |
\*---------------------------------------------------------------------------*/
FoamFile
{
    version     2.0;
    format      ascii;
    class       volScalarField;
    location    "0.95";
    object      alpha.water;
}
// * * * * * * * * * * * * * * * * * * * * * * * * * * * * * * * * * * * * * //

dimensions      [0 0 0 0 0 0 0];

internalField   nonuniform List<scalar> 
2268
(
6.25286e-08
4.21242e-08
2.57036e-08
2.22836e-08
1.99445e-08
1.92908e-08
1.99e-08
2.02368e-08
1.92876e-08
1.76988e-08
1.74004e-08
1.84088e-08
1.84862e-08
1.37723e-08
8.70404e-09
6.4258e-09
5.80156e-09
5.79653e-09
6.81618e-09
6.34275e-09
1.74071e-09
6.50761e-10
4.67661e-10
3.18566e-06
2.45834e-06
1.19544e-06
8.16401e-07
3.83152e-07
1.45157e-07
1.12016e-07
1.04433e-07
7.99721e-08
6.63411e-08
6.54883e-08
6.76322e-08
6.0541e-08
4.2919e-08
3.29592e-08
2.67126e-08
2.45638e-08
2.90699e-08
3.26418e-08
2.8754e-08
1.18603e-08
1.75886e-09
1.58451e-09
0.000490336
9.91142e-05
1.12266e-05
2.5485e-06
1.3248e-06
1.30436e-06
1.36784e-06
1.0763e-06
5.99224e-07
3.89357e-07
3.3522e-07
2.9793e-07
2.02903e-07
1.04604e-07
7.16462e-08
6.46087e-08
7.65915e-08
1.12864e-07
1.29897e-07
1.04709e-07
3.06982e-08
1.20573e-08
7.21904e-09
0.0268901
0.00529045
0.000613627
0.000113906
3.95918e-05
2.0581e-05
1.01857e-05
5.97743e-06
6.6571e-06
6.12788e-06
4.09144e-06
2.0304e-06
1.1376e-06
7.10047e-07
4.51903e-07
3.62673e-07
3.24762e-07
4.32903e-07
9.16413e-07
2.96299e-06
5.90698e-06
1.47687e-06
1.30881e-06
0.206876
0.0428898
0.00638286
0.00102263
0.000222418
0.00016829
0.000717757
0.00239514
0.00471969
0.00558254
0.00449513
0.00248406
0.00143618
0.000995657
0.000795447
0.000693717
0.000582773
0.000643641
0.00125493
0.00280286
0.00413817
0.00214878
0.00325139
0.541808
0.156847
0.0229431
0.00479733
0.00577135
0.0298037
0.0777866
0.152057
0.239028
0.286442
0.278861
0.21369
0.159215
0.126326
0.110105
0.103529
0.0975326
0.0997239
0.126923
0.179057
0.213897
0.182734
0.297122
0.827098
0.414682
0.118994
0.0801304
0.249717
0.505016
0.70074
0.849667
0.941872
0.974965
0.979971
0.970905
0.948733
0.915866
0.873437
0.843523
0.830461
0.830637
0.848199
0.88841
0.924181
0.959669
0.972768
0.957291
0.783561
0.647888
0.711998
0.881703
0.969363
0.992219
0.997635
0.999049
0.999261
0.999262
0.99926
0.99926
0.999258
0.999258
0.998766
0.997102
0.995715
0.995617
0.995595
0.990622
0.9595
0.874543
0.0893586
0.216163
0.277812
0.265214
0.205948
0.11178
0.0364965
0.0245884
0.0170728
0.00796413
0.00271427
0.00169637
0.00168407
0.00164408
0.000498497
0.000289102
0.000106172
6.49716e-05
9.88629e-05
0.422947
0.459487
0.595942
0.674422
0.694159
0.694122
0.688617
0.648824
0.568829
0.38854
0.157035
0.0669984
0.0397307
0.0259469
0.0127703
0.0026742
0.000439683
0.000113861
0.000172935
0.169707
0.140712
0.135231
0.186263
0.38523
0.684676
0.769092
0.769226
0.769092
0.604762
0.226019
0.0650931
0.0336145
0.0196707
0.00896775
0.00263544
0.000502235
0.0001178
0.000225088
0.123973
0.0251813
0.0129922
0.0149101
0.0290649
0.182893
0.481055
0.645206
0.721322
0.679236
0.410228
0.16214
0.0528789
0.0167677
0.00657761
0.0024318
0.000425198
0.000117027
0.000255662
0.0185153
0.0106834
0.0105034
0.0111596
0.01118
0.0362436
0.550875
0.763375
0.762929
0.749906
0.536917
0.187729
0.0745963
0.0341577
0.0138378
0.00083354
0.000195851
0.000116894
0.000289433
0.0528662
0.0194004
0.00710206
0.00986175
0.0105582
0.0166039
0.387892
0.69556
0.755909
0.775776
0.603802
0.250445
0.107262
0.0862238
0.0624588
0.00843333
0.000492813
0.000665005
0.00653237
0.072374
0.0210129
0.00594512
0.00494362
0.00931792
0.0342243
0.389956
0.736611
0.768964
0.777864
0.674212
0.296073
0.12521
0.106624
0.110121
0.0910168
0.0537099
0.0671644
0.136803
0.0769565
0.0211686
0.013561
0.0049305
0.0054488
0.0402602
0.358598
0.716175
0.769907
0.777881
0.738532
0.378722
0.146122
0.124257
0.121049
0.196663
0.297134
0.372188
0.417939
0.991543
0.966203
0.957652
0.978779
0.99197
0.996675
0.998281
0.999036
0.999259
0.999261
0.99926
0.998822
0.997978
0.997111
0.996627
0.995354
0.990709
0.987029
0.985856
0.979812
0.976723
0.917081
0.471166
0.999645
0.998781
0.998731
0.999254
0.999256
0.999256
0.999257
0.999257
0.999259
0.999029
0.994271
0.98155
0.971813
0.977414
0.981078
0.983503
0.982038
0.974066
0.952798
0.809399
0.745785
0.645244
0.194992
0.999258
0.999204
0.999252
0.999254
0.999254
0.999256
0.999256
0.999237
0.997825
0.967853
0.873634
0.770034
0.71169
0.761803
0.833991
0.899148
0.937644
0.92619
0.778785
0.412397
0.363459
0.230148
0.0888014
0.90052
0.942547
0.97737
0.989476
0.993692
0.996821
0.997103
0.986511
0.920364
0.653736
0.420096
0.324019
0.289048
0.348869
0.545907
0.705572
0.613925
0.419712
0.231117
0.12255
0.0944735
0.06784
0.0654598
0.319959
0.586587
0.847168
0.944846
0.978507
0.985048
0.941507
0.747905
0.462146
0.172382
0.14325
0.207873
0.22377
0.231296
0.235318
0.212923
0.149989
0.0886615
0.0582578
0.0507918
0.0483951
0.0461531
0.0528786
0.151826
0.268928
0.685333
0.854253
0.890556
0.811705
0.433972
0.141436
0.0975941
0.102554
0.107957
0.100915
0.0803774
0.0608473
0.0632201
0.0580648
0.0412055
0.0399451
0.0381405
0.0287392
0.0137995
0.00676726
0.0149682
0.151416
0.157534
0.418027
0.548224
0.536242
0.3319
0.121197
0.0757372
0.0735078
0.0681287
0.0612695
0.042885
0.00993789
0.00138424
0.00144142
0.00155233
0.00214857
0.00543208
0.00770122
0.00541515
0.000846378
6.82931e-05
7.99384e-05
0.0553589
0.146484
0.207164
0.276005
0.187967
0.0961587
0.0706237
0.0487812
0.0398663
0.035744
0.0259541
0.0074408
0.000288352
3.47065e-06
2.80712e-06
2.17801e-06
3.90693e-06
6.06263e-05
0.000159124
0.000124316
1.11473e-05
1.65296e-07
2.68319e-08
0.00481031
0.0571047
0.10677
0.103211
0.0804605
0.0613908
0.0186778
0.00405482
0.00169083
0.00137714
0.0011734
0.000221747
4.00565e-06
4.25372e-08
2.66428e-08
2.65129e-08
3.22009e-08
5.81181e-08
2.31904e-07
2.52914e-07
2.69365e-08
1.1926e-08
1.65845e-08
0.000201865
0.00719741
0.0349534
0.0502137
0.0432114
0.0166968
0.00114016
2.29316e-05
8.20494e-06
1.13982e-05
5.70101e-06
1.24435e-06
1.17468e-07
4.82751e-08
2.65815e-08
2.61753e-08
2.40602e-08
2.21878e-08
1.64432e-08
1.10016e-08
1.11106e-08
1.10755e-08
1.12925e-08
1.96433e-06
0.000210981
0.0022918
0.00522365
0.00532805
0.000943589
1.40856e-05
4.62415e-08
2.28801e-08
7.96736e-08
1.05045e-07
1.09667e-07
5.86019e-08
2.39244e-08
2.31347e-08
2.28455e-08
2.24932e-08
2.37644e-08
2.49584e-08
2.51868e-08
1.74933e-08
8.43466e-09
8.44743e-09
3.53389e-09
9.8376e-07
1.889e-05
5.04912e-05
5.67279e-05
8.44419e-06
1.65121e-07
3.42294e-09
1.16423e-09
1.24946e-09
1.18487e-08
7.46787e-08
1.59739e-07
6.60779e-08
2.27952e-08
2.71464e-08
2.62403e-08
2.10307e-08
2.01132e-08
1.97543e-08
1.45452e-08
8.56091e-09
1.02128e-08
1.06885e-09
1.17022e-09
1.42065e-08
3.989e-08
4.3928e-08
1.39687e-08
3.09253e-09
1.62731e-09
1.16412e-09
1.18467e-09
1.26741e-09
2.10684e-08
1.9313e-07
3.40535e-07
2.22203e-07
4.10344e-08
5.43082e-08
6.62571e-08
3.40452e-08
1.59835e-08
9.08722e-09
8.7285e-09
1.30146e-08
1.0902e-09
1.07051e-09
1.07028e-09
1.0694e-09
1.07095e-09
1.07753e-09
1.20735e-09
1.19574e-09
1.17555e-09
1.37231e-09
1.63555e-09
2.24135e-09
5.39011e-08
3.4755e-07
5.04272e-07
2.70689e-07
9.57563e-08
1.97398e-07
1.9582e-07
8.4436e-08
3.23794e-08
3.45842e-08
4.64918e-08
1.39718e-09
1.43891e-09
2.22806e-09
2.35689e-09
1.91941e-09
1.15183e-09
1.14547e-09
1.18633e-09
1.31611e-09
1.66093e-09
1.99078e-09
2.33199e-09
3.65775e-09
7.12926e-08
3.96605e-07
6.98596e-07
1.01244e-06
1.01616e-06
1.0077e-06
8.10184e-07
4.72666e-07
3.36988e-07
4.64318e-07
2.5329e-09
3.40419e-09
5.42218e-09
1.13463e-08
6.79489e-09
2.13351e-09
1.14546e-09
1.26787e-09
1.52172e-09
1.87342e-09
2.21159e-09
2.50407e-09
2.86295e-09
4.33625e-09
5.65354e-08
2.18561e-07
5.36021e-07
9.81327e-07
1.06261e-06
1.06378e-06
6.71488e-07
2.79187e-07
2.47115e-07
3.76876e-09
4.8864e-09
5.78432e-09
1.68608e-08
1.66511e-08
6.92043e-09
1.35415e-09
1.29783e-09
1.68865e-09
2.00736e-09
2.30809e-09
2.69928e-09
3.17564e-09
3.08423e-09
4.25877e-09
2.99418e-08
7.24366e-08
2.20076e-07
3.20134e-07
2.73094e-07
1.61371e-07
8.07583e-08
4.90372e-08
3.83138e-09
4.49738e-09
5.21432e-09
2.23598e-08
2.04312e-08
9.88004e-09
1.32066e-09
1.19879e-09
1.7147e-09
2.09391e-09
2.39134e-09
2.95856e-09
3.22302e-09
3.0149e-09
2.75225e-09
5.85097e-09
3.90311e-09
1.09896e-08
1.20489e-08
7.88016e-09
4.21826e-09
2.47474e-09
1.6109e-09
3.81825e-09
4.43182e-09
8.40507e-09
2.74583e-08
2.17992e-08
7.98961e-09
8.72583e-10
8.30611e-10
1.43248e-09
1.87469e-09
2.32043e-09
2.8806e-09
3.01489e-09
2.69549e-09
2.105e-09
1.66924e-09
8.51351e-10
4.81203e-10
3.44516e-10
2.33117e-10
2.55378e-10
4.07994e-10
6.6614e-10
7.11164e-09
6.48401e-09
2.47693e-08
2.74799e-08
1.61085e-08
3.02694e-09
2.81799e-10
3.15406e-10
7.16975e-10
1.14069e-09
1.66193e-09
2.03704e-09
1.9064e-09
1.5876e-09
1.21416e-09
7.96701e-10
2.85428e-10
6.22704e-11
3.55096e-11
8.29673e-11
2.047e-10
3.95889e-10
6.52289e-10
2.77471e-08
2.90455e-08
3.21097e-08
2.10833e-08
6.05791e-09
4.17951e-10
4.31334e-11
4.68344e-11
1.53342e-10
3.29937e-10
6.00218e-10
7.39428e-10
6.4633e-10
4.93292e-10
4.34931e-10
2.84641e-10
9.29858e-11
2.2474e-11
2.34257e-11
4.66928e-11
1.05649e-10
2.43959e-10
4.24746e-10
3.59477e-08
3.54883e-08
2.43607e-08
7.61282e-09
6.28955e-10
1.65515e-11
1.18291e-11
1.17959e-11
1.53898e-11
3.30691e-11
7.34941e-11
9.98204e-11
1.01248e-10
1.62259e-10
1.39801e-10
8.71796e-11
3.1116e-11
1.17743e-11
1.16796e-11
1.69366e-11
3.42191e-11
9.69359e-11
1.82255e-10
2.44535e-08
1.92677e-08
7.19715e-09
7.5063e-10
1.6602e-11
6.96518e-12
6.80589e-12
6.88754e-12
7.599e-12
9.83322e-12
1.00831e-11
1.25683e-11
1.50045e-11
4.50882e-11
4.01108e-11
2.31657e-11
9.63422e-12
5.38393e-12
4.72378e-12
7.10149e-12
1.39883e-11
2.64562e-11
6.30658e-11
9.31829e-09
5.37534e-09
5.54312e-10
1.52371e-11
5.4582e-12
3.72577e-12
3.48684e-12
3.5424e-12
3.91283e-12
5.16773e-12
5.7555e-12
7.34435e-12
8.48084e-12
1.37373e-11
1.06121e-11
6.74827e-12
3.48538e-12
1.91508e-12
1.6125e-12
2.4844e-12
4.61783e-12
9.66176e-12
2.10051e-11
8.09395e-10
2.50705e-10
1.00118e-11
4.55269e-12
2.80311e-12
1.88835e-12
1.64889e-12
1.67672e-12
1.87561e-12
2.42874e-12
2.78163e-12
3.54952e-12
4.08903e-12
4.73295e-12
3.6056e-12
2.18151e-12
1.11821e-12
5.91086e-13
4.8138e-13
7.16761e-13
1.29602e-12
2.81234e-12
5.99587e-12
1.22676e-11
4.68048e-12
3.39151e-12
2.12983e-12
1.33236e-12
8.6328e-13
7.14889e-13
7.26466e-13
8.19082e-13
1.04305e-12
1.18634e-12
1.46374e-12
1.65221e-12
1.61304e-12
1.16111e-12
6.63124e-13
3.23419e-13
1.61329e-13
1.27258e-13
1.79378e-13
3.13812e-13
6.5586e-13
1.14097e-12
3.45074e-12
2.24622e-12
1.48819e-12
9.32927e-13
5.66455e-13
3.54478e-13
2.82704e-13
2.86871e-13
3.24871e-13
4.0583e-13
4.54571e-13
5.3509e-13
5.78152e-13
5.08651e-13
3.41878e-13
1.83539e-13
8.40963e-14
3.93674e-14
3.00132e-14
3.96981e-14
6.49869e-14
1.2175e-13
1.70054e-13
1.34859e-12
9.45661e-13
6.00568e-13
3.64991e-13
2.15034e-13
1.31106e-13
1.01872e-13
1.03214e-13
1.16923e-13
1.43183e-13
1.57348e-13
1.76712e-13
1.80112e-13
1.45975e-13
9.15433e-14
4.60755e-14
1.97534e-14
8.63363e-15
6.31071e-15
7.81524e-15
1.16907e-14
1.864e-14
2.05998e-14
5.11373e-13
3.49124e-13
2.16021e-13
1.27734e-13
7.33381e-14
4.38547e-14
3.34957e-14
3.38818e-14
3.8227e-14
4.59225e-14
4.93318e-14
5.29838e-14
5.06176e-14
3.80618e-14
2.22694e-14
1.04937e-14
4.20323e-15
1.71042e-15
1.18526e-15
1.36489e-15
1.82247e-15
2.39997e-15
2.10442e-15
1.76542e-13
1.15927e-13
6.98013e-14
4.0251e-14
2.25918e-14
1.33184e-14
1.00699e-14
1.01716e-14
1.13854e-14
1.3419e-14
1.40489e-14
1.44396e-14
1.29127e-14
9.03423e-15
4.93568e-15
2.17624e-15
8.13902e-16
3.07092e-16
1.98524e-16
2.10824e-16
2.48844e-16
2.67641e-16
1.86638e-16
5.56051e-14
3.4867e-14
2.03966e-14
1.14874e-14
6.31908e-15
3.68776e-15
2.77523e-15
2.8e-15
3.09947e-15
3.58143e-15
3.64415e-15
3.5805e-15
2.99817e-15
1.95526e-15
9.98135e-16
4.11799e-16
1.43832e-16
5.01767e-17
2.97879e-17
2.88499e-17
2.98755e-17
2.62108e-17
1.465e-17
1.60216e-14
9.53609e-15
5.41921e-15
2.98509e-15
1.61294e-15
9.34936e-16
7.03226e-16
7.08846e-16
7.74099e-16
8.75659e-16
8.63946e-16
8.09923e-16
6.355e-16
3.86869e-16
1.84644e-16
7.13071e-17
2.32672e-17
7.48734e-18
4.01942e-18
3.51059e-18
3.17957e-18
2.28868e-18
1.03161e-18
4.23075e-15
2.38214e-15
1.31579e-15
7.09814e-16
3.77484e-16
2.17929e-16
1.64369e-16
1.65546e-16
1.78031e-16
1.96805e-16
1.87941e-16
1.6778e-16
1.23449e-16
7.02429e-17
3.13708e-17
1.13467e-17
3.46019e-18
1.02481e-18
4.90566e-19
3.81912e-19
3.0174e-19
1.79617e-19
6.56587e-20
1.02679e-15
5.46096e-16
2.93404e-16
1.55205e-16
8.13799e-17
4.68998e-17
3.55597e-17
3.5786e-17
3.78516e-17
4.08131e-17
3.76655e-17
3.1967e-17
2.2068e-17
1.1749e-17
4.91327e-18
1.66522e-18
4.7486e-19
1.29276e-19
5.45168e-20
3.73772e-20
2.5705e-20
1.27505e-20
3.79302e-21
2.2989e-16
1.1543e-16
6.03706e-17
3.1353e-17
1.6235e-17
9.35777e-18
7.14645e-18
7.1859e-18
7.469e-18
7.84185e-18
6.98408e-18
5.62934e-18
3.64793e-18
1.81855e-18
7.12253e-19
2.26129e-19
6.02423e-20
1.50533e-20
5.55109e-21
3.3199e-21
1.98213e-21
8.24124e-22
2.00093e-22
4.76846e-17
2.26014e-17
1.15148e-17
5.87836e-18
3.01046e-18
1.73818e-18
1.33909e-18
1.34536e-18
1.37317e-18
1.40202e-18
1.20391e-18
9.21274e-19
5.60865e-19
2.62047e-19
9.61532e-20
2.85785e-20
7.10161e-21
1.6247e-21
5.2028e-22
2.69238e-22
1.39423e-22
4.88055e-23
9.72963e-24
9.20501e-18
4.11854e-18
2.04556e-18
1.02768e-18
5.21175e-19
3.01785e-19
2.34767e-19
2.35619e-19
2.3604e-19
2.34126e-19
1.93696e-19
1.40709e-19
8.05528e-20
3.53054e-20
1.2142e-20
3.37759e-21
7.82123e-22
1.63629e-22
4.534e-23
2.01266e-23
8.99577e-24
2.65511e-24
4.39015e-25
1.66127e-18
7.01763e-19
3.39937e-19
1.68251e-19
8.45873e-20
4.91679e-20
3.8652e-20
3.87449e-20
3.80882e-20
3.66736e-20
2.92207e-20
2.01623e-20
1.08653e-20
4.4699e-21
1.4408e-21
3.74575e-22
8.06038e-23
1.53959e-23
3.69562e-24
1.40453e-24
5.41646e-25
1.34618e-25
1.84002e-26
2.81434e-19
1.12373e-19
5.31317e-20
2.59323e-20
1.29357e-20
7.55262e-21
6.00059e-21
6.00279e-21
5.78667e-21
5.40393e-21
4.1447e-21
2.71787e-21
1.38001e-21
5.33187e-22
1.61112e-22
3.91157e-23
7.80585e-24
1.35822e-24
2.82557e-25
9.2018e-26
3.07303e-26
6.46366e-27
7.39822e-28
4.49639e-20
1.69907e-20
7.84304e-21
3.77508e-21
1.86844e-21
1.09665e-21
8.81799e-22
8.80632e-22
8.31742e-22
7.52327e-22
5.54151e-22
3.44739e-22
1.64425e-22
5.94104e-23
1.6733e-23
3.76934e-24
6.92681e-25
1.09309e-25
1.99263e-26
5.64977e-27
1.64227e-27
2.92434e-28
3.1107e-29
6.80905e-21
2.44341e-21
1.10311e-21
5.23901e-22
2.57342e-22
1.51939e-22
1.2372e-22
1.23273e-22
1.13933e-22
9.96428e-23
7.032e-23
4.14185e-23
1.85046e-23
6.22731e-24
1.6256e-24
3.37271e-25
5.65582e-26
8.02331e-27
1.28598e-27
3.22508e-28
8.22319e-29
1.2416e-29
2.19949e-30
9.84766e-22
3.36639e-22
1.4865e-22
6.95605e-23
3.38865e-23
2.01488e-23
1.66507e-23
1.65512e-23
1.49331e-23
1.25929e-23
8.4679e-24
4.69458e-24
1.94456e-24
6.00701e-25
1.42682e-25
2.66473e-26
3.96462e-27
4.91667e-28
7.03162e-29
1.64236e-29
3.6806e-30
4.76154e-31
7.84339e-31
0.189928
0.150622
0.151522
0.15838
0.079133
0.0796948
0.0801597
0.0833924
0.0816803
0.0939593
0.102521
0.108025
0.0920931
0.103358
0.115774
0.125453
0.0918345
0.109657
0.121422
0.132741
0.0529472
0.0888789
0.116646
0.135438
0.000293283
0.00460341
0.0277497
0.0706187
2.09574e-08
5.22322e-08
2.46899e-07
6.19066e-09
8.70656e-09
7.22253e-09
7.56844e-09
9.43223e-09
8.27931e-09
7.63422e-09
7.63065e-09
7.59023e-09
8.44034e-09
9.27658e-09
2.61852e-08
5.10432e-08
1.70363e-08
1.51524e-08
4.43097e-08
8.488e-08
2.77644e-08
4.61268e-08
6.20136e-08
8.70147e-08
1.05533e-07
2.20842e-07
1.35722e-07
6.43765e-08
4.70047e-07
4.6984e-07
3.62297e-07
7.56067e-08
3.59213e-07
4.6961e-07
4.46824e-07
1.81069e-07
3.27973e-08
2.37176e-08
1.62511e-08
1.54084e-08
1.09268e-09
1.09477e-09
1.27466e-09
1.63648e-09
8.35145e-10
1.09279e-09
1.49095e-09
2.07251e-09
7.90563e-10
1.00927e-09
1.3684e-09
1.94247e-09
5.3563e-10
7.1542e-10
9.96436e-10
1.37058e-09
2.5468e-10
3.59033e-10
4.79572e-10
7.02675e-10
1.05604e-10
1.41807e-10
2.00849e-10
3.00164e-10
3.12954e-11
4.58163e-11
5.92062e-11
6.68992e-11
7.71043e-12
9.33558e-12
1.03848e-11
1.05057e-11
1.3388e-12
1.45068e-12
1.43525e-12
1.29374e-12
1.80955e-13
1.75625e-13
1.54783e-13
1.24237e-13
1.96962e-14
1.70607e-14
1.33855e-14
9.57313e-15
1.794e-15
1.38146e-15
9.63834e-16
6.15166e-16
1.40786e-16
9.60114e-17
5.95422e-17
3.39814e-17
9.723e-18
5.85205e-18
3.21973e-18
1.64105e-18
5.98591e-19
3.16105e-19
1.53365e-19
6.93248e-20
3.30531e-20
1.51758e-20
6.42818e-21
2.54898e-21
1.64007e-21
6.46882e-22
2.3621e-22
8.14536e-23
7.33428e-23
2.44914e-23
7.64291e-24
2.59254e-24
2.96824e-24
8.28527e-25
2.49915e-25
3.47555e-25
1.08636e-25
2.72744e-26
2.91172e-26
2.14482e-25
3.74613e-27
2.13554e-27
1.43384e-26
1.37874e-25
1.82983e-28
7.55792e-28
7.68168e-27
8.04932e-26
3.44114e-29
3.42994e-28
3.83121e-27
4.37533e-26
1.29877e-29
1.52812e-28
1.90736e-27
2.55853e-26
1.8011e-29
2.68576e-28
4.01693e-27
5.79844e-26
0.0796755
0.0369399
0.0350379
0.00894575
0.00950323
0.0726224
0.399125
0.710772
0.761079
0.763093
0.757439
0.552513
0.265986
0.158538
0.120186
0.206706
0.367467
0.453609
0.469039
0.0831856
0.078843
0.0513581
0.031701
0.0268909
0.134207
0.452628
0.689582
0.744025
0.750178
0.757612
0.685594
0.441213
0.209725
0.120128
0.1305
0.271535
0.420283
0.470187
0.110446
0.103759
0.0789742
0.062655
0.0842554
0.239176
0.491531
0.640534
0.686114
0.71074
0.729703
0.704911
0.556814
0.314593
0.136198
0.131613
0.202238
0.377802
0.427659
0.135218
0.142075
0.139946
0.135968
0.191207
0.329128
0.429765
0.457622
0.459605
0.480688
0.558389
0.63303
0.544497
0.330221
0.181688
0.187443
0.248526
0.305281
0.287986
0.153814
0.177147
0.190936
0.210164
0.250695
0.286355
0.298307
0.298126
0.297185
0.309577
0.369739
0.44738
0.454608
0.29281
0.22925
0.253033
0.252677
0.225379
0.214056
0.164735
0.191178
0.210559
0.223269
0.23587
0.249435
0.255893
0.259328
0.264432
0.271702
0.286454
0.312922
0.326304
0.292931
0.266088
0.241772
0.189639
0.0732194
0.0604726
0.125825
0.173085
0.210055
0.22197
0.23763
0.260757
0.276589
0.281286
0.282713
0.285403
0.288977
0.291212
0.291122
0.266233
0.216778
0.0720708
0.0100165
0.000765284
0.000669554
0.0214878
0.096375
0.161168
0.196627
0.212341
0.237982
0.244826
0.242131
0.232437
0.213969
0.19232
0.176538
0.152588
0.0895084
0.0143891
4.37527e-05
5.38477e-07
6.70755e-08
6.58566e-08
0.000181404
0.00566918
0.0393125
0.0827627
0.101685
0.106487
0.108835
0.100709
0.0697664
0.0392554
0.0179999
0.00711258
0.00135047
2.94499e-05
8.49446e-07
1.1938e-08
4.94278e-09
2.46203e-09
9.38216e-10
6.50293e-07
5.58616e-05
0.00128024
0.00744193
0.0129493
0.0124454
0.00783753
0.00358842
0.000699905
1.77963e-05
6.23832e-07
1.04109e-07
2.29743e-08
1.58737e-08
3.00938e-08
1.39121e-08
8.28924e-09
2.67971e-09
8.38854e-10
6.3579e-08
1.63093e-07
4.27061e-06
2.72095e-05
4.94049e-05
3.83115e-05
3.83573e-06
2.63365e-07
4.26423e-08
7.06915e-09
6.3324e-09
9.27282e-09
1.14428e-08
1.18988e-08
2.24144e-08
2.72371e-08
2.44725e-08
8.66612e-09
1.3516e-09
9.16137e-08
7.01094e-08
3.24383e-08
2.26778e-08
7.13816e-08
1.01689e-07
1.40194e-07
1.02007e-07
3.15653e-08
6.32953e-09
6.33278e-09
6.80662e-09
9.83306e-09
1.32708e-08
2.38367e-08
2.70145e-08
2.69478e-08
1.19366e-08
1.43886e-09
1.29075e-07
1.40063e-07
8.35575e-08
1.4468e-08
7.05328e-09
1.3371e-08
7.19093e-08
1.45497e-07
8.96155e-08
1.08222e-08
6.35411e-09
7.96828e-09
1.60366e-08
2.21225e-08
1.8237e-08
2.1928e-08
2.12581e-08
1.21945e-08
1.42929e-09
7.06497e-08
1.36711e-07
1.38578e-07
5.82925e-08
7.08886e-09
2.66892e-09
2.67725e-09
3.33476e-08
1.25804e-07
1.09593e-07
5.54634e-08
4.13417e-08
6.25891e-08
5.26731e-08
1.8676e-08
1.761e-08
1.70739e-08
7.72659e-09
1.17634e-09
2.72292e-08
2.87781e-08
6.80341e-08
5.06339e-08
1.09644e-08
2.77522e-09
1.93696e-09
6.46221e-09
3.27816e-08
4.86819e-08
3.37609e-08
8.26898e-08
8.43227e-08
7.27439e-08
2.0261e-08
1.46023e-08
1.27611e-08
3.54071e-09
8.17911e-10
2.96632e-08
3.89669e-09
6.94408e-09
7.8029e-09
7.53546e-09
4.29596e-09
1.94662e-09
3.47353e-09
2.29317e-08
2.29975e-08
1.89525e-08
3.27553e-08
5.01422e-08
3.04023e-08
1.26001e-08
1.20896e-08
7.16541e-09
1.78491e-09
7.31214e-10
5.97142e-09
3.18495e-09
3.89272e-09
4.70008e-09
5.04968e-09
3.64334e-09
1.79359e-09
2.12857e-09
1.29238e-08
1.70945e-08
1.46924e-08
1.35359e-08
1.08449e-08
1.06858e-08
1.12147e-08
7.77502e-09
3.65796e-09
1.15788e-09
6.89632e-10
2.50176e-09
3.18362e-09
4.04993e-09
4.96273e-09
4.33987e-09
2.58014e-09
1.46897e-09
8.54336e-10
1.61668e-09
5.58361e-09
8.92155e-09
9.9799e-09
9.89099e-09
9.86482e-09
8.9676e-09
4.32089e-09
1.04926e-09
1.00508e-09
6.89358e-10
3.61944e-09
5.05872e-09
5.29205e-09
5.00897e-09
3.27028e-09
1.63079e-09
8.63652e-10
4.25694e-10
3.53284e-10
1.11178e-09
2.25208e-09
2.93351e-09
3.56495e-09
3.31128e-09
1.73265e-09
7.01582e-10
7.28828e-10
1.00631e-09
6.57325e-10
3.69415e-09
4.62977e-09
3.97539e-09
2.6587e-09
1.63874e-09
8.9755e-10
4.29138e-10
1.84036e-10
9.37812e-11
9.13054e-11
1.38803e-10
1.80306e-10
2.19393e-10
2.47472e-10
3.13335e-10
4.54963e-10
7.46037e-10
1.0532e-09
6.30209e-10
2.18758e-09
2.19115e-09
1.72124e-09
1.10902e-09
6.07148e-10
2.84695e-10
1.18538e-10
4.47711e-11
1.67467e-11
9.95159e-12
1.16431e-11
2.83977e-11
7.53581e-11
1.78341e-10
3.49998e-10
6.59192e-10
1.00437e-09
1.14098e-09
5.81523e-10
9.99789e-10
8.51584e-10
5.71876e-10
3.15667e-10
1.48901e-10
6.0126e-11
2.17751e-11
7.35292e-12
2.73155e-12
2.59404e-12
8.19658e-12
3.16618e-11
1.04155e-10
2.71104e-10
5.26298e-10
9.81592e-10
1.22758e-09
1.24028e-09
4.95689e-10
3.06442e-10
2.22499e-10
1.24909e-10
5.76933e-11
2.29152e-11
7.99639e-12
2.5785e-12
8.62046e-13
5.99041e-13
1.95759e-12
1.00109e-11
4.3772e-11
1.38549e-10
4.20036e-10
7.85392e-10
1.27179e-09
1.43008e-09
1.2727e-09
3.32943e-10
5.62221e-11
3.52051e-11
1.76456e-11
7.40748e-12
2.70586e-12
8.74231e-13
2.71371e-13
1.26946e-13
3.12143e-13
1.93597e-12
1.20676e-11
5.6438e-11
1.64209e-10
5.89894e-10
1.18873e-09
1.62625e-09
1.62616e-09
1.11472e-09
2.06868e-10
7.43715e-12
4.03308e-12
1.7812e-12
6.65787e-13
2.20174e-13
6.68423e-14
2.40672e-14
3.56124e-14
2.32353e-13
1.8644e-12
1.30139e-11
6.5026e-11
1.82017e-10
7.12438e-10
1.7392e-09
2.08086e-09
1.73318e-09
9.24463e-10
1.93527e-10
7.62566e-13
3.55064e-13
1.37792e-13
4.61996e-14
1.40005e-14
4.38989e-15
3.22136e-15
1.70322e-14
1.7104e-13
1.60677e-12
1.21317e-11
6.5709e-11
2.07671e-10
8.19267e-10
1.94156e-09
2.1503e-09
1.73618e-09
9.45674e-10
2.00844e-10
6.14333e-14
2.47472e-14
8.50653e-15
2.60077e-15
7.63242e-16
3.25051e-16
7.51038e-16
8.5159e-15
1.10992e-13
1.16016e-12
9.46484e-12
5.61395e-11
2.0865e-10
7.28937e-10
1.89612e-09
2.1484e-09
1.67712e-09
1.09281e-09
2.1057e-10
4.01838e-15
1.41616e-15
4.37347e-16
1.25262e-16
4.07797e-17
3.61776e-17
2.08205e-16
3.53518e-15
5.72102e-14
6.64501e-13
5.92931e-12
2.58495e-11
1.19622e-10
5.16591e-10
1.37037e-09
2.03769e-09
1.78427e-09
1.13339e-09
1.61582e-10
2.22034e-16
6.92288e-17
1.95149e-17
5.54826e-18
2.74191e-18
6.50073e-18
5.73612e-17
1.04032e-15
2.0119e-14
2.79599e-13
2.73139e-12
1.25045e-11
4.82436e-11
3.73206e-10
1.04496e-09
1.52108e-09
1.61727e-09
7.6055e-10
1.2114e-10
1.06484e-17
2.95783e-18
7.77462e-19
2.74343e-19
4.62455e-19
2.94377e-18
2.70249e-17
3.08016e-16
4.71339e-15
8.53124e-14
9.30637e-13
4.92155e-12
1.56871e-11
1.92252e-10
6.39732e-10
1.06258e-09
1.05705e-09
3.98218e-10
6.94442e-11
4.47158e-19
1.11173e-19
3.21163e-20
4.98502e-20
3.71583e-19
3.43447e-18
3.15894e-17
2.73801e-16
2.37982e-15
2.71352e-14
3.06299e-13
1.69726e-12
6.60792e-12
4.35984e-11
2.93357e-10
5.92084e-10
4.20045e-10
1.33145e-10
2.24568e-11
1.63581e-20
4.06672e-21
5.50635e-21
4.69608e-20
4.79962e-19
4.84536e-18
4.52913e-17
3.69713e-16
2.54514e-15
1.57917e-14
1.07316e-13
5.73197e-13
2.43435e-12
1.03994e-11
6.41114e-11
1.3593e-10
1.13813e-10
2.51541e-11
5.52887e-12
5.49503e-22
5.28341e-22
4.83786e-21
5.46851e-20
6.10111e-19
6.39853e-18
5.98019e-17
4.74184e-16
3.05889e-15
1.57553e-14
6.44779e-14
2.68229e-13
8.84474e-13
2.96507e-12
1.11335e-11
1.87553e-11
1.55706e-11
4.15944e-12
1.38385e-12
4.26233e-23
3.81503e-22
4.79266e-21
5.92656e-20
6.93637e-19
7.35083e-18
6.7532e-17
5.18654e-16
3.21296e-15
1.58784e-14
5.87301e-14
2.3598e-13
6.76096e-13
1.49099e-12
2.99712e-12
3.99445e-12
2.10663e-12
6.68008e-13
3.89811e-13
2.18312e-23
3.1072e-22
4.27434e-21
5.56492e-20
6.62593e-19
6.9465e-18
6.20568e-17
4.61778e-16
2.76869e-15
1.35277e-14
5.10344e-14
2.23882e-13
5.17622e-13
8.14054e-13
1.10944e-12
9.97725e-13
4.84583e-13
2.444e-13
2.06126e-13
1.44283e-23
2.22077e-22
3.2106e-21
4.26269e-20
5.04374e-19
5.16979e-18
4.48097e-17
3.24423e-16
1.89973e-15
9.21713e-15
3.44978e-14
1.47572e-13
3.17476e-13
4.10616e-13
4.81902e-13
3.7645e-13
1.92395e-13
1.11232e-13
1.25706e-13
8.43497e-24
1.35212e-22
2.00318e-21
2.66144e-20
3.10115e-19
3.10373e-18
2.61879e-17
1.84585e-16
1.05293e-15
4.94334e-15
1.75087e-14
6.47903e-14
1.51132e-13
1.7e-13
1.9368e-13
1.44145e-13
8.76232e-14
4.97416e-14
7.67644e-14
4.29468e-24
7.09848e-23
1.07444e-21
1.442e-20
1.68977e-19
1.69374e-18
1.41083e-17
9.57208e-17
5.13495e-16
2.18974e-15
7.28735e-15
2.03206e-14
5.0574e-14
5.42214e-14
5.8007e-14
4.66858e-14
3.2864e-14
2.03157e-14
4.39945e-14
1.96624e-24
3.41736e-23
5.49103e-22
7.88887e-21
9.90043e-20
1.03461e-18
8.48805e-18
5.33086e-17
2.56264e-16
9.28712e-16
2.70652e-15
5.46175e-15
1.21883e-14
1.32811e-14
1.37475e-14
1.17649e-14
9.58341e-15
7.38711e-15
2.31846e-14
8.68457e-25
1.73183e-23
3.2683e-22
5.36913e-21
7.2338e-20
7.46907e-19
5.61946e-18
3.08111e-17
1.28307e-16
3.81787e-16
9.48606e-16
1.51916e-15
2.72049e-15
2.88885e-15
2.97296e-15
2.65144e-15
2.51796e-15
2.38159e-15
1.08808e-14
4.7388e-25
1.27534e-23
2.76275e-22
4.45469e-21
5.35646e-20
4.73289e-19
3.02254e-18
1.39427e-17
5.00151e-17
1.24634e-16
2.76171e-16
3.84796e-16
5.9331e-16
6.10221e-16
6.16125e-16
5.58671e-16
5.92206e-16
6.19927e-16
3.9303e-15
7.3357e-25
1.48921e-23
2.26767e-22
2.58643e-21
2.24573e-20
1.50523e-19
7.90368e-19
3.10275e-18
9.88875e-18
2.14991e-17
4.36719e-17
5.52767e-17
7.78046e-17
7.68204e-17
7.47745e-17
6.76077e-17
7.89001e-17
8.9955e-17
7.48638e-16
)
;

boundaryField
{
    leftWall
    {
        type            zeroGradient;
    }
    rightWall
    {
        type            zeroGradient;
    }
    lowerWall
    {
        type            zeroGradient;
    }
    atmosphere
    {
        type            inletOutlet;
        inletValue      uniform 0;
        value           nonuniform List<scalar> 
46
(
9.84766e-22
3.36639e-22
1.4865e-22
6.95605e-23
3.38865e-23
2.01488e-23
1.66507e-23
1.65512e-23
1.49331e-23
1.25929e-23
8.4679e-24
4.69458e-24
1.94456e-24
6.00701e-25
1.42682e-25
2.66473e-26
3.96462e-27
4.91667e-28
7.03162e-29
1.64236e-29
3.6806e-30
4.76154e-31
7.84339e-31
1.8011e-29
0
0
0
0
0
0
0
0
0
0
0
0
0
0
0
0
0
0
0
0
0
0
)
;
    }
    defaultFaces
    {
        type            empty;
    }
}


// ************************************************************************* //
