/*--------------------------------*- C++ -*----------------------------------*\
| =========                 |                                                 |
| \\      /  F ield         | OpenFOAM: The Open Source CFD Toolbox           |
|  \\    /   O peration     | Version:  2.4.0                                 |
|   \\  /    A nd           | Web:      www.OpenFOAM.org                      |
|    \\/     M anipulation  |                                                 |
\*---------------------------------------------------------------------------*/
FoamFile
{
    version     2.0;
    format      ascii;
    class       volScalarField;
    location    "0.95";
    object      alpha.oil;
}
// * * * * * * * * * * * * * * * * * * * * * * * * * * * * * * * * * * * * * //

dimensions      [0 0 0 0 0 0 0];

internalField   nonuniform List<scalar> 
2268
(
6.74099e-15
6.12501e-14
2.96168e-13
1.00285e-12
2.72496e-12
6.44644e-12
1.39092e-11
2.83743e-11
5.61594e-11
1.08144e-10
2.00159e-10
3.58902e-10
6.42864e-10
1.37052e-09
2.6979e-09
4.73042e-09
7.48096e-09
1.22674e-08
7.26249e-08
5.87402e-07
2.69154e-06
5.78528e-06
7.48876e-06
7.60614e-15
5.36436e-14
2.3676e-13
7.75175e-13
2.07911e-12
4.97491e-12
1.08056e-11
2.02697e-11
3.89326e-11
7.87879e-11
1.75976e-10
3.79607e-10
9.035e-10
2.4491e-09
4.66148e-09
7.37096e-09
1.01525e-08
1.86906e-08
5.34159e-08
2.86077e-07
1.79438e-06
6.36275e-06
1.0738e-05
2.3888e-14
1.04291e-13
3.42098e-13
1.06058e-12
3.3129e-12
1.06478e-11
7.65417e-11
4.65991e-10
7.2793e-10
9.42156e-10
3.69332e-09
1.11664e-08
1.75883e-08
1.80145e-08
1.53748e-08
1.50719e-08
2.37868e-08
5.99067e-08
2.00277e-07
5.4749e-07
1.33463e-06
4.60595e-06
1.17908e-05
1.17113e-13
4.74617e-13
1.45702e-12
4.23884e-12
1.4868e-11
1.43917e-09
2.72837e-08
1.07251e-07
1.71204e-07
1.63456e-07
1.76649e-07
3.01044e-07
3.89482e-07
3.96201e-07
3.13963e-07
2.46294e-07
2.23356e-07
2.73529e-07
7.69576e-07
1.80817e-06
3.4275e-06
6.26746e-06
1.18453e-05
4.98777e-13
2.00671e-12
6.09747e-12
4.21946e-11
6.45399e-09
1.27413e-07
7.02154e-07
2.00893e-06
4.24385e-06
7.96815e-06
1.15363e-05
9.44227e-06
7.31722e-06
6.95365e-06
6.4636e-06
4.38785e-06
2.44987e-06
2.20054e-06
3.51774e-06
6.45684e-06
7.22554e-06
6.96701e-06
7.77765e-06
2.12233e-12
5.35571e-12
1.5426e-10
1.27322e-08
2.60435e-07
1.27951e-06
3.23095e-06
6.619e-06
1.55269e-05
5.09362e-05
0.0001493
0.000262024
0.000296255
0.000300948
0.000315841
0.000312201
0.000247733
0.000237057
0.000298996
0.000383389
0.000353146
0.000215286
0.000194673
5.63243e-12
4.17429e-11
6.66166e-09
1.73928e-07
1.08121e-06
2.85214e-06
4.88932e-06
7.20322e-06
1.14917e-05
3.27956e-05
0.000147911
0.000485347
0.000850861
0.00101605
0.00122933
0.00164172
0.00220799
0.00265719
0.00280165
0.00287954
0.00403986
0.00772333
0.0111485
3.71116e-12
3.92727e-12
1.74564e-08
2.67291e-07
7.14017e-07
1.03585e-06
1.26146e-06
1.29898e-06
1.31007e-06
8.24897e-06
8.96282e-05
0.000455294
0.000675009
0.00069961
0.000706423
0.00119509
0.00284649
0.00421997
0.00431123
0.00432802
0.00928251
0.039092
0.114805
0.0651229
0.0819614
0.0634113
0.058516
0.0570639
0.0561105
0.05564
0.0548133
0.0539321
0.0516256
0.0454488
0.045368
0.0453302
0.0452483
0.0451383
0.0450859
0.0451671
0.0451935
0.0450587
0.396295
0.473933
0.389001
0.314888
0.288704
0.267438
0.246478
0.256132
0.277526
0.277299
0.258105
0.15811
0.0779478
0.0587533
0.0556168
0.0426437
0.0447976
0.0450148
0.0448988
0.52473
0.841309
0.863588
0.81356
0.61471
0.315185
0.230654
0.230557
0.216119
0.208751
0.188613
0.105698
0.0817841
0.0738211
0.0499818
0.0425963
0.0446372
0.0449298
0.0447966
0.530915
0.803741
0.964812
0.981812
0.970659
0.817041
0.518879
0.354699
0.273521
0.251315
0.311953
0.387436
0.445293
0.314724
0.11017
0.0541997
0.0447126
0.0481397
0.0447081
0.703296
0.878406
0.988747
0.988749
0.988748
0.963685
0.449053
0.236543
0.236425
0.237302
0.427332
0.785058
0.891787
0.804831
0.339346
0.0538899
0.045447
0.0524259
0.0554037
0.908102
0.924629
0.988594
0.988747
0.988746
0.983249
0.612008
0.304365
0.243963
0.22251
0.392103
0.748564
0.89174
0.891981
0.713197
0.154216
0.0507369
0.0628954
0.113037
0.920533
0.942403
0.988698
0.988745
0.988745
0.965697
0.609979
0.263324
0.230972
0.221978
0.324935
0.703803
0.874542
0.891783
0.861028
0.594947
0.267284
0.245356
0.395181
0.918135
0.955695
0.966128
0.988741
0.9887
0.959655
0.64134
0.283759
0.230031
0.222059
0.261392
0.6212
0.853552
0.873222
0.873763
0.78612
0.641367
0.561374
0.550819
8.14379e-10
3.7932e-09
2.87054e-08
1.06042e-07
1.59832e-07
5.40825e-07
1.19918e-06
3.29348e-06
1.33864e-05
0.000105321
0.000552657
0.00111635
0.00200108
0.00287586
0.00336173
0.00463643
0.00928392
0.0129629
0.0141332
0.0201666
0.0232375
0.0809659
0.511413
4.48148e-06
4.41187e-06
5.92871e-06
1.05947e-05
1.39018e-05
1.80719e-05
3.33412e-05
9.9054e-05
0.000309111
0.000823508
0.00568226
0.0184317
0.0281762
0.0225775
0.0189144
0.0164892
0.0179557
0.025927
0.0471872
0.190553
0.253716
0.349674
0.79748
0.000692684
0.000582565
0.000412436
0.000390927
0.00042232
0.000455675
0.000548887
0.000660626
0.00212823
0.0321221
0.12631
0.22971
0.288235
0.238176
0.166003
0.100843
0.0623449
0.0737976
0.221174
0.58748
0.635721
0.76707
0.909103
0.0994796
0.0574465
0.0226127
0.0104967
0.00628157
0.00315621
0.00288121
0.0134807
0.0796227
0.345951
0.573907
0.653643
0.698896
0.649742
0.453654
0.294263
0.385465
0.580024
0.768744
0.877143
0.90444
0.930869
0.934264
0.680039
0.413412
0.152831
0.0551536
0.0214919
0.0149508
0.0584929
0.25209
0.53775
0.82184
0.801435
0.72369
0.722785
0.761045
0.761873
0.785326
0.847373
0.910404
0.94134
0.948262
0.94829
0.948304
0.944768
0.848172
0.731071
0.314666
0.145747
0.109443
0.188295
0.566026
0.858495
0.901127
0.887109
0.869197
0.859275
0.739638
0.47222
0.466143
0.768064
0.932279
0.948398
0.948399
0.948398
0.852106
0.633396
0.614974
0.8482
0.842465
0.581972
0.451772
0.463737
0.668087
0.878785
0.923911
0.923902
0.923887
0.923879
0.819241
0.277595
0.0295522
0.0294339
0.108177
0.311226
0.575603
0.679621
0.552777
0.189849
0.0294052
0.0117718
0.848221
0.848193
0.792564
0.723541
0.811982
0.903584
0.923931
0.923922
0.923908
0.923899
0.923887
0.638642
0.0537155
0.000196481
0.000140682
0.000766381
0.00464235
0.033261
0.0648337
0.0497797
0.00700141
0.000167243
9.78525e-06
0.848228
0.820635
0.883791
0.895981
0.918754
0.923948
0.923961
0.834866
0.820761
0.83716
0.549048
0.0917399
0.00244685
1.44959e-06
8.28218e-07
8.38977e-07
5.05466e-06
0.000129607
0.000467835
0.000453865
5.0667e-05
1.63079e-06
9.66477e-07
0.240645
0.300952
0.729203
0.886609
0.893728
0.662489
0.216812
0.0399355
0.0198512
0.0309969
0.0152094
0.00151197
5.81949e-05
1.11346e-06
9.34945e-07
7.24565e-07
5.67085e-07
6.24588e-07
9.41489e-07
1.18994e-06
1.14588e-06
1.07222e-06
7.93355e-07
0.0084987
0.0267709
0.166914
0.292101
0.285067
0.0858991
0.00419911
4.00126e-05
9.04606e-06
5.7323e-05
0.000180225
0.000216622
2.85986e-05
1.10114e-06
9.87626e-07
7.47093e-07
5.75515e-07
5.43649e-07
6.9678e-07
9.04984e-07
1.00153e-06
9.80819e-07
1.31076e-06
5.42367e-05
0.000810506
0.00607974
0.0107208
0.00984137
0.00163425
1.59907e-05
3.36433e-07
2.63864e-07
6.57109e-06
0.000115535
0.000355807
0.00035637
0.000263536
1.47994e-06
8.31528e-07
5.86409e-07
5.09735e-07
5.87558e-07
7.9741e-07
9.52963e-07
1.73462e-06
1.94374e-06
9.32029e-08
4.65247e-06
3.10059e-05
4.26076e-05
2.95225e-05
5.74373e-06
3.27946e-07
2.16343e-07
1.01238e-07
1.18548e-07
4.97619e-06
0.000102496
0.000336114
0.000214522
1.02496e-05
1.02321e-06
7.8044e-07
5.42471e-07
4.61554e-07
6.0248e-07
7.76109e-07
8.78995e-07
1.51819e-06
3.46085e-08
1.63656e-08
2.7791e-08
6.4605e-08
8.07179e-08
8.08722e-08
1.00592e-07
9.57979e-08
5.65379e-08
4.02179e-08
7.62728e-08
3.14189e-06
3.60912e-05
5.12731e-05
6.14823e-05
5.24446e-05
3.77221e-06
6.13313e-07
4.20152e-07
4.32229e-07
5.18016e-07
5.85356e-07
5.60665e-07
2.04755e-08
1.63662e-08
1.63678e-08
1.79043e-08
2.65437e-08
2.54546e-08
2.88791e-08
3.03074e-08
2.38778e-08
1.84622e-08
2.10263e-08
4.0575e-08
3.77487e-07
4.52518e-06
5.351e-05
2.35443e-05
4.38026e-05
4.30834e-05
1.22182e-05
1.2251e-06
4.17868e-07
4.1966e-07
1.33862e-06
1.64889e-08
1.63675e-08
4.20883e-08
3.63535e-08
2.30264e-08
1.17175e-08
1.25421e-08
1.49538e-08
1.23587e-08
1.22965e-08
1.45624e-08
1.4861e-08
3.78682e-08
2.05282e-07
4.97591e-06
2.59519e-06
4.03183e-05
7.46376e-05
7.43313e-05
3.69961e-05
5.92134e-06
4.99503e-06
2.08468e-05
1.64874e-08
3.6313e-08
1.31521e-07
7.66601e-08
3.04948e-08
1.01785e-08
6.27725e-09
9.47902e-09
1.18988e-08
1.29737e-08
1.69106e-08
2.58332e-08
2.92845e-08
4.87042e-08
1.12103e-07
3.87097e-07
7.85883e-06
3.8497e-05
3.64751e-05
1.99492e-05
8.7735e-06
2.36582e-05
2.45741e-05
5.63646e-08
1.8474e-07
1.71571e-07
8.22136e-08
2.87819e-08
1.05203e-08
3.97543e-09
7.84427e-09
1.19495e-08
1.30743e-08
1.54762e-08
4.03374e-08
4.50794e-08
3.65187e-08
4.97469e-08
1.20957e-07
3.81172e-07
2.61648e-06
2.37419e-06
1.68463e-06
2.49859e-06
3.33249e-06
2.50677e-06
2.06528e-07
2.11141e-07
1.09038e-07
5.5288e-08
2.29216e-08
6.14619e-09
2.52845e-09
4.54026e-09
7.05459e-09
7.64644e-09
1.10406e-08
3.08532e-08
4.50751e-08
3.71509e-08
2.70652e-08
4.4156e-08
8.05215e-08
1.00334e-07
1.17542e-07
1.09615e-07
1.28221e-07
1.21305e-07
1.04428e-07
2.1364e-07
1.75543e-07
5.66783e-08
3.11275e-08
1.01085e-08
1.40879e-09
9.94436e-10
1.25839e-09
1.72902e-09
2.17404e-09
4.21615e-09
1.09215e-08
1.92432e-08
1.57313e-08
1.3028e-08
1.70371e-08
3.02487e-08
5.16139e-08
1.15132e-07
7.23811e-08
5.85768e-08
5.85067e-08
5.60527e-08
1.24705e-07
6.9768e-08
3.71709e-08
1.18144e-08
2.85541e-09
1.47476e-10
1.92352e-10
1.54742e-10
1.64842e-10
2.90446e-10
6.22175e-10
1.54737e-09
2.04217e-09
2.17983e-09
3.55395e-09
9.88231e-09
3.94181e-08
1.1298e-07
1.15794e-07
1.1579e-07
1.00302e-07
3.9413e-08
3.29179e-08
4.42572e-08
2.94122e-08
1.48993e-08
3.56885e-09
2.3571e-10
1.01268e-11
1.72365e-11
1.87468e-11
2.82741e-11
4.6083e-11
7.4528e-11
1.20684e-10
1.77028e-10
7.67653e-10
2.17475e-09
7.68747e-09
3.71703e-08
1.05592e-07
1.1579e-07
1.0036e-07
3.5537e-08
2.14303e-08
2.41497e-08
1.4959e-08
1.06684e-08
3.41005e-09
3.2061e-10
8.42478e-12
5.77947e-12
8.33929e-12
1.29721e-11
2.30362e-11
3.7894e-11
4.46409e-11
6.37668e-11
1.21302e-10
5.4043e-10
2.14071e-09
8.03753e-09
2.91724e-08
5.5713e-08
5.88491e-08
3.56211e-08
1.707e-08
1.08749e-08
1.08705e-08
5.20539e-09
2.87752e-09
2.4222e-10
7.85107e-12
3.9842e-12
3.18326e-12
4.58984e-12
8.71711e-12
1.73148e-11
3.057e-11
4.0971e-11
4.83816e-11
9.08513e-11
3.98071e-10
2.49559e-09
7.78763e-09
1.71969e-08
1.93804e-08
2.0826e-08
1.97733e-08
1.31479e-08
7.84758e-09
6.44841e-09
4.39231e-10
1.39602e-10
6.33829e-12
3.17467e-12
1.96133e-12
1.62196e-12
2.52356e-12
5.4683e-12
1.18731e-11
2.23945e-11
3.24593e-11
3.82359e-11
5.86803e-11
2.99008e-10
1.60562e-09
5.27829e-09
8.69459e-09
1.14525e-08
1.36875e-08
1.31931e-08
9.89265e-09
7.3772e-09
5.34136e-09
8.37532e-12
3.94245e-12
2.50841e-12
1.3978e-12
8.67433e-13
7.68338e-13
1.32653e-12
3.18752e-12
7.40872e-12
1.46793e-11
2.22096e-11
2.71638e-11
2.80061e-11
1.28978e-10
7.31016e-10
1.94781e-09
3.1452e-09
6.5592e-09
1.04908e-08
8.93802e-09
6.74676e-09
4.6989e-09
3.10011e-09
2.95951e-12
1.81228e-12
1.00992e-12
5.44771e-13
3.45416e-13
3.40564e-13
6.57321e-13
1.71484e-12
4.18477e-12
8.57815e-12
1.3281e-11
1.64785e-11
1.70624e-11
2.51683e-11
1.56522e-10
4.34288e-10
9.21928e-10
2.33952e-09
4.90419e-09
4.54352e-09
3.45101e-09
2.32468e-09
1.44975e-09
1.17389e-12
6.81815e-13
3.55751e-13
1.87781e-13
1.25938e-13
1.41548e-13
3.04358e-13
8.46347e-13
2.13458e-12
4.47369e-12
7.00966e-12
8.75977e-12
9.33286e-12
1.19345e-11
2.01656e-11
7.30443e-11
1.62737e-10
4.2397e-10
8.54909e-10
1.43577e-09
1.22365e-09
8.4118e-10
5.11038e-10
4.17173e-13
2.23409e-13
1.11079e-13
5.82273e-14
4.25495e-14
5.50994e-14
1.3067e-13
3.8142e-13
9.82643e-13
2.08549e-12
3.28464e-12
4.13156e-12
4.5502e-12
5.90015e-12
1.18467e-11
1.55202e-11
2.01041e-11
3.40023e-11
4.8346e-11
1.04776e-10
1.84646e-10
1.64152e-10
1.0522e-10
1.31499e-13
6.5565e-14
3.11066e-14
1.64256e-14
1.34258e-14
2.00285e-14
5.17536e-14
1.56683e-13
4.08776e-13
8.71506e-13
1.37353e-12
1.74108e-12
1.98661e-12
2.82e-12
6.3366e-12
9.11037e-12
1.10632e-11
1.40774e-11
1.71677e-11
1.45495e-11
1.5255e-11
1.47e-11
1.23874e-11
3.71323e-14
1.73284e-14
7.86382e-15
4.25681e-15
3.97531e-15
6.77557e-15
1.8849e-14
5.86359e-14
1.53943e-13
3.27687e-13
5.15e-13
6.58959e-13
7.8192e-13
1.24374e-12
2.97542e-12
4.54493e-12
5.46688e-12
5.99578e-12
6.29407e-12
6.06347e-12
5.58004e-12
4.5651e-12
3.05852e-12
9.45219e-15
4.14126e-15
1.80543e-15
1.02315e-15
1.10659e-15
2.12759e-15
6.30437e-15
2.00074e-14
5.26171e-14
1.11342e-13
1.74082e-13
2.25257e-13
2.7909e-13
4.97903e-13
1.22827e-12
1.92738e-12
2.28076e-12
2.31407e-12
2.19052e-12
2.00461e-12
1.65386e-12
1.15329e-12
6.36903e-13
2.18277e-15
8.9983e-16
3.78825e-16
2.30089e-16
2.89559e-16
6.19314e-16
1.93693e-15
6.23583e-15
1.63753e-14
3.43528e-14
5.33759e-14
6.99921e-14
9.08064e-14
1.79821e-13
4.49134e-13
7.06004e-13
8.10744e-13
7.77074e-13
6.80408e-13
5.64707e-13
4.12357e-13
2.45795e-13
1.13906e-13
4.60583e-16
1.7883e-16
7.31331e-17
4.87795e-17
7.11544e-17
1.67105e-16
5.47411e-16
1.78019e-15
4.65844e-15
9.67337e-15
1.49385e-14
1.98988e-14
2.7057e-14
5.846e-14
1.4627e-13
2.26515e-13
2.49839e-13
2.26684e-13
1.84758e-13
1.38133e-13
8.86503e-14
4.52755e-14
1.76472e-14
8.94507e-17
3.26969e-17
1.30778e-17
9.80534e-18
1.64088e-17
4.18459e-17
1.42651e-16
4.6709e-16
1.21656e-15
2.49956e-15
3.84121e-15
5.21196e-15
7.41801e-15
1.7125e-14
4.25883e-14
6.42299e-14
6.75458e-14
5.78571e-14
4.38649e-14
2.95552e-14
1.6628e-14
7.28042e-15
2.3812e-15
1.60973e-17
5.53084e-18
2.18104e-18
1.87607e-18
3.55144e-18
9.74521e-18
3.43825e-17
1.13091e-16
2.92974e-16
5.95964e-16
9.13586e-16
1.26615e-15
1.87958e-15
4.53352e-15
1.11255e-14
1.62119e-14
1.61858e-14
1.30428e-14
9.16227e-15
5.56026e-15
2.74063e-15
1.02833e-15
2.81717e-16
2.70039e-18
8.70237e-19
3.41683e-19
3.42429e-19
7.22031e-19
2.11609e-18
7.69038e-18
2.53676e-17
6.53626e-17
1.31832e-16
2.02255e-16
2.86978e-16
4.42234e-16
1.09222e-15
2.62744e-15
3.67822e-15
3.47704e-15
2.62894e-15
1.70575e-15
9.29877e-16
4.00163e-16
1.28246e-16
2.94026e-17
4.24489e-19
1.28046e-19
5.06289e-20
5.96992e-20
1.38196e-19
4.30023e-19
1.60337e-18
5.29798e-18
1.35842e-17
2.7218e-17
4.19504e-17
6.1046e-17
9.70324e-17
2.40855e-16
5.64046e-16
7.55534e-16
6.75194e-16
4.78727e-16
2.86544e-16
1.40213e-16
5.26529e-17
1.43562e-17
2.7339e-18
6.27859e-20
1.77138e-20
7.15176e-21
9.95583e-21
2.49765e-20
8.20967e-20
3.12893e-19
1.03458e-18
2.64137e-18
5.26998e-18
8.19355e-18
1.22424e-17
1.99467e-17
4.90446e-17
1.11149e-16
1.42043e-16
1.19852e-16
7.95764e-17
4.38283e-17
1.92262e-17
6.30058e-18
1.46136e-18
2.30193e-19
8.77658e-21
2.31551e-21
9.69295e-22
1.59108e-21
4.28383e-21
1.48261e-20
5.76416e-20
1.90733e-19
4.8536e-19
9.66316e-19
1.52019e-18
2.33151e-18
3.86856e-18
9.32745e-18
2.03238e-17
2.46471e-17
1.95513e-17
1.21235e-17
6.12678e-18
2.39832e-18
6.81345e-19
1.33334e-19
1.71793e-20
1.16482e-21
2.88071e-22
1.27448e-22
2.45238e-22
7.0264e-22
2.55123e-21
1.00931e-20
3.34099e-20
8.48015e-20
1.68776e-19
2.69249e-19
4.22792e-19
7.08511e-19
1.65674e-18
3.44484e-18
3.94727e-18
2.93209e-18
1.69199e-18
7.80838e-19
2.71001e-19
6.62288e-20
1.081e-20
1.11185e-21
1.47826e-22
3.43427e-23
1.63878e-23
3.66713e-23
1.11361e-22
4.23698e-22
1.70313e-21
5.63673e-21
1.42733e-20
2.84292e-20
4.60381e-20
7.37966e-20
1.24113e-19
2.79396e-19
5.49424e-19
5.87908e-19
4.02918e-19
2.13466e-19
8.82586e-20
2.629e-20
5.24786e-21
6.56134e-22
4.71656e-23
0.770043
0.803526
0.806136
0.80516
0.919713
0.920003
0.919668
0.916199
0.918138
0.90587
0.897305
0.8918
0.907769
0.896489
0.884063
0.874377
0.906199
0.889732
0.878338
0.867075
0.803231
0.845378
0.861851
0.856857
0.025724
0.173155
0.496262
0.690452
1.54052e-06
6.89389e-06
0.000773802
0.0188281
7.23561e-07
7.24339e-07
7.2498e-07
7.49288e-07
7.36585e-07
7.27164e-07
7.2702e-07
7.26597e-07
7.26413e-07
7.27051e-07
7.55281e-07
7.20298e-07
1.94894e-06
1.7525e-06
8.50933e-07
9.01018e-07
1.52178e-06
1.26618e-06
1.11563e-06
1.01284e-06
5.6311e-07
8.43247e-07
1.07042e-06
7.86847e-07
4.12354e-06
9.69539e-06
8.00267e-06
2.2923e-06
2.47871e-05
2.46769e-05
2.00415e-05
4.65447e-06
2.47118e-05
8.03e-06
7.66076e-07
5.41923e-07
1.15176e-06
4.03738e-07
2.92972e-07
3.42827e-07
9.29912e-08
1.01207e-07
1.27048e-07
2.08464e-07
4.97194e-08
5.19197e-08
6.96967e-08
1.19279e-07
3.14892e-08
3.93583e-08
6.14715e-08
1.23365e-07
3.13762e-08
3.1626e-08
2.49051e-08
2.75629e-08
1.03561e-08
8.33917e-09
1.11978e-08
2.72247e-08
6.16996e-09
6.91685e-09
8.87821e-09
8.53907e-09
4.4997e-09
3.80141e-09
3.20044e-09
2.65639e-09
2.44355e-09
1.90453e-09
1.46442e-09
1.10482e-09
1.09597e-09
8.11549e-10
5.88077e-10
4.16956e-10
3.75881e-10
2.68009e-10
1.85203e-10
1.24316e-10
7.7438e-11
5.4761e-11
3.78453e-11
2.48882e-11
1.07376e-11
8.436e-12
6.04553e-12
4.0059e-12
2.29963e-12
1.60171e-12
1.03698e-12
6.28392e-13
4.26731e-13
2.66167e-13
1.55199e-13
8.50612e-14
6.81051e-14
3.7908e-14
1.9753e-14
9.69336e-15
9.34263e-15
4.59637e-15
2.11881e-15
9.22379e-16
1.1033e-15
4.74177e-16
1.9137e-16
7.36491e-17
1.12545e-16
4.16933e-17
1.4606e-17
5.31763e-18
9.91203e-18
3.12048e-18
9.70849e-19
6.47055e-19
7.6048e-19
2.0154e-19
7.69137e-20
2.75187e-19
5.16131e-20
1.24099e-20
1.77293e-20
1.60797e-19
3.08257e-21
1.22244e-21
8.06558e-21
8.95554e-20
1.78525e-22
3.47168e-22
4.07925e-21
5.43431e-20
4.42189e-23
6.04373e-22
9.08245e-21
1.3265e-19
0.915689
0.95029
0.944505
0.979365
0.988543
0.927314
0.600809
0.288164
0.229871
0.226215
0.241395
0.447394
0.733554
0.839332
0.877264
0.789486
0.630321
0.544888
0.529389
0.915985
0.919809
0.941256
0.956551
0.966631
0.865684
0.545555
0.293783
0.229648
0.223492
0.223676
0.310179
0.557772
0.788732
0.87741
0.866657
0.72799
0.579483
0.529391
0.88938
0.895917
0.917666
0.928134
0.906578
0.755916
0.503239
0.352757
0.311745
0.28461
0.252827
0.277488
0.441709
0.684234
0.862648
0.866915
0.797538
0.622038
0.572145
0.864608
0.857668
0.858742
0.860969
0.805275
0.669408
0.569751
0.54187
0.539733
0.517612
0.430257
0.349232
0.450649
0.669079
0.818031
0.811588
0.751195
0.694536
0.711766
0.845992
0.822573
0.808728
0.789601
0.749096
0.713348
0.70125
0.701346
0.702291
0.689472
0.622836
0.535199
0.532034
0.706789
0.770629
0.746325
0.744786
0.762942
0.768899
0.832518
0.80749
0.786121
0.772106
0.761657
0.750105
0.743746
0.740343
0.735297
0.727983
0.712777
0.685178
0.671021
0.706829
0.733649
0.745974
0.755477
0.754594
0.750091
0.781813
0.80785
0.772435
0.741713
0.737976
0.737968
0.723146
0.718519
0.717057
0.71418
0.710318
0.707962
0.707451
0.728233
0.73348
0.674751
0.337021
0.116353
0.0995881
0.233872
0.650314
0.764309
0.740276
0.743016
0.748839
0.749115
0.75068
0.750137
0.749583
0.749018
0.746654
0.731623
0.652328
0.38032
0.0212073
3.05137e-05
4.73366e-06
3.04241e-06
0.00257518
0.0724248
0.421097
0.719528
0.768579
0.768842
0.768575
0.759602
0.68063
0.527555
0.355997
0.231222
0.0930692
0.00583557
2.58259e-05
5.39375e-06
4.13669e-06
2.62395e-06
1.4331e-06
3.48426e-06
0.000420809
0.0165651
0.152397
0.374569
0.453437
0.424106
0.215514
0.0603991
0.00608455
4.71489e-05
9.64101e-06
1.12743e-05
8.63856e-06
7.98007e-06
8.12025e-06
8.27278e-06
3.48159e-06
1.38748e-06
7.19476e-07
7.89205e-07
2.83019e-05
0.000810562
0.00468129
0.00755859
0.004109
7.39904e-05
1.68293e-06
1.56495e-06
1.3015e-06
1.3113e-06
1.83744e-06
3.28828e-06
8.33118e-06
8.82252e-06
8.09158e-06
2.01615e-06
1.3783e-06
8.60855e-07
8.00247e-07
7.93159e-07
1.09565e-06
1.28609e-06
5.66978e-07
7.10578e-07
1.09502e-06
1.23593e-06
1.25694e-06
1.36851e-06
1.84269e-06
2.75531e-06
1.77497e-06
1.0157e-06
1.29623e-06
6.29441e-07
7.72909e-07
1.21469e-06
9.34773e-07
9.44819e-07
8.99176e-07
5.50979e-07
4.63317e-07
2.38222e-07
2.57851e-07
7.72558e-07
1.15021e-06
1.27219e-06
1.28305e-06
1.51832e-06
1.88058e-06
1.32525e-06
1.03593e-06
7.20674e-07
5.8054e-07
7.20131e-07
1.49974e-06
6.88102e-07
8.60742e-07
1.27942e-06
2.47726e-06
1.10839e-06
2.54158e-07
1.28927e-07
1.2886e-07
5.55153e-07
1.26424e-06
1.53978e-06
1.70419e-06
1.50132e-06
1.50177e-06
1.14085e-06
7.15065e-07
5.13197e-07
7.9291e-07
5.35448e-06
6.91824e-07
1.76917e-06
5.49818e-06
5.17908e-06
1.62787e-06
4.13773e-07
1.40374e-07
9.32154e-08
1.66184e-07
7.66869e-07
1.58777e-06
2.05314e-06
2.05309e-06
2.05314e-06
1.44298e-06
5.84507e-07
4.51859e-07
8.66932e-07
6.54104e-06
1.14377e-06
6.6036e-06
8.07594e-06
5.94385e-06
1.30368e-06
5.39676e-07
1.76206e-07
9.32979e-08
1.97141e-07
4.90495e-07
1.38285e-06
1.97952e-06
2.05314e-06
2.05309e-06
9.86148e-07
3.17796e-07
3.40766e-07
2.68735e-06
6.55326e-06
1.42075e-06
7.39176e-06
8.07935e-06
4.97163e-06
1.12681e-06
4.152e-07
1.6325e-07
8.74654e-08
1.74345e-07
3.23615e-07
5.40807e-07
1.11937e-06
1.80572e-06
1.65108e-06
4.3191e-07
6.89936e-08
2.89342e-07
4.63452e-06
6.18735e-06
6.21294e-07
1.39127e-06
3.4372e-06
2.06304e-06
8.21745e-07
2.82735e-07
1.59338e-07
8.30527e-08
6.18237e-08
9.63144e-08
1.35894e-07
1.92736e-07
3.9083e-07
2.65428e-07
1.22211e-07
4.69999e-08
3.92747e-07
4.60889e-06
1.61305e-06
5.43305e-07
8.31062e-07
1.06647e-06
1.10513e-06
5.6254e-07
1.93067e-07
9.92245e-08
4.74038e-08
2.84035e-08
4.35932e-08
5.08201e-08
4.32855e-08
3.18725e-08
2.37729e-08
2.75831e-08
4.70676e-08
3.73311e-07
3.92737e-06
1.27018e-06
3.80576e-07
5.14509e-07
3.82584e-07
2.64773e-07
1.7561e-07
1.00094e-07
4.75069e-08
2.06337e-08
1.24258e-08
6.50255e-09
4.31648e-09
4.87094e-09
7.70431e-09
1.51097e-08
3.33383e-08
7.37575e-08
3.81813e-07
1.21226e-06
1.28893e-06
1.91404e-07
1.66203e-07
1.32166e-07
8.62876e-08
4.76473e-08
2.24015e-08
9.52343e-09
3.99493e-09
1.54184e-09
9.29357e-10
1.41142e-09
3.2114e-09
1.03834e-08
3.58013e-08
6.71019e-08
1.81556e-07
4.84405e-07
9.5568e-07
1.28034e-06
8.30985e-08
7.4772e-08
4.81611e-08
2.54664e-08
1.16507e-08
4.65241e-09
1.7565e-09
7.28623e-10
4.47607e-10
6.34644e-10
1.8576e-09
5.78638e-09
1.79976e-08
7.00122e-08
1.19818e-07
4.17975e-07
6.65753e-07
1.06237e-06
1.28779e-06
3.37677e-08
2.11747e-08
1.10372e-08
4.89282e-09
1.91251e-09
6.84314e-10
2.54573e-10
1.35438e-10
1.66069e-10
5.88386e-10
2.43651e-09
8.57778e-09
2.30677e-08
2.17652e-07
3.45255e-07
6.62121e-07
8.6188e-07
1.35751e-06
1.24561e-06
6.31136e-09
3.74821e-09
1.84132e-09
7.81065e-10
3.01301e-10
1.11333e-10
4.87303e-11
4.53e-11
1.14181e-10
5.29022e-10
2.99225e-09
1.2458e-08
2.65215e-08
4.33813e-07
2.75817e-06
1.16377e-06
1.10862e-06
1.58209e-06
1.20931e-06
1.62345e-09
8.60111e-10
3.98538e-10
1.66063e-10
6.5328e-11
2.61279e-11
1.59342e-11
2.91076e-11
1.01291e-10
5.4423e-10
3.7675e-09
1.78398e-08
3.14488e-08
5.11688e-07
1.4755e-05
6.9966e-06
1.46527e-06
2.2863e-06
3.43892e-06
5.76974e-10
2.72609e-10
1.178e-10
4.70777e-11
1.79569e-11
7.73845e-12
8.60338e-12
2.73037e-11
1.12778e-10
6.75896e-10
4.81083e-09
2.32393e-08
4.66127e-08
6.20085e-07
2.5082e-05
2.56294e-05
6.82273e-06
1.47436e-05
6.82247e-06
1.97173e-10
8.49065e-11
3.35434e-11
1.23222e-11
4.46627e-12
2.75739e-12
8.00931e-12
3.43422e-11
1.61143e-10
9.82536e-10
6.10918e-09
2.75579e-08
6.48041e-08
6.05976e-07
9.44765e-06
3.40192e-05
3.2093e-05
3.15768e-05
3.02289e-06
5.34195e-11
2.09122e-11
7.51999e-12
2.54774e-12
1.05572e-12
1.92104e-12
1.03075e-11
5.05618e-11
2.69429e-10
1.58235e-09
8.18247e-09
3.32183e-08
7.94406e-08
5.12807e-07
1.42639e-06
3.29765e-05
3.31692e-05
9.16472e-06
1.16737e-06
1.01421e-11
3.71895e-12
1.24768e-12
4.287e-13
4.3135e-13
2.25371e-12
1.45755e-11
7.831e-11
4.64963e-10
2.63445e-09
1.18136e-08
4.33197e-08
8.81774e-08
4.77455e-07
1.21953e-06
2.53443e-06
2.08965e-05
2.60411e-06
8.0501e-07
1.56926e-12
5.39316e-13
1.72645e-13
9.7964e-14
4.06399e-13
3.01868e-12
2.10276e-11
1.19919e-10
7.68878e-10
4.29537e-09
1.78161e-08
6.14692e-08
1.05431e-07
4.90388e-07
9.69686e-07
1.41692e-06
1.59279e-06
1.29222e-06
6.6132e-07
2.18522e-13
6.7868e-14
2.52561e-14
6.23013e-14
4.98545e-13
4.11537e-12
2.97145e-11
1.75669e-10
1.192e-09
6.64187e-09
2.63709e-08
9.11371e-08
2.23254e-07
6.08125e-07
8.70901e-07
1.16478e-06
1.34327e-06
1.07909e-06
4.63349e-07
2.58826e-14
7.68499e-15
8.5093e-15
6.63348e-14
6.22845e-13
5.42482e-12
3.96573e-11
2.41668e-10
1.70735e-09
9.5443e-09
3.64737e-08
1.33031e-07
4.59924e-07
8.21896e-07
9.79275e-07
1.12714e-06
1.21165e-06
7.65918e-07
3.12015e-07
2.59765e-15
1.21954e-15
6.94413e-15
7.31925e-14
7.40916e-13
6.64467e-12
4.80166e-11
3.07268e-10
2.2078e-09
1.2427e-08
4.64463e-08
1.90976e-07
7.01493e-07
1.12894e-06
1.6279e-06
2.47683e-06
1.05411e-06
5.09501e-07
1.14799e-07
2.49565e-16
5.86025e-16
6.65623e-15
7.69043e-14
8.11215e-13
7.26471e-12
5.04734e-11
3.51459e-10
2.52523e-09
1.44672e-08
5.38873e-08
2.51132e-07
8.50472e-07
1.9546e-06
2.78327e-06
2.68985e-06
7.5651e-07
2.08007e-07
6.09762e-08
4.66545e-17
4.65492e-16
6.07057e-15
7.2965e-14
7.7376e-13
6.72909e-12
4.38398e-11
3.5104e-10
2.35734e-09
1.20516e-08
4.83064e-08
2.37043e-07
7.43059e-07
1.03215e-06
2.39836e-06
1.16815e-06
4.048e-07
8.06064e-08
1.57458e-08
2.43476e-17
3.52656e-16
4.79735e-15
5.82585e-14
6.07354e-13
5.08766e-12
3.12017e-11
2.43166e-10
1.30816e-09
4.74513e-09
1.74791e-08
1.37352e-07
4.68721e-07
6.18159e-07
6.78829e-07
4.55007e-07
1.84876e-07
2.42412e-08
5.5597e-09
1.48496e-17
2.28536e-16
3.17078e-15
3.85027e-14
3.96731e-13
3.28886e-12
2.06671e-11
1.5765e-10
7.76899e-10
2.47216e-09
5.58965e-09
3.67742e-08
2.10404e-07
2.54416e-07
2.83479e-07
1.71124e-07
8.275e-08
1.55203e-08
3.56823e-09
7.98062e-18
1.26346e-16
1.79737e-15
2.23787e-14
2.39713e-13
2.12128e-12
1.46999e-11
1.21055e-10
5.76208e-10
1.76535e-09
2.3725e-09
6.62452e-09
5.77869e-08
6.98721e-08
7.20062e-08
5.08119e-08
2.92239e-08
9.6034e-09
3.56577e-09
3.79194e-18
6.327e-17
9.75571e-16
1.36241e-14
1.6838e-13
1.72624e-12
1.37333e-11
9.75997e-11
4.49446e-10
1.11887e-09
1.10758e-09
8.80339e-10
4.79169e-09
1.26384e-08
1.39408e-08
1.06868e-08
7.1867e-09
5.1993e-09
3.00789e-09
1.72909e-18
3.40809e-17
6.51849e-16
1.10152e-14
1.52576e-13
1.60545e-12
1.21865e-11
6.82968e-11
1.99633e-10
3.18353e-10
2.81805e-10
1.12734e-10
3.69072e-10
1.75686e-09
2.36429e-09
2.17152e-09
2.26636e-09
2.37124e-09
1.78631e-09
1.01435e-18
2.83091e-17
6.33484e-16
1.04669e-14
1.27948e-13
1.14227e-12
7.26919e-12
2.95139e-11
3.31519e-11
3.29639e-11
2.65135e-11
2.1247e-11
3.996e-11
1.42302e-10
2.63461e-10
3.95861e-10
6.16209e-10
8.11385e-10
6.93825e-10
1.71095e-18
3.55376e-17
5.52774e-16
6.42253e-15
5.65627e-14
3.81279e-13
1.94467e-12
3.57932e-12
2.92718e-12
1.67641e-12
1.40395e-12
1.21546e-12
1.0547e-12
1.07882e-12
7.32705e-12
2.94418e-11
9.94641e-11
1.47358e-10
1.4797e-10
)
;

boundaryField
{
    leftWall
    {
        type            zeroGradient;
    }
    rightWall
    {
        type            zeroGradient;
    }
    lowerWall
    {
        type            zeroGradient;
    }
    atmosphere
    {
        type            inletOutlet;
        inletValue      uniform 0;
        value           nonuniform List<scalar> 
46
(
1.47826e-22
3.43427e-23
1.63878e-23
3.66713e-23
1.11361e-22
4.23698e-22
1.70313e-21
5.63673e-21
1.42733e-20
2.84292e-20
4.60381e-20
7.37966e-20
1.24113e-19
2.79396e-19
5.49424e-19
5.87908e-19
4.02918e-19
2.13466e-19
8.82586e-20
2.629e-20
5.24786e-21
6.56134e-22
4.71656e-23
4.42189e-23
0
0
0
0
0
0
0
0
0
0
0
0
0
0
0
0
0
0
0
0
0
0
)
;
    }
    defaultFaces
    {
        type            empty;
    }
}


// ************************************************************************* //
