/*--------------------------------*- C++ -*----------------------------------*\
| =========                 |                                                 |
| \\      /  F ield         | OpenFOAM: The Open Source CFD Toolbox           |
|  \\    /   O peration     | Version:  2.4.0                                 |
|   \\  /    A nd           | Web:      www.OpenFOAM.org                      |
|    \\/     M anipulation  |                                                 |
\*---------------------------------------------------------------------------*/
FoamFile
{
    version     2.0;
    format      ascii;
    class       volScalarField;
    location    "0.95";
    object      alphas;
}
// * * * * * * * * * * * * * * * * * * * * * * * * * * * * * * * * * * * * * //

dimensions      [0 0 0 0 0 0 0];

internalField   nonuniform List<scalar> 
2268
(
2
2
2
2
2
2
2
2
2
2
2
2
2
2
2
2
2
2
2
2
2
1.99999
1.99999
1.99999
1.99999
2
2
2
2
2
2
2
2
2
2
2
2
2
2
2
2
2
2
2
1.99999
1.99999
1.99902
1.9998
1.99998
1.99999
2
2
2
2
2
2
2
2
2
2
2
2
2
2
2
2
2
2
1.99999
1.94622
1.98942
1.99877
1.99977
1.99992
1.99996
1.99998
1.99999
1.99999
1.99999
1.99999
2
2
2
2
2
2
2
2
1.99999
1.99998
1.99999
1.99999
1.58625
1.91422
1.98723
1.99795
1.99956
1.99966
1.99856
1.99521
1.99056
1.98883
1.991
1.99502
1.99712
1.998
1.9984
1.99861
1.99883
1.99871
1.99749
1.99439
1.99172
1.9957
1.99349
0.916384
1.68631
1.95411
1.99041
1.98846
1.94039
1.84442
1.69588
1.52193
1.42706
1.44213
1.57236
1.68127
1.74705
1.77947
1.79263
1.80469
1.80032
1.74586
1.6415
1.57188
1.63438
1.40562
0.345805
1.17064
1.76201
1.83974
1.50056
0.989964
0.598515
0.300659
0.116245
0.0500365
0.0399099
0.0577044
0.101683
0.167253
0.251896
0.311313
0.336871
0.33607
0.300802
0.220304
0.147634
0.0730059
0.0433974
0.0854172
0.432878
0.704225
0.576004
0.236592
0.0612721
0.0155599
0.00472809
0.0018997
0.00147037
0.00138703
0.00102433
0.000805291
0.000783741
0.000777512
0.00127332
0.0029501
0.00435104
0.00445554
0.00448161
0.00947513
0.0420351
0.138094
1.75626
1.4862
1.38124
1.41121
1.53111
1.72037
1.8714
1.89605
1.91197
1.93248
1.94914
1.95125
1.95132
1.95148
1.95387
1.95434
1.95468
1.95469
1.95476
0.784766
0.622711
0.423688
0.33661
0.323084
0.344358
0.376323
0.446256
0.585242
0.947772
1.42997
1.70827
1.843
1.88983
1.91896
1.95202
1.95435
1.95479
1.95477
1.43655
0.893979
0.867081
0.814067
0.614866
0.315498
0.231197
0.231026
0.245734
0.582309
1.36223
1.76468
1.85112
1.88687
1.93213
1.95217
1.95437
1.95486
1.95477
1.54963
1.31634
1.03137
0.991625
0.971466
0.81721
0.519048
0.354924
0.284957
0.392287
0.870618
1.29131
1.44965
1.65176
1.87669
1.94095
1.95445
1.95164
1.9548
1.53667
1.21096
0.990916
0.988972
0.98893
0.963864
0.449232
0.236742
0.237972
0.265912
0.501861
0.842441
0.959286
1.12703
1.63315
1.94447
1.95417
1.94735
1.94403
1.02397
1.09232
1.00146
0.99286
0.990775
0.983657
0.612275
0.304559
0.244306
0.227173
0.403109
0.750762
0.893876
0.936275
1.16395
1.82961
1.9483
1.93579
1.87395
0.940249
1.052
1.00473
1.00764
0.994505
0.965897
0.610135
0.263481
0.231127
0.222414
0.327409
0.704105
0.875181
0.895783
0.921934
1.22622
1.62656
1.62074
1.33184
0.931418
1.02497
1.027
1.0077
1.00623
0.959884
0.641491
0.283916
0.230182
0.222205
0.261585
0.621397
0.85444
0.880039
0.887343
0.823757
0.767569
0.69662
0.613998
0.0169148
0.0675931
0.0846963
0.0424415
0.0160599
0.00664853
0.00343642
0.00192541
0.00146868
0.00137354
0.000927964
0.00124
0.00204273
0.00290144
0.00338516
0.00465549
0.00929955
0.0129802
0.0141553
0.02021
0.0233241
0.0865785
0.553936
0.000704991
0.0024331
0.00253219
0.00148091
0.00147468
0.00146997
0.00145168
0.00138602
0.00117333
0.00111789
0.00577522
0.0184691
0.0281984
0.0225956
0.0189311
0.0165057
0.0179697
0.025943
0.0472209
0.190657
0.255152
0.364828
0.819981
0.00079188
0.00101029
0.00108276
0.00110103
0.00106935
0.00103295
0.000939521
0.000866099
0.00222329
0.0321739
0.126466
0.23047
0.288454
0.238234
0.166018
0.100864
0.062369
0.0738244
0.22126
0.587778
0.638091
0.775324
0.915305
0.0994816
0.057459
0.0226478
0.0105523
0.00633408
0.00320216
0.00291212
0.0134982
0.0796576
0.346887
0.591891
0.720646
0.735055
0.6539
0.454956
0.294729
0.387252
0.580768
0.769112
0.878008
0.907642
0.934695
0.935052
0.680043
0.413415
0.152834
0.0551551
0.0214933
0.0149521
0.0584937
0.252104
0.538058
0.839161
0.967347
0.92896
0.883079
0.78398
0.770258
0.790532
0.855242
0.913165
0.942506
0.95106
0.958197
0.964904
0.951801
0.848178
0.731074
0.314667
0.145748
0.109444
0.188295
0.566031
0.858695
0.904938
0.918085
0.937697
0.978665
1.27956
1.87299
1.87803
1.28964
1.01178
0.983325
0.98874
1.01696
1.25438
1.7129
1.72514
0.849352
0.842469
0.581973
0.451784
0.463799
0.668127
0.878835
0.924953
0.931652
0.947816
0.968409
1.23284
2.41499
2.93675
2.93681
2.77899
2.37109
1.83247
1.61763
1.87819
2.61776
2.94099
2.97622
1.13748
0.864162
0.793378
0.724903
0.812134
0.904353
0.940261
1.0058
1.03258
1.04496
1.07436
1.70039
2.89171
2.9996
2.99972
2.99847
2.99071
2.93331
2.86986
2.90007
2.98597
2.99967
2.99998
1.28911
1.18741
0.912107
0.898404
0.921109
0.967929
1.09604
1.3181
1.35341
1.32155
1.89839
2.81586
2.9951
3
3
3
2.99999
2.99975
2.99907
2.9991
2.9999
3
3
2.5181
2.3765
1.43673
1.07614
1.08291
1.62493
2.56296
2.92006
2.96028
2.93797
2.96957
2.99698
2.99989
3
3
3
3
3
3
3
3
3
3
2.983
2.94582
2.6593
2.40013
2.41388
2.82537
2.99156
2.99992
2.99998
2.99989
2.99964
2.99957
2.99995
3
3
3
3
3
3
3
3
3
3
2.99989
2.99837
2.98778
2.97841
2.98015
2.99671
2.99997
3
3
2.99999
2.99977
2.99929
2.99929
2.99948
3
3
3
3
3
3
3
3
3
3
2.99999
2.99994
2.99991
2.99994
2.99999
3
3
3
3
2.99999
2.9998
2.99933
2.99957
2.99998
3
3
3
3
3
3
3
3
3
3
3
3
3
3
3
3
3
3
3
2.99999
2.99993
2.9999
2.99988
2.9999
2.99999
3
3
3
3
3
3
3
3
3
3
3
3
3
3
3
3
3
3
3
2.99999
2.99989
2.99995
2.99991
2.99991
2.99997
3
3
3
3
3
3
3
3
3
3
3
3
3
3
3
3
3
3
2.99999
3
2.99992
2.99985
2.99985
2.99992
2.99999
2.99999
2.99996
3
3
3
3
3
3
3
3
3
3
3
3
3
3
3
3
2.99998
2.99992
2.99993
2.99996
2.99998
2.99995
2.99995
3
3
3
3
3
3
3
3
3
3
3
3
3
3
3
3
3
2.99999
3
3
3
2.99999
3
3
3
3
3
3
3
3
3
3
3
3
3
3
3
3
3
3
3
3
3
3
3
3
3
3
3
3
3
3
3
3
3
3
3
3
3
3
3
3
3
3
3
3
3
3
3
3
3
3
3
3
3
3
3
3
3
3
3
3
3
3
3
3
3
3
3
3
3
3
3
3
3
3
3
3
3
3
3
3
3
3
3
3
3
3
3
3
3
3
3
3
3
3
3
3
3
3
3
3
3
3
3
3
3
3
3
3
3
3
3
3
3
3
3
3
3
3
3
3
3
3
3
3
3
3
3
3
3
3
3
3
3
3
3
3
3
3
3
3
3
3
3
3
3
3
3
3
3
3
3
3
3
3
3
3
3
3
3
3
3
3
3
3
3
3
3
3
3
3
3
3
3
3
3
3
3
3
3
3
3
3
3
3
3
3
3
3
3
3
3
3
3
3
3
3
3
3
3
3
3
3
3
3
3
3
3
3
3
3
3
3
3
3
3
3
3
3
3
3
3
3
3
3
3
3
3
3
3
3
3
3
3
3
3
3
3
3
3
3
3
3
3
3
3
3
3
3
3
3
3
3
3
3
3
3
3
3
3
3
3
3
3
3
3
3
3
3
3
3
3
3
3
3
3
3
3
3
3
3
3
3
3
3
3
3
3
3
3
3
3
3
3
3
3
3
3
3
3
3
3
3
3
3
3
3
3
3
3
3
3
3
3
3
3
3
3
3
3
3
3
3
3
3
3
3
3
3
3
3
3
3
3
3
3
3
3
3
3
3
3
3
3
3
3
3
3
3
3
3
3
3
3
3
3
3
3
3
3
3
3
3
3
3
3
3
3
3
3
3
3
3
3
3
3
3
3
3
3
3
3
3
3
3
3
3
3
3
3
3
3
3
3
3
3
3
3
3
3
3
3
3
3
3
3
3
3
3
3
3
3
3
3
3
3
3
3
3
3
3
3
3
3
3
3
3
3
3
3
3
3
3
3
3
3
3
3
3
3
3
3
3
3
3
3
3
3
3
3
3
3
3
3
3
3
3
3
3
3
3
3
3
3
3
3
3
3
3
3
3
3
3
3
3
3
3
3
3
3
3
3
3
3
3
3
3
3
3
3
3
3
3
3
3
3
3
3
3
3
3
3
3
3
3
3
3
3
3
3
3
3
3
3
3
3
3
3
3
3
3
3
3
3
3
3
3
3
3
3
3
3
3
3
3
3
3
3
3
3
3
3
3
3
3
3
3
3
3
3
3
3
3
3
0.852831
0.896076
0.891246
0.878397
0.92309
0.920804
0.92009
0.91733
0.918598
0.906288
0.89773
0.892226
0.908122
0.896872
0.884466
0.874794
0.912046
0.891494
0.878974
0.867531
1.23467
1.04257
0.926309
0.879901
2.94767
2.63988
1.92422
1.40721
3
2.99999
2.99846
2.96235
3
3
3
3
3
3
3
3
3
3
3
3
3
3
3
3
3
3
3
3
3
3
3
3
2.99999
2.99998
2.99998
3
2.99995
2.99995
2.99996
2.99999
2.99995
2.99999
3
3
3
3
3
3
3
3
3
3
3
3
3
3
3
3
3
3
3
3
3
3
3
3
3
3
3
3
3
3
3
3
3
3
3
3
3
3
3
3
3
3
3
3
3
2.99999
3
3
3
2.99999
3
3
3
2.99999
3
3
3
2.99999
3
3
3
3
3
3
3
2.99999
3
3
3
2.99999
3
3
3
2.99999
3
3
3
2.99999
3
3
2.99999
2.99999
3
3
3
2.99999
3
3
2.99999
2.99999
3
3
2.99999
2.99999
3
2.99999
2.99999
2.99999
2.99999
2.99999
2.99999
3
0.928076
0.988489
1.00577
1.01441
0.994381
0.927479
0.600973
0.291317
0.256984
0.258257
0.244852
0.44762
0.734642
0.844497
0.883727
0.799954
0.635791
0.547949
0.532587
0.918379
0.923759
0.963361
0.991751
0.986042
0.865984
0.550971
0.343645
0.308565
0.302414
0.279686
0.322682
0.560035
0.792061
0.883499
0.874559
0.729138
0.580006
0.53029
0.889805
0.896815
0.927699
0.955733
0.934048
0.770609
0.51888
0.372743
0.317838
0.298042
0.304662
0.329578
0.445201
0.686821
0.865493
0.870272
0.798045
0.622413
0.572592
0.865034
0.858339
0.862602
0.870105
0.815782
0.67372
0.570972
0.542933
0.5411
0.522019
0.463599
0.401584
0.464355
0.670794
0.818658
0.813588
0.751921
0.695005
0.712407
0.846461
0.823272
0.809591
0.790163
0.749566
0.713976
0.702172
0.702436
0.703374
0.691877
0.644681
0.586901
0.571762
0.707802
0.770915
0.748211
0.752352
0.797912
0.819918
0.840644
0.811328
0.795888
0.785768
0.768841
0.751182
0.744504
0.741036
0.735875
0.728735
0.714917
0.690722
0.678903
0.707443
0.734381
0.782702
0.920105
1.27113
1.31837
1.05883
0.864926
0.824782
0.850456
0.810945
0.741589
0.723757
0.718953
0.717629
0.715328
0.712342
0.710357
0.711663
0.744784
0.882668
1.43428
2.29591
2.765
2.79882
2.46779
1.4102
0.98778
0.929444
0.87682
0.788268
0.767199
0.772164
0.80234
0.858862
0.924954
0.977037
1.07895
1.4268
2.19619
2.95746
2.99994
2.99999
3
2.99431
2.83814
2.03985
1.31262
1.15774
1.14281
1.13631
1.17864
1.42942
1.82711
2.234
2.51622
2.80981
2.98824
2.99995
2.99999
2.99999
3
3
2.99999
2.99899
2.96303
2.67288
2.21201
2.05579
2.12827
2.55821
2.8771
2.98778
2.99991
2.99998
2.99998
2.99999
2.99999
2.99999
2.99999
3
3
3
3
2.99993
2.9983
2.99049
2.98477
2.99177
2.99986
3
3
3
3
3
3
2.99999
2.99998
2.99999
3
3
3
3
3
3
3
3
3
3
3
3
3
3
3
3
3
3
3
3
3
3
3
3
3
3
3
3
3
3
3
3
3
3
3
3
3
3
3
3
3
3
3
3
3
3
3
3
3
3
3
3
3
3
3
3
3
3
2.99999
3
3
2.99999
2.99999
3
3
3
3
3
3
3
3
3
3
3
3
3
3
2.99999
3
2.99999
2.99999
2.99999
3
3
3
3
3
3
3
3
3
3
3
3
3
3
2.99999
3
2.99999
2.99999
2.99999
3
3
3
3
3
3
3
3
3
3
3
3
3
2.99999
2.99999
3
3
3
3
3
3
3
3
3
3
3
3
3
3
3
3
3
2.99999
3
3
3
3
3
3
3
3
3
2.99999
2.99999
2.99999
3
3
3
3
3
3
2.99999
3
3
3
3
3
3
3
3
2.99999
2.99999
2.99999
2.99999
3
3
3
3
3
3
3
3
3
3
3
3
3
3
2.99999
2.99999
2.99999
2.99999
3
3
3
3
3
3
3
3
3
3
3
3
3
3
3
2.99999
2.99999
2.99999
2.99999
3
3
3
3
3
3
3
3
3
3
3
3
3
3
2.99999
2.99999
2.99999
2.99999
3
3
3
3
3
3
3
3
3
3
3
3
3
3
2.99999
2.99999
2.99999
2.99999
2.99999
3
3
3
3
3
3
3
3
3
3
3
3
3
2.99999
2.99999
2.99999
2.99999
2.99999
2.99999
3
3
3
3
3
2.99997
2.99999
3
3
3
3
2.99999
2.99999
2.99999
2.99999
2.99999
2.99999
2.99999
2.99999
3
3
3
3
3
2.99995
2.99995
2.99999
2.99998
2.99999
2.99999
2.99999
2.99999
2.99999
2.99999
2.99999
2.99999
2.99999
3
3
3
3
3
3
2.99999
2.99994
2.99994
2.99994
3
2.99999
2.99999
2.99999
2.99999
2.99999
2.99999
2.99999
2.99999
3
3
3
3
3
3
3
2.99994
2.99994
2.99999
3
2.99999
2.99999
2.99999
2.99999
2.99999
2.99999
2.99999
2.99999
3
3
3
3
3
3
3
3
2.99996
3
3
2.99999
2.99999
2.99999
2.99999
2.99999
2.99999
2.99999
3
3
3
3
3
3
3
3
3
3
3
3
2.99999
2.99999
2.99999
2.99999
2.99999
2.99999
2.99999
3
3
3
3
3
3
3
3
3
3
3
3
2.99999
2.99999
2.99999
2.99999
2.99999
2.99999
3
3
3
3
3
3
3
3
3
3
3
3
3
2.99999
2.99999
2.99999
2.99999
2.99999
2.99999
3
3
3
3
3
3
3
3
3
3
3
3
3
2.99999
2.99999
2.99999
2.99999
2.99999
3
3
3
3
3
3
3
3
3
3
3
3
3
3
2.99999
2.99999
2.99999
2.99999
3
3
3
3
3
3
3
3
3
3
3
3
3
3
3
2.99999
2.99999
2.99999
3
3
3
3
3
3
3
3
3
3
3
3
3
3
3
3
2.99999
2.99999
3
3
3
3
3
3
3
3
3
3
3
3
3
3
3
3
3
2.99999
2.99999
3
3
3
3
3
3
3
3
3
3
3
3
3
3
3
3
3
2.99999
3
3
3
3
3
3
3
3
3
3
3
3
3
3
3
3
3
3
2.99999
3
3
3
3
3
3
3
3
3
3
3
3
3
3
3
3
3
3
3
3
3
3
3
3
3
3
3
3
3
3
3
3
3
3
3
3
3
3
3
3
3
3
3
3
3
3
3
3
3
3
3
3
3
3
3
3
)
;

boundaryField
{
    leftWall
    {
        type            zeroGradient;
    }
    rightWall
    {
        type            zeroGradient;
    }
    lowerWall
    {
        type            zeroGradient;
    }
    atmosphere
    {
        type            zeroGradient;
    }
    defaultFaces
    {
        type            empty;
    }
}


// ************************************************************************* //
