/*--------------------------------*- C++ -*----------------------------------*\
| =========                 |                                                 |
| \\      /  F ield         | OpenFOAM: The Open Source CFD Toolbox           |
|  \\    /   O peration     | Version:  2.4.0                                 |
|   \\  /    A nd           | Web:      www.OpenFOAM.org                      |
|    \\/     M anipulation  |                                                 |
\*---------------------------------------------------------------------------*/
FoamFile
{
    version     2.0;
    format      ascii;
    class       volScalarField;
    location    "0.95";
    object      alpha.mercury;
}
// * * * * * * * * * * * * * * * * * * * * * * * * * * * * * * * * * * * * * //

dimensions      [0 0 0 0 0 0 0];

internalField   nonuniform List<scalar> 
2268
(
1
1
1
1
1
1
1
1
1
1
1
1
1
1
1
1
1
1
1
0.999999
0.999997
0.999994
0.999992
0.999997
0.999997
0.999999
0.999999
0.999999
1
1
1
1
1
1
1
1
1
1
1
1
1
1
1
0.999998
0.999993
0.999989
0.99951
0.999901
0.999989
0.999997
0.999999
0.999999
0.999999
0.999999
0.999999
1
1
1
1
1
1
1
1
1
1
0.999999
0.999999
0.999995
0.999988
0.97311
0.994709
0.999386
0.999886
0.99996
0.999979
0.99999
0.999994
0.999993
0.999994
0.999996
0.999998
0.999998
0.999999
0.999999
0.999999
0.999999
0.999999
0.999998
0.999995
0.999991
0.999992
0.999987
0.793124
0.95711
0.993617
0.998977
0.999777
0.999832
0.999281
0.997603
0.995276
0.994409
0.995493
0.997506
0.998556
0.998997
0.999198
0.999302
0.999415
0.999354
0.998741
0.997191
0.995853
0.997837
0.996737
0.458192
0.843153
0.977057
0.995203
0.994228
0.970195
0.92221
0.847936
0.760956
0.713507
0.720989
0.786048
0.840488
0.873373
0.889579
0.896158
0.902219
0.900039
0.872778
0.820558
0.785722
0.816984
0.702628
0.172902
0.585318
0.881006
0.919869
0.750282
0.494981
0.299255
0.150326
0.0581169
0.0250019
0.019881
0.0286095
0.0504162
0.0831182
0.125333
0.154835
0.16733
0.166705
0.148999
0.108707
0.0717446
0.0325405
0.0160024
0.0427086
0.216439
0.352112
0.288002
0.118296
0.0306356
0.00777932
0.00236339
0.000949194
0.000731062
0.000648698
0.000284475
6.49992e-05
4.18778e-05
3.53951e-05
3.89683e-05
5.11633e-05
6.33648e-05
7.11659e-05
7.58022e-05
9.33346e-05
0.0012804
0.00866718
0.845419
0.701389
0.658498
0.676113
0.73692
0.832068
0.907828
0.920561
0.928953
0.940378
0.951826
0.952924
0.952975
0.953089
0.954359
0.954624
0.954674
0.954728
0.954833
0.153807
0.0509669
0.0104855
0.0103501
0.0170334
0.0384024
0.0648693
0.0950087
0.15322
0.332011
0.582715
0.774513
0.881917
0.914825
0.931494
0.954675
0.954736
0.954845
0.954919
0.00486925
0.00127039
5.16434e-05
2.4786e-05
2.47458e-05
0.000103279
0.000218575
0.000181521
0.0147538
0.185904
0.58249
0.828651
0.884471
0.906477
0.941007
0.954734
0.954851
0.954929
0.954969
0.0166278
0.000643435
3.29643e-05
2.51424e-05
2.46983e-05
3.11373e-05
3.11969e-05
5.94025e-05
0.0040367
0.0673749
0.274795
0.447399
0.501133
0.668497
0.883241
0.943357
0.954852
0.951734
0.955027
0.00119845
0.000182235
8.37206e-05
5.60447e-05
3.77265e-05
3.65847e-05
3.62237e-05
4.62095e-05
0.00039114
0.00976693
0.0327266
0.0242592
0.0333561
0.160846
0.646648
0.945259
0.954348
0.947448
0.944298
0.00123011
0.0002244
5.61039e-05
6.54937e-05
6.13003e-05
3.59374e-05
3.26208e-05
3.26192e-05
4.30657e-05
0.000480779
0.00128225
0.000779087
0.000862141
0.0210967
0.222282
0.836664
0.948753
0.93643
0.880383
0.00156666
0.000158792
4.47638e-05
4.49376e-05
5.5874e-05
3.86574e-05
3.91388e-05
3.91402e-05
3.81726e-05
3.6434e-05
8.55708e-05
7.24569e-05
0.000110322
0.000784691
0.0256528
0.310836
0.677746
0.687062
0.467396
0.00144701
0.000134553
6.05537e-05
3.04495e-05
2.60539e-05
2.86143e-05
3.61547e-05
3.89931e-05
3.6285e-05
3.35573e-05
3.6095e-05
4.26446e-05
9.43458e-05
0.000749786
0.00198721
0.0140194
0.0582989
0.064072
0.0305511
0.00845739
0.0337966
0.0423481
0.0212207
0.00802988
0.00332399
0.00171761
0.000961059
0.000727639
0.000634103
0.000187639
6.17934e-05
2.06771e-05
1.2339e-05
1.09176e-05
8.38384e-06
6.05922e-06
5.52236e-06
8.58694e-06
2.05068e-05
3.1376e-05
0.000248752
0.00974225
0.000350245
0.00121434
0.00126313
0.000735157
0.000730387
0.000725946
0.000709168
0.000643479
0.000431911
0.000147124
4.63405e-05
1.81826e-05
1.04812e-05
8.33011e-06
6.82319e-06
5.43089e-06
4.04053e-06
3.99774e-06
1.02463e-05
4.17078e-05
6.09579e-05
9.48304e-05
8.87349e-05
4.9444e-05
0.000213758
0.000335101
0.000354997
0.000323477
0.000288611
0.000195307
0.000102721
4.6593e-05
2.19389e-05
1.19468e-05
8.13618e-06
5.27316e-06
4.02806e-06
4.0237e-06
5.48419e-06
9.0416e-06
1.015e-05
3.7658e-05
7.29856e-05
9.30792e-05
9.48675e-05
8.94688e-05
4.74249e-07
5.78491e-06
1.71394e-05
2.72848e-05
2.58778e-05
2.28927e-05
1.54466e-05
8.64395e-06
4.0063e-06
4.3495e-06
6.57476e-06
9.02565e-06
7.135e-06
8.06604e-06
1.22162e-05
2.73276e-05
4.38078e-05
5.01032e-05
5.3282e-05
5.75722e-05
6.04656e-05
4.91772e-05
4.45385e-05
1.51442e-10
1.11752e-08
1.03475e-07
2.85585e-07
5.05439e-07
6.32512e-07
3.33296e-07
5.29203e-07
1.92166e-06
1.48947e-05
3.36583e-05
4.34194e-05
4.33713e-05
4.25421e-05
3.97967e-05
4.5236e-05
4.52693e-05
4.45738e-05
4.40455e-05
4.38636e-05
3.99601e-05
3.2338e-05
3.08087e-05
2.25052e-11
3.4191e-11
1.11218e-10
6.79331e-10
1.91987e-09
5.67271e-09
6.03229e-07
9.27206e-06
2.8061e-05
3.9587e-05
4.20722e-05
4.21146e-05
3.52571e-05
2.17927e-05
2.32478e-05
3.76681e-05
4.47371e-05
4.59648e-05
4.59496e-05
3.59149e-05
1.60777e-05
6.89218e-06
7.87368e-06
1.78313e-11
2.9963e-11
3.68219e-11
1.82088e-10
1.38351e-08
7.36004e-07
6.46836e-06
1.68475e-05
2.39535e-05
2.72895e-05
2.83816e-05
2.49588e-05
7.97542e-06
1.33446e-06
1.48146e-06
4.07949e-06
1.17635e-05
2.19478e-05
2.4808e-05
1.33405e-05
1.83936e-06
1.12986e-07
5.03977e-08
1.45161e-11
5.74171e-11
9.40659e-10
3.06841e-08
6.1379e-07
4.33341e-06
9.90035e-06
1.25711e-05
1.27459e-05
1.26562e-05
1.20094e-05
6.70161e-06
7.2745e-07
1.75294e-08
1.15358e-08
2.79976e-08
1.24729e-07
9.62376e-07
1.82006e-06
8.42861e-07
6.84296e-08
7.60769e-10
4.08856e-10
2.37397e-11
1.58976e-09
8.73869e-08
3.99076e-07
2.00206e-06
4.02359e-06
4.74623e-06
2.03519e-06
1.06313e-06
9.55087e-07
9.5436e-07
3.49953e-07
3.01401e-08
8.05796e-10
5.69169e-10
6.33164e-10
1.04265e-09
3.93512e-09
1.11053e-08
7.17951e-09
1.21605e-09
7.33103e-10
7.19488e-10
2.46804e-11
5.59691e-09
1.63768e-07
7.67614e-07
1.54266e-06
1.76864e-06
4.98472e-07
3.30254e-08
1.14365e-08
1.63656e-08
1.01002e-08
2.05387e-09
6.87611e-10
6.63251e-10
5.68251e-10
7.50112e-10
9.86826e-10
1.09871e-09
1.10403e-09
1.10734e-09
1.13077e-09
1.19802e-09
9.86991e-10
1.91656e-11
4.39595e-09
8.51926e-08
2.6704e-07
3.21118e-07
1.16672e-07
5.39179e-09
2.12518e-11
7.45835e-12
1.4515e-11
4.52637e-11
7.76819e-11
1.73333e-10
4.80972e-10
5.64736e-10
6.53953e-10
9.33968e-10
1.29401e-09
1.4056e-09
1.4671e-09
1.47391e-09
1.37495e-09
7.61954e-10
1.28341e-11
1.53249e-09
9.50382e-09
1.18965e-08
6.92991e-09
1.08359e-09
2.62807e-11
3.88702e-12
5.67662e-12
1.08867e-11
6.08173e-11
1.26984e-10
1.71805e-10
3.35518e-10
5.33376e-10
5.60122e-10
5.62593e-10
7.68692e-10
1.10134e-09
1.21292e-09
1.17533e-09
7.83938e-10
3.27021e-10
6.44564e-12
1.32735e-10
3.3439e-10
1.39729e-10
3.0107e-11
4.6148e-12
2.85127e-12
2.57264e-12
2.69379e-12
2.47865e-12
5.07947e-12
4.04346e-11
1.37194e-10
2.29728e-10
4.00403e-10
5.05666e-10
4.69495e-10
3.25002e-10
6.08775e-10
8.09255e-10
7.18481e-10
3.53355e-10
1.54127e-10
5.36616e-12
5.70181e-12
7.04324e-12
3.17791e-12
2.69763e-12
2.61087e-12
2.32402e-12
2.18079e-12
2.12189e-12
1.7013e-12
2.07229e-12
4.47437e-12
4.37735e-11
1.46236e-10
2.72956e-10
3.94721e-10
4.18649e-10
2.74427e-10
2.12279e-10
2.97522e-10
4.38284e-10
3.05032e-10
1.67207e-10
5.03488e-12
3.74297e-12
3.18855e-12
1.91007e-12
1.61559e-12
1.48079e-12
1.60629e-12
1.63792e-12
1.6294e-12
1.41668e-12
1.296e-12
1.4363e-12
3.91342e-12
3.56645e-11
1.54691e-10
2.4912e-10
3.05712e-10
2.44119e-10
1.88688e-10
1.60809e-10
1.76791e-10
1.6764e-10
1.45238e-10
4.95346e-12
3.29803e-12
2.16433e-12
1.28406e-12
8.54625e-13
7.59991e-13
9.11271e-13
1.05485e-12
1.14856e-12
1.10152e-12
9.92987e-13
8.12222e-13
1.22368e-12
4.18592e-12
2.85165e-11
8.42323e-11
1.62873e-10
1.77313e-10
1.64255e-10
1.52387e-10
1.45708e-10
1.36496e-10
1.19607e-10
4.93334e-12
3.38065e-12
2.15364e-12
1.21048e-12
6.32717e-13
4.1557e-13
4.35868e-13
5.86522e-13
7.38565e-13
7.89727e-13
7.40515e-13
5.8094e-13
5.40861e-13
1.3634e-12
4.00647e-12
1.62149e-11
4.11115e-11
7.35679e-11
8.84798e-11
9.28715e-11
8.86876e-11
7.79529e-11
5.98309e-11
4.83862e-12
3.5119e-12
2.29706e-12
1.28733e-12
6.1707e-13
2.93745e-13
2.07575e-13
2.86551e-13
4.33872e-13
5.21842e-13
5.11649e-13
4.05086e-13
3.10847e-13
4.49748e-13
1.23564e-12
4.12042e-12
5.56679e-12
1.08597e-11
1.46225e-11
1.63948e-11
1.62993e-11
1.36622e-11
1.15687e-11
4.51493e-12
3.38245e-12
2.2094e-12
1.21649e-12
5.6133e-13
2.29394e-13
1.10965e-13
1.3005e-13
2.30396e-13
3.12292e-13
3.19473e-13
2.56435e-13
1.85074e-13
1.78506e-13
3.35201e-13
9.80835e-13
1.74365e-12
3.049e-12
3.85996e-12
4.20159e-12
4.73748e-12
5.38045e-12
6.63314e-12
3.82931e-12
2.88061e-12
1.82281e-12
9.65094e-13
4.28264e-13
1.63638e-13
6.32222e-14
5.70101e-14
1.10573e-13
1.64595e-13
1.75756e-13
1.43573e-13
1.01898e-13
7.94684e-14
9.91528e-14
2.26248e-13
4.61484e-13
8.15436e-13
1.10393e-12
1.46642e-12
2.20408e-12
3.2484e-12
4.85101e-12
2.82539e-12
2.10742e-12
1.26917e-12
6.39684e-13
2.72613e-13
9.99347e-14
3.44033e-14
2.40878e-14
4.83654e-14
7.64978e-14
8.45354e-14
7.0463e-14
4.99576e-14
3.49723e-14
3.26743e-14
5.60633e-14
1.17654e-13
2.27309e-13
3.74977e-13
6.56709e-13
1.16927e-12
1.9229e-12
3.2095e-12
1.76435e-12
1.30112e-12
7.40192e-13
3.53769e-13
1.44525e-13
5.1269e-14
1.66362e-14
9.60375e-15
1.93294e-14
3.18517e-14
3.60276e-14
3.04881e-14
2.15265e-14
1.41079e-14
1.10301e-14
1.53515e-14
3.26453e-14
7.11646e-14
1.45056e-13
2.99734e-13
5.65105e-13
9.92547e-13
1.75531e-12
9.27492e-13
6.76068e-13
3.6417e-13
1.659e-13
6.52269e-14
2.24927e-14
7.03861e-15
3.54296e-15
7.0796e-15
1.20253e-14
1.37748e-14
1.17139e-14
8.14841e-15
5.06749e-15
3.53553e-15
4.41958e-15
9.83496e-15
2.38571e-14
5.57863e-14
1.23424e-13
2.39951e-13
4.36116e-13
7.70408e-13
4.14984e-13
2.98293e-13
1.53349e-13
6.71202e-14
2.55211e-14
8.57093e-15
2.60831e-15
1.1943e-15
2.38331e-15
4.14516e-15
4.76068e-15
4.01544e-15
2.72413e-15
1.61262e-15
1.03807e-15
1.25088e-15
2.96154e-15
7.75241e-15
1.96027e-14
4.46015e-14
8.82417e-14
1.59937e-13
2.66801e-13
1.60715e-13
1.13353e-13
5.60874e-14
2.37374e-14
8.7608e-15
2.86837e-15
8.51596e-16
3.65862e-16
7.37991e-16
1.30747e-15
1.49296e-15
1.23558e-15
8.11014e-16
4.5662e-16
2.76005e-16
3.33235e-16
8.38189e-16
2.30981e-15
6.0961e-15
1.39325e-14
2.77607e-14
4.86082e-14
7.30289e-14
5.47521e-14
3.76598e-14
1.8044e-14
7.41158e-15
2.66e-15
8.48858e-16
2.4595e-16
1.01578e-16
2.1037e-16
3.77624e-16
4.2596e-16
3.43368e-16
2.16898e-16
1.16098e-16
6.64783e-17
8.16922e-17
2.16069e-16
6.17756e-16
1.66599e-15
3.79569e-15
7.49678e-15
1.21687e-14
1.59348e-14
1.66293e-14
1.10865e-14
5.16029e-15
2.06111e-15
7.1993e-16
2.2377e-16
6.32344e-17
2.56094e-17
5.52417e-17
9.99198e-17
1.10767e-16
8.64925e-17
5.23845e-17
2.66208e-17
1.45181e-17
1.83103e-17
5.04787e-17
1.47759e-16
4.00139e-16
8.98058e-16
1.70557e-15
2.5008e-15
2.82254e-15
4.5497e-15
2.9226e-15
1.3225e-15
5.1389e-16
1.74677e-16
5.28233e-17
1.45411e-17
5.87967e-18
1.33736e-17
2.42691e-17
2.63184e-17
1.98407e-17
1.14927e-17
5.5415e-18
2.88834e-18
3.73777e-18
1.06295e-17
3.14444e-17
8.45131e-17
1.84944e-16
3.31004e-16
4.30253e-16
4.11501e-16
1.13076e-15
6.95894e-16
3.05899e-16
1.15595e-16
3.82132e-17
1.12305e-17
3.008e-18
1.23512e-18
2.98871e-18
5.42095e-18
5.72872e-18
4.1591e-18
2.29955e-18
1.05134e-18
5.24256e-19
6.95187e-19
2.02293e-18
5.98694e-18
1.5774e-17
3.31519e-17
5.46896e-17
6.228e-17
5.0303e-17
2.56986e-16
1.50671e-16
6.4231e-17
2.35812e-17
7.5731e-18
2.16007e-18
5.62277e-19
2.38562e-19
6.17712e-19
1.11586e-18
1.14612e-18
7.99766e-19
4.21675e-19
1.82724e-19
8.72085e-20
1.17944e-19
3.4793e-19
1.01945e-18
2.6033e-18
5.19105e-18
7.79961e-18
7.73179e-18
5.25269e-18
5.37056e-17
2.98336e-17
1.23087e-17
4.38494e-18
1.36636e-18
3.77684e-19
9.54433e-20
4.25921e-20
1.18283e-19
2.12182e-19
2.11382e-19
1.4157e-19
7.11254e-20
2.92012e-20
1.33301e-20
1.82882e-20
5.42527e-20
1.56034e-19
3.82618e-19
7.15228e-19
9.67622e-19
8.31468e-19
4.75557e-19
1.03689e-17
5.42941e-18
2.16326e-18
7.46864e-19
2.25513e-19
6.03175e-20
1.47838e-20
7.06645e-21
2.10279e-20
3.73721e-20
3.606e-20
2.31548e-20
1.1077e-20
4.30637e-21
1.87745e-21
2.5994e-21
7.69652e-21
2.15735e-20
5.03751e-20
8.74707e-20
1.05816e-19
7.8734e-20
3.79544e-20
1.85735e-18
9.1238e-19
3.50295e-19
1.17054e-19
3.42037e-20
8.83932e-21
2.09993e-21
1.09502e-21
3.47909e-21
6.11535e-21
5.7101e-21
3.51215e-21
1.59868e-21
5.88119e-22
2.44503e-22
3.39963e-22
9.98005e-22
2.7089e-21
5.9838e-21
9.58193e-21
1.03144e-20
6.65392e-21
2.71292e-21
3.09921e-19
1.42204e-19
5.25033e-20
1.69594e-20
4.78959e-21
1.19429e-21
2.74912e-22
1.5926e-22
5.37283e-22
9.32695e-22
8.4219e-22
4.95719e-22
2.14476e-22
7.45801e-23
2.95305e-23
4.11155e-23
1.19071e-22
3.11118e-22
6.46075e-22
9.48712e-22
9.06901e-22
5.08874e-22
1.76214e-22
4.83588e-20
2.06453e-20
7.31624e-21
2.28187e-21
6.22098e-22
1.49483e-22
3.33447e-23
2.18385e-23
7.76931e-23
1.33067e-22
1.16117e-22
6.53483e-23
2.68388e-23
8.80863e-24
3.31911e-24
4.62163e-24
1.31402e-23
3.29055e-23
6.40082e-23
8.5906e-23
7.28823e-23
3.572e-23
1.05595e-23
7.08266e-21
2.80381e-21
9.51977e-22
2.8639e-22
7.52887e-23
1.74126e-23
3.76655e-24
2.83505e-24
1.05545e-23
1.78258e-23
1.50281e-23
8.08209e-24
3.14789e-24
9.73963e-25
3.49088e-25
4.85613e-25
1.35001e-24
3.22677e-24
5.85753e-24
7.17861e-24
5.42038e-24
2.33141e-24
5.93362e-25
9.77315e-22
3.57736e-22
1.16199e-22
3.36863e-23
8.53009e-24
1.8965e-24
3.98214e-25
3.49528e-25
1.35129e-24
2.24999e-24
1.83186e-24
9.40522e-25
3.46981e-25
1.01084e-25
3.45251e-26
4.81033e-26
1.30324e-25
2.96231e-25
5.00824e-25
5.59659e-25
3.76257e-25
1.42556e-25
3.17014e-26
1.27522e-22
4.30695e-23
1.33614e-23
3.72882e-24
9.08349e-25
1.9385e-25
3.9565e-26
4.10577e-26
1.63713e-25
2.68678e-25
2.11174e-25
1.03441e-25
3.61084e-26
9.89156e-27
3.22718e-27
4.51643e-27
1.18925e-26
2.56947e-26
4.05012e-26
4.13585e-26
2.48613e-26
8.30444e-27
1.64923e-27
1.57836e-23
4.91644e-24
1.45507e-24
3.90528e-25
9.14136e-26
1.87002e-26
3.71744e-27
4.6077e-27
1.88208e-26
3.04354e-26
2.30747e-26
1.07688e-26
3.5514e-27
9.13761e-28
2.86509e-28
4.05655e-28
1.03572e-27
2.1234e-27
3.11998e-27
2.92307e-27
1.58265e-27
4.69899e-28
9.74255e-29
1.86025e-24
5.34468e-25
1.50608e-25
3.87728e-26
8.69117e-27
1.69759e-27
3.29249e-28
4.96712e-28
2.06904e-27
3.29102e-27
2.39584e-27
1.05843e-27
3.27353e-28
7.86198e-29
2.3983e-29
3.51011e-29
8.69175e-29
1.69064e-28
2.31885e-28
1.99702e-28
9.75275e-29
2.60496e-29
1.00316e-29
2.0967e-25
5.57172e-26
1.49404e-26
3.68249e-27
7.88499e-28
1.4664e-28
2.7877e-29
5.17831e-29
2.18729e-28
3.41637e-28
2.37882e-28
9.89352e-29
2.85192e-29
6.35842e-30
1.91145e-30
2.9253e-30
7.00175e-30
1.2898e-29
1.65199e-29
1.31078e-29
5.79228e-30
1.4784e-30
2.10922e-30
2.27564e-26
5.60653e-27
1.42597e-27
3.3466e-28
6.80101e-29
1.19513e-29
2.24267e-30
5.27138e-30
2.24489e-29
3.42783e-29
2.2587e-29
8.71239e-30
2.29983e-30
4.68356e-31
1.43509e-31
2.37657e-31
5.48187e-31
9.5259e-31
1.13476e-30
8.23127e-31
3.24939e-31
1.22682e-31
1.14209e-30
0.0373022
0.0450099
0.0419191
0.0361469
8.77998e-05
0.000110004
9.9099e-05
9.87413e-05
8.83065e-05
9.72327e-05
0.000100962
0.000101398
6.52333e-05
8.00264e-05
9.02552e-05
9.67978e-05
5.52367e-05
7.42381e-05
8.64583e-05
9.72337e-05
2.3655e-05
3.86806e-05
5.49065e-05
7.4387e-05
1.05772e-07
1.6533e-06
1.18653e-05
3.58041e-05
4.01344e-10
2.95445e-10
3.10095e-10
2.29014e-10
3.79599e-10
2.69157e-10
2.34057e-10
2.14453e-10
5.02717e-10
3.39972e-10
2.4882e-10
2.0844e-10
4.15708e-10
3.13237e-10
2.59241e-10
2.05467e-10
1.90215e-10
1.3976e-10
1.29209e-10
1.2277e-10
9.85019e-11
9.85204e-11
9.81606e-11
9.60262e-11
1.27099e-10
1.1308e-10
1.07627e-10
1.02505e-10
1.30442e-10
1.20914e-10
1.11351e-10
1.00983e-10
1.04065e-10
9.02272e-11
7.66026e-11
6.15984e-11
4.44466e-11
2.89289e-11
2.49556e-11
2.31197e-11
1.09241e-11
1.10996e-11
1.166e-11
1.26655e-11
7.38633e-12
8.39733e-12
9.76853e-12
1.15752e-11
5.78875e-12
7.01044e-12
8.61466e-12
1.06364e-11
3.9912e-12
5.00358e-12
6.279e-12
7.7745e-12
2.20964e-12
2.76459e-12
3.40348e-12
4.06128e-12
9.56053e-13
1.16089e-12
1.36356e-12
1.53035e-12
3.19683e-13
3.694e-13
4.0719e-13
4.24637e-13
8.30242e-14
8.99704e-14
9.20916e-14
8.86112e-14
1.69726e-14
1.70775e-14
1.61253e-14
1.42602e-14
2.79439e-15
2.5926e-15
2.24691e-15
1.82201e-15
3.75249e-16
3.19183e-16
2.53295e-16
1.88544e-16
4.19822e-17
3.26077e-17
2.36654e-17
1.6216e-17
3.98656e-18
2.8179e-18
1.87132e-18
1.18631e-18
3.26797e-19
2.09907e-19
1.27772e-19
7.53511e-20
2.35239e-20
1.37082e-20
7.65348e-21
4.21144e-21
1.51077e-21
7.96229e-22
4.06948e-22
2.09397e-22
8.7684e-23
4.15471e-23
1.94008e-23
9.85689e-24
4.65242e-24
1.96986e-24
8.97022e-25
9.19854e-25
2.28517e-25
9.09163e-26
8.5951e-26
4.54337e-25
1.08104e-26
7.37519e-27
3.68232e-26
3.18406e-25
6.82793e-28
2.34392e-27
2.12487e-26
2.04912e-25
1.27966e-28
1.10907e-27
1.1426e-26
1.19471e-25
4.75552e-29
5.10473e-28
5.69096e-27
6.48751e-26
1.92763e-29
2.27175e-28
2.82918e-27
3.78853e-26
2.66945e-29
3.97441e-28
5.93744e-27
8.56323e-26
0.00152302
0.000114968
0.000106561
2.94491e-05
2.60613e-05
2.84592e-05
3.64804e-05
3.97941e-05
3.50415e-05
3.35513e-05
4.26142e-05
5.57625e-05
0.000296162
0.0012313
0.00119177
0.000961079
0.00117193
0.00145118
0.00151978
9.77483e-05
9.6501e-05
5.68078e-05
4.73011e-05
2.66362e-05
2.83639e-05
3.65692e-05
4.55462e-05
6.25042e-05
6.87481e-05
0.000126857
0.000178657
0.00078639
0.00130489
0.00130217
0.000631793
0.000280304
0.000182374
0.000370644
0.000101283
7.80821e-05
4.91964e-05
3.51796e-05
3.22849e-05
3.1506e-05
5.11816e-05
0.000143192
0.000333311
0.000520242
0.000578193
0.000715642
0.000941816
0.000934742
0.000622723
0.0010615
0.000169117
0.00010837
0.00014422
0.000101451
0.000102648
8.00091e-05
5.52375e-05
5.1648e-05
8.14008e-05
0.000232778
0.000460893
0.00062093
0.000696728
0.000720144
0.000862493
0.000858468
0.000388253
0.000219531
0.000910802
0.000114666
8.40859e-05
0.000105125
0.000118045
0.000142468
0.000149111
0.000144684
0.000159618
0.000263528
0.000410863
0.000495456
0.000491653
0.000448848
0.000432634
0.000563662
0.000348887
0.000194364
8.17411e-05
4.50168e-05
4.66632e-05
7.03869e-05
0.000117705
0.00011802
0.000161941
0.00019552
0.000213756
0.000238577
0.000306319
0.000329217
0.000296688
0.00023894
0.000195941
0.000169825
0.000159908
0.000147068
0.000109709
6.21013e-05
3.86331e-05
2.65078e-05
2.47896e-05
3.14154e-05
7.764e-05
0.000121286
0.000185996
0.000209173
0.000214998
0.000206327
0.00018618
0.000155426
0.000122428
0.000106442
9.3741e-05
8.51123e-05
7.43478e-05
5.35345e-05
4.24062e-05
1.21533e-05
4.3733e-06
1.17993e-06
1.07912e-06
1.05903e-05
5.45636e-05
0.000101644
0.000127654
0.000128296
0.000111442
9.65419e-05
8.72194e-05
7.85688e-05
6.9656e-05
5.1862e-05
4.31205e-05
3.87141e-05
2.21868e-05
5.34251e-06
2.65926e-07
1.03295e-08
3.00891e-09
2.66058e-09
1.50759e-07
3.99715e-06
2.40002e-05
4.563e-05
5.21148e-05
4.70205e-05
4.13897e-05
3.46511e-05
2.71053e-05
1.7357e-05
8.32257e-06
3.79933e-06
1.3057e-06
2.15428e-07
1.38225e-08
3.18324e-09
2.18261e-09
1.31708e-09
1.31758e-09
1.51622e-09
8.09794e-08
1.18439e-06
5.37846e-06
8.55942e-06
8.51878e-06
5.68607e-06
3.35684e-06
1.22397e-06
2.19668e-07
2.58354e-08
6.12989e-09
5.17895e-09
7.1427e-09
8.00173e-09
7.38456e-09
5.66762e-09
2.43209e-09
1.45128e-09
1.78218e-10
3.37426e-10
9.01666e-09
7.26745e-08
1.70736e-07
2.02055e-07
9.76971e-08
1.58072e-08
4.90537e-09
2.46854e-09
2.47852e-09
3.55777e-09
5.17927e-09
8.48235e-09
1.1171e-08
1.11587e-08
9.31079e-09
3.71172e-09
1.7823e-09
1.11589e-10
8.96239e-11
7.70362e-11
1.71921e-10
1.07052e-09
2.46734e-09
4.68516e-09
4.46778e-09
2.78766e-09
2.20306e-09
3.27398e-09
5.14849e-09
7.1032e-09
7.12233e-09
8.79334e-09
1.03003e-08
8.58794e-09
4.66225e-09
1.87802e-09
9.25138e-11
8.78668e-11
7.717e-11
6.9273e-11
7.87492e-11
3.56951e-10
1.87229e-09
4.53784e-09
4.27207e-09
2.01472e-09
2.01835e-09
2.3259e-09
2.84187e-09
3.07165e-09
5.826e-09
8.21772e-09
7.88546e-09
5.23632e-09
1.92065e-09
9.52064e-11
8.8098e-11
8.14372e-11
6.92641e-11
5.25359e-11
6.30597e-11
1.40051e-10
2.15836e-09
8.33808e-09
7.11425e-09
3.35345e-09
3.12419e-09
3.29569e-09
2.73486e-09
3.0511e-09
6.15912e-09
6.89056e-09
5.12895e-09
1.97777e-09
8.46488e-11
6.75814e-11
6.38237e-11
6.40669e-11
5.22611e-11
4.21271e-11
4.73004e-11
7.51419e-10
7.4895e-09
1.06132e-08
9.57757e-09
7.79588e-09
6.00732e-09
3.19328e-09
3.07713e-09
4.76917e-09
5.51991e-09
3.48383e-09
1.84644e-09
4.53945e-11
3.77685e-11
4.31833e-11
4.74136e-11
4.51618e-11
3.80191e-11
3.45376e-11
2.70145e-10
5.48728e-09
9.48416e-09
7.16629e-09
4.73606e-09
3.58398e-09
3.05396e-09
3.3929e-09
4.38767e-09
3.88613e-09
2.6279e-09
1.74423e-09
2.17296e-11
2.64525e-11
3.32589e-11
3.85071e-11
3.7193e-11
3.11091e-11
2.80595e-11
1.23525e-10
2.90535e-09
5.16308e-09
5.02876e-09
3.94366e-09
3.52353e-09
3.56478e-09
3.81231e-09
3.32988e-09
2.82261e-09
2.4448e-09
1.71364e-09
1.71762e-11
2.31527e-11
2.90424e-11
3.18049e-11
2.88054e-11
2.30223e-11
2.08757e-11
2.23961e-11
1.6328e-10
1.29328e-09
2.64559e-09
3.53231e-09
3.84743e-09
3.83392e-09
3.38793e-09
2.34126e-09
2.18986e-09
2.51838e-09
1.72987e-09
1.74524e-11
2.39015e-11
2.77211e-11
2.58061e-11
1.98742e-11
1.4367e-11
1.25527e-11
1.42409e-11
3.62749e-11
2.68507e-10
6.22803e-10
9.67224e-10
1.28022e-09
1.28066e-09
1.19385e-09
1.49597e-09
2.22092e-09
3.01807e-09
1.75013e-09
1.60651e-11
1.99537e-11
1.94334e-11
1.52792e-11
1.04113e-11
7.12773e-12
6.38892e-12
8.13057e-12
1.44673e-11
3.59035e-11
7.39901e-11
1.31156e-10
2.54959e-10
4.911e-10
8.993e-10
1.59769e-09
2.9127e-09
3.46453e-09
1.74114e-09
1.06978e-11
1.13077e-11
9.35073e-12
6.45733e-12
4.0669e-12
2.75212e-12
2.64623e-12
3.67188e-12
6.03102e-12
1.09326e-11
2.67684e-11
7.84217e-11
2.35688e-10
6.10203e-10
1.2231e-09
2.44882e-09
4.17727e-09
4.2679e-09
1.64329e-09
4.8133e-12
4.32953e-12
3.11359e-12
1.95413e-12
1.20125e-12
8.75512e-13
9.63516e-13
1.49592e-12
2.91563e-12
7.7118e-12
2.75618e-11
1.03134e-10
3.39175e-10
9.11535e-10
1.78296e-09
3.79319e-09
5.01102e-09
4.58554e-09
1.35135e-09
1.52086e-12
1.1791e-12
7.61885e-13
4.52661e-13
2.90966e-13
2.50948e-13
3.35189e-13
6.24026e-13
1.64901e-12
6.71637e-12
3.30277e-11
1.40929e-10
4.41791e-10
1.51653e-09
2.82153e-09
5.11006e-09
5.72628e-09
4.33149e-09
8.56819e-10
3.55554e-13
2.41343e-13
1.43783e-13
8.58131e-14
6.34025e-14
6.77552e-14
1.10614e-13
2.68829e-13
1.07633e-12
6.31794e-12
3.91751e-11
1.8202e-10
5.14582e-10
2.33416e-09
4.94744e-09
6.95456e-09
6.3267e-09
3.07576e-09
5.46044e-10
6.35166e-14
3.85274e-14
2.21596e-14
1.4403e-14
1.29981e-14
1.70129e-14
3.44876e-14
1.25876e-13
7.5806e-13
5.79575e-12
4.25579e-11
2.13723e-10
5.68639e-10
2.89861e-09
8.10097e-09
8.99415e-09
6.38019e-09
2.23488e-09
5.33905e-10
8.90833e-15
4.99262e-15
2.96017e-15
2.25083e-15
2.46445e-15
3.82927e-15
1.01922e-14
6.2509e-14
5.03247e-13
4.82387e-12
4.03936e-11
2.25313e-10
6.78158e-10
3.41119e-09
8.87448e-09
8.99318e-09
5.36277e-09
2.53641e-09
6.14909e-10
1.01081e-15
5.47927e-16
3.57272e-16
3.25198e-16
4.15856e-16
7.54267e-16
2.86537e-15
2.98361e-14
2.88824e-13
3.41897e-12
3.07113e-11
1.84377e-10
7.16495e-10
2.60865e-09
8.10528e-09
8.74559e-09
5.23723e-09
3.70353e-09
6.81678e-10
9.52023e-17
5.25671e-17
3.94164e-17
4.21843e-17
6.10015e-17
1.31993e-16
7.65476e-16
1.16871e-14
1.31595e-13
1.95933e-12
1.5589e-11
8.48107e-11
4.2143e-10
1.80669e-09
5.39264e-09
8.26674e-09
7.25634e-09
4.31306e-09
5.57836e-10
7.66385e-18
4.52097e-18
3.94933e-18
4.82132e-18
7.94359e-18
2.26173e-17
1.81671e-16
3.12423e-15
4.39298e-14
8.44483e-13
6.29179e-12
2.6446e-11
1.56559e-10
1.41847e-09
4.26696e-09
6.40374e-09
6.97804e-09
2.99266e-09
4.18978e-10
5.40249e-19
3.53396e-19
3.59186e-19
5.17794e-19
1.22656e-18
6.25703e-18
5.8258e-17
7.56576e-16
1.27582e-14
2.68094e-13
2.12337e-12
9.74996e-12
3.65397e-11
7.54018e-10
2.69103e-09
4.86266e-09
4.62837e-09
1.43037e-09
2.25587e-10
3.40188e-20
2.57798e-20
3.44876e-20
9.71653e-20
6.12595e-19
5.57484e-18
5.58785e-17
5.62434e-16
5.89074e-15
8.12252e-14
7.64914e-13
3.66513e-12
1.40477e-11
1.59868e-10
1.20977e-09
2.54666e-09
1.40384e-09
3.9621e-10
6.32819e-11
1.98694e-21
2.31004e-21
8.79465e-21
7.21681e-20
7.34377e-19
7.82333e-18
8.09153e-17
7.57596e-16
6.14417e-15
4.58939e-14
3.31252e-13
1.68366e-12
7.71045e-12
2.83468e-11
2.31589e-10
4.50933e-10
3.65881e-10
8.26444e-11
2.18179e-11
1.5333e-22
7.32236e-22
7.28293e-21
8.21609e-20
9.46253e-19
1.06278e-17
1.09942e-16
9.89449e-16
7.40082e-15
4.54299e-14
2.27097e-13
1.32057e-12
6.16563e-12
1.63549e-11
3.96173e-11
6.6806e-11
6.86716e-11
2.08721e-11
8.91212e-12
4.78448e-23
5.69786e-22
7.15179e-21
8.99247e-20
1.09821e-18
1.24849e-17
1.25996e-16
1.08442e-15
7.68179e-15
4.47829e-14
2.03705e-13
1.64906e-12
7.49771e-12
1.62719e-11
2.64036e-11
3.28149e-11
2.08894e-11
8.51444e-12
4.01934e-12
3.23064e-23
4.62563e-22
6.40626e-21
8.53472e-20
1.06103e-18
1.18536e-17
1.14932e-16
9.45179e-16
6.39389e-15
3.64848e-14
1.76668e-13
1.82214e-12
6.84228e-12
1.31775e-11
1.87715e-11
1.78812e-11
8.4505e-12
3.73718e-12
1.67623e-12
2.14604e-23
3.30442e-22
4.82001e-21
6.53692e-20
8.01896e-19
8.65525e-18
8.02429e-17
6.32436e-16
4.11865e-15
2.3055e-14
1.09536e-13
1.12491e-12
4.10213e-12
7.16735e-12
9.42198e-12
7.16949e-12
2.82978e-12
1.32194e-12
5.59832e-13
1.2525e-23
2.01017e-22
2.99984e-21
4.04786e-20
4.83865e-19
5.02391e-18
4.45308e-17
3.35045e-16
2.08213e-15
1.10373e-14
4.58281e-14
3.49663e-13
1.45401e-12
2.29129e-12
2.84637e-12
1.83339e-12
8.96785e-13
3.77054e-13
1.90718e-13
6.37033e-24
1.05388e-22
1.60244e-21
2.1703e-20
2.58024e-19
2.63999e-18
2.26236e-17
1.59793e-16
9.06488e-16
4.20546e-15
1.57246e-14
6.40521e-14
2.76492e-13
4.18774e-13
4.48599e-13
3.25929e-13
1.93727e-13
8.38177e-14
7.34817e-14
2.91432e-24
5.06651e-23
8.1572e-22
1.17632e-20
1.48444e-19
1.56343e-18
1.29762e-17
8.29787e-17
4.09759e-16
1.55e-15
4.81433e-15
1.10321e-14
3.37908e-14
4.43703e-14
4.50389e-14
3.56772e-14
2.54111e-14
1.53889e-14
3.27784e-14
1.28621e-24
2.56355e-23
4.838e-22
7.95203e-21
1.0727e-19
1.11012e-18
8.38377e-18
4.62435e-17
1.94318e-16
5.85933e-16
1.48459e-15
2.45334e-15
4.76692e-15
5.09294e-15
5.10589e-15
4.41126e-15
4.02243e-15
3.57492e-15
1.47725e-14
7.00719e-25
1.88365e-23
4.07818e-22
6.5748e-21
7.90843e-20
6.99376e-19
4.47204e-18
2.06637e-17
7.42921e-17
1.85614e-16
4.12526e-16
5.75402e-16
8.89964e-16
9.11632e-16
9.12417e-16
8.21522e-16
8.64068e-16
8.84891e-16
5.30322e-15
1.0826e-24
2.19658e-23
3.34353e-22
3.81245e-21
3.30958e-20
2.21804e-19
1.16463e-18
4.57236e-18
1.45746e-17
3.169e-17
6.4359e-17
8.13739e-17
1.14305e-16
1.12676e-16
1.09406e-16
9.87082e-17
1.1466e-16
1.28051e-16
1.00921e-15
)
;

boundaryField
{
    leftWall
    {
        type            zeroGradient;
    }
    rightWall
    {
        type            zeroGradient;
    }
    lowerWall
    {
        type            zeroGradient;
    }
    atmosphere
    {
        type            inletOutlet;
        inletValue      uniform 0;
        value           nonuniform List<scalar> 
46
(
2.27564e-26
5.60653e-27
1.42597e-27
3.3466e-28
6.80101e-29
1.19513e-29
2.24267e-30
5.27138e-30
2.24489e-29
3.42783e-29
2.2587e-29
8.71239e-30
2.29983e-30
4.68356e-31
1.43509e-31
2.37657e-31
5.48187e-31
9.5259e-31
1.13476e-30
8.23127e-31
3.24939e-31
1.22682e-31
1.14209e-30
2.66945e-29
0
0
0
0
0
0
0
0
0
0
0
0
0
0
0
0
0
0
0
0
0
0
)
;
    }
    defaultFaces
    {
        type            empty;
    }
}


// ************************************************************************* //
