/*--------------------------------*- C++ -*----------------------------------*\
| =========                 |                                                 |
| \\      /  F ield         | OpenFOAM: The Open Source CFD Toolbox           |
|  \\    /   O peration     | Version:  2.4.0                                 |
|   \\  /    A nd           | Web:      www.OpenFOAM.org                      |
|    \\/     M anipulation  |                                                 |
\*---------------------------------------------------------------------------*/
FoamFile
{
    version     2.0;
    format      ascii;
    class       volScalarField;
    location    "0.95";
    object      p;
}
// * * * * * * * * * * * * * * * * * * * * * * * * * * * * * * * * * * * * * //

dimensions      [1 -1 -2 0 0 0 0];

internalField   nonuniform List<scalar> 
2268
(
7687.55
7428.56
7024.4
6639.06
6322.37
6044.83
5818.66
5636.54
5497.07
5404.18
5348.53
5324.26
5318.34
5325.22
5339.89
5357.22
5374.41
5394.4
5409.22
5419.69
5425.36
5431.14
5438.23
6675.96
6488.33
6170.12
5814.62
5500.03
5234.51
5012.44
4830.05
4690.87
4599.91
4539.46
4506.88
4496.83
4501.06
4518.86
4545.83
4575.35
4598.12
4611.08
4619.65
4626.06
4621.77
4630.91
6097.55
5795.91
5390.43
5011.02
4690.84
4415.74
4187.55
4005.64
3869.2
3787.29
3749.48
3739.36
3745
3759.54
3775.88
3787.2
3794.04
3799.98
3807.71
3813.97
3824.46
3854.8
3852.3
5063.23
4853.92
4507.77
4157.49
3848.7
3578.7
3354.56
3172.65
3034.13
2941.9
2885.64
2847.04
2829.49
2838.55
2867.6
2903.71
2937.85
2972.49
2999.4
3003.34
2998.12
2996.28
3044.39
3779.27
3812.12
3553.89
3257.97
2994.02
2731.26
2522.9
2354.12
2229.29
2153.79
2128.03
2160.6
2201.56
2230
2248.3
2261.16
2271.57
2277.41
2269.86
2252.92
2245.37
2318.67
2244.38
2477.48
2620.56
2543.54
2372.23
2089.99
1790.3
1546.9
1367.79
1280.96
1260.67
1229.5
1171.44
1129.62
1142.48
1185.68
1231.86
1264.55
1292.23
1306.5
1290.32
1284.24
1347.43
1547.87
1603.75
1437.35
1380.62
1226.62
1108.16
991.996
931.647
905.505
893.547
873.082
846.514
819.092
799.27
786.38
774.471
771.326
787.415
813.732
844.411
875.737
906.131
967.468
928.403
1208.81
821.634
621.555
606.109
706.827
799.167
868.927
905.69
952.353
964.37
956.797
931.409
897.596
872.243
859.885
874.566
897.507
927.631
963.475
991.944
1015.73
1085.19
1099.42
1336.24
1198.96
1160.51
1198.55
1221.4
1263.15
1378.3
1537.63
1828.97
2436.32
2853.93
3253.15
3601.96
3935.79
4122.54
4635.91
5306.25
5325.96
5486.64
856.64
789.404
739.395
720.418
727.127
751.057
805.017
871.682
954.145
1093.09
1451.23
1927.86
2407.94
2670.22
2828.79
3399.62
4195.38
4221.53
4452.15
841.639
870.075
913.847
938.529
968.842
1014.99
1087.04
1169.74
1282.16
1260.19
1407.89
1741.64
1941.61
2232.99
2543.81
2901.84
3626.69
3719.86
3812.56
808.011
791.464
748.152
725.479
713.243
727.478
765.026
816.947
893.592
939.719
828.137
853.457
936.126
1200.98
1494.82
2106.27
2809.76
2811.24
3011.29
780.461
777.193
790.446
815.831
846.283
874.039
929.58
969.255
968.139
887.16
749.695
719.139
714.616
741.941
938.45
1677.68
2156.63
2242.16
2265.22
753.242
746.028
717.735
699.898
694.923
715.863
752.681
793.254
846.709
837.697
751.144
742.741
749.672
701.232
684.744
1090.69
1479.98
1546.96
1501.04
713.378
713.355
694.215
712.048
736.86
763.595
796.319
810.616
798.371
780.733
713.234
668.768
657.988
661.141
620.643
644.445
865.444
941.805
937.946
680.487
678.21
650.858
636.172
649.345
693.605
724.049
734.374
748.683
730.716
675.977
641.333
638.17
622.825
594.716
531.822
464.152
511.191
527.611
869.027
599.94
563.215
654.612
748.639
787.67
784.213
767.578
739.191
709.085
671.753
628.775
590.793
576.076
572.708
576.522
585.116
600.916
632.01
660.737
689.493
751.087
734.35
787.932
686.924
619.384
607.408
611.679
629.471
641.154
640.847
629.168
619.088
599.654
580.516
566.69
546.555
545.531
559.045
586.398
628.418
667.048
680.099
719.284
793.546
792.784
709.004
650.779
595.46
577.562
580.059
585.25
578.746
556.9
524.241
483.899
429.567
373.677
334.759
326.68
348.1
391.539
433.618
474.967
501.568
527.662
586.873
669.201
689.752
572.858
548.359
530.993
526.038
525.777
519.975
504.08
468.304
420.29
342.617
257.375
186.712
144.079
148.005
166.428
178.533
209.335
320.662
371.756
376.346
448.233
520.307
520.677
440.882
437.548
450.95
455.952
455.993
449.915
433.128
371.964
367.515
313.9
212.437
120.636
62.8986
42.7443
89.3352
153.387
133.938
182.563
235.529
264.633
310.214
336.961
307.989
361.115
351.618
368.011
372.068
371.607
371.139
373.455
331.641
273.586
223.645
164.117
95.9002
31.7756
10.0552
12.1577
32.125
62.3588
116.664
141.474
110.791
61.97
40.3147
27.5276
273.458
283.742
296.286
302.85
295.007
286.337
272.488
247.53
203.265
152.659
92.4732
32.4953
9.59546
3.84783
4.05064
5.01272
5.00614
8.53099
13.7695
11.9218
6.81065
2.44098
2.05661
198.046
221.269
244.42
239.442
229.433
215.753
190.68
150.062
121.372
94.1267
41.6588
14.9559
3.90428
4.30164
3.8778
3.2738
3.32068
3.27794
2.99886
3.03077
3.24063
3.56316
3.81531
70.5818
76.8208
205.915
177.885
157.075
119.706
54.9199
19.1631
11.567
12.5195
8.67685
3.10875
3.31472
3.96149
3.82104
3.53036
3.44199
3.27217
2.99891
3.0091
3.06573
2.9192
2.78341
12.3214
12.9204
25.6262
32.6374
33.9612
16.9383
6.96417
3.2365
3.03392
2.99954
3.12094
3.3168
3.52466
3.6278
3.37756
3.12171
3.06846
3.04273
2.96142
2.91481
2.81785
2.6598
2.67194
6.63237
6.07775
3.32681
2.51873
4.30258
3.39053
3.12495
3.61804
3.92266
4.08528
4.07385
3.87574
3.77143
3.49156
3.04267
2.81384
2.82336
2.84603
2.77953
2.64955
2.47385
2.25171
2.09348
5.33041
4.52589
2.97964
2.54317
2.75911
2.87956
2.85357
2.84616
3.13672
3.26494
3.3957
3.5918
3.71897
3.44644
2.97627
2.56215
2.5349
2.66182
2.63185
2.46145
2.2088
1.88898
1.61898
4.50014
4.0476
3.21316
2.89629
2.99039
3.03703
3.05519
3.19568
3.39791
3.51629
3.60388
3.62951
3.62465
3.38889
2.9834
2.54865
2.4368
2.48803
2.48419
2.30665
2.00662
1.6224
1.27194
3.94697
3.76036
3.4024
3.15297
3.08415
3.06691
3.06275
3.09002
3.1724
3.2824
3.37027
3.4379
3.4538
3.34369
3.05436
2.7019
2.50252
2.41611
2.36528
2.17737
1.88322
1.58828
1.31939
3.64826
3.54928
3.39249
3.21035
3.12119
3.07318
3.05517
3.06905
3.12134
3.19262
3.23758
3.27404
3.27994
3.2216
3.07982
2.80658
2.61228
2.45063
2.31569
2.15696
1.94839
1.74934
1.6451
3.43321
3.35027
3.27108
3.16097
3.0853
3.03599
3.01665
3.01962
3.0436
3.07807
3.10114
3.11179
3.10993
3.06752
2.97353
2.82403
2.64555
2.49414
2.36417
2.24791
2.11752
1.99865
1.952
3.24901
3.16954
3.1277
3.0614
3.01199
2.97367
2.95286
2.94537
2.95168
2.96333
2.97077
2.96655
2.95774
2.92127
2.85244
2.75657
2.63643
2.52164
2.43067
2.35295
2.26989
2.2034
2.17987
3.11781
3.04379
3.00697
2.96156
2.92642
2.89562
2.87336
2.85932
2.85467
2.85372
2.85033
2.84118
2.82519
2.79225
2.74103
2.676
2.60119
2.52186
2.46199
2.40545
2.34576
2.31422
2.31379
3.01997
2.96032
2.91435
2.87163
2.83909
2.81012
2.78612
2.76895
2.75667
2.74797
2.73866
2.7274
2.70703
2.67791
2.63922
2.59378
2.54285
2.48945
2.44487
2.3998
2.36145
2.34653
2.35005
2.91831
2.87927
2.82631
2.78271
2.74811
2.71794
2.69291
2.67373
2.65807
2.64549
2.63199
2.61886
2.59779
2.57221
2.54182
2.50782
2.47045
2.43247
2.39861
2.36499
2.33755
2.32963
2.33182
2.80066
2.77697
2.72665
2.68487
2.65019
2.61977
2.59452
2.57386
2.55648
2.54147
2.52753
2.51185
2.4924
2.47075
2.44593
2.41914
2.39051
2.36271
2.33719
2.31268
2.29425
2.28679
2.28665
2.66883
2.65451
2.61297
2.57703
2.54539
2.5161
2.49115
2.46992
2.45184
2.43583
2.42099
2.40532
2.38837
2.36963
2.34919
2.3277
2.30544
2.28427
2.26436
2.24598
2.23195
2.2251
2.22359
2.53086
2.52104
2.49049
2.46111
2.43256
2.40621
2.38296
2.36255
2.34468
2.32863
2.31373
2.29885
2.28355
2.26727
2.25031
2.23273
2.21501
2.19815
2.18234
2.16808
2.15733
2.15122
2.14884
2.39159
2.38412
2.36172
2.3386
2.31461
2.29178
2.27091
2.25206
2.23512
2.21968
2.20529
2.19131
2.17741
2.16321
2.14879
2.13417
2.11973
2.10602
2.09332
2.08206
2.07343
2.0682
2.06599
2.25316
2.24729
2.23079
2.21285
2.19332
2.17405
2.1558
2.13886
2.12326
2.10883
2.09534
2.08243
2.06985
2.05731
2.04491
2.03256
2.02057
2.00927
1.99896
1.99006
1.9832
1.97878
1.9768
2.11643
2.11175
2.0996
2.08566
2.06995
2.05393
2.03827
2.02336
2.00934
1.99621
1.98385
1.97207
1.96069
1.94958
1.93878
1.92825
1.91822
1.90885
1.90047
1.89324
1.88757
1.88409
1.88261
1.98158
1.97783
1.9688
1.95793
1.94536
1.93214
1.91887
1.90595
1.89358
1.88184
1.87068
1.86006
1.84988
1.84009
1.83068
1.82167
1.81317
1.80531
1.79834
1.79248
1.78806
1.78544
1.78414
1.84847
1.84549
1.83868
1.83016
1.82009
1.80923
1.79808
1.78701
1.77623
1.76587
1.75598
1.74654
1.73752
1.7289
1.7207
1.71292
1.70569
1.69911
1.69335
1.68852
1.68481
1.68244
1.68191
1.71683
1.71447
1.70925
1.70254
1.69446
1.68556
1.67625
1.66685
1.65757
1.64855
1.63987
1.63157
1.62365
1.61611
1.60898
1.60231
1.59616
1.59061
1.58579
1.58183
1.57887
1.57709
1.57673
1.58641
1.58455
1.58049
1.57516
1.56867
1.56139
1.55367
1.54575
1.53783
1.53006
1.52253
1.5153
1.50839
1.50184
1.49569
1.48998
1.48475
1.48009
1.47608
1.47284
1.47047
1.46912
1.46894
1.45699
1.45552
1.45234
1.4481
1.44287
1.43693
1.43054
1.4239
1.41721
1.41057
1.40411
1.39787
1.39192
1.38629
1.38102
1.37614
1.37172
1.36781
1.3645
1.36185
1.35996
1.35893
1.35889
1.32837
1.32721
1.3247
1.32132
1.3171
1.31226
1.307
1.30148
1.29586
1.29026
1.28476
1.27945
1.27437
1.26957
1.26509
1.26096
1.25724
1.25398
1.25124
1.24909
1.24759
1.24682
1.24686
1.20041
1.19949
1.1975
1.1948
1.1914
1.18747
1.18316
1.17861
1.17394
1.16925
1.16463
1.16015
1.15586
1.1518
1.14803
1.14457
1.14147
1.13878
1.13653
1.13479
1.1336
1.13302
1.13311
1.07297
1.07224
1.07067
1.06851
1.06579
1.06262
1.05911
1.05539
1.05155
1.04767
1.04383
1.0401
1.03652
1.03314
1.03
1.02714
1.02458
1.02236
1.02054
1.01913
1.0182
1.01777
1.01788
0.945948
0.945371
0.944133
0.942424
0.940256
0.937719
0.9349
0.931886
0.92876
0.925592
0.92245
0.919388
0.916451
0.913675
0.911098
0.908753
0.906673
0.904883
0.903416
0.9023
0.901566
0.901239
0.901352
0.819263
0.818819
0.817853
0.816514
0.814809
0.812805
0.810568
0.808165
0.805664
0.803122
0.800592
0.79812
0.795746
0.793505
0.791432
0.789551
0.787882
0.786452
0.785291
0.784419
0.783849
0.783602
0.783697
0.692839
0.692492
0.691748
0.690717
0.689404
0.687858
0.686128
0.684265
0.682315
0.680324
0.678337
0.676391
0.674521
0.672756
0.671121
0.669637
0.668327
0.667214
0.66631
0.66563
0.665189
0.664992
0.665041
0.566628
0.56637
0.565822
0.565057
0.56408
0.562927
0.561631
0.56023
0.558759
0.557253
0.555746
0.554266
0.552841
0.551494
0.550246
0.549116
0.548121
0.547272
0.54658
0.54606
0.545715
0.545545
0.545543
0.440572
0.440393
0.439999
0.439458
0.43877
0.437956
0.437039
0.436045
0.434998
0.433926
0.432851
0.431795
0.430775
0.429808
0.428908
0.42809
0.427363
0.42674
0.426231
0.425841
0.42557
0.425421
0.425392
0.314628
0.314523
0.314272
0.313922
0.313479
0.312953
0.312361
0.311719
0.311041
0.310345
0.309646
0.308958
0.30829
0.307654
0.30706
0.306517
0.306032
0.305613
0.305262
0.304982
0.304774
0.30463
0.304526
0.188741
0.188681
0.188553
0.188386
0.188164
0.187886
0.187575
0.18723
0.186865
0.186489
0.18611
0.185737
0.185377
0.185037
0.18472
0.184432
0.184175
0.183949
0.183756
0.1836
0.183475
0.183377
0.183315
0.0628946
0.0628657
0.0628214
0.0627729
0.0627174
0.0626363
0.0625766
0.0624839
0.062392
0.0622941
0.0621916
0.0620971
0.0620086
0.0619259
0.0618489
0.0617764
0.061706
0.0616403
0.0615791
0.0615177
0.0614552
0.0613853
0.0612871
785.698
797.673
787.881
761.967
721.032
675.81
640.393
612.49
650.979
624.846
594.74
562.474
495.122
478.088
466.331
448.983
314.72
320.726
317.186
304.48
32.5899
44.8656
91.8309
132.493
2.42244
2.0408
3.7191
12.5312
3.63289
3.38243
3.13336
3.15819
2.81122
2.90362
3.03059
2.96258
2.59973
2.60137
2.65547
2.73562
2.08488
2.11164
2.17015
2.27611
1.607
1.64946
1.74108
1.88645
1.27256
1.33403
1.46362
1.65927
1.34245
1.43765
1.58677
1.77875
1.6894
1.75968
1.86121
1.99184
1.98927
2.03187
2.08909
2.163
2.20337
2.22653
2.25557
2.29384
2.32732
2.33728
2.34928
2.36718
2.35739
2.36161
2.36836
2.37968
2.33794
2.3422
2.3471
2.35389
2.29006
2.29292
2.29659
2.30139
2.22574
2.22784
2.23064
2.23451
2.15022
2.1519
2.15407
2.15718
2.06693
2.06827
2.07017
2.07285
1.97757
1.97876
1.98045
1.98279
1.88333
1.88437
1.88588
1.88796
1.78485
1.7858
1.78715
1.78899
1.6827
1.68359
1.68483
1.68647
1.57752
1.57834
1.57946
1.58092
1.4697
1.47044
1.47145
1.47274
1.35959
1.36026
1.36115
1.36228
1.2475
1.24809
1.24886
1.24984
1.13368
1.13419
1.13485
1.13567
1.01836
1.01878
1.01933
1.02001
0.901736
0.902078
0.902516
0.903051
0.783984
0.784241
0.784571
0.784972
0.665249
0.665431
0.66566
0.665934
0.545673
0.545783
0.545919
0.546077
0.425423
0.425462
0.425507
0.425555
0.304485
0.304482
0.304459
0.304415
0.1833
0.183223
0.183133
0.182991
0.0611126
0.0609782
0.060805
0.0605891
654.868
645.65
602.748
613.422
641.431
659.328
684.187
693.984
678.409
664.632
614.239
584.831
578.373
572.627
555.832
566.344
609.983
640.693
658.341
579.059
549.893
505.133
512.511
545.546
580.241
604.424
602.279
588.217
568.689
535.993
502.099
505.675
477.959
434.978
391.671
384.029
422.807
455.866
512.6
460.773
428.049
447.77
487.813
518.204
532.914
518.689
494.127
464.603
431.634
403.953
408.303
380.761
355.416
332.495
308.335
323.75
341.523
410.319
369.594
361.127
386.834
428.555
457.678
458.628
436.382
404.997
368.941
331.16
311.346
321.54
315.376
295.266
263.955
244.725
238.519
247.164
289.87
280.461
294.108
335.244
369.168
386.437
379.385
355.025
323.638
286.887
249.126
238.73
248.212
244.593
221.483
189.273
164.505
148.891
148.281
170.974
186.906
224.738
266.91
293.973
303.208
296.433
278.611
255.466
229.119
206.653
194.622
187.777
176.022
146.102
98.9272
54.8869
37.0448
33.9469
41.409
106.18
153.411
186.797
213.46
224.828
221.501
207.525
186.001
163.43
151.744
144.092
127.016
89.9442
45.8515
18.4913
6.55344
4.37697
4.54437
3.95561
23.0423
71.6978
106.324
125.302
132.463
127.873
113.186
89.1652
58.606
40.7936
30.7464
24.0105
11.2466
5.39315
4.9594
5.25316
5.67066
5.76164
2.42664
3.16709
10.1984
32.0305
41.8351
44.7842
40.3404
27.8769
22.4217
12.0322
7.64458
3.18641
4.54929
4.48766
5.01817
5.51502
5.85964
5.56982
5.51474
2.88147
3.06864
3.0371
4.35807
8.77399
12.0617
10.0155
6.31564
2.52948
2.56282
2.81903
3.12953
3.49374
4.42775
4.85524
4.93531
5.06567
5.10242
5.1264
2.53475
2.99606
3.3511
3.37622
3.11557
2.91106
2.95971
3.27178
4.07757
4.24373
3.91692
3.24479
3.2309
3.87094
4.35676
4.61377
4.81642
4.84166
4.86141
2.19086
2.72468
3.21039
3.68542
4.19452
4.62419
4.52246
4.07015
3.62369
3.54184
3.43327
3.07802
3.0291
3.4019
3.81727
4.13601
4.40558
4.51076
4.54985
2.0329
2.62963
3.11875
3.45781
3.62217
3.5867
3.47634
3.48313
3.56844
3.58026
3.35509
3.016
2.8417
3.0597
3.44595
3.813
4.11573
4.24327
4.28158
2.13189
2.62983
3.04483
3.32502
3.48903
3.55298
3.57396
3.59001
3.55465
3.43251
3.23185
2.99977
2.90923
3.04256
3.30141
3.61694
3.89109
4.01371
4.06129
2.23426
2.59749
2.92974
3.16361
3.30334
3.37719
3.4034
3.40571
3.38234
3.30605
3.18657
3.08373
3.06306
3.1404
3.26119
3.49037
3.72573
3.83434
3.87739
2.31549
2.55781
2.80557
3.00682
3.13015
3.19556
3.22407
3.22993
3.2197
3.18259
3.13138
3.09147
3.08334
3.13782
3.24147
3.41737
3.58965
3.68444
3.71916
2.37632
2.51419
2.68406
2.85115
2.96964
3.03483
3.0693
3.08281
3.08653
3.06746
3.03991
3.03281
3.04798
3.1021
3.19929
3.33
3.46554
3.54012
3.55768
2.40679
2.47707
2.58606
2.71479
2.81927
2.88426
2.92352
2.94728
2.96433
2.96667
2.96743
2.97457
3.00296
3.05541
3.13424
3.236
3.33722
3.39123
3.40028
2.4
2.44153
2.51617
2.61105
2.69222
2.75166
2.79212
2.8216
2.84404
2.86294
2.87865
2.89921
2.93353
2.98669
3.05115
3.12213
3.1959
3.23867
3.25241
2.36614
2.3962
2.45052
2.51744
2.57922
2.63038
2.66995
2.70158
2.72784
2.75286
2.77443
2.80105
2.83824
2.88259
2.93202
2.98679
3.05275
3.09207
3.10552
2.31128
2.3348
2.37473
2.42369
2.47304
2.51545
2.55273
2.58441
2.61274
2.63921
2.66548
2.69217
2.72342
2.76006
2.79672
2.83916
2.9004
2.94436
2.962
2.24252
2.26175
2.2925
2.32939
2.36894
2.40531
2.43912
2.46957
2.49732
2.52406
2.55082
2.57749
2.60411
2.6316
2.65929
2.69059
2.7388
2.78299
2.80605
2.16415
2.18032
2.20459
2.23372
2.26532
2.29727
2.32671
2.35511
2.38172
2.40732
2.4319
2.45725
2.4825
2.49977
2.51653
2.53994
2.57367
2.61767
2.62822
2.0789
2.09261
2.11205
2.13548
2.16152
2.18872
2.21486
2.24054
2.2654
2.28895
2.31159
2.33426
2.35727
2.36945
2.37327
2.38751
2.41459
2.45151
2.45978
1.98805
1.99959
2.01559
2.03482
2.05658
2.07963
2.10258
2.12517
2.14822
2.16979
2.19046
2.21153
2.23139
2.23981
2.2379
2.24609
2.26685
2.29151
2.29852
1.89254
1.9023
1.9156
1.93164
1.94987
1.96939
1.98944
2.00918
2.03007
2.04941
2.06785
2.08721
2.10416
2.11228
2.11056
2.12123
2.13138
2.14144
2.14928
1.79298
1.80132
1.81248
1.82595
1.84131
1.85792
1.87521
1.89259
1.9104
1.92765
1.94376
1.96077
1.97473
1.98475
1.98941
1.99616
2.00288
2.002
2.0111
1.68997
1.69712
1.70655
1.71794
1.73091
1.74501
1.75985
1.77487
1.78996
1.80477
1.81873
1.83266
1.8448
1.8552
1.86358
1.86717
1.87078
1.87202
1.88026
1.58398
1.59012
1.59812
1.60775
1.61873
1.63069
1.64331
1.65614
1.66893
1.6813
1.6932
1.70421
1.71422
1.72387
1.73215
1.73685
1.73849
1.74225
1.74908
1.4754
1.48067
1.48745
1.4956
1.50487
1.51499
1.52568
1.53654
1.54725
1.55757
1.56707
1.57562
1.58269
1.58985
1.59676
1.60247
1.60637
1.61146
1.61638
1.36458
1.36907
1.37481
1.38166
1.38946
1.39798
1.40696
1.41616
1.42506
1.43357
1.4411
1.44688
1.45069
1.45315
1.45849
1.46721
1.47378
1.48001
1.48241
1.25181
1.2556
1.2604
1.26612
1.27261
1.27973
1.28722
1.29493
1.30244
1.30948
1.31591
1.31945
1.32042
1.31601
1.32032
1.33279
1.34157
1.34774
1.34908
1.13732
1.14047
1.14443
1.14913
1.15445
1.16029
1.16647
1.17282
1.17914
1.18498
1.1909
1.19333
1.19446
1.18432
1.1886
1.19924
1.21072
1.21532
1.21674
1.02136
1.02391
1.02709
1.03085
1.03511
1.03976
1.04471
1.04978
1.05494
1.05973
1.06469
1.06625
1.06519
1.0614
1.06662
1.07308
1.08194
1.08261
1.08531
0.904112
0.906103
0.908565
0.911458
0.91472
0.91827
0.922045
0.925896
0.929821
0.933598
0.937238
0.939499
0.938987
0.939688
0.945149
0.947121
0.951597
0.952258
0.954578
0.785762
0.787227
0.789019
0.791104
0.793437
0.79595
0.798631
0.80131
0.804114
0.806841
0.809022
0.811829
0.812009
0.813811
0.818083
0.818867
0.822585
0.822689
0.824754
0.66647
0.667443
0.668607
0.669935
0.671398
0.672945
0.674613
0.6762
0.677935
0.679582
0.680887
0.682542
0.683497
0.685813
0.689609
0.690188
0.693276
0.693818
0.695798
0.546378
0.546892
0.547467
0.54809
0.548742
0.549386
0.550004
0.550517
0.551405
0.552142
0.552967
0.554256
0.555462
0.557281
0.560374
0.561468
0.563788
0.564825
0.566815
0.425633
0.425717
0.425735
0.425696
0.425544
0.425197
0.425005
0.424775
0.424765
0.424871
0.425216
0.426081
0.427445
0.428867
0.430899
0.43232
0.434407
0.435707
0.437763
0.304306
0.304025
0.303522
0.302719
0.301819
0.300883
0.299934
0.298776
0.29799
0.297391
0.297454
0.297696
0.298491
0.299861
0.301772
0.303395
0.305766
0.306895
0.308811
0.182656
0.181858
0.180769
0.179428
0.177826
0.175954
0.17413
0.172058
0.170616
0.169148
0.168539
0.168958
0.169923
0.171538
0.173906
0.175704
0.17862
0.179619
0.181657
0.0601498
0.0592019
0.0578156
0.055987
0.0537269
0.0510189
0.0481933
0.0449555
0.0425387
0.0403747
0.0392112
0.0394773
0.0405478
0.0426974
0.0460086
0.0486608
0.0527073
0.053648
0.0560775
)
;

boundaryField
{
    leftWall
    {
        type            fixedFluxPressure;
        gradient        uniform 0;
        value           nonuniform List<scalar> 
50
(
7687.55
6675.96
6097.55
5063.23
3779.27
2477.48
1603.75
1208.81
869.027
787.932
709.004
572.858
440.882
361.115
273.458
198.046
70.5818
12.3214
6.63237
5.33041
4.50014
3.94697
3.64826
3.43321
3.24901
3.11781
3.01997
2.91831
2.80066
2.66883
2.53086
2.39159
2.25316
2.11643
1.98158
1.84847
1.71683
1.58641
1.45699
1.32837
1.20041
1.07297
0.945948
0.819263
0.692839
0.566628
0.440572
0.314628
0.188741
0.0628946
)
;
    }
    rightWall
    {
        type            fixedFluxPressure;
        gradient        uniform 0;
        value           nonuniform List<scalar> 
50
(
5486.64
4452.15
3812.56
3011.29
2265.22
1501.04
937.946
527.611
658.341
455.866
341.523
247.164
148.281
33.9469
4.54437
5.76164
5.51474
5.1264
4.86141
4.54985
4.28158
4.06129
3.87739
3.71916
3.55768
3.40028
3.25241
3.10552
2.962
2.80605
2.62822
2.45978
2.29852
2.14928
2.0111
1.88026
1.74908
1.61638
1.48241
1.34908
1.21674
1.08531
0.954578
0.824754
0.695798
0.566815
0.437763
0.308811
0.181657
0.0560775
)
;
    }
    lowerWall
    {
        type            fixedFluxPressure;
        gradient        nonuniform List<scalar> 
62
(
132719
132719
132719
132719
132719
132719
132719
132719
132719
132719
132719
132719
132719
132719
132719
132719
132719
132719
132719
132719
132719
132719
132718
0
0
0
0
0
0
0
0
5076.41
5496.93
5532.21
5526.18
0
0
0
0
0
0
0
0
45592.9
27436.7
25202.1
26768.4
31910.6
44121.1
62070.2
67402.5
72525.5
80297.5
85446.4
84600
83454.1
83717.7
84608.4
84359.1
83474.2
83426.5
83118.9
)
;
        value           nonuniform List<scalar> 
62
(
8085.7
7826.71
7422.55
7037.21
6720.52
6442.98
6216.8
6034.69
5895.22
5802.33
5746.68
5722.41
5716.49
5723.37
5738.04
5755.37
5772.56
5792.55
5807.37
5817.84
5823.5
5829.29
5836.38
5438.23
4630.91
3852.3
3044.39
2244.38
1547.87
928.403
1099.42
818.09
832.749
823.182
797.229
1336.24
856.64
841.639
808.011
780.461
753.242
713.378
680.487
1473.02
1281.27
1236.11
1278.85
1317.13
1395.51
1564.5
1739.84
2046.54
2677.21
3110.26
3506.94
3852.32
4186.94
4376.36
4888.98
5556.67
5576.23
5735.99
)
;
    }
    atmosphere
    {
        type            totalPressure;
        U               U.air;
        phi             phi.air;
        rho             rho;
        psi             none;
        gamma           1;
        p0              uniform 0;
        value           nonuniform List<scalar> 
46
(
0
0
0
0
0
0
0
0
0
0
0
0
0
0
0
0
0
0
0
0
0
0
0
0
-3.36592e-06
-5.22684e-05
-0.000169876
-0.000525683
-0.00141364
-0.00277716
-0.00463075
-0.00696057
-0.00978085
-0.0129125
-0.0165525
-0.0197256
-0.023192
-0.0253083
-0.0261569
-0.0258929
-0.0243507
-0.0214298
-0.0183237
-0.0135283
-0.0114957
-0.00791622
)
;
    }
    defaultFaces
    {
        type            empty;
    }
}


// ************************************************************************* //
