/*--------------------------------*- C++ -*----------------------------------*\
| =========                 |                                                 |
| \\      /  F ield         | OpenFOAM: The Open Source CFD Toolbox           |
|  \\    /   O peration     | Version:  2.4.0                                 |
|   \\  /    A nd           | Web:      www.OpenFOAM.org                      |
|    \\/     M anipulation  |                                                 |
\*---------------------------------------------------------------------------*/
FoamFile
{
    version     2.0;
    format      ascii;
    class       surfaceScalarField;
    location    "0.95";
    object      phi.mercury;
}
// * * * * * * * * * * * * * * * * * * * * * * * * * * * * * * * * * * * * * //

dimensions      [0 3 -1 0 0 0 0];

internalField   nonuniform List<scalar> 
4432
(
-1.07623e-05
1.07623e-05
-1.83137e-05
7.55142e-06
-2.29175e-05
4.60382e-06
-2.46582e-05
1.74067e-06
-2.43689e-05
-2.89302e-07
-2.31857e-05
-1.18326e-06
-2.12933e-05
-1.89239e-06
-1.92928e-05
-2.00046e-06
-1.78095e-05
-1.48335e-06
-1.691e-05
-8.9949e-07
-1.60093e-05
-9.00651e-07
-1.4638e-05
-1.37127e-06
-1.31681e-05
-1.46998e-06
-1.20564e-05
-1.11168e-06
-1.13524e-05
-7.0396e-07
-1.0786e-05
-5.66372e-07
-9.95359e-06
-8.32454e-07
-8.4559e-06
-1.49769e-06
-6.16973e-06
-2.28617e-06
-3.76901e-06
-2.40073e-06
-2.58558e-06
-1.18343e-06
-2.14237e-06
-4.43214e-07
-2.14239e-06
-1.06525e-05
2.14135e-05
-1.80756e-05
1.49744e-05
-2.25839e-05
9.11213e-06
-2.44855e-05
3.64231e-06
-2.46279e-05
-1.46895e-07
-2.36044e-05
-2.20679e-06
-2.15752e-05
-3.92154e-06
-1.94178e-05
-4.15788e-06
-1.78522e-05
-3.04895e-06
-1.66657e-05
-2.08596e-06
-1.5436e-05
-2.13042e-06
-1.42138e-05
-2.5934e-06
-1.30402e-05
-2.64366e-06
-1.21426e-05
-2.00927e-06
-1.14892e-05
-1.3573e-06
-1.06632e-05
-1.39242e-06
-9.55052e-06
-1.94513e-06
-7.9663e-06
-3.08191e-06
-5.7169e-06
-4.53556e-06
-3.37382e-06
-4.74381e-06
-1.25008e-06
-3.30717e-06
-2.25494e-07
-1.4678e-06
-2.36789e-06
-1.28604e-05
3.3861e-05
-2.00493e-05
2.21069e-05
-2.34367e-05
1.24949e-05
-2.47122e-05
4.91742e-06
-2.4757e-05
-1.0213e-07
-2.37187e-05
-3.24514e-06
-2.16472e-05
-5.993e-06
-1.93649e-05
-6.44022e-06
-1.75693e-05
-4.84456e-06
-1.62346e-05
-3.42066e-06
-1.51156e-05
-3.24945e-06
-1.42072e-05
-3.50171e-06
-1.33764e-05
-3.47455e-06
-1.24066e-05
-2.97906e-06
-1.13942e-05
-2.36964e-06
-1.02232e-05
-2.56345e-06
-8.92878e-06
-3.23954e-06
-7.5538e-06
-4.4569e-06
-5.86788e-06
-6.22148e-06
-3.95566e-06
-6.65603e-06
-1.60263e-06
-5.6602e-06
6.38994e-08
-3.13433e-06
-2.30399e-06
-1.71987e-05
4.62187e-05
-2.58298e-05
2.99412e-05
-2.87742e-05
1.53464e-05
-2.89544e-05
5.08669e-06
-2.72846e-05
-1.77315e-06
-2.45337e-05
-5.99682e-06
-2.22857e-05
-8.24868e-06
-2.01587e-05
-8.59854e-06
-1.79784e-05
-7.08578e-06
-1.62472e-05
-5.22181e-06
-1.51132e-05
-4.43846e-06
-1.44275e-05
-4.21638e-06
-1.37668e-05
-4.15122e-06
-1.28126e-05
-3.94375e-06
-1.14772e-05
-3.71239e-06
-9.90101e-06
-4.14575e-06
-8.57146e-06
-4.57386e-06
-7.44053e-06
-5.59359e-06
-6.26509e-06
-7.41186e-06
-4.59946e-06
-8.35675e-06
-1.84101e-06
-8.47106e-06
-1.51955e-07
-4.8485e-06
-2.4963e-06
-2.46072e-05
5.29695e-05
-3.26834e-05
3.47843e-05
-3.42066e-05
1.64985e-05
-3.32619e-05
4.06722e-06
-3.07966e-05
-4.31359e-06
-2.79776e-05
-9.24635e-06
-2.56071e-05
-1.19713e-05
-2.33696e-05
-1.38104e-05
-2.1029e-05
-1.42964e-05
-1.8726e-05
-1.33972e-05
-1.7196e-05
-1.16736e-05
-1.60541e-05
-9.75538e-06
-1.49832e-05
-8.53241e-06
-1.35003e-05
-8.01351e-06
-1.14657e-05
-7.871e-06
-9.64477e-06
-7.8776e-06
-8.34574e-06
-7.60147e-06
-7.2648e-06
-8.44766e-06
-6.05183e-06
-1.10447e-05
-4.40757e-06
-1.35369e-05
-2.95193e-06
-1.42499e-05
-8.67436e-07
-1.05688e-05
-8.57345e-06
-3.65994e-05
5.41341e-05
-4.37413e-05
3.19311e-05
-4.31673e-05
1.35998e-05
-3.94077e-05
-1.32731e-06
-3.48192e-05
-1.41966e-05
-3.05822e-05
-2.52761e-05
-2.73728e-05
-3.30289e-05
-2.4907e-05
-4.11257e-05
-2.24072e-05
-5.1138e-05
-1.90542e-05
-5.89776e-05
-1.6359e-05
-5.71256e-05
-1.56722e-05
-4.82649e-05
-1.60351e-05
-4.04667e-05
-1.64277e-05
-3.67724e-05
-1.56882e-05
-3.4094e-05
-1.36683e-05
-3.25183e-05
-1.09225e-05
-3.19082e-05
-8.17855e-06
-3.27161e-05
-5.42589e-06
-3.6057e-05
-2.77947e-06
-4.08937e-05
-1.8568e-06
-4.55375e-05
-3.88355e-06
-5.16766e-05
-9.35942e-05
-3.90357e-05
4.69825e-05
-4.51312e-05
2.11358e-05
-4.63509e-05
-1.06881e-06
-4.34421e-05
-2.22766e-05
-3.72098e-05
-4.67605e-05
-3.23011e-05
-6.63788e-05
-3.08227e-05
-7.87332e-05
-3.07041e-05
-9.42979e-05
-2.75406e-05
-0.000107195
-1.88352e-05
-0.000113319
-9.429e-06
-0.000102776
-5.73538e-06
-7.91734e-05
-6.89075e-06
-4.62124e-05
-1.01315e-05
-3.73467e-05
-1.32585e-05
-3.51704e-05
-1.43803e-05
-3.73306e-05
-1.27181e-05
-4.1899e-05
-9.0436e-06
-4.70196e-05
-6.98668e-06
-5.07402e-05
-1.02267e-05
-5.29401e-05
-1.84551e-05
-6.80004e-05
-1.84871e-05
-0.000135257
-0.000194744
-3.39937e-05
3.7922e-05
-3.83441e-05
1.58856e-05
-3.81817e-05
-1.0856e-05
-3.33623e-05
-4.18488e-05
-2.94576e-05
-7.10589e-05
-2.68949e-05
-8.92985e-05
-1.9365e-05
-0.000100498
-9.13304e-06
-0.000116814
-3.6652e-06
-0.000123368
-6.31404e-07
-0.000118874
-8.82636e-07
-9.39785e-05
-4.53787e-07
-6.28748e-05
4.44108e-06
-2.93199e-05
6.13887e-06
-1.88597e-05
3.57943e-06
-1.33158e-05
-3.24115e-07
-1.47866e-05
-4.10217e-06
-2.07795e-05
-8.6159e-06
-2.60462e-05
-1.37565e-05
-2.86146e-05
-1.92784e-05
-2.86037e-05
-1.6962e-05
-4.20632e-05
-1.58859e-05
-0.000153682
-0.00020564
7.24336e-06
-4.73285e-05
1.76012e-05
-6.60611e-05
2.28489e-05
-7.3123e-05
2.72e-05
-7.22822e-05
2.94491e-05
-6.97107e-05
2.9858e-05
-6.43084e-05
2.96679e-05
-5.79125e-05
2.95978e-05
-5.18684e-05
2.69418e-05
-4.6455e-05
2.47171e-05
-3.42266e-05
2.33374e-05
-1.64717e-05
2.1414e-05
-6.43674e-06
2.17625e-05
-4.59798e-06
2.42704e-05
-5.98871e-06
1.99173e-05
1.42166e-06
7.08215e-06
1.06196e-05
-4.39041e-06
9.16713e-06
-8.0675e-06
1.54872e-06
-1.01268e-05
8.81665e-06
-0.000157074
1.64369e-05
-0.000153232
2.36651e-05
-7.94239e-05
3.16672e-05
-5.59955e-05
3.67097e-05
-5.09337e-05
3.66659e-05
-4.3618e-05
3.47061e-05
-4.91632e-05
3.2759e-05
-4.1405e-05
2.5516e-05
-3.01454e-05
1.09702e-05
-1.85548e-05
1.99614e-06
-2.87834e-06
-2.96812e-06
9.40956e-07
-8.30056e-06
1.09617e-06
-2.16053e-06
-1.1407e-05
5.72091e-06
-4.79088e-06
8.52738e-07
1.65824e-05
-5.4936e-06
1.61625e-05
-8.28359e-06
5.346e-06
-1.7916e-05
8.64233e-06
-0.000256438
7.94286e-06
-0.000223845
1.35518e-05
-7.38393e-05
1.82406e-05
-3.87467e-05
2.22129e-05
-2.66229e-05
2.86883e-05
-2.59892e-05
2.53596e-05
-2.7876e-05
-7.1999e-06
-3.43319e-05
-3.74175e-05
-4.02162e-05
-4.45081e-05
-2.66937e-05
-4.84768e-05
-1.88823e-05
-4.58268e-05
-2.01527e-05
-3.80149e-05
-2.33211e-05
-2.82941e-05
-2.98254e-05
-9.82809e-06
-2.56129e-05
-2.23589e-06
8.29836e-06
-6.10632e-06
1.93614e-05
-4.82404e-06
3.27789e-06
-2.30143e-05
6.04606e-06
-0.00024095
7.52354e-06
-0.000173135
1.49628e-05
-5.72292e-05
1.93802e-05
-4.10617e-05
2.06191e-05
-2.39537e-05
1.89491e-05
-9.76817e-06
8.30724e-06
1.92899e-06
-1.85526e-05
-3.90253e-06
-3.60945e-05
-3.90572e-05
-3.95534e-05
-4.03995e-05
-4.20775e-05
-4.13546e-05
-4.16873e-05
-6.83684e-05
-3.95116e-05
-7.76547e-05
-3.54489e-05
-6.40895e-05
-2.34766e-05
-4.2447e-05
-1.12808e-05
-3.44847e-06
-6.76337e-06
1.48607e-05
-3.58655e-06
6.47535e-07
-2.67726e-05
7.85993e-07
-0.000227124
2.07779e-06
-0.000134871
5.53333e-06
-6.1253e-05
5.44091e-06
-4.99287e-05
6.71526e-06
-3.63405e-05
3.31109e-06
-1.49794e-05
8.95124e-07
-1.02106e-05
-5.07602e-06
-7.1823e-06
-1.54021e-05
-1.89048e-05
-1.84953e-05
-4.68426e-05
-1.93709e-05
-7.40744e-05
-2.27548e-05
-0.00012065
-3.11833e-05
-0.000132798
-3.35745e-05
-0.000109092
-3.09469e-05
-6.37387e-05
-1.84161e-05
-1.94826e-05
-8.10042e-06
4.18311e-06
-2.28485e-06
-5.76245e-06
-3.05976e-05
1.25432e-06
-0.000225638
3.83066e-06
-0.0001332
9.34679e-06
-5.83397e-05
9.42803e-06
-4.26983e-05
7.2614e-06
-3.35553e-05
-1.04961e-06
1.32606e-06
-1.02561e-05
8.72411e-06
-1.13017e-05
4.30988e-06
-7.52652e-06
1.271e-05
-6.44525e-06
7.62558e-06
-9.43926e-06
-2.30754e-05
-1.6765e-05
-6.26767e-05
-1.89667e-05
-9.83131e-05
-2.31691e-05
-0.000121973
-2.82316e-05
-0.000100851
-2.28492e-05
-4.40635e-05
-9.6869e-06
-1.50028e-05
-1.47689e-06
-1.91926e-05
-4.42993e-05
-6.52364e-07
-0.000222904
9.8476e-07
-0.000109577
4.61928e-06
-5.79064e-05
1.23832e-06
-3.33788e-05
-2.46199e-06
-2.5825e-05
-8.71328e-06
-2.52925e-06
-1.35386e-05
1.25444e-06
-1.15689e-05
-5.66984e-06
-5.43125e-06
1.10077e-05
7.80208e-07
4.55261e-05
-2.56179e-06
4.37198e-05
-1.3712e-05
1.35481e-05
-1.57665e-05
-4.70583e-05
-2.04675e-05
-0.000124106
-2.86679e-05
-0.000156
-2.38834e-05
-0.000118427
-1.31474e-05
-7.77033e-05
-2.99228e-06
-7.80721e-05
-0.000128002
-3.98329e-06
-0.000223197
-6.1525e-06
-8.35474e-05
1.31594e-06
-6.36254e-05
1.68432e-06
-2.60176e-05
-7.51755e-06
-2.21024e-06
-1.56995e-05
1.6287e-05
-1.7852e-05
8.67606e-06
-1.75226e-05
-1.61847e-06
-8.9449e-06
3.00536e-06
2.21005e-06
3.70062e-05
2.39544e-06
5.40824e-05
-7.09622e-06
3.16375e-05
-9.6e-06
-2.77069e-05
-1.59035e-05
-0.000124764
-2.52593e-05
-0.000188336
-2.99629e-05
-0.000188162
-2.3406e-05
-0.000173588
-1.16579e-05
-0.000185952
-0.000243299
-3.5579e-05
3.11784e-05
-2.95087e-05
9.08971e-06
-1.58726e-05
-1.5691e-05
1.87415e-06
-4.06829e-05
1.04739e-05
-5.96834e-05
1.49292e-05
-7.40254e-05
1.96374e-05
-8.57407e-05
2.50809e-05
-9.60012e-05
3.01794e-05
-9.86865e-05
3.47189e-05
-8.44452e-05
3.30686e-05
-5.79241e-05
2.66942e-05
-3.06743e-05
2.35582e-05
-1.15245e-05
1.5494e-05
1.05172e-06
7.82897e-06
4.10076e-06
-7.30179e-07
3.68354e-06
-9.62963e-06
1.45085e-06
-1.53272e-05
-2.86839e-06
-8.78719e-06
-1.38182e-05
-6.32944e-06
-1.50603e-05
-1.1723e-05
-4.09351e-06
-2.41712e-05
-4.66065e-05
-0.000118488
-3.53178e-05
-9.51686e-06
3.99051e-05
-3.16146e-06
1.22466e-05
8.37588e-06
-1.06522e-05
1.91854e-05
-3.08503e-05
2.45588e-05
-4.50834e-05
2.79527e-05
-5.78052e-05
3.12328e-05
-6.49415e-05
3.45152e-05
-6.67418e-05
3.59443e-05
-6.39205e-05
3.91724e-05
-5.34099e-05
4.59772e-05
-4.26392e-05
5.40012e-05
-3.06175e-05
5.80301e-05
-1.24855e-05
5.66421e-05
1.91577e-06
5.13034e-05
9.08423e-06
3.8078e-05
1.6504e-05
1.95753e-05
1.56875e-05
3.97011e-06
7.62987e-06
-3.88464e-06
-1.54819e-05
-1.39859e-05
-1.34191e-05
-4.17853e-05
1.01673e-05
-9.01936e-05
4.55271e-06
-3.42713e-05
-0.000138171
1.1947e-05
2.67246e-05
2.23071e-05
1.96405e-05
3.10275e-05
8.10988e-06
3.75796e-05
-6.12574e-06
4.00512e-05
-1.68504e-05
4.09406e-05
-2.79657e-05
4.25115e-05
-3.37039e-05
4.29892e-05
-3.6856e-05
4.51268e-05
-3.97753e-05
5.20637e-05
-4.62127e-05
6.04398e-05
-4.54052e-05
6.30143e-05
-3.26856e-05
6.02539e-05
-7.75922e-06
4.76782e-05
1.57094e-05
3.42195e-05
2.12053e-05
2.55958e-05
1.53519e-05
1.77617e-05
1.44462e-05
3.98094e-06
1.4954e-05
-3.89092e-05
1.62369e-05
-9.98119e-05
3.05978e-05
-0.000151571
4.25845e-05
-0.000186597
1.79864e-05
-5.01391e-05
-0.000180159
2.24056e-05
2.59109e-05
3.29375e-05
2.44048e-05
3.9841e-05
1.54023e-05
4.14772e-05
8.21561e-06
3.9339e-05
1.37277e-06
3.62169e-05
-6.83286e-06
3.4181e-05
-1.55296e-05
3.32045e-05
-2.51164e-05
3.66237e-05
-4.28337e-05
3.05556e-05
-4.16749e-05
2.25859e-05
-3.40023e-05
2.40235e-05
-2.52613e-05
2.24002e-05
-4.0908e-06
1.46208e-05
1.51047e-05
3.36919e-06
2.85637e-05
-1.35976e-05
3.45104e-05
-4.55284e-05
4.985e-05
-0.000117155
6.39802e-05
-0.000198068
8.1422e-05
-0.000232551
7.97193e-05
-0.000244618
5.86934e-05
-0.000239297
8.354e-06
-5.631e-05
-0.00022867
1.43842e-05
7.49756e-06
1.71232e-05
3.20227e-05
1.82534e-05
2.99805e-05
1.70597e-05
2.07929e-05
1.29659e-05
1.00348e-05
8.19615e-06
-2.65112e-06
4.57428e-06
-1.94749e-05
-1.45534e-05
-1.02595e-05
-6.03163e-05
-6.43295e-06
-0.000103
-2.18704e-05
-0.000133388
-2.97386e-05
-0.000138716
-2.69221e-05
-0.000129959
-1.92594e-05
-0.000119612
-1.19284e-05
-0.000140798
1.54515e-05
-0.000185044
4.37009e-05
-0.000218519
7.3443e-05
-0.000243579
9.52441e-05
-0.000258165
9.67702e-05
-0.000269184
9.02817e-05
-0.000276691
5.79752e-05
-0.000279092
-2.7442e-05
-8.04253e-05
-0.00027292
-2.37256e-06
9.1838e-06
-9.42712e-06
3.82474e-05
-1.43979e-05
3.38138e-05
-1.60568e-05
2.20326e-05
-1.76542e-05
1.22881e-05
-3.22252e-05
1.18573e-05
-6.97755e-05
2.94727e-05
-0.000117269
1.66746e-05
-0.000156127
4.34709e-06
-0.000177525
-1.36858e-05
-0.000195251
-1.99923e-05
-0.000217513
-1.66366e-05
-0.000236192
-2.31973e-05
-0.000241896
-2.77928e-05
-0.000248347
-3.41703e-06
-0.000254939
5.57134e-06
-0.000252562
1.37274e-05
-0.00024466
4.97148e-05
-0.000245598
6.74203e-05
-0.00024039
6.48417e-05
-0.000246451
3.8677e-05
-0.000287323
-5.20371e-05
-9.41246e-05
-0.00027409
-1.40974e-05
2.02138e-05
-1.99325e-05
4.36377e-05
-2.72204e-05
3.94796e-05
-3.64543e-05
2.95167e-05
-6.04281e-05
3.57759e-05
-9.50915e-05
6.23489e-05
-0.000141842
5.73246e-05
-0.000167596
2.5522e-05
-0.000172067
2.64998e-06
-0.000178682
-5.89722e-06
-0.000190171
-9.19112e-06
-0.000219916
-8.36593e-06
-0.00025532
1.59907e-06
-0.000310724
2.78372e-05
-0.000317441
1.96263e-05
-0.000280102
-2.42835e-06
-0.000258767
-1.39038e-05
-0.000236932
1.49318e-05
-0.000222132
3.67626e-05
-0.00020739
4.30095e-05
-0.000176859
4.07185e-05
-0.000315278
-1.2524e-05
-4.31732e-05
-0.000326486
-1.26576e-05
2.57903e-05
-2.58763e-05
4.8181e-05
-4.54093e-05
5.62428e-05
-8.48823e-05
6.72966e-05
-0.000125708
8.6864e-05
-0.00017412
9.92408e-05
-0.000197959
6.57284e-05
-0.000188272
1.05867e-05
-0.000176184
-8.85779e-06
-0.000167192
-1.48135e-05
-0.000165238
-2.18361e-05
-0.000184503
-2.38744e-05
-0.000148808
2.40387e-05
-0.000242412
0.00013399
-0.000266029
0.000135917
-0.000266435
3.25777e-05
-0.00020661
1.25743e-05
-0.000219679
1.89073e-05
-0.00021103
3.593e-05
-0.000157699
4.83355e-05
-0.000174489
7.97794e-05
-0.0002663
0.000109382
-2.35992e-06
-0.000207707
-2.32635e-05
1.83537e-06
-7.05084e-05
4.93096e-05
-0.000128049
8.76012e-05
-0.000162144
0.000102679
-0.000185446
0.000102905
-0.000199202
8.46314e-05
-0.000200342
1.95085e-05
-0.000190868
-2.62829e-05
-0.000182453
-5.09033e-05
-0.000176165
-5.00342e-05
-0.000171399
-3.97631e-05
-0.000185692
-5.08166e-05
-0.000193253
8.09588e-05
-0.000254595
0.000195916
-0.000262569
0.000167631
-0.000270072
6.92894e-05
-0.000276675
4.89831e-05
-0.000261528
5.90658e-05
-0.000260045
9.55931e-05
-0.000255289
0.000126683
-0.000253701
0.000145982
-0.000242013
9.91699e-05
2.02712e-05
-0.000264516
-9.73158e-05
2.36351e-05
-0.0001771
0.000100602
-0.000207384
8.57144e-05
-0.000209609
7.60249e-05
-0.000215874
6.44808e-05
-0.0002003
4.09111e-05
-0.000181478
-1.24227e-05
-0.000194447
-6.00838e-05
-0.000186304
-5.12794e-05
-0.000191891
-5.94787e-05
-0.00022916
-3.90491e-05
-0.000240794
1.59741e-05
-0.000225466
0.000154897
-0.00024577
0.000216841
-0.000261239
0.000183064
-0.000275348
8.3409e-05
-0.000283727
5.73909e-05
-0.000282203
5.85608e-05
-0.000275031
9.97793e-05
-0.000263951
0.000127397
-0.000247957
0.000131002
-0.000252343
0.00010374
3.119e-05
-0.000263422
-0.000211725
0.000164105
-0.000283611
0.000165257
-0.000245161
8.68889e-05
-0.000225495
5.18788e-05
-0.000210684
4.35399e-05
-0.000201098
4.01925e-05
-0.000239505
4.65067e-05
-0.000225458
-6.28345e-06
-0.000199618
-2.14281e-05
-0.000194801
-2.15365e-05
-0.000181367
-9.48195e-06
-0.000168565
2.40781e-05
-0.000167384
0.000148956
-0.000195037
0.00023426
-0.000227796
0.000216002
-0.00025738
0.000113118
-0.000264355
6.45412e-05
-0.000263942
5.82377e-05
-0.000254414
9.02719e-05
-0.00024322
0.000116227
-0.000231891
0.000119743
-0.000233544
0.000105644
4.52853e-05
-0.000247421
-8.49634e-05
0.000289306
-0.000168198
0.000272934
-0.000202396
0.000160854
-0.000195497
8.66161e-05
-0.000172515
6.60218e-05
-0.000127841
7.80659e-05
-9.92696e-05
7.06628e-05
-0.000127261
2.19367e-05
-0.000150043
1.42611e-06
-0.000160693
-1.03921e-05
-0.000168857
-5.44294e-07
-0.000162254
1.60552e-05
-0.000111742
9.00431e-05
-8.38077e-05
0.000205248
-0.000118774
0.000253352
-0.000178673
0.000173244
-0.000206548
9.2358e-05
-0.000212037
6.33021e-05
-0.000204138
8.23123e-05
-0.000194563
0.00010675
-0.000188227
0.000113726
-0.000184046
0.000101984
4.31388e-05
-0.000181647
1.3588e-05
0.000280016
5.24853e-05
0.000278468
5.17114e-05
0.000234373
3.32678e-05
0.000153995
3.01798e-05
0.000102138
2.89712e-05
9.13513e-05
1.62639e-05
8.35331e-05
-1.69768e-05
5.51759e-05
-4.56563e-05
3.01025e-05
-7.22734e-05
1.62228e-05
-9.47133e-05
2.177e-05
-0.000114897
3.55746e-05
-8.96228e-05
6.85837e-05
-1.96768e-05
0.00014731
1.35901e-05
0.000223234
-2.02984e-05
0.000206453
-7.26919e-05
0.000145034
-0.000108273
9.89012e-05
-0.000118108
9.20429e-05
-0.00011352
0.000101894
-0.000102913
0.000103046
-7.94573e-05
7.85315e-05
1.70359e-05
-5.31601e-05
6.18407e-06
0.000273835
4.08152e-05
0.000243969
6.82979e-05
0.00020921
7.34039e-05
0.000150661
7.26224e-05
0.000103505
7.30567e-05
9.09593e-05
6.87574e-05
8.78336e-05
4.67953e-05
7.71394e-05
1.16545e-05
6.52454e-05
-2.47949e-05
5.26739e-05
-4.95001e-05
4.64887e-05
-6.28491e-05
4.92898e-05
-6.05343e-05
6.94997e-05
-1.45181e-05
0.000105946
4.56136e-05
0.000160622
6.76631e-05
0.00018621
5.24503e-05
0.000160975
2.82581e-05
0.000122669
1.51973e-05
0.000105159
1.99743e-05
9.72678e-05
4.30395e-05
8.0026e-05
7.22995e-05
4.94588e-05
-1.21799e-05
0.000101608
-2.02625e-06
0.000275864
1.60395e-05
0.000225904
4.49502e-05
0.000180299
6.23629e-05
0.000133251
6.79411e-05
9.79283e-05
7.20643e-05
8.68377e-05
7.48708e-05
8.50284e-05
6.88648e-05
8.31466e-05
5.21148e-05
8.19968e-05
2.66012e-05
7.81888e-05
1.2501e-06
7.18413e-05
-1.12472e-05
6.17963e-05
-1.36932e-05
7.22048e-05
1.01818e-06
9.12713e-05
4.23277e-05
0.000120295
8.17594e-05
0.000147982
9.91963e-05
0.000142918
0.000104461
0.000117707
0.000111747
9.80929e-05
0.000125415
8.35668e-05
0.000144981
6.03758e-05
0.000170432
2.39653e-05
-3.1376e-05
0.000189706
-7.4778e-08
0.00027594
1.12082e-05
0.000214624
3.08456e-05
0.000160662
4.70886e-05
0.00011701
5.48539e-05
9.01647e-05
6.09829e-05
8.07101e-05
6.96595e-05
7.63532e-05
7.24464e-05
8.03609e-05
6.79711e-05
8.64734e-05
5.70622e-05
8.9099e-05
4.12147e-05
8.769e-05
2.92534e-05
7.37588e-05
2.6908e-05
7.45514e-05
3.49135e-05
8.32644e-05
5.68213e-05
9.90384e-05
9.17834e-05
0.000112731
0.000116196
0.000117521
0.000134739
9.91926e-05
0.00015479
7.93792e-05
0.000178804
6.04392e-05
0.000197904
4.15165e-05
0.000213098
8.73587e-06
-3.80698e-05
0.000219875
1.09921e-05
0.000264949
2.03107e-05
0.000205308
3.38882e-05
0.000147086
4.52317e-05
0.000105669
5.18254e-05
8.35724e-05
5.62918e-05
7.62449e-05
6.16264e-05
7.10196e-05
6.80595e-05
7.39288e-05
7.03435e-05
8.41904e-05
6.79349e-05
9.15086e-05
6.41561e-05
9.14698e-05
5.76204e-05
8.02953e-05
5.66428e-05
7.55297e-05
6.22574e-05
7.76506e-05
7.70258e-05
8.42953e-05
0.000100458
8.92373e-05
0.000125709
9.21425e-05
0.000143036
8.20944e-05
0.000162267
6.07518e-05
0.000185106
3.7847e-05
0.00020571
2.08654e-05
0.000216283
-1.89882e-06
-3.73501e-05
0.000215454
2.32925e-05
0.000241658
3.46316e-05
0.000193972
4.42478e-05
0.000137472
5.09486e-05
9.89695e-05
5.44141e-05
8.0108e-05
5.62215e-05
7.44383e-05
5.70488e-05
7.0193e-05
6.02923e-05
7.06861e-05
6.63436e-05
7.81397e-05
6.98674e-05
8.79854e-05
7.18136e-05
8.95243e-05
7.12896e-05
8.082e-05
7.25175e-05
7.43023e-05
7.64193e-05
7.37494e-05
8.56536e-05
7.50615e-05
9.96811e-05
7.52072e-05
0.00012008
7.17597e-05
0.000135839
6.64962e-05
0.000149322
4.73266e-05
0.000165251
2.18959e-05
0.000180254
5.8286e-06
0.00018706
-8.75892e-06
-3.29805e-05
0.000182627
3.17215e-05
0.000209938
4.62617e-05
0.000179434
5.32159e-05
0.000130519
5.59566e-05
9.62307e-05
5.58761e-05
8.01897e-05
5.55595e-05
7.4756e-05
5.4629e-05
7.11246e-05
5.4448e-05
7.08679e-05
5.86946e-05
7.3894e-05
6.62822e-05
8.03987e-05
7.21873e-05
8.36201e-05
7.48784e-05
7.81296e-05
7.66762e-05
7.25053e-05
8.00291e-05
7.0397e-05
8.62117e-05
6.88799e-05
9.58262e-05
6.5593e-05
0.000108864
5.87222e-05
0.000122504
5.28584e-05
0.000133554
3.62768e-05
0.000140836
1.46116e-05
0.000144999
1.66448e-06
0.000148014
-1.17748e-05
-3.12853e-05
0.000146316
3.17071e-05
0.000178232
4.96195e-05
0.000161523
5.66294e-05
0.000123511
5.71642e-05
9.56966e-05
5.58245e-05
8.15298e-05
5.45044e-05
7.60765e-05
5.31117e-05
7.25176e-05
5.25268e-05
7.14531e-05
5.4329e-05
7.20921e-05
6.06272e-05
7.41008e-05
6.83475e-05
7.59001e-05
7.34724e-05
7.3005e-05
7.59705e-05
7.00075e-05
7.97013e-05
6.66665e-05
8.5233e-05
6.33483e-05
9.3004e-05
5.78222e-05
0.000101472
5.02542e-05
0.000111805
4.25252e-05
0.000119961
2.81211e-05
0.000122364
1.22086e-05
0.000122761
1.26762e-06
0.000123632
-1.26458e-05
-2.74275e-05
0.000119774
2.73142e-05
0.000150917
4.60402e-05
0.000142797
5.44919e-05
0.000115059
5.56148e-05
9.45741e-05
5.41785e-05
8.29663e-05
5.25899e-05
7.76653e-05
5.15065e-05
7.36012e-05
5.14479e-05
7.15119e-05
5.31411e-05
7.03991e-05
5.74259e-05
6.98162e-05
6.35176e-05
6.98085e-05
6.87278e-05
6.7795e-05
7.31156e-05
6.56198e-05
7.78804e-05
6.19017e-05
8.36289e-05
5.76001e-05
9.03603e-05
5.10907e-05
9.67996e-05
4.3815e-05
0.0001038
3.55249e-05
0.000108193
2.37283e-05
0.000108499
1.19025e-05
0.000108514
1.25361e-06
0.000107133
-1.12648e-05
-2.18547e-05
0.00010156
2.1584e-05
0.000129333
3.8597e-05
0.000125784
4.71624e-05
0.000106494
4.94479e-05
9.22887e-05
4.92077e-05
8.32066e-05
4.89286e-05
7.79445e-05
4.89722e-05
7.35576e-05
4.97347e-05
7.07495e-05
5.16343e-05
6.84997e-05
5.48498e-05
6.66008e-05
5.93982e-05
6.52602e-05
6.393e-05
6.32633e-05
6.89298e-05
6.06201e-05
7.40847e-05
5.67469e-05
7.95848e-05
5.20997e-05
8.51103e-05
4.55652e-05
9.00791e-05
3.88461e-05
9.45153e-05
3.10888e-05
9.68506e-05
2.13931e-05
9.72095e-05
1.15438e-05
9.65337e-05
1.92963e-06
9.40078e-05
-8.73885e-06
-1.66648e-05
8.88179e-05
1.62335e-05
0.0001131
3.05804e-05
0.000111437
3.85516e-05
9.8523e-05
4.19823e-05
8.8858e-05
4.35082e-05
8.16806e-05
4.4742e-05
7.67107e-05
4.58778e-05
7.24219e-05
4.7401e-05
6.92263e-05
4.94931e-05
6.64077e-05
5.22133e-05
6.38807e-05
5.58287e-05
6.16449e-05
5.99818e-05
5.91102e-05
6.46187e-05
5.59832e-05
6.93289e-05
5.20366e-05
7.40708e-05
4.73578e-05
7.83524e-05
4.12835e-05
8.21617e-05
3.50368e-05
8.53607e-05
2.78898e-05
8.69721e-05
1.97818e-05
8.72058e-05
1.13103e-05
8.63908e-05
2.74472e-06
8.36546e-05
-6.00251e-06
-1.26474e-05
7.96371e-05
1.22393e-05
0.00010086
2.39459e-05
9.97304e-05
3.12359e-05
9.12328e-05
3.55111e-05
8.45826e-05
3.82571e-05
7.89345e-05
4.04896e-05
7.44781e-05
4.24561e-05
7.04553e-05
4.45491e-05
6.71332e-05
4.69022e-05
6.40546e-05
4.95344e-05
6.12484e-05
5.27048e-05
5.84745e-05
5.63733e-05
5.54418e-05
6.03727e-05
5.19838e-05
6.44435e-05
4.79657e-05
6.83731e-05
4.3428e-05
7.17691e-05
3.78874e-05
7.47201e-05
3.20857e-05
7.70649e-05
2.5545e-05
7.82613e-05
1.85854e-05
7.85893e-05
1.09824e-05
7.78533e-05
3.4807e-06
7.54985e-05
-3.64757e-06
-9.71013e-06
7.25611e-05
9.52071e-06
9.1339e-05
1.89643e-05
9.02865e-05
2.55463e-05
8.46506e-05
3.02043e-05
7.99245e-05
3.36641e-05
7.54746e-05
3.65478e-05
7.15942e-05
3.90867e-05
6.79164e-05
4.15787e-05
6.46412e-05
4.41444e-05
6.14888e-05
4.68736e-05
5.85192e-05
4.9819e-05
5.5529e-05
5.29794e-05
5.22813e-05
5.62917e-05
4.86715e-05
5.95673e-05
4.469e-05
6.27996e-05
4.01956e-05
6.56406e-05
3.50462e-05
6.8156e-05
2.95702e-05
7.0033e-05
2.36679e-05
7.11042e-05
1.75141e-05
7.13177e-05
1.07688e-05
7.0539e-05
4.25953e-06
6.87995e-05
-1.90802e-06
-7.6504e-06
6.67395e-05
7.67281e-06
8.3666e-05
1.53344e-05
8.26247e-05
2.12259e-05
7.87589e-05
2.5868e-05
7.52822e-05
2.9601e-05
7.17414e-05
3.28115e-05
6.83836e-05
3.56572e-05
6.50706e-05
3.83533e-05
6.1945e-05
4.09976e-05
5.88445e-05
4.37316e-05
5.57851e-05
4.65313e-05
5.27292e-05
4.94351e-05
4.93775e-05
5.23451e-05
4.57614e-05
5.51986e-05
4.18363e-05
5.79056e-05
3.74883e-05
6.02218e-05
3.27299e-05
6.21508e-05
2.7641e-05
6.35702e-05
2.22484e-05
6.44304e-05
1.66539e-05
6.45679e-05
1.06314e-05
6.40667e-05
4.76073e-06
6.30047e-05
-8.46074e-07
-6.13705e-06
6.14912e-05
6.39167e-06
7.72741e-05
1.27438e-05
7.62724e-05
1.80086e-05
7.34939e-05
2.24449e-05
7.08457e-05
2.62012e-05
6.79849e-05
2.9509e-05
6.50757e-05
3.24744e-05
6.21051e-05
3.52505e-05
5.91689e-05
3.79294e-05
5.61655e-05
4.05679e-05
5.31466e-05
4.32068e-05
5.00903e-05
4.5794e-05
4.67902e-05
4.83225e-05
4.32329e-05
5.07508e-05
3.94079e-05
5.2983e-05
3.52561e-05
5.49508e-05
3.07619e-05
5.6596e-05
2.59957e-05
5.78625e-05
2.09818e-05
5.86393e-05
1.5877e-05
5.87802e-05
1.04905e-05
5.83531e-05
5.18779e-06
5.74928e-05
1.4242e-08
-5.03172e-06
5.63873e-05
5.41984e-06
7.18541e-05
1.0778e-05
7.09141e-05
1.54678e-05
6.88039e-05
1.96024e-05
6.6711e-05
2.32382e-05
6.43489e-05
2.64919e-05
6.18219e-05
2.94434e-05
5.91535e-05
3.22008e-05
5.64114e-05
3.48111e-05
5.35551e-05
3.73204e-05
5.06372e-05
3.97937e-05
4.7617e-05
4.21746e-05
4.44093e-05
4.44695e-05
4.09378e-05
4.66223e-05
3.7255e-05
4.8589e-05
3.32892e-05
5.02638e-05
2.9087e-05
5.16081e-05
2.46511e-05
5.25827e-05
2.00071e-05
5.3185e-05
1.52747e-05
5.33261e-05
1.03493e-05
5.30825e-05
5.43131e-06
5.24796e-05
6.17159e-07
-4.12331e-06
5.1571e-05
4.67545e-06
6.71785e-05
9.28811e-06
6.63013e-05
1.34771e-05
6.46148e-05
1.72856e-05
6.29024e-05
2.0725e-05
6.09094e-05
2.3846e-05
5.87008e-05
2.66997e-05
5.62997e-05
2.9355e-05
5.3756e-05
3.18415e-05
5.10684e-05
3.42147e-05
4.82639e-05
3.64915e-05
4.53401e-05
3.86616e-05
4.22392e-05
4.06918e-05
3.89075e-05
4.25756e-05
3.5371e-05
4.42417e-05
3.16231e-05
4.56739e-05
2.76546e-05
4.68424e-05
2.34825e-05
4.77189e-05
1.91306e-05
4.8287e-05
1.47065e-05
4.84636e-05
1.01727e-05
4.82604e-05
5.63454e-06
4.77468e-05
1.13068e-06
-3.35899e-06
4.69823e-05
4.06859e-06
6.31098e-05
8.08992e-06
6.22798e-05
1.18285e-05
6.08761e-05
1.52961e-05
5.94346e-05
1.84846e-05
5.77207e-05
2.14204e-05
5.5765e-05
2.41293e-05
5.35907e-05
2.66487e-05
5.12365e-05
2.89989e-05
4.87182e-05
3.1215e-05
4.60477e-05
3.33222e-05
4.32329e-05
3.53022e-05
4.02592e-05
3.71314e-05
3.70782e-05
3.87974e-05
3.37049e-05
4.02615e-05
3.01588e-05
4.15128e-05
2.64032e-05
4.25169e-05
2.24783e-05
4.32475e-05
1.83999e-05
4.36944e-05
1.42596e-05
4.38425e-05
1.00246e-05
4.37043e-05
5.77271e-06
4.32999e-05
1.53508e-06
-2.70368e-06
4.26445e-05
3.57173e-06
5.95379e-05
7.10503e-06
5.87464e-05
1.04434e-05
5.75376e-05
1.35802e-05
5.62977e-05
1.65054e-05
5.47955e-05
1.92291e-05
5.30411e-05
2.1761e-05
5.10587e-05
2.41144e-05
4.88831e-05
2.6307e-05
4.65255e-05
2.83557e-05
4.39989e-05
3.02793e-05
4.13092e-05
3.20685e-05
3.84699e-05
3.37058e-05
3.54409e-05
3.51802e-05
3.22304e-05
3.64763e-05
2.88627e-05
3.75688e-05
2.53105e-05
3.84454e-05
2.16016e-05
3.90695e-05
1.77757e-05
3.9452e-05
1.38771e-05
3.95732e-05
9.90337e-06
3.94399e-05
5.90602e-06
3.90795e-05
1.89541e-06
-2.12655e-06
3.85023e-05
3.14682e-06
5.6391e-05
6.26774e-06
5.56254e-05
9.24967e-06
5.45556e-05
1.20782e-05
5.3469e-05
1.47406e-05
5.2133e-05
1.72375e-05
5.0544e-05
1.95691e-05
4.8727e-05
2.17433e-05
4.67088e-05
2.37669e-05
4.45018e-05
2.56463e-05
4.21195e-05
2.73854e-05
3.95701e-05
2.89902e-05
3.6865e-05
3.04456e-05
3.39855e-05
3.17448e-05
3.09311e-05
3.28772e-05
2.77301e-05
3.38266e-05
2.4361e-05
3.45794e-05
2.08486e-05
3.5115e-05
1.72401e-05
3.54286e-05
1.35634e-05
3.55182e-05
9.81373e-06
3.53947e-05
6.02956e-06
3.50689e-05
2.22114e-06
-1.60662e-06
3.45489e-05
2.77269e-06
5.36182e-05
5.53318e-06
5.28648e-05
8.18962e-06
5.18991e-05
1.07291e-05
5.09295e-05
1.31377e-05
4.97243e-05
1.54067e-05
4.8275e-05
1.75309e-05
4.66027e-05
1.95126e-05
4.4727e-05
2.13506e-05
4.26638e-05
2.30561e-05
4.04139e-05
2.46249e-05
3.80012e-05
2.60659e-05
3.5424e-05
2.73673e-05
3.2684e-05
2.8518e-05
2.97804e-05
2.95088e-05
2.67392e-05
3.03209e-05
2.35489e-05
3.09378e-05
2.02316e-05
3.13688e-05
1.68091e-05
3.16206e-05
1.33116e-05
3.16847e-05
9.74954e-06
3.15578e-05
6.15652e-06
3.12492e-05
2.52972e-06
-1.12188e-06
3.07643e-05
2.44535e-06
5.11728e-05
4.89043e-06
5.04196e-05
7.2545e-06
4.95349e-05
9.52348e-06
4.86604e-05
1.16836e-05
4.75641e-05
1.37222e-05
4.62364e-05
1.56339e-05
4.46909e-05
1.74179e-05
4.29431e-05
1.90707e-05
4.10109e-05
2.05959e-05
3.88887e-05
2.19973e-05
3.65997e-05
2.32705e-05
3.41508e-05
2.44128e-05
3.15417e-05
2.54141e-05
2.8779e-05
2.62712e-05
2.5882e-05
2.69699e-05
2.28502e-05
2.75064e-05
1.9695e-05
2.78649e-05
1.64505e-05
2.80419e-05
1.31347e-05
2.80497e-05
9.74165e-06
2.78997e-05
6.30658e-06
2.75897e-05
2.83973e-06
-6.63928e-07
2.71316e-05
2.15487e-06
4.90178e-05
4.31429e-06
4.82601e-05
6.41245e-06
4.74367e-05
8.42707e-06
4.66457e-05
1.0349e-05
4.56421e-05
1.21688e-05
4.44166e-05
1.38747e-05
4.29849e-05
1.54598e-05
4.1358e-05
1.69302e-05
3.95404e-05
1.82758e-05
3.75431e-05
1.94984e-05
3.5377e-05
2.05959e-05
3.30533e-05
2.15732e-05
3.05643e-05
2.24255e-05
2.79267e-05
2.31504e-05
2.51571e-05
2.37367e-05
2.22639e-05
2.41722e-05
1.92594e-05
2.44608e-05
1.61619e-05
2.46095e-05
1.29859e-05
2.45949e-05
9.75622e-06
2.44171e-05
6.48444e-06
2.40949e-05
3.16187e-06
-2.05252e-07
2.36362e-05
1.8925e-06
4.71253e-05
3.78953e-06
4.6363e-05
5.62959e-06
4.55966e-05
7.40569e-06
4.48696e-05
9.10727e-06
4.39404e-05
1.07223e-05
4.28015e-05
1.22427e-05
4.14645e-05
1.36609e-05
3.99397e-05
1.49751e-05
3.82261e-05
1.61732e-05
3.6345e-05
1.72553e-05
3.42949e-05
1.82225e-05
3.2086e-05
1.90616e-05
2.97251e-05
1.9765e-05
2.72232e-05
2.03326e-05
2.45894e-05
2.07622e-05
2.18343e-05
2.10559e-05
1.89656e-05
2.12297e-05
1.59881e-05
2.12776e-05
1.29379e-05
2.12135e-05
9.82039e-06
2.10394e-05
6.65846e-06
2.07259e-05
3.47547e-06
2.53554e-07
2.0267e-05
1.65504e-06
4.54702e-05
3.31433e-06
4.47037e-05
4.93249e-06
4.39784e-05
6.48565e-06
4.33164e-05
7.97059e-06
4.24554e-05
9.38174e-06
4.13903e-05
1.07136e-05
4.01326e-05
1.19558e-05
3.86975e-05
1.30951e-05
3.70868e-05
1.41283e-05
3.53117e-05
1.50486e-05
3.33745e-05
1.5853e-05
3.12816e-05
1.65477e-05
2.90304e-05
1.71375e-05
2.66334e-05
1.76132e-05
2.41137e-05
1.79736e-05
2.14738e-05
1.82094e-05
1.87298e-05
1.82959e-05
1.59016e-05
1.82409e-05
1.29929e-05
1.80671e-05
9.99419e-06
1.77897e-05
6.93592e-06
1.74355e-05
3.82971e-06
7.02134e-07
1.69868e-05
1.46446e-06
4.40057e-05
2.86783e-06
4.33003e-05
4.22448e-06
4.26217e-05
5.53562e-06
4.20052e-05
6.79658e-06
4.11945e-05
8.00105e-06
4.01858e-05
9.14988e-06
3.89838e-05
1.02411e-05
3.76062e-05
1.12618e-05
3.60661e-05