/*--------------------------------*- C++ -*----------------------------------*\
| =========                 |                                                 |
| \\      /  F ield         | OpenFOAM: The Open Source CFD Toolbox           |
|  \\    /   O peration     | Version:  2.4.0                                 |
|   \\  /    A nd           | Web:      www.OpenFOAM.org                      |
|    \\/     M anipulation  |                                                 |
\*---------------------------------------------------------------------------*/
FoamFile
{
    version     2.0;
    format      ascii;
    class       surfaceScalarField;
    location    "0.95";
    object      phi.air;
}
// * * * * * * * * * * * * * * * * * * * * * * * * * * * * * * * * * * * * * //

dimensions      [0 3 -1 0 0 0 0];

internalField   nonuniform List<scalar> 
4432
(
-1.07623e-05
1.07614e-05
-1.83138e-05
7.55083e-06
-2.29178e-05
4.60342e-06
-2.46586e-05
1.74036e-06
-2.43693e-05
-2.89546e-07
-2.31861e-05
-1.18344e-06
-2.12936e-05
-1.8925e-06
-1.92931e-05
-2.00051e-06
-1.78096e-05
-1.48335e-06
-1.69101e-05
-8.99458e-07
-1.60094e-05
-9.00599e-07
-1.46381e-05
-1.37121e-06
-1.3168e-05
-1.46991e-06
-1.20563e-05
-1.11162e-06
-1.13524e-05
-7.03896e-07
-1.0786e-05
-5.66316e-07
-9.95353e-06
-8.32402e-07
-8.45584e-06
-1.49764e-06
-6.16967e-06
-2.28611e-06
-3.76896e-06
-2.40066e-06
-2.58554e-06
-1.18336e-06
-2.14235e-06
-4.43131e-07
-2.14231e-06
-1.06524e-05
2.14147e-05
-1.80756e-05
1.49733e-05
-2.25841e-05
9.11112e-06
-2.44859e-05
3.64151e-06
-2.46283e-05
-1.47527e-07
-2.36048e-05
-2.20722e-06
-2.15756e-05
-3.92178e-06
-1.94181e-05
-4.15795e-06
-1.78524e-05
-3.04889e-06
-1.66658e-05
-2.08583e-06
-1.5436e-05
-2.13023e-06
-1.42139e-05
-2.5932e-06
-1.30401e-05
-2.64346e-06
-1.21425e-05
-2.00909e-06
-1.14892e-05
-1.35713e-06
-1.06631e-05
-1.39226e-06
-9.55045e-06
-1.94499e-06
-7.96624e-06
-3.08178e-06
-5.71684e-06
-4.53542e-06
-3.37377e-06
-4.74365e-06
-1.25005e-06
-3.307e-06
-2.25472e-07
-1.46762e-06
-2.36768e-06
-1.28577e-05
3.46292e-05
-2.00491e-05
2.22595e-05
-2.34369e-05
1.25075e-05
-2.47125e-05
4.91708e-06
-2.47573e-05
-1.02797e-07
-2.3719e-05
-3.24564e-06
-2.16475e-05
-5.99326e-06
-1.93651e-05
-6.44025e-06
-1.75694e-05
-4.84444e-06
-1.62347e-05
-3.42044e-06
-1.51156e-05
-3.24918e-06
-1.42073e-05
-3.50141e-06
-1.33763e-05
-3.47427e-06
-1.24065e-05
-2.9788e-06
-1.13942e-05
-2.36939e-06
-1.02231e-05
-2.56322e-06
-8.92872e-06
-3.23931e-06
-7.55373e-06
-4.45669e-06
-5.86781e-06
-6.22127e-06
-3.9556e-06
-6.65525e-06
-1.60259e-06
-5.65077e-06
6.3927e-08
-3.11018e-06
-2.29482e-06
-1.71667e-05
5.05241e-05
-2.58012e-05
3.12007e-05
-2.87693e-05
1.56189e-05
-2.89545e-05
5.12536e-06
-2.72849e-05
-1.77137e-06
-2.4534e-05
-5.99584e-06
-2.22859e-05
-8.22697e-06
-2.01589e-05
-8.50021e-06
-1.79785e-05
-6.91636e-06
-1.62473e-05
-5.03419e-06
-1.51133e-05
-4.28482e-06
-1.44275e-05
-4.12696e-06
-1.37668e-05
-4.09934e-06
-1.28126e-05
-3.90967e-06
-1.14772e-05
-3.68796e-06
-9.90095e-06
-4.11764e-06
-8.57141e-06
-4.54839e-06
-7.44047e-06
-5.57621e-06
-6.26502e-06
-7.36191e-06
-4.59938e-06
-8.20747e-06
-1.84095e-06
-7.66498e-06
-1.52236e-07
-3.04286e-06
-1.03995e-06
-2.45623e-05
6.44173e-05
-3.26316e-05
3.8174e-05
-3.4189e-05
1.7341e-05
-3.32524e-05
4.31956e-06
-3.07965e-05
-4.10126e-06
-2.79732e-05
-8.46049e-06
-2.55979e-05
-1.00887e-05
-2.33605e-05
-1.04563e-05
-2.10226e-05
-9.62796e-06
-1.87237e-05
-8.06316e-06
-1.71981e-05
-6.40541e-06
-1.60559e-05
-5.29202e-06
-1.49842e-05
-4.83686e-06
-1.35009e-05
-4.92571e-06
-1.14662e-05
-5.19557e-06
-9.64513e-06
-5.28726e-06
-8.34586e-06
-5.15087e-06
-7.26407e-06
-6.13662e-06
-6.05082e-06
-8.10397e-06
-4.40542e-06
-9.48753e-06
-2.99328e-06
-4.5223e-06
-8.19491e-07
3.99459e-06
1.6712e-06
-3.62354e-05
7.9026e-05
-4.36798e-05
3.99567e-05
-4.31393e-05
1.63488e-05
-3.93831e-05
8.59057e-07
-3.47473e-05
-9.25563e-06
-3.04524e-05
-1.69539e-05
-2.71971e-05
-2.14305e-05
-2.47562e-05
-2.46456e-05
-2.2355e-05
-2.70354e-05
-1.89777e-05
-2.86664e-05
-1.62321e-05
-2.63941e-05
-1.55847e-05
-2.08934e-05
-1.60252e-05
-1.73071e-05
-1.64531e-05
-1.63942e-05
-1.57197e-05
-1.69294e-05
-1.36927e-05
-1.75524e-05
-1.09451e-05
-1.76624e-05
-8.19283e-06
-1.84099e-05
-5.41102e-06
-2.12669e-05
-2.77592e-06
-2.40359e-05
-2.15575e-06
-2.36707e-05
-4.86705e-06
-2.25326e-05
-2.82782e-05
-3.68817e-05
9.61885e-05
-4.46428e-05
3.72669e-05
-4.62603e-05
9.68451e-06
-4.30701e-05
-1.0777e-05
-3.64479e-05
-2.95131e-05
-3.17504e-05
-3.98242e-05
-3.03568e-05
-4.45723e-05
-2.9486e-05
-4.93673e-05
-2.4865e-05
-4.96573e-05
-1.63391e-05
-4.57275e-05
-8.46118e-06
-3.89442e-05
-4.92691e-06
-3.14776e-05
-5.87789e-06
-2.05733e-05
-9.11267e-06
-1.79042e-05
-1.25437e-05
-1.88554e-05
-1.41806e-05
-2.2089e-05
-1.29837e-05
-2.62338e-05
-9.72201e-06
-3.00066e-05
-8.13884e-06
-3.17922e-05
-1.1776e-05
-3.00895e-05
-1.98816e-05
-3.33033e-05
-1.53476e-05
-4.96116e-05
-0.000123671
-2.54574e-05
0.000114875
-3.6432e-05
4.38338e-05
-3.82071e-05
5.3879e-06
-3.52935e-05
-2.35567e-05
-3.38297e-05
-4.16808e-05
-3.49334e-05
-3.99461e-05
-3.35384e-05
-3.2401e-05
-2.93235e-05
-2.98282e-05
-2.15937e-05
-3.19749e-05
-1.277e-05
-3.32473e-05
-5.5152e-06
-2.66513e-05
8.97886e-07
-1.70395e-05
5.51719e-06
-8.46338e-06
6.70819e-06
-2.67464e-06
3.74779e-06
6.20752e-07
-2.82248e-07
-1.1718e-06
-4.36513e-06
-4.05935e-06
-9.8355e-06
-4.34633e-06
-1.69954e-05
-3.67822e-06
-2.47907e-05
3.91895e-07
-3.28291e-05
6.74831e-06
-2.72713e-05
9.86094e-05
0.000174661
7.63357e-06
0.000207777
1.77907e-05
0.000209555
2.26616e-05
8.26385e-05
2.70596e-05
-1.33719e-05
2.92329e-05
-2.42877e-05
2.94057e-05
-2.45882e-05
2.91429e-05
-2.25984e-05
2.90912e-05
-1.98106e-05
2.65677e-05
9.63645e-06
2.45966e-05
0.000107427
2.32371e-05
0.000106791
2.12554e-05
4.12501e-05
2.15688e-05
4.03986e-05
2.41632e-05
4.42293e-05
1.97241e-05
2.75969e-05
5.30021e-06
1.58194e-05
-4.44619e-06
2.67641e-05
-8.31853e-06
1.43936e-05
-1.68119e-06
2.57852e-05
9.34146e-06
4.45301e-05
-0.000236606
3.18202e-05
-0.000303732
3.19582e-05
-6.18621e-05
3.47091e-05
-3.79547e-05
3.28167e-05
-2.54955e-05
3.06699e-05
-2.91012e-05
2.8475e-05
-2.9524e-05
1.56839e-05
-5.44859e-05
-5.66569e-06
-7.52818e-05
-1.01648e-05
5.75062e-06
-8.53404e-06
1.0802e-05
-1.14045e-05
1.91748e-05
-3.77001e-06
1.05629e-05
3.07305e-06
3.67313e-06
-4.94213e-07
2.29935e-05
-5.55796e-06
2.2129e-05
-8.76399e-06
1.25306e-05
-1.2581e-05
-1.28889e-05
6.08967e-05
-1.52024e-05
0.000116836
8.91577e-06
0.000200197
1.61944e-05
0.000172845
1.85519e-05
8.07897e-05
1.86647e-05
3.47124e-05
1.58205e-05
3.56898e-05
5.44688e-06
3.73606e-05
-2.34222e-05
0.000206539
-4.90821e-05
0.000164884
-5.57378e-05
0.00013296
-4.70796e-05
0.000110105
-3.8833e-05
4.12708e-05
-2.91513e-05
-1.98463e-05
-1.11196e-05
-1.19058e-05
-4.08856e-06
1.98034e-05
-6.30503e-06
2.60617e-05
-5.0258e-06
1.35278e-05
-1.62136e-05
1.48082e-05
2.63114e-05
2.8028e-05
3.22834e-06
2.40464e-05
-6.92252e-05
2.34146e-05
-0.000111369
1.90152e-05
-6.03737e-05
1.65359e-05
-2.50721e-05
1.01107e-05
-1.4709e-05
-1.30574e-05
-3.48365e-07
-3.29554e-05
-3.55511e-05
-2.7089e-05
6.94109e-05
-4.36002e-05
3.18103e-05
-4.48307e-05
-1.72821e-06
-4.38994e-05
-3.41462e-05
-3.57974e-05
-3.51637e-05
-2.42773e-05
-2.82739e-05
-1.23896e-05
-3.8482e-07
-6.77098e-06
2.07824e-05
-3.87282e-06
5.61975e-06
-2.06441e-05
3.03413e-06
2.67736e-05
-5.8388e-06
4.41997e-05
-1.47164e-06
9.24507e-05
2.23914e-06
0.00016768
2.64312e-06
0.000148875
-1.56996e-06
6.07861e-05
-1.53155e-06
4.22494e-05
8.32283e-07
3.78758e-05
1.35928e-05
8.31714e-05
2.03725e-05
0.000118048
-1.39469e-05
1.49352e-05
-2.7113e-05
-6.56031e-05
-3.43147e-05
-6.28457e-05
-3.56691e-05
-6.44611e-05
-3.40845e-05
4.41528e-06
-1.90363e-05
9.1253e-06
-8.25695e-06
7.66189e-06
-2.32492e-06
-1.19935e-06
-2.21615e-05
8.60187e-06
3.40886e-05
1.85864e-05
3.59367e-05
1.77276e-05
1.83098e-05
1.26354e-05
-3.1281e-05
2.7821e-07
-0.000100573
-6.3854e-06
3.08002e-06
-1.3298e-05
7.67571e-06
-1.26631e-05
1.22263e-05
-1.46352e-06
4.0651e-05
2.53201e-05
0.000119153
-1.37827e-05
0.000126763
-2.65852e-05
4.56237e-05
-1.35071e-05
3.65307e-05
-2.21687e-05
-2.28894e-06
-4.20821e-05
-1.55148e-05
-2.59176e-05
5.30954e-05
-9.73887e-06
3.07949e-05
-1.39905e-06
3.40507e-06
-5.0069e-06
5.4791e-06
1.61545e-05
1.36035e-05
4.21261e-05
-5.4508e-07
5.66721e-05
-1.09377e-05
0.000129609
-1.5375e-05
0.000151948
-1.22145e-05
3.92433e-05
-1.50488e-05
2.83916e-05
-1.09434e-05
1.7194e-05
-3.2822e-06
2.93615e-05
1.0653e-05
6.93258e-05
-2.41752e-07
9.13327e-05
-2.06914e-05
3.50811e-05
-2.59844e-05
9.25095e-06
-6.92749e-06
4.11956e-05
-3.24002e-05
-4.39128e-07
-3.34717e-05
-1.06392e-05
-1.42471e-05
5.30293e-05
-2.93981e-06
3.71232e-05
-3.56639e-05
5.12601e-06
-2.00093e-05
1.50526e-05
1.54141e-05
1.14562e-05
3.17596e-05
-1.90107e-06
2.83988e-05
-2.11086e-05
2.84565e-05
-1.88265e-05
3.65514e-05
-1.86879e-05
2.27878e-05
-1.79119e-05
2.99353e-05
-7.61214e-06
7.35256e-05
4.78378e-06
0.00010362
3.75696e-06
9.44126e-05
-1.28225e-05
5.17812e-05
-1.66439e-05
3.37963e-05
-1.06861e-05
3.41331e-05
-4.52587e-07
1.62241e-05
-7.79054e-06
-9.69147e-05
-3.86046e-05
-0.000217272
-1.46649e-05
-0.000193526
-0.000147087
1.43692e-05
0.000106049
5.52553e-06
5.95047e-05
-6.86452e-07
2.33116e-05
-5.80254e-06
2.46688e-07
-1.2738e-05
-1.47196e-05
-1.29888e-05
-2.26439e-05
-6.72257e-06
-2.87077e-05
3.90669e-06
-3.46013e-05
1.43202e-05
-3.92595e-05
2.18815e-05
-3.80872e-05
2.7238e-05
-2.9662e-05
2.96435e-05
-1.86217e-05
2.46044e-05
-3.50561e-06
1.57127e-05
5.96769e-06
7.63347e-06
8.4022e-06
-1.09417e-06
7.07351e-06
-1.0168e-05
3.84092e-06
-1.67687e-05
-4.35862e-07
-1.1854e-05
-1.0393e-05
-8.97872e-06
-4.32973e-06
-4.05395e-05
3.82103e-06
-3.04722e-05
-1.82344e-05
-6.10941e-05
-0.00011425
3.84812e-05
8.27835e-05
5.28274e-05
6.49677e-05
5.39972e-05
3.92077e-05
5.08027e-05
1.45143e-05
4.50703e-05
-2.90426e-06
4.10503e-05
-1.4766e-05
4.00836e-05
-2.47938e-05
4.14026e-05
-3.3374e-05
4.29381e-05
-3.82735e-05
4.73492e-05
-4.02175e-05
5.3125e-05
-3.22732e-05
5.72027e-05
-7.12869e-06
5.91766e-05
-2.03236e-07
5.68107e-05
9.12993e-06
5.07779e-05
1.34252e-05
3.68324e-05
2.12077e-05
1.82771e-05
2.21567e-05
3.33905e-06
1.50311e-05
-3.96549e-06
-1.32333e-06
-2.45347e-05
1.25259e-05
-0.000100566
7.81886e-05
-6.87742e-05
0.000137656
0.000117586
-7.0976e-06
3.18658e-05
5.20861e-05
5.02206e-05
4.96504e-05
5.67403e-05
3.5528e-05
5.45214e-05
1.86594e-05
4.9743e-05
3.63571e-06
4.59984e-05
-9.32223e-06
4.56053e-05
-2.28159e-05
4.71794e-05
-3.36293e-05
5.07663e-05
-4.01948e-05
5.90593e-05
-2.96662e-05
6.73877e-05
6.3354e-05
6.78518e-05
0.00010416
6.04794e-05
0.000122732
4.70382e-05
8.5453e-05
3.35427e-05
5.67527e-05
2.59162e-05
4.39194e-05
1.69805e-05
7.05067e-05
5.10987e-06
3.96088e-05
-3.16534e-05
3.64511e-05
-0.000104946
8.36467e-05
-0.000183108
0.000148282
-0.000178014
0.000158044
8.14038e-05
-0.000130739
2.66022e-05
2.48842e-05
3.95284e-05
3.70433e-05
4.4032e-05
3.1791e-05
4.32613e-05
2.00847e-05
3.99871e-05
7.32661e-06
3.72611e-05
-6.29212e-06
3.6756e-05
-2.20456e-05
3.66464e-05
-3.23691e-05
5.03273e-05
-4.19152e-05
9.65225e-05
-2.33525e-05
9.03314e-05
-1.52379e-06
6.6266e-05
3.5813e-05
2.52286e-05
8.60565e-05
9.3381e-06
0.000116025
1.61053e-06
8.4205e-05
-1.92902e-05
6.04438e-05
-7.01051e-05
0.000119181
-0.000107636
0.000140349
-0.000184753
0.000138579
-0.000267133
0.000162113
-0.000291906
0.000170066
-0.000233291
0.000124406
5.55256e-05
-0.000212881
1.43768e-05
5.43534e-06
1.6939e-05
3.217e-05
1.80941e-05
3.01807e-05
1.70422e-05
2.11499e-05
1.3113e-05
1.13063e-05
8.24151e-06
-1.30942e-06
5.52976e-06
-1.92731e-05
-1.00725e-05
-1.72208e-05
-5.82484e-06
3.88279e-05
-2.87013e-06
6.09982e-05
-2.90906e-05
2.19352e-05
-5.88738e-05
9.77213e-06
-8.71622e-05
3.4896e-05
-0.000140908
9.09198e-05
-0.000182366
0.000190016
-0.000154901
0.00017948
-0.000254226
0.000150571
-0.000271757
0.00016356
-0.000276351
0.000179316
-0.000302254
0.000206365
-0.000296437
0.000228857
-0.000265806
0.000223294
0.000183348
-0.00028519
-2.48842e-06
3.15498e-05
-9.45478e-06
3.81071e-05
-1.44141e-05
3.30811e-05
-1.60586e-05
2.10562e-05
-1.76495e-05
1.37033e-05
-3.10758e-05
1.13873e-05
-7.38718e-05
2.42217e-05
-8.57576e-05
4.30427e-05
-0.000105358
7.45026e-05
-0.000110493
6.08044e-05
-0.000116309
5.55591e-05
-0.000126438
5.77807e-05
-0.00018171
6.65198e-05
-0.000253314
0.000101499
-0.000288524
0.000132686
-0.000286208
0.000140609
-0.000287873
0.000201291
-0.000264245
0.000234778
-0.000230533
0.000237412
-0.000219899
0.000230511
-0.000245611
0.000203179
-0.000275419
0.000139345
8.87002e-05
-0.000308417
-1.61384e-05
8.89983e-05
-1.98544e-05
9.27249e-05
-2.69775e-05
4.95049e-05
-3.61682e-05
4.74345e-05
-5.81226e-05
3.58423e-05
-0.00010665
7.00583e-05
-0.00014549
0.000123322
-0.000131912
0.000102901
-0.000119929
7.53365e-05
-0.000116807
5.41408e-05
-0.000116199
4.35052e-05
-0.000128991
2.60836e-05
-0.000223266
9.94189e-05
-0.000297502
0.000130663
-0.000360911
0.000156898
-0.000352705
7.83789e-05
-0.000290275
4.52377e-05
-0.000245668
9.44597e-05
-0.000222692
0.000141165
-0.000219301
0.000153941
-0.000238361
0.000154263
-0.000287244
0.000113548
5.9343e-05
-0.000329138
-3.25162e-05
0.000121245
-4.36855e-05
0.000148991
-4.29986e-05
8.78583e-05
-7.77941e-05
9.7231e-05
-0.000133098
0.000116835
-0.000162698
0.000163887
-0.000169312
0.000152793
-0.00016543
0.000122954
-0.000152403
9.64907e-05
-0.000116412
6.60003e-05
-0.000112074
4.40459e-05
-0.000132281
3.64617e-05
-0.000183674
0.000122745
-0.00022808
0.000168313
-0.000234778
0.00015994
-0.000226904
6.21267e-05
-0.000233901
4.18622e-05
-0.000229221
7.05623e-05
-0.000232897
0.000111213
-0.000248372
0.000140295
-0.00026694
0.000161286
-0.000268185
0.000112319
-2.30507e-06
-0.000207694
-2.76067e-05
0.000146219
-0.000151766
0.000201586
-0.000109764
0.000243661
-0.000156937
0.000205061
-0.000167879
0.00019463
-0.000160199
0.000208436
-0.000176775
0.000182195
-0.000188278
8.41536e-05
-0.000183511
4.65314e-05
-0.000165426
2.80898e-05
-0.000161053
1.70088e-05
-0.00019033
4.04693e-05
-0.000226911
0.000151774
-0.000254644
0.000196044
-0.000262516
0.000167799
-0.00026993
6.94903e-05
-0.000277462
4.92633e-05
-0.000268111
6.03224e-05
-0.000266768
0.000107152
-0.000268099
0.000138892
-0.000254816
0.000147504
-0.000241966
9.94629e-05
2.05019e-05
-0.000264773
-9.83727e-05
0.000186375
-0.000209622
0.000236525
-0.000219963
0.000174021
-0.00021756
0.00017176
-0.000192317
0.000164589
-0.000191728
0.000140145
-0.000180832
8.36073e-05
-0.000182228
2.12553e-05
-0.000193497
5.27172e-06
-0.000195118
-1.55341e-05
-0.00021059
5.91959e-06
-0.000217145
4.00893e-05
-0.000224939
0.000159208
-0.000245876
0.00021698
-0.000261277
0.000183199
-0.000275417
8.36303e-05
-0.000283752
5.75993e-05
-0.00028214
5.87081e-05
-0.000274986
9.9981e-05
-0.000263859
0.000127743
-0.000247786
0.000131429
-0.000252418
0.000104095
3.16941e-05
-0.00026361
-0.000112716
0.000278722
-0.000203075
0.00031185
-0.000253047
0.000182971
-0.000240174
0.000101071
-0.000226437
0.000101351
-0.000223348
0.00010699
-0.000250485
9.61217e-05
-0.000225643
-5.96927e-06
-0.000199962
-2.13764e-05
-0.000195219
-2.13785e-05
-0.000180918
-9.02192e-06
-0.000167511
2.65966e-05
-0.000167252
0.000158967
-0.000194819
0.000244569
-0.000227704
0.000216084
-0.000257414
0.000113341
-0.000264437
6.46221e-05
-0.00026395
5.8221e-05
-0.000254339
9.03709e-05
-0.000243046
0.00011645
-0.000231662
0.000120044
-0.000233612
0.000106045
4.55586e-05
-0.000247477
-1.58797e-05
0.000293749
-2.76791e-05
0.00032151
-9.37288e-05
0.000240133
-0.000135357
0.000135322
-0.000138543
9.59016e-05
-0.000124364
8.89428e-05
-9.93512e-05
7.08011e-05
-0.000127262
2.19405e-05
-0.000150065
1.42669e-06
-0.000161048
-1.03985e-05
-0.000169622
-4.52438e-07
-0.000160741
1.77204e-05
-0.000102691
0.000100948
-8.12407e-05
0.00022312
-0.000118604
0.000253443
-0.000178628
0.000173364
-0.000206575
9.25694e-05
-0.000212023
6.36687e-05
-0.000204032
8.23803e-05
-0.000194327
0.000106745
-0.000188031
0.000113748
-0.000183965
0.000101979
4.31953e-05
-0.000181601
1.37176e-05
0.000280026
5.65909e-05
0.00027855
5.95592e-05
0.000236665
3.8633e-05
0.00015578
3.15039e-05
0.000102735
2.89973e-05
9.14007e-05
1.62586e-05
8.35392e-05
-1.6981e-05
5.51801e-05
-4.56596e-05
3.01052e-05
-7.2282e-05
1.62238e-05
-9.45137e-05
2.17795e-05
-0.000112829
3.60361e-05
-8.42658e-05
7.23697e-05
-1.48666e-05
0.000153684
1.38536e-05
0.000224715
-2.0313e-05
0.000207533
-7.28113e-05
0.000145068
-0.000108117
9.89744e-05
-0.000118011
9.22745e-05
-0.000113328
0.000102063
-0.000102699
0.000103119
-7.9269e-05
7.85488e-05
1.70564e-05
-5.31303e-05
6.17828e-06
0.000273847
4.07813e-05
0.000243947
6.82604e-05
0.000209183
7.33812e-05
0.000150657
7.26086e-05
0.000103507
7.30468e-05
9.09623e-05
6.875e-05
8.7836e-05
4.67894e-05
7.71407e-05
1.16489e-05
6.52458e-05
-2.48007e-05
5.26733e-05
-4.95086e-05
4.64873e-05
-6.27706e-05
4.92968e-05
-6.01718e-05
6.97603e-05
-1.294e-05
0.00010644
4.88003e-05
0.00016298
6.87981e-05
0.000187531
5.2407e-05
0.000161458
2.82395e-05
0.000123143
1.5264e-05
0.00010525
2.00328e-05
9.72938e-05
4.32081e-05
7.99439e-05
7.23743e-05
4.93826e-05
-1.22079e-05
0.000101639
-2.02214e-06
0.000275869
1.60338e-05
0.000225891
4.49335e-05
0.000180283
6.23469e-05
0.000133243
6.79287e-05
9.7925e-05
7.20546e-05
8.68364e-05
7.4863e-05
8.50275e-05
6.8858e-05
8.31456e-05
5.21082e-05
8.19956e-05
2.65941e-05
7.81874e-05
1.24195e-06
7.18395e-05
-1.1256e-05
6.17947e-05
-1.37008e-05
7.22042e-05
1.45559e-06
9.1284e-05
4.34745e-05
0.000120959
8.28461e-05
0.000148157
0.000100562
0.000143744
0.000105043
0.000118661
0.000111821
9.84718e-05
0.000125437
8.36773e-05
0.000145012
6.03692e-05
0.000170453
2.39412e-05
-3.14726e-05
0.000189718
-6.94847e-08
0.000275939
1.12072e-05
0.000214614
3.08384e-05
0.000160652
4.70792e-05
0.000117002
5.48447e-05
9.01595e-05
6.09747e-05
8.07064e-05
6.9652e-05
7.63502e-05
7.24394e-05
8.03582e-05
6.79641e-05
8.64709e-05
5.70549e-05
8.90966e-05
4.12066e-05
8.76877e-05
2.92444e-05
7.37569e-05
2.68984e-05
7.45502e-05
3.4918e-05
8.32644e-05
5.68143e-05
9.90612e-05
9.22617e-05
0.00011271
0.000118164
0.000117844
0.00013699
9.98363e-05
0.000155802
7.96557e-05
0.000179041
6.04355e-05
0.000197931
4.14778e-05
0.000213214
8.65883e-06
-3.82664e-05
0.000220007
1.09956e-05
0.000264943
2.03098e-05
0.0002053
3.38838e-05
0.000147078
4.52248e-05
0.000105661
5.1818e-05
8.35663e-05
5.62845e-05
7.62399e-05
6.16194e-05
7.10153e-05
6.80526e-05
7.3925e-05
7.03366e-05
8.41868e-05
6.79278e-05
9.15054e-05
6.41484e-05
9.1467e-05
5.76121e-05
8.02932e-05
5.66341e-05
7.55283e-05
6.22484e-05
7.765e-05
7.70141e-05
8.42954e-05
0.000100489
8.92357e-05
0.000126171
9.2162e-05
0.000143746
8.22609e-05
0.000162588
6.0812e-05
0.000185193
3.78301e-05
0.000205834
2.08363e-05
0.000216441
-1.94726e-06
-3.74086e-05
0.000215583
2.32935e-05
0.00024165
3.46296e-05
0.000193964
4.42438e-05
0.000137464
5.09429e-05
9.89622e-05
5.44078e-05
8.01015e-05
5.62151e-05
7.44325e-05
5.70425e-05
7.01879e-05
6.02859e-05
7.06815e-05
6.63371e-05
7.81356e-05
6.98607e-05
8.79818e-05
7.18065e-05
8.95212e-05
7.12821e-05
8.08175e-05
7.25098e-05
7.43006e-05
7.64114e-05
7.37484e-05
8.56453e-05
7.50614e-05
9.96736e-05
7.52075e-05
0.000120075
7.17602e-05
0.000135835
6.65007e-05
0.000149317
4.73297e-05
0.000165248
2.18986e-05
0.000180252
5.83233e-06
0.00018706
-8.75439e-06
-3.29772e-05
0.000182628
3.1721e-05
0.000209929
4.62592e-05
0.000179426
5.32121e-05
0.000130511
5.59516e-05
9.62227e-05
5.58707e-05
8.01824e-05
5.55539e-05
7.47493e-05
5.46233e-05
7.11185e-05
5.44422e-05
7.08625e-05
5.86886e-05
7.38891e-05
6.6276e-05
8.03944e-05
7.21809e-05
8.36164e-05
7.48717e-05
7.81266e-05
7.66693e-05
7.2503e-05
8.00223e-05
7.03954e-05
8.62048e-05
6.8879e-05
9.58194e-05
6.55928e-05
0.000108857
5.87228e-05
0.000122498
5.28598e-05
0.000133548
3.62789e-05
0.000140832
1.46148e-05
0.000144996
1.66857e-06
0.000148012
-1.17707e-05
-3.12816e-05
0.000146317
3.17059e-05
0.000178223
4.96173e-05
0.000161514
5.66261e-05
0.000123502
5.71601e-05
9.56887e-05
5.582e-05
8.15224e-05
5.44997e-05
7.60696e-05
5.31067e-05
7.25115e-05
5.25216e-05
7.14476e-05
5.43236e-05
7.20872e-05
6.06216e-05
7.40964e-05
6.83417e-05
7.58963e-05
7.34664e-05
7.30019e-05
7.59644e-05
7.0005e-05
7.96952e-05
6.66646e-05
8.5227e-05
6.33471e-05
9.29983e-05
5.78216e-05
0.000101467
5.02544e-05
0.0001118
4.25261e-05
0.000119956
2.81227e-05
0.00012236
1.22109e-05
0.000122759
1.27034e-06
0.000123631
-1.2643e-05
-2.74248e-05
0.000119774
2.73135e-05
0.000150909
4.60387e-05
0.000142789
5.44894e-05
0.000115051
5.56116e-05
9.45665e-05
5.41749e-05
8.29591e-05
5.25858e-05
7.76586e-05
5.15021e-05
7.35952e-05
5.14433e-05
7.15064e-05
5.31363e-05
7.03942e-05
5.74208e-05
6.98118e-05
6.35123e-05
6.98047e-05
6.87224e-05
6.77919e-05
7.31101e-05
6.56172e-05
7.78751e-05
6.18997e-05
8.36236e-05
5.75986e-05
9.03554e-05
5.10898e-05
9.6795e-05
4.38147e-05
0.000103796
3.55253e-05
0.000108189
2.37292e-05
0.000108496
1.19039e-05
0.000108511
1.2553e-06
0.000107131
-1.1263e-05
-2.18528e-05
0.000101559
2.15835e-05
0.000129326
3.85959e-05
0.000125777
4.71605e-05
0.000106487
4.94454e-05
9.22816e-05
4.92047e-05
8.31998e-05
4.89251e-05
7.79382e-05
4.89685e-05
7.35518e-05
4.97306e-05
7.07442e-05
5.16299e-05
6.84949e-05
5.48452e-05
6.65965e-05
5.93934e-05
6.52565e-05
6.39251e-05
6.32601e-05
6.89249e-05
6.06174e-05
7.40799e-05
5.67447e-05
7.95802e-05
5.20982e-05
8.5106e-05
4.55641e-05
9.00751e-05
3.88456e-05
9.45116e-05
3.10887e-05
9.68473e-05
2.13935e-05
9.72067e-05
1.15445e-05
9.65314e-05
1.93055e-06
9.40061e-05
-8.7378e-06
-1.66637e-05
8.8817e-05
1.62331e-05
0.000113093
3.05795e-05
0.00011143
3.85501e-05
9.85162e-05
4.19803e-05
8.88514e-05
4.35057e-05
8.16743e-05
4.47391e-05
7.67048e-05
4.58745e-05
7.24164e-05
4.73975e-05
6.92213e-05
4.94893e-05
6.64031e-05
5.22093e-05
6.38765e-05
5.58244e-05
6.16413e-05
5.99775e-05
5.91071e-05
6.46143e-05
5.59806e-05
6.93247e-05
5.20344e-05
7.40667e-05
4.73561e-05
7.83486e-05
4.12823e-05
8.21582e-05
3.5036e-05
8.53575e-05
2.78894e-05
8.69692e-05
1.97817e-05
8.72033e-05
1.13105e-05
8.63887e-05
2.7451e-06
8.36529e-05
-6.00203e-06
-1.26469e-05
7.9636e-05
1.22389e-05
0.000100854
2.39451e-05
9.97242e-05
3.12347e-05
9.12267e-05
3.55095e-05
8.45766e-05
3.8255e-05
7.89288e-05
4.04871e-05
7.44726e-05
4.24532e-05
7.04502e-05
4.4546e-05
6.71285e-05
4.68988e-05
6.40503e-05
4.95308e-05
6.12445e-05
5.27011e-05
5.8471e-05
5.63695e-05
5.54387e-05
6.03688e-05
5.19812e-05
6.44397e-05
4.79635e-05
6.83695e-05
4.34262e-05
7.17657e-05
3.7886e-05
7.4717e-05
3.20847e-05
7.7062e-05
2.55443e-05
7.82587e-05
1.8585e-05
7.85869e-05
1.09822e-05
7.78513e-05
3.48072e-06
7.54967e-05
-3.64746e-06
-9.71003e-06
7.25598e-05
9.5204e-06
9.13334e-05
1.89637e-05
9.02809e-05
2.55453e-05
8.4645e-05
3.02028e-05
7.9919e-05
3.36623e-05
7.54693e-05
3.65457e-05
7.15892e-05
3.90842e-05
6.79117e-05
4.1576e-05
6.46367e-05
4.41415e-05
6.14848e-05
4.68704e-05
5.85155e-05
4.98157e-05
5.55257e-05
5.2976e-05
5.22784e-05
5.62882e-05
4.8669e-05
5.9564e-05
4.46878e-05
6.27964e-05
4.01938e-05
6.56376e-05
3.50448e-05
6.81532e-05
2.95691e-05
7.00304e-05
2.36671e-05
7.11018e-05
1.75136e-05
7.13156e-05
1.07685e-05
7.0537e-05
4.25929e-06
6.87977e-05
-1.90817e-06
-7.65052e-06
6.67381e-05
7.67251e-06
8.36608e-05
1.53338e-05
8.26196e-05
2.1225e-05
7.87538e-05
2.58668e-05
7.52773e-05
2.95995e-05
7.17366e-05
3.28096e-05
6.8379e-05
3.56551e-05
6.50662e-05
3.83509e-05
6.1941e-05
4.0995e-05
5.88407e-05
4.37288e-05
5.57816e-05
4.65284e-05
5.27261e-05
4.9432e-05
4.93747e-05
5.2342e-05
4.5759e-05
5.51956e-05
4.18342e-05
5.79028e-05
3.74866e-05
6.02191e-05
3.27285e-05
6.21483e-05
2.76398e-05
6.35679e-05
2.22475e-05
6.44282e-05
1.66532e-05
6.45658e-05
1.06308e-05
6.40648e-05
4.76033e-06
6.3003e-05
-8.46385e-07
-6.13732e-06
6.14898e-05
6.39142e-06
7.72694e-05
1.27433e-05
7.62677e-05
1.80078e-05
7.34893e-05
2.24438e-05
7.08412e-05
2.61999e-05
6.79805e-05
2.95074e-05
6.50715e-05
3.24725e-05
6.21011e-05
3.52484e-05
5.91651e-05
3.79271e-05
5.6162e-05
4.05654e-05
5.31433e-05
4.32042e-05
5.00873e-05
4.57913e-05
4.67876e-05
4.83198e-05
4.32305e-05
5.07481e-05
3.94058e-05
5.29804e-05
3.52543e-05
5.49484e-05
3.07604e-05
5.65937e-05
2.59945e-05
5.78604e-05
2.09808e-05
5.86373e-05
1.58762e-05
5.87783e-05
1.04898e-05
5.83514e-05
5.18728e-06
5.74911e-05
1.38362e-08
-5.03205e-06
5.63858e-05
5.4196e-06
7.18498e-05
1.07775e-05
7.09098e-05
1.54671e-05
6.87997e-05
1.96015e-05
6.67068e-05
2.32371e-05
6.43449e-05
2.64905e-05
6.1818e-05
2.94418e-05
5.91498e-05
3.2199e-05
5.64079e-05
3.48091e-05
5.35518e-05
3.73183e-05
5.06342e-05
3.97914e-05
4.76142e-05
4.21722e-05
4.44068e-05
4.44671e-05
4.09356e-05
4.66199e-05
3.7253e-05
4.85867e-05
3.32876e-05
5.02616e-05
2.90855e-05
5.16061e-05
2.46499e-05
5.25808e-05
2.00061e-05
5.31832e-05
1.52739e-05
5.33243e-05
1.03487e-05
5.30809e-05
5.43075e-06
5.2478e-05
6.16704e-07
-4.1237e-06
5.15696e-05
4.67525e-06
6.71745e-05
9.28771e-06
6.62973e-05
1.34765e-05
6.46109e-05
1.72847e-05
6.28986e-05
2.0724e-05
6.09057e-05
2.38448e-05
5.86972e-05
2.66983e-05
5.62963e-05
2.93534e-05
5.37528e-05
3.18398e-05
5.10654e-05
3.42129e-05
4.8261e-05
3.64895e-05
4.53375e-05
3.86595e-05
4.22369e-05
4.06897e-05
3.89054e-05
4.25736e-05
3.53691e-05
4.42396e-05
3.16215e-05
4.5672e-05
2.76532e-05
4.68406e-05
2.34813e-05
4.77172e-05
1.91296e-05
4.82854e-05
1.47056e-05
4.8462e-05
1.0172e-05
4.82588e-05
5.63395e-06
4.77453e-05
1.1302e-06
-3.35938e-06
4.6981e-05
4.06841e-06
6.31061e-05
8.08956e-06
6.22762e-05
1.1828e-05
6.08725e-05
1.52954e-05
5.94311e-05
1.84837e-05
5.77173e-05
2.14193e-05
5.57616e-05
2.41281e-05
5.35875e-05
2.66473e-05
5.12335e-05
2.89974e-05
4.87153e-05
3.12134e-05
4.60451e-05
3.33204e-05
4.32304e-05
3.53003e-05
4.0257e-05
3.71295e-05
3.70762e-05
3.87955e-05
3.37031e-05
4.02598e-05
3.01572e-05
4.15111e-05
2.64018e-05
4.25153e-05
2.24771e-05
4.3246e-05
1.83989e-05
4.36929e-05
1.42587e-05
4.38411e-05
1.00238e-05
4.37029e-05
5.77212e-06
4.32985e-05
1.5346e-06
-2.70407e-06
4.26432e-05
3.57158e-06
5.95345e-05
7.10472e-06
5.8743e-05
1.04429e-05
5.75343e-05
1.35796e-05
5.62944e-05
1.65046e-05
5.47923e-05
1.92282e-05
5.3038e-05
2.176e-05
5.10558e-05
2.41132e-05
4.88803e-05
2.63057e-05
4.65228e-05
2.83543e-05
4.39965e-05
3.02778e-05
4.13069e-05
3.20669e-05
3.84678e-05
3.37041e-05
3.5439e-05
3.51786e-05
3.22287e-05
3.64747e-05
2.88611e-05
3.75673e-05
2.53092e-05
3.8444e-05
2.16004e-05
3.90681e-05
1.77747e-05
3.94507e-05
1.38762e-05
3.95718e-05
9.90266e-06
3.94385e-05
5.90543e-06
3.90782e-05
1.89493e-06
-2.12692e-06
3.8501e-05
3.14668e-06
5.63878e-05
6.26746e-06
5.56223e-05
9.24926e-06
5.45525e-05
1.20776e-05
5.3466e-05
1.47399e-05
5.21301e-05
1.72367e-05
5.05412e-05
1.95682e-05
4.87243e-05
2.17423e-05
4.67062e-05
2.37658e-05
4.44994e-05
2.56451e-05
4.21171e-05
2.73841e-05
3.95679e-05
2.89888e-05
3.6863e-05
3.04442e-05
3.39837e-05
3.17434e-05
3.09295e-05
3.28758e-05
2.77287e-05
3.38252e-05
2.43598e-05
3.45781e-05
2.08475e-05
3.51137e-05
1.72392e-05
3.54274e-05
1.35625e-05
3.5517e-05
9.81303e-06
3.53935e-05
6.02899e-06
3.50677e-05
2.22068e-06
-1.60698e-06
3.45478e-05
2.77258e-06
5.36153e-05
5.53294e-06
5.28619e-05
8.18927e-06
5.18962e-05
1.07286e-05
5.09266e-05
1.31371e-05
4.97216e-05
1.5406e-05
4.82723e-05
1.75301e-05
4.66002e-05
1.95117e-05
4.47246e-05
2.13496e-05
4.26614e-05
2.3055e-05
4.04117e-05
2.46238e-05
3.79991e-05
2.60647e-05
3.54221e-05
2.73661e-05
3.26823e-05
2.85167e-05
2.97789e-05
2.95076e-05
2.67378e-05
3.03197e-05
2.35477e-05
3.09367e-05
2.02305e-05
3.13677e-05
1.68081e-05
3.16195e-05
1.33108e-05
3.16836e-05
9.74886e-06
3.15567e-05
6.15596e-06
3.12481e-05
2.52927e-06
-1.12221e-06
3.07633e-05
2.44524e-06
5.117e-05
4.89022e-06
5.04169e-05
7.25419e-06
4.95322e-05
9.52307e-06
4.86578e-05
1.16831e-05
4.75615e-05
1.37216e-05
4.62339e-05
1.56333e-05
4.46885e-05
1.74171e-05
4.29407e-05
1.90699e-05
4.10086e-05
2.0595e-05
3.88866e-05
2.19963e-05
3.65978e-05
2.32694e-05
3.4149e-05
2.44117e-05
3.154e-05
2.54131e-05
2.87775e-05
2.62702e-05
2.58807e-05
2.69688e-05
2.2849e-05
2.75054e-05
1.96939e-05
2.7864e-05
1.64496e-05
2.80409e-05
1.31339e-05
2.80488e-05
9.74099e-06
2.78987e-05
6.30604e-06
2.75887e-05
2.83931e-06
-6.64246e-07
2.71307e-05
2.15478e-06
4.90152e-05
4.31412e-06
4.82576e-05
6.41219e-06
4.74342e-05
8.42672e-06
4.66432e-05
1.03486e-05
4.56396e-05
1.21683e-05
4.44142e-05
1.38741e-05
4.29826e-05
1.54591e-05
4.13558e-05
1.69295e-05
3.95383e-05
1.8275e-05
3.75411e-05
1.94976e-05
3.53752e-05
2.0595e-05
3.30516e-05
2.15723e-05
3.05627e-05
2.24246e-05
2.79253e-05
2.31495e-05
2.51558e-05
2.37358e-05
2.22627e-05
2.41714e-05
1.92584e-05
2.44599e-05
1.6161e-05
2.46087e-05
1.29851e-05
2.45941e-05
9.75559e-06
2.44162e-05
6.48392e-06
2.4094e-05
3.16146e-06
-2.05547e-07
2.36353e-05
1.89242e-06
4.71228e-05
3.78938e-06
4.63606e-05
5.62937e-06
4.55942e-05
7.4054e-06
4.48672e-05
9.10691e-06
4.39381e-05
1.07219e-05
4.27993e-05
1.22422e-05
4.14623e-05
1.36603e-05
3.99376e-05
1.49744e-05
3.82241e-05
1.61725e-05
3.63431e-05
1.72545e-05
3.42932e-05
1.82217e-05
3.20844e-05
1.90608e-05
2.97236e-05
1.97642e-05
2.72218e-05
2.03319e-05
2.45882e-05
2.07614e-05
2.18332e-05
2.10552e-05
1.89646e-05
2.12289e-05
1.59873e-05
2.12769e-05
1.29372e-05
2.12127e-05
9.81977e-06
2.10387e-05
6.65796e-06
2.07251e-05
3.47508e-06
2.53273e-07
2.02663e-05
1.65498e-06
4.54678e-05
3.31421e-06
4.47014e-05
4.9323e-06
4.39761e-05
6.48541e-06
4.33141e-05
7.97029e-06
4.24532e-05
9.38139e-06
4.13882e-05
1.07131e-05
4.01306e-05
1.19553e-05
3.86955e-05
1.30946e-05
3.70849e-05
1.41277e-05
3.53099e-05
1.5048e-05
3.33728e-05
1.58524e-05
3.128e-05
1.65471e-05
2.90289e-05
1.71369e-05
2.6632e-05
1.76125e-05
2.41125e-05
1.7973e-05
2.14728e-05
1.82087e-05
1.87288e-05
1.82953e-05
1.59007e-05
1.82403e-05
1.29922e-05
1.80665e-05
9.99359e-06
1.7789e-05
6.93543e-06
1.74348e-05
3.82933e-06
7.01867e-07
1.69862e-05
1.46441e-06
4.40034e-05
2.86774e-06
4.32981e-05
4.22434e-06
4.26195e-05
5.53543e-06
4.2003e-05
6.79634e-06
4.11923e-05
8.00076e-06
4.01837e-05
9.14955e-06
3.89818e-05
1.02407e-05
3.76043e-05
1.12614e-05
3.60642e-05
1.21939e-05
3.43774e-05
1.30219e-05
3.25448e-05
1.3734e-05
3.05679e-05
1.43217e-05
2.84412e-05
1.4787e-05