/*--------------------------------*- C++ -*----------------------------------*\
| =========                 |                                                 |
| \\      /  F ield         | OpenFOAM: The Open Source CFD Toolbox           |
|  \\    /   O peration     | Version:  2.4.0                                 |
|   \\  /    A nd           | Web:      www.OpenFOAM.org                      |
|    \\/     M anipulation  |                                                 |
\*---------------------------------------------------------------------------*/
FoamFile
{
    version     2.0;
    format      ascii;
    class       surfaceScalarField;
    location    "0.95";
    object      phi.water;
}
// * * * * * * * * * * * * * * * * * * * * * * * * * * * * * * * * * * * * * //

dimensions      [0 3 -1 0 0 0 0];

internalField   nonuniform List<scalar> 
4432
(
-1.07592e-05
1.1367e-05
-1.83111e-05
8.0874e-06
-2.29164e-05
4.93718e-06
-2.46576e-05
1.96572e-06
-2.43686e-05
-1.91246e-07
-2.31854e-05
-1.14664e-06
-2.12931e-05
-1.86311e-06
-1.92927e-05
-1.97235e-06
-1.78094e-05
-1.46015e-06
-1.69099e-05
-8.79113e-07
-1.60093e-05
-8.7998e-07
-1.4638e-05
-1.34958e-06
-1.31681e-05
-1.45019e-06
-1.20564e-05
-1.09731e-06
-1.13524e-05
-6.93357e-07
-1.0786e-05
-5.58012e-07
-9.95354e-06
-8.24881e-07
-8.45584e-06
-1.48918e-06
-6.16969e-06
-2.27676e-06
-3.76902e-06
-2.39231e-06
-2.58554e-06
-1.18014e-06
-2.14235e-06
-4.42542e-07
-2.14181e-06
-1.06281e-05
2.63406e-05
-1.8019e-05
1.78827e-05
-2.25407e-05
9.99165e-06
-2.4451e-05
4.05068e-06
-2.46187e-05
1.30539e-07
-2.36012e-05
-1.92992e-06
-2.1573e-05
-3.60154e-06
-1.94166e-05
-3.88484e-06
-1.78516e-05
-2.8896e-06
-1.66653e-05
-1.97981e-06
-1.54357e-05
-2.03669e-06
-1.42138e-05
-2.50588e-06
-1.30403e-05
-2.58064e-06
-1.21427e-05
-1.97453e-06
-1.14893e-05
-1.33271e-06
-1.06633e-05
-1.37069e-06
-9.5505e-06
-1.92081e-06
-7.96624e-06
-3.04771e-06
-5.71695e-06
-4.4963e-06
-3.37406e-06
-4.7114e-06
-1.25019e-06
-3.29699e-06
-2.25474e-07
-1.46424e-06
-2.36543e-06
-9.32167e-06
6.40393e-05
-1.81839e-05
4.34369e-05
-2.31848e-05
2.77895e-05
-2.46644e-05
1.06066e-05
-2.47359e-05
2.86557e-06
-2.36995e-05
-1.34013e-06
-2.16252e-05
-4.95069e-06
-1.9355e-05
-5.78701e-06
-1.75656e-05
-4.13255e-06
-1.6233e-05
-2.75441e-06
-1.51151e-05
-2.77247e-06
-1.4208e-05
-3.2318e-06
-1.33773e-05
-3.30893e-06
-1.2407e-05
-2.8748e-06
-1.13943e-05
-2.30141e-06
-1.02231e-05
-2.50893e-06
-8.92846e-06
-3.19018e-06
-7.55367e-06
-4.39474e-06
-5.86825e-06
-6.10666e-06
-3.957e-06
-6.3092e-06
-1.60301e-06
-5.0287e-06
6.39189e-08
-2.96369e-06
-2.16105e-06
-1.60075e-05
9.10069e-05
-2.22238e-05
6.57574e-05
-2.37593e-05
4.58056e-05
-2.7727e-05
2.79702e-05
-2.69394e-05
8.35835e-06
-2.45135e-05
2.82188e-06
-2.22581e-05
1.28095e-05
-2.0134e-05
1.75309e-05
-1.79668e-05
1.869e-05
-1.6243e-05
1.98166e-05
-1.51088e-05
2.00228e-05
-1.44261e-05
1.90725e-05
-1.37675e-05
1.80156e-05
-1.28138e-05
1.71958e-05
-1.14781e-05
1.47593e-05
-9.90155e-06
1.33704e-05
-8.57162e-06
1.18109e-05
-7.43953e-06
1.22691e-05
-6.2598e-06
1.63826e-05
-4.58798e-06
1.66535e-05
-1.86009e-06
1.68238e-05
-1.55396e-07
1.85067e-05
2.23213e-05
-2.41514e-05
0.000114502
-3.12272e-05
7.6008e-05
-3.23641e-05
5.10527e-05
-2.81159e-05
3.54669e-05
-2.99481e-05
2.22258e-05
-2.4193e-05
1.94377e-05
-2.36307e-05
2.26367e-05
-2.23963e-05
2.51051e-05
-2.04901e-05
2.61684e-05
-1.8523e-05
2.73115e-05
-1.74213e-05
2.899e-05
-1.63525e-05
3.11758e-05
-1.52359e-05
3.28468e-05
-1.37139e-05
3.27504e-05
-1.16901e-05
3.05239e-05
-9.8282e-06
2.8866e-05
-8.43238e-06
2.76999e-05
-7.03703e-06
2.69668e-05
-5.92728e-06
2.69142e-05
-4.29401e-06
2.56994e-05
-3.41347e-06
2.58771e-05
-6.51421e-07
2.89933e-05
2.63792e-05
-3.4612e-05
0.000138545
-4.29826e-05
8.35053e-05
-4.19957e-05
5.42283e-05
-3.73822e-05
3.94586e-05
-3.23171e-05
2.76077e-05
-2.82472e-05
2.0128e-05
-2.53873e-05
1.60482e-05
-2.3691e-05
1.44687e-05
-2.20596e-05
1.56238e-05
-1.85692e-05
1.73253e-05
-1.54766e-05
1.98238e-05
-1.49379e-05
2.31769e-05
-1.59362e-05
2.40225e-05
-1.67134e-05
2.42026e-05
-1.60547e-05
2.20185e-05
-1.39563e-05
1.9208e-05
-1.11994e-05
1.81922e-05
-8.3437e-06
1.72347e-05
-5.30188e-06
1.43801e-05
-2.88113e-06
1.20294e-05
-2.80209e-06
1.55846e-05
-6.08046e-06
3.02145e-05
4.02636e-05
-3.16488e-05
0.000158366
-4.19507e-05
8.01666e-05
-4.52028e-05
4.98021e-05
-4.01863e-05
2.65786e-05
-3.33398e-05
7.59301e-06
-3.03202e-05
-4.50458e-07
-2.95469e-05
-3.67529e-06
-2.81432e-05
-8.12502e-06
-2.30371e-05
-1.41561e-05
-1.50915e-05
-1.76695e-05
-7.96235e-06
-1.4961e-05
-4.39204e-06
-8.45861e-06
-4.98612e-06
-2.94907e-06
-7.96979e-06
-3.4404e-07
-1.1597e-05
-6.66676e-07
-1.38908e-05
-3.20073e-06
-1.33648e-05
-6.35126e-06
-1.06732e-05
-9.10813e-06
-9.5645e-06
-9.51843e-06
-1.32318e-05
-6.30665e-06
-2.01682e-05
-1.09221e-06
-1.45552e-05
-7.79939e-06
-2.01401e-05
-1.48536e-05
0.000167817
-3.23694e-05
8.4001e-05
-3.82626e-05
3.39423e-05
-3.83456e-05
5.83456e-06
-3.77402e-05
-1.12563e-05
-3.84602e-05
-1.5036e-05
-3.64616e-05
-1.6571e-05
-3.15205e-05
-1.94089e-05
-2.28342e-05
-2.54834e-05
-1.34684e-05
-2.81961e-05
-5.71304e-06
-2.3581e-05
9.16382e-07
-1.61132e-05
5.51107e-06
-8.66095e-06
6.70401e-06
-3.11139e-06
3.75157e-06
8.46638e-08
-2.66665e-07
-1.87768e-06
-4.30816e-06
-5.37364e-06
-9.76268e-06
-6.92616e-06
-1.69584e-05
-5.52128e-06
-2.47592e-05
-1.22685e-06
-3.1944e-05
3.48848e-06
-2.70789e-05
-1.48241e-05
-5.27728e-05
9.63378e-06
1.7743e-05
1.86381e-05
7.50748e-06
2.2432e-05
1.80124e-05
2.68076e-05
2.14513e-05
2.84233e-05
2.95989e-05
2.77989e-05
4.16395e-05
2.80346e-05
4.94532e-05
2.712e-05
4.74585e-05
2.21756e-05
5.48999e-05
2.18645e-05
6.06836e-05
2.06272e-05
5.52651e-05
1.88228e-05
5.1754e-05
1.92018e-05
4.48378e-05
2.1457e-05
4.36928e-05
1.7774e-05
4.90402e-05
5.85826e-06
5.14265e-05
-4.3309e-06
3.37913e-05
-8.2458e-06
1.4381e-05
3.21166e-06
1.41763e-05
-3.12819e-05
2.37981e-05
-2.76867e-05
2.80405e-05
-2.11862e-05
3.23694e-05
-2.06044e-05
3.39178e-05
-9.92504e-06
3.0011e-05
1.77256e-06
2.67021e-05
1.34524e-06
2.59157e-05
-4.39785e-07
2.21033e-05
8.1972e-06
7.22246e-06
2.86682e-05
-2.9734e-06
2.94831e-05
-7.15435e-06
2.74829e-05
-1.02037e-05
3.06676e-05
-3.59585e-06
1.90268e-05
1.34034e-06
2.07799e-05
-3.83764e-06
4.32052e-05
-5.39751e-06
3.48285e-05
-8.79062e-06
1.25788e-05
-5.1572e-06
1.05664e-05
-8.98789e-05
7.99512e-06
-6.57145e-05
1.33148e-05
-4.32925e-05
1.76118e-05
-3.5123e-05
1.99863e-05
-2.44145e-05
2.01944e-05
-1.19472e-05
1.74846e-05
-6.8138e-06
9.59682e-06
-1.39328e-06
-6.71525e-06
1.65512e-05
-3.12149e-05
4.6095e-05
-4.64451e-05
4.47157e-05
-4.55571e-05
3.84682e-05
-3.94341e-05
3.36739e-05
-2.99427e-05
1.77764e-05
-1.22178e-05
1.56539e-05
-6.7188e-06
4.5352e-05
-6.29682e-06
4.41788e-05
-4.7856e-06
1.54202e-05
-6.83293e-06
7.86071e-06
-9.0042e-05
1.19175e-05
-6.62339e-05
1.7468e-05
-4.47297e-05
2.15237e-05
-3.918e-05
2.23892e-05
-2.88591e-05
1.85322e-05
-1.20635e-05
1.17802e-05
7.57876e-06
1.63708e-06
1.48468e-05
-1.35442e-05
3.77369e-05
-2.84708e-05
5.90769e-05
-4.11462e-05
4.37255e-05
-4.24256e-05
2.22817e-05
-4.07609e-05
1.47991e-05
-3.73018e-05
2.13695e-06
-2.83391e-05
-8.09052e-06
-1.55314e-05
2.03912e-05
-6.8415e-06
3.09274e-05
-3.78139e-06
8.62424e-06
-1.01766e-05
3.25553e-06
-7.67521e-05
1.61418e-06
-5.84557e-05
4.40815e-06
-4.65544e-05
4.24074e-06
-3.70675e-05
5.49363e-06
-2.71033e-05
1.27288e-06
-1.36995e-05
-2.11885e-07
-1.80423e-06
8.01877e-07
9.34462e-06
-1.5163e-06
3.763e-05
-1.32686e-05
6.67224e-05
-2.81624e-05
4.47712e-05
-3.33127e-05
5.61538e-06
-3.63032e-05
-1.4198e-05
-3.72353e-05
-2.65241e-05
-3.51954e-05
-1.6727e-05
-2.11319e-05
1.11239e-05
-8.39891e-06
2.04639e-05
-1.85326e-06
1.40242e-05
8.92838e-07
5.75028e-06
-6.87023e-05
6.00073e-06
-5.757e-05
9.4192e-06
-5.23287e-05
9.43937e-06
-4.00585e-05
5.2607e-06
-2.84083e-05
-3.89176e-06
3.59593e-06
-1.1626e-05
1.25916e-05
-1.09753e-05
1.27752e-05
-3.45068e-06
3.16742e-05
-4.52022e-06
6.70506e-05
-1.85141e-05
5.57645e-05
-2.72775e-05
6.27705e-06
-2.53927e-05
-1.96043e-05
-3.05614e-05
-3.84371e-05
-3.12236e-05
-3.42663e-05
-2.41392e-05
3.17592e-06
-1.00235e-05
1.99533e-05
-1.17019e-06
1.65282e-05
2.40527e-06
4.42743e-06
-6.88041e-05
3.28031e-06
-5.51052e-05
2.93977e-06
-4.98313e-05
-6.30615e-07
-3.02109e-05
-6.23744e-06
-1.64687e-05
-1.22065e-05
2.56217e-06
-1.46628e-05
1.03144e-05
-1.11996e-05
7.54266e-06
-4.00953e-06
2.43016e-05
1.82492e-06
6.12177e-05
-6.80007e-06
6.49927e-05
-2.07186e-05
2.57833e-05
-2.60998e-05
-1.88624e-05
-2.42934e-05
-4.16621e-05
-2.96532e-05
-4.21933e-05
-2.9611e-05
-1.19799e-05
-1.49213e-05
1.39812e-05
-3.27749e-06
8.08756e-06
-3.81851e-06
-6.05646e-07
-7.157e-05
-2.79989e-06
-5.42117e-05
-5.89075e-07
-5.12641e-05
-2.08259e-06
-2.91452e-05
-1.15242e-05
-3.27439e-06
-1.79824e-05
1.66784e-05
-1.84618e-05
1.42669e-05
-1.77263e-05
8.34623e-06
-7.85579e-06
1.44194e-05
3.92638e-06
4.91711e-05
3.07514e-06
6.6632e-05
-1.16501e-05
4.41818e-05
-2.17985e-05
-2.91118e-06
-2.40158e-05
-3.96332e-05
-2.72883e-05
-4.33975e-05
-3.11126e-05
-3.00205e-05
-2.72459e-05
-2.33361e-05
-1.18497e-05
-3.95609e-05
-5.03252e-05
3.9756e-05
0.000125945
2.928e-05
8.57004e-05
8.19392e-06
4.35098e-05
-8.33603e-06
1.23678e-05
-1.70801e-05
-7.25527e-06
-1.62607e-05
-1.72892e-05
-8.86861e-06
-2.43384e-05
2.5867e-06
-3.09798e-05
1.3446e-05
-3.63875e-05
2.13576e-05
-3.61522e-05
2.71466e-05
-2.94331e-05
2.96268e-05
-1.87784e-05
2.45783e-05
-3.80912e-06
1.56977e-05
5.6375e-06
7.64142e-06
8.03637e-06
-1.0526e-06
6.74337e-06
-1.00477e-05
3.57798e-06
-1.65046e-05
-5.1942e-07
-1.16408e-05
-1.0686e-05
-8.70492e-06
-5.3815e-06
-1.37626e-05
7.85236e-06
-3.9723e-05
1.18091e-05
-1.62603e-05
-7.48057e-05
4.17524e-05
8.38351e-05
5.76091e-05
6.85857e-05
5.73025e-05
4.25454e-05
5.25295e-05
1.65609e-05
4.61677e-05
-1.10906e-06
4.17447e-05
-1.29658e-05
4.05328e-05
-2.31883e-05
4.16973e-05
-3.2189e-05
4.3133e-05
-3.78671e-05
4.73814e-05
-4.06297e-05
5.30764e-05
-3.61011e-05
5.71413e-05
-2.47772e-05
5.90877e-05
-8.62449e-06
5.67769e-05
5.51512e-06
5.08747e-05
1.2445e-05
3.71241e-05
1.97266e-05
1.88121e-05
2.14856e-05
3.99464e-06
1.38237e-05
-3.54377e-06
-4.5548e-06
-1.56564e-05
2.0245e-06
-3.98319e-05
2.78875e-05
-6.44898e-05
2.97064e-05
-2.66278e-06
-0.00010955
3.20723e-05
5.1367e-05
5.08778e-05
4.95939e-05
5.74608e-05
3.5904e-05
5.49606e-05
1.90181e-05
4.99594e-05
3.85116e-06
4.60884e-05
-9.12752e-06
4.56349e-05
-2.27658e-05
4.71465e-05
-3.37825e-05
5.0639e-05
-4.18001e-05
5.81011e-05
-5.06892e-05
6.35671e-05
-4.75476e-05
6.47577e-05
-3.45588e-05
6.00147e-05
-1.21338e-05
4.71695e-05
1.13469e-05
3.37332e-05
2.14281e-05
2.61003e-05
2.45628e-05
1.71516e-05
2.65e-05
5.72952e-06
1.88967e-05
-2.92881e-05
1.77987e-05
-8.5757e-05
4.13873e-05
-0.000128131
6.19016e-05
-0.000165084
4.32907e-05
-2.94352e-05
-0.00017149
2.63652e-05
2.02732e-05
3.93519e-05
3.43891e-05
4.39801e-05
3.05117e-05
4.3256e-05
1.94597e-05
3.99761e-05
7.01705e-06
3.7249e-05
-6.47508e-06
3.67465e-05
-2.25339e-05
3.63043e-05
-3.46626e-05
3.96679e-05
-4.86199e-05
3.91143e-05
-5.54238e-05
3.27845e-05
-5.06072e-05
2.67267e-05
-3.58211e-05
2.23415e-05
-8.61838e-06
1.66178e-05
1.65091e-05
3.79131e-06
2.93448e-05
-1.12334e-05
3.34708e-05
-4.03996e-05
4.75054e-05
-8.93543e-05
6.62947e-05
-0.000168246
8.46827e-05
-0.000217233
8.77861e-05
-0.000237607
6.82476e-05
-0.000238616
6.97187e-06
-5.32794e-05
-0.00022458
1.46457e-05
-3.43516e-06
1.73083e-05
2.51046e-05
1.81394e-05
2.7497e-05
1.70083e-05
1.97882e-05
1.30687e-05
1.03839e-05
8.24095e-06
-2.57977e-06
5.51155e-06
-2.33825e-05
-1.01883e-05
-2.76495e-05
-5.69633e-05
-1.99352e-05
-0.000113903
-2.34531e-05
-0.000131796
-2.6488e-05
-0.000132787
-2.35709e-05
-0.000121667
-1.50527e-05
-0.000108795
-6.25435e-06
-0.000120247
1.44576e-05
-0.000147208
4.47496e-05
-0.000185226
7.07096e-05
-0.00022614
9.80299e-05
-0.000252604
9.81566e-05
-0.000268634
9.40859e-05
-0.000280722
4.66334e-05
-0.000280328
-7.1798e-05
-0.000114365
-0.00027922
-3.08511e-06
-5.17884e-06
-9.17179e-06
2.76123e-05
-1.41804e-05
2.90257e-05
-1.59648e-05
1.92978e-05
-1.76382e-05
9.73333e-06
-3.04422e-05
6.34205e-06
-7.76125e-05
1.11748e-05
-0.000135689
7.60487e-06
-0.000160768
2.58192e-06
-0.000174708
-1.26797e-05
-0.000186482
-1.74674e-05
-0.000200522
-1.66714e-05
-0.000208118
-3.09797e-05
-0.000197377
-4.59026e-05
-0.000195662
-3.11556e-05
-0.000216945
-1.18683e-07
-0.000243045
2.25031e-05
-0.00024269
6.06008e-05
-0.000243465
7.58869e-05
-0.000254402
6.47258e-05
-0.000294546
6.05517e-06
-0.000308098
-0.000139985
-0.000196958
-0.000310094
-1.34885e-05
2.6261e-06
-1.89373e-05
2.99825e-05
-2.66258e-05
3.08783e-05
-3.624e-05
2.28518e-05
-5.67321e-05
2.385e-05
-0.000103523
4.21698e-05
-0.000154236
4.86683e-05
-0.000175589
1.68448e-05
-0.000175213
-4.44114e-06
-0.00017858
-1.16636e-05
-0.000188457
-1.56619e-05
-0.00023307
-2.39557e-05
-0.000277314
-4.637e-05
-0.000263406
-6.8781e-06
-0.000247621
-1.21534e-05
-0.000270034
-5.6205e-06
-0.000258555
3.58116e-06
-0.000238353
2.34421e-05
-0.000226024
3.63759e-05
-0.000222057
2.95474e-05
-0.000267771
2.17204e-05
-0.000347798
-5.33798e-05
-8.26305e-05
-0.000352749
-1.25586e-05
-4.8987e-06
-2.46881e-05
2.2764e-05
-4.49636e-05
3.65584e-05
-8.01879e-05
4.84653e-05
-0.000132045
6.75793e-05
-0.000183708
8.38893e-05
-0.000202351
4.82508e-05
-0.000191782
-1.14289e-05
-0.000179565
-3.13312e-05
-0.000172349
-3.79655e-05
-0.000183304
-4.63372e-05
-0.000250499
-6.33106e-05
-0.000237935
-2.43671e-05
-0.000252159
6.18714e-05
-0.00026743
4.78685e-05
-0.000305118
1.83828e-05
-0.000230996
1.27946e-05
-0.000239377
1.76327e-05
-0.000224319
3.28279e-05
-0.000187981
3.532e-05
-0.000146202
4.72194e-05
-0.000254628
9.73456e-05
-5.82965e-06
-0.0002095
-2.56177e-05
-2.35857e-05
-6.3408e-05
1.35244e-05
-0.000117945
5.5484e-05
-0.000167089
7.98361e-05
-0.000193949
8.39802e-05
-0.000211177
7.07997e-05
-0.000230513
1.80175e-06
-0.000204266
-5.02414e-05
-0.000183351
-4.90585e-05
-0.000180817
-5.687e-05
-0.000192307
-5.15158e-05
-0.000182752
-4.25522e-05
-0.000145047
5.77105e-05
-0.000254541
0.000196235
-0.000263609
0.000166908
-0.000270687
6.88278e-05
-0.000279361
4.85087e-05
-0.000258663
5.90367e-05
-0.000261659
8.95241e-05
-0.000239711
0.000110457
-0.000253446
0.000145616
-0.000242058
9.93008e-05
2.06078e-05
-0.000264308
-9.62389e-05
2.19253e-05
-0.000167786
4.1568e-05
-0.000199635
5.57039e-05
-0.000202241
5.99069e-05
-0.000210975
5.60291e-05
-0.000245472
3.74318e-05
-0.000206623
-9.46101e-06
-0.000188109
-3.30001e-05
-0.000183827
-3.36488e-05
-0.00018725
-4.18532e-05
-0.0001967
-2.96926e-05
-0.00018958
1.52009e-05
-0.000220011
0.000154447
-0.000243924
0.000215361
-0.000260792
0.000182361
-0.000274931
8.29774e-05
-0.000283742
5.7248e-05
-0.000282418
5.84529e-05
-0.000275357
9.97571e-05
-0.000264009
0.000127187
-0.000247803
0.000130971
-0.000252317
0.000103827
3.12592e-05
-0.000263554
-0.000186197
0.000107568
-0.000277089
9.28425e-05
-0.000240422
6.29329e-05
-0.000211158
4.51839e-05
-0.000201838
3.83053e-05
-0.000200867
3.21609e-05
-0.000133161
2.34255e-05
-0.000224879
-1.23078e-05
-0.000195777
-2.46616e-05
-0.000194785
-2.87118e-05
-0.000182506
-1.37231e-05
-0.00016823
2.25774e-05
-0.00016549
0.000144106
-0.000195466
0.000231325
-0.000227981
0.000215926
-0.000257383
0.000113231
-0.000264254
6.41771e-05
-0.000263768
5.79635e-05
-0.000254211
9.02389e-05
-0.000243077
0.000116125
-0.000231748
0.000119774
-0.000233758
0.000105862
4.52767e-05
-0.000247487
-0.000102491
0.00028919
-0.000182145
0.000180922
-0.000239151
7.05278e-05
-0.000226937
3.95454e-05
-0.000182808
2.9523e-05
-9.00676e-05
3.15258e-05
-9.16684e-05
6.66018e-05
-0.000127074
2.20236e-05
-0.000150038
1.43961e-06
-0.000160578
-1.03784e-05
-0.000165427
-3.65964e-07
-0.000158594
1.58935e-05
-0.000114687
8.78809e-05
-8.30407e-05
0.00018936
-0.000119489
0.000225548
-0.000178653
0.000174502
-0.000206187
9.45225e-05
-0.00021196
6.43053e-05
-0.000204305
8.19616e-05
-0.000194592
0.000106696
-0.000188194
0.000113732
-0.000184103
0.000101832
4.28987e-05
-0.000181433
1.3553e-05
0.000279984
4.95339e-05
0.000278417
4.3431e-05
0.000233079
2.36045e-05
0.000150473
2.51107e-05
9.96111e-05
2.87857e-05
9.11165e-05
1.62607e-05
8.35004e-05
-1.69395e-05
5.51434e-05
-4.56495e-05
3.00907e-05
-7.22695e-05
1.62225e-05
-9.47579e-05
2.17741e-05
-0.000108237
3.5115e-05
-8.69427e-05
6.4895e-05
-2.15376e-05
0.00014348
1.25085e-05
0.000209876
-2.08603e-05
0.00018227
-7.27029e-05
0.000145955
-0.000106538
9.91947e-05
-0.000117975
8.87852e-05
-0.000113658
0.000100395
-0.000103008
0.000102624
-7.93702e-05
7.78585e-05
1.62305e-05
-5.27095e-05
6.17236e-06
0.000273819
4.07928e-05
0.000243946
6.82819e-05
0.000209142
7.33995e-05
0.00015064
7.26224e-05
0.000103504
7.30564e-05
9.09597e-05
6.87578e-05
8.78348e-05
4.68006e-05
7.71378e-05
1.16515e-05
6.5246e-05
-2.48001e-05
5.26763e-05
-4.95056e-05
4.64867e-05
-6.27446e-05
4.9278e-05
-5.14929e-05
6.83066e-05
-1.69745e-05
9.5308e-05
3.83315e-05
0.000159741
6.22317e-05
0.000177482
4.99513e-05
0.00011704
2.91732e-05
0.000102566
1.5974e-05
8.60254e-05
1.86464e-05
7.32436e-05
4.29488e-05
5.99096e-05
7.20813e-05
3.96153e-05
-1.08773e-05
0.000103514
-2.03611e-06
0.000275841
1.60373e-05
0.000225838
4.49306e-05
0.000180169
6.23484e-05
0.000132966
6.79306e-05
9.7864e-05
7.20631e-05
8.68266e-05
7.48718e-05
8.50261e-05
6.8867e-05
8.31437e-05
5.21119e-05
8.19931e-05
2.65914e-05
7.81831e-05
1.2478e-06
7.18327e-05
-1.12727e-05
6.17785e-05
-1.3658e-05
7.21774e-05
1.07853e-06
8.98712e-05
3.79127e-05
0.000103895
7.53398e-05
0.000138058
9.36891e-05
0.000138467
0.000102153
0.000119385
0.000109377
9.96262e-05
0.000118098
8.51821e-05
0.000140298
6.18174e-05
0.000168842
2.70257e-05
-2.48771e-05
0.000190599
-6.72595e-08
0.000275901
1.11903e-05
0.000214567
3.10079e-05
0.000160614
4.70011e-05
0.000116833
5.47889e-05
8.99938e-05
6.09718e-05
8.06561e-05
6.96615e-05
7.63472e-05
7.24479e-05
8.03557e-05
6.79716e-05
8.64663e-05
5.70576e-05
8.90883e-05
4.12112e-05
8.76759e-05
2.92497e-05
7.37418e-05
2.68871e-05
7.45284e-05
3.46726e-05
8.32489e-05
5.52272e-05
9.84477e-05
8.55513e-05
0.000106291
0.000109521
9.95944e-05
0.000129691
8.64041e-05
0.000149592
7.33824e-05
0.000166874
5.7181e-05
0.0001836
4.15241e-05
0.000212925
1.06876e-05
-3.27612e-05
0.000217908
1.1009e-05
0.000264929
2.02965e-05
0.000205282
3.41122e-05
0.000147066
4.51848e-05
0.000105486
5.17068e-05
8.34568e-05
5.62439e-05
7.61957e-05
6.16255e-05
7.10147e-05
6.80637e-05
7.39238e-05
7.03444e-05
8.41818e-05
6.7934e-05
9.14967e-05
6.41542e-05
9.14548e-05
5.76153e-05
8.02773e-05
5.66358e-05
7.55071e-05
6.22487e-05
7.76302e-05
7.7165e-05
8.42991e-05
9.99789e-05
8.94146e-05
0.00012222
9.18973e-05
0.000141325
7.57243e-05
0.000160473
5.44568e-05
0.000180346
3.75266e-05
0.000202188
2.26066e-05
0.000215553
-1.00119e-06
-3.67987e-05
0.000214657
2.32994e-05
0.000241667
3.46211e-05
0.000193959
4.44341e-05
0.000137405
5.09053e-05
9.87933e-05
5.43206e-05
8.00081e-05
5.61737e-05
7.43978e-05
5.70479e-05
7.01885e-05
6.02965e-05
7.06815e-05
6.63465e-05
7.81343e-05
6.98675e-05
8.79764e-05
7.18137e-05
8.95106e-05
7.12865e-05
8.08022e-05
7.25113e-05
7.42832e-05
7.64085e-05
7.37334e-05
8.56831e-05
7.50544e-05
9.96336e-05
7.52525e-05
0.000120241
7.18137e-05
0.000135843
6.66516e-05
0.000149298
4.7482e-05
0.000165164
2.19984e-05
0.000180235
5.87367e-06
0.000187057
-8.74578e-06
-3.29784e-05
0.000182624
3.17293e-05
0.000209742
4.62805e-05
0.000179375
5.32496e-05
0.000130095
5.59129e-05
9.60861e-05
5.57992e-05
8.00823e-05
5.55382e-05
7.47144e-05
5.46284e-05
7.11209e-05
5.4448e-05
7.08644e-05
5.86982e-05
7.38901e-05
6.62862e-05
8.03984e-05
7.21882e-05
8.36161e-05
7.48753e-05
7.81196e-05
7.66705e-05
7.24925e-05
8.00209e-05
7.03887e-05
8.62025e-05
6.88775e-05
9.58139e-05
6.55966e-05
0.000108855
5.87274e-05
0.000122501
5.28632e-05
0.000133552
3.62796e-05
0.000140836
1.4612e-05
0.000144999
1.6642e-06
0.000148013
-1.17753e-05
-3.12863e-05
0.000146316
3.16839e-05
0.000176851
4.97922e-05
0.000160415
5.65827e-05
0.000123235
5.71151e-05
9.55515e-05
5.57701e-05
8.14085e-05
5.45049e-05
7.60589e-05
5.31114e-05
7.25164e-05
5.25265e-05
7.14519e-05
5.43305e-05
7.20907e-05
6.0632e-05
7.41012e-05
6.83495e-05
7.59031e-05
7.34697e-05
7.30056e-05
7.59669e-05
7.00049e-05
7.96972e-05
6.66664e-05
8.52279e-05
6.33495e-05
9.29979e-05
5.78241e-05
0.000101469
5.02551e-05
0.000111805
4.25254e-05
0.000119961
2.81211e-05
0.000122364
1.22084e-05
0.000122761
1.26737e-06
0.000123632
-1.26467e-05
-2.74305e-05
0.000119774
2.72975e-05
0.000150424
4.59881e-05
0.000142446
5.43403e-05
0.00011492
5.55545e-05
9.44276e-05
5.41727e-05
8.29299e-05
5.25905e-05
7.76639e-05
5.15065e-05
7.36011e-05
5.1448e-05
7.15117e-05
5.31416e-05
7.0399e-05
5.74276e-05
6.98165e-05
6.35182e-05
6.98098e-05
6.87267e-05
6.77963e-05
7.31142e-05
6.56214e-05
7.7879e-05
6.19023e-05
8.36269e-05
5.76005e-05
9.03585e-05
5.10915e-05
9.6799e-05
4.38152e-05
0.0001038
3.55249e-05
0.000108193
2.37283e-05
0.000108499
1.19024e-05
0.000108514
1.25339e-06
0.000107132
-1.12657e-05
-2.18573e-05
0.000101559
2.15459e-05
0.000129255
3.83164e-05
0.000125713
4.69731e-05
0.00010639
4.94296e-05
9.22677e-05
4.92079e-05
8.32058e-05
4.89286e-05
7.79445e-05
4.89722e-05
7.35576e-05
4.97347e-05
7.07495e-05
5.16343e-05
6.84997e-05
5.485e-05
6.66008e-05
5.93983e-05
6.52603e-05
6.39299e-05
6.32635e-05
6.89301e-05
6.06203e-05
7.40845e-05
5.67471e-05
7.95844e-05
5.21e-05
8.51099e-05
4.55654e-05
9.0079e-05
3.88462e-05
9.45152e-05
3.10888e-05
9.68506e-05
2.13931e-05
9.72095e-05
1.15438e-05
9.65335e-05
1.92953e-06
9.40075e-05
-8.73932e-06
-1.66659e-05
8.88174e-05
1.61579e-05
0.00011308
3.03456e-05
0.000111449
3.85071e-05
9.85384e-05
4.19807e-05
8.88597e-05
4.35082e-05
8.16806e-05
4.4742e-05
7.67106e-05
4.58778e-05
7.24218e-05
4.7401e-05
6.92263e-05
4.94931e-05
6.64076e-05
5.22133e-05
6.38806e-05
5.58287e-05
6.16449e-05
5.99818e-05
5.91102e-05
6.46188e-05
5.59832e-05
6.93288e-05
5.20366e-05
7.40707e-05
4.73578e-05
7.83523e-05
4.12835e-05
8.21617e-05
3.50368e-05
8.53607e-05
2.78898e-05
8.69721e-05
1.97818e-05
8.72058e-05
1.13102e-05
8.63908e-05
2.74468e-06
8.36545e-05
-6.00262e-06
-1.26477e-05
7.9637e-05
1.21913e-05
0.000100893
2.38773e-05
9.97663e-05
3.12329e-05
9.12363e-05
3.55111e-05
8.45826e-05
3.8257e-05
7.89345e-05
4.04896e-05
7.44781e-05
4.24561e-05
7.04553e-05
4.45491e-05
6.71332e-05
4.69022e-05
6.40546e-05
4.95344e-05
6.12484e-05
5.27049e-05
5.84745e-05
5.63733e-05
5.54417e-05
6.03727e-05
5.19838e-05
6.44435e-05
4.79657e-05
6.83731e-05
4.3428e-05
7.17691e-05
3.78874e-05
7.47201e-05
3.20857e-05
7.70649e-05
2.5545e-05
7.82613e-05
1.85854e-05
7.85893e-05
1.09824e-05
7.78533e-05
3.48069e-06
7.54984e-05
-3.64761e-06
-9.71022e-06
7.25611e-05
9.51544e-06
9.1345e-05
1.89619e-05
9.02888e-05
2.55463e-05
8.46506e-05
3.02042e-05
7.99245e-05
3.36641e-05
7.54746e-05
3.65478e-05
7.15942e-05
3.90867e-05
6.79164e-05
4.15787e-05
6.46412e-05
4.41444e-05
6.14888e-05
4.68736e-05
5.85192e-05
4.9819e-05
5.5529e-05
5.29794e-05
5.22813e-05
5.62917e-05
4.86715e-05
5.95673e-05
4.469e-05
6.27996e-05
4.01956e-05
6.56406e-05
3.50462e-05
6.8156e-05
2.95702e-05
7.0033e-05
2.36679e-05
7.11042e-05
1.75141e-05
7.13177e-05
1.07688e-05
7.0539e-05
4.25953e-06
6.87995e-05
-1.90803e-06
-7.65042e-06
6.67395e-05
7.67276e-06
8.36661e-05
1.53344e-05
8.26247e-05
2.12259e-05
7.87589e-05
2.5868e-05
7.52822e-05
2.9601e-05
7.17414e-05
3.28115e-05
6.83836e-05
3.56572e-05
6.50706e-05
3.83533e-05
6.1945e-05
4.09976e-05
5.88445e-05
4.37316e-05
5.57851e-05
4.65313e-05
5.27292e-05
4.94351e-05
4.93775e-05
5.23451e-05
4.57614e-05
5.51986e-05
4.18363e-05
5.79056e-05
3.74883e-05
6.02218e-05
3.27299e-05
6.21508e-05
2.7641e-05
6.35702e-05
2.22484e-05
6.44304e-05
1.66539e-05
6.45679e-05
1.06314e-05
6.40667e-05
4.76073e-06
6.30047e-05
-8.46076e-07
-6.13705e-06
6.14912e-05
6.39167e-06
7.72741e-05
1.27438e-05
7.62724e-05
1.80086e-05
7.34939e-05
2.24449e-05
7.08457e-05
2.62012e-05
6.79849e-05
2.9509e-05
6.50757e-05
3.24744e-05
6.21051e-05
3.52505e-05
5.91689e-05
3.79294e-05
5.61655e-05
4.05679e-05
5.31466e-05
4.32068e-05
5.00903e-05
4.5794e-05
4.67902e-05
4.83225e-05
4.32329e-05
5.07508e-05
3.94079e-05
5.2983e-05
3.52561e-05
5.49508e-05
3.07619e-05
5.6596e-05
2.59957e-05
5.78625e-05
2.09818e-05
5.86393e-05
1.5877e-05
5.87802e-05
1.04905e-05
5.83531e-05
5.18779e-06
5.74928e-05
1.42417e-08
-5.03172e-06
5.63873e-05
5.41984e-06
7.18541e-05
1.0778e-05
7.09141e-05
1.54678e-05
6.88039e-05
1.96024e-05
6.6711e-05
2.32382e-05
6.43489e-05
2.64919e-05
6.18219e-05
2.94434e-05
5.91535e-05
3.22008e-05
5.64114e-05
3.48111e-05
5.35551e-05
3.73204e-05
5.06372e-05
3.97937e-05
4.7617e-05
4.21746e-05
4.44093e-05
4.44695e-05
4.09378e-05
4.66223e-05
3.7255e-05
4.8589e-05
3.32892e-05
5.02638e-05
2.9087e-05
5.16081e-05
2.46511e-05
5.25827e-05
2.00071e-05
5.3185e-05
1.52747e-05
5.33261e-05
1.03493e-05
5.30825e-05
5.43131e-06
5.24796e-05
6.17159e-07
-4.12331e-06
5.1571e-05
4.67544e-06
6.71785e-05
9.28811e-06
6.63013e-05
1.34771e-05
6.46148e-05
1.72856e-05
6.29024e-05
2.0725e-05
6.09094e-05
2.3846e-05
5.87008e-05
2.66997e-05
5.62997e-05
2.9355e-05
5.3756e-05
3.18415e-05
5.10684e-05
3.42147e-05
4.82639e-05
3.64915e-05
4.53401e-05
3.86616e-05
4.22392e-05
4.06918e-05
3.89075e-05
4.25756e-05
3.5371e-05
4.42417e-05
3.16231e-05
4.56739e-05
2.76546e-05
4.68424e-05
2.34825e-05
4.77189e-05
1.91306e-05
4.8287e-05
1.47065e-05
4.84636e-05
1.01727e-05
4.82604e-05
5.63454e-06
4.77468e-05
1.13068e-06
-3.35899e-06
4.69823e-05
4.06859e-06
6.31098e-05
8.08992e-06
6.22798e-05
1.18285e-05
6.08761e-05
1.52961e-05
5.94346e-05
1.84846e-05
5.77207e-05
2.14204e-05
5.5765e-05
2.41293e-05
5.35907e-05
2.66487e-05
5.12365e-05
2.89989e-05
4.87182e-05
3.1215e-05
4.60477e-05
3.33222e-05
4.32329e-05
3.53022e-05
4.02592e-05
3.71314e-05
3.70782e-05
3.87974e-05
3.37049e-05
4.02615e-05
3.01588e-05
4.15128e-05
2.64032e-05
4.25169e-05
2.24783e-05
4.32475e-05
1.83999e-05
4.36944e-05
1.42596e-05
4.38425e-05
1.00246e-05
4.37043e-05
5.77271e-06
4.32999e-05
1.53508e-06
-2.70368e-06
4.26445e-05
3.57173e-06
5.95379e-05
7.10503e-06
5.87464e-05
1.04434e-05
5.75376e-05
1.35802e-05
5.62977e-05
1.65054e-05
5.47955e-05
1.92291e-05
5.30411e-05
2.1761e-05
5.10587e-05
2.41144e-05
4.88831e-05
2.6307e-05
4.65255e-05
2.83557e-05
4.39989e-05
3.02793e-05
4.13092e-05
3.20685e-05
3.84699e-05
3.37058e-05
3.54409e-05
3.51802e-05
3.22304e-05
3.64763e-05
2.88627e-05
3.75688e-05
2.53105e-05
3.84454e-05
2.16016e-05
3.90695e-05
1.77757e-05
3.9452e-05
1.38771e-05
3.95732e-05
9.90337e-06
3.94399e-05
5.90602e-06
3.90795e-05
1.89541e-06
-2.12655e-06
3.85023e-05
3.14682e-06
5.6391e-05
6.26774e-06
5.56254e-05
9.24967e-06
5.45556e-05
1.20782e-05
5.3469e-05
1.47406e-05
5.2133e-05
1.72375e-05
5.0544e-05
1.95691e-05
4.8727e-05
2.17433e-05
4.67088e-05
2.37669e-05
4.45018e-05
2.56463e-05
4.21195e-05
2.73854e-05
3.95701e-05
2.89902e-05
3.6865e-05
3.04456e-05
3.39855e-05
3.17448e-05
3.09311e-05
3.28772e-05
2.77301e-05
3.38266e-05
2.4361e-05
3.45794e-05
2.08486e-05
3.5115e-05
1.72401e-05
3.54286e-05
1.35634e-05
3.55182e-05
9.81373e-06
3.53947e-05
6.02956e-06
3.50689e-05
2.22114e-06
-1.60662e-06
3.45489e-05
2.77269e-06
5.36182e-05
5.53318e-06
5.28648e-05
8.18962e-06
5.18991e-05
1.07291e-05
5.09295e-05
1.31377e-05
4.97243e-05
1.54067e-05
4.8275e-05
1.75309e-05
4.66027e-05
1.95126e-05
4.4727e-05
2.13506e-05
4.26638e-05
2.30561e-05
4.04139e-05
2.46249e-05
3.80012e-05
2.60659e-05
3.5424e-05
2.73673e-05
3.2684e-05
2.8518e-05
2.97804e-05
2.95088e-05
2.67392e-05
3.03209e-05
2.35489e-05
3.09378e-05
2.02316e-05
3.13688e-05
1.68091e-05
3.16206e-05
1.33116e-05
3.16847e-05
9.74954e-06
3.15578e-05
6.15652e-06
3.12492e-05
2.52972e-06
-1.12188e-06
3.07643e-05
2.44535e-06
5.11728e-05
4.89043e-06
5.04196e-05
7.2545e-06
4.95349e-05
9.52348e-06
4.86604e-05
1.16836e-05
4.75641e-05
1.37222e-05
4.62364e-05
1.56339e-05
4.46909e-05
1.74179e-05
4.29431e-05
1.90707e-05
4.10109e-05
2.05959e-05
3.88887e-05
2.19973e-05
3.65997e-05
2.32705e-05
3.41508e-05
2.44128e-05
3.15417e-05
2.54141e-05
2.8779e-05
2.62712e-05
2.5882e-05
2.69699e-05
2.28502e-05
2.75064e-05
1.9695e-05
2.78649e-05
1.64505e-05
2.80419e-05
1.31347e-05
2.80497e-05
9.74165e-06
2.78997e-05
6.30658e-06
2.75897e-05
2.83973e-06
-6.63928e-07
2.71316e-05
2.15487e-06
4.90178e-05
4.31429e-06
4.82601e-05
6.41245e-06
4.74367e-05
8.42707e-06
4.66457e-05
1.0349e-05
4.56421e-05
1.21688e-05
4.44166e-05
1.38747e-05
4.29849e-05
1.54598e-05
4.1358e-05
1.69302e-05
3.95404e-05
1.82758e-05
3.75431e-05
1.94984e-05
3.5377e-05
2.05959e-05
3.30533e-05
2.15732e-05
3.05643e-05
2.24255e-05
2.79267e-05
2.31504e-05
2.51571e-05
2.37367e-05
2.22639e-05
2.41722e-05
1.92594e-05
2.44608e-05
1.61619e-05
2.46095e-05
1.29859e-05
2.45949e-05
9.75622e-06
2.44171e-05
6.48444e-06
2.40949e-05
3.16187e-06
-2.05252e-07
2.36362e-05
1.8925e-06
4.71253e-05
3.78953e-06
4.6363e-05
5.62959e-06
4.55966e-05
7.40569e-06
4.48696e-05
9.10727e-06
4.39404e-05
1.07223e-05
4.28015e-05
1.22427e-05
4.14645e-05
1.36609e-05
3.99397e-05
1.49751e-05
3.82261e-05
1.61732e-05
3.6345e-05
1.72553e-05
3.42949e-05
1.82225e-05
3.2086e-05
1.90616e-05
2.97251e-05
1.9765e-05
2.72232e-05
2.03326e-05
2.45894e-05
2.07622e-05
2.18343e-05
2.10559e-05
1.89656e-05
2.12297e-05
1.59881e-05
2.12776e-05
1.29379e-05
2.12135e-05
9.82039e-06
2.10394e-05
6.65846e-06
2.07259e-05
3.47547e-06
2.53554e-07
2.0267e-05
1.65504e-06
4.54702e-05
3.31433e-06
4.47037e-05
4.93249e-06
4.39784e-05
6.48565e-06
4.33164e-05
7.97059e-06
4.24554e-05
9.38174e-06
4.13903e-05
1.07136e-05
4.01326e-05
1.19558e-05
3.86975e-05
1.30951e-05
3.70868e-05
1.41283e-05
3.53117e-05
1.50486e-05
3.33745e-05
1.5853e-05
3.12816e-05
1.65477e-05
2.90304e-05
1.71375e-05
2.66334e-05
1.76132e-05
2.41137e-05
1.79736e-05
2.14738e-05
1.82094e-05
1.87298e-05
1.82959e-05
1.59016e-05
1.82409e-05
1.29929e-05
1.80671e-05
9.99419e-06
1.77897e-05
6.93592e-06
1.74355e-05
3.82971e-06
7.02134e-07
1.69868e-05
1.46446e-06
4.40057e-05
2.86783e-06
4.33003e-05
4.22448e-06
4.26217e-05
5.53562e-06
4.20052e-05
6.79658e-06
4.11945e-05
8.00105e-06
4.01858e-05
9.14988e-06
3.89838e-05
1.02411e-05
3.76062e-05
1.12618e-05
3.60661e-05
1.21943e-05
3.43792e-05
1.30224e-05
3.25464e-05
1.37345e-05
3.05695e-05
1.43222e-05
2.84426e-05
1.47875e-05