/*--------------------------------*- C++ -*----------------------------------*\
| =========                 |                                                 |
| \\      /  F ield         | OpenFOAM: The Open Source CFD Toolbox           |
|  \\    /   O peration     | Version:  2.4.0                                 |
|   \\  /    A nd           | Web:      www.OpenFOAM.org                      |
|    \\/     M anipulation  |                                                 |
\*---------------------------------------------------------------------------*/
FoamFile
{
    version     2.0;
    format      ascii;
    class       surfaceScalarField;
    location    "0.95";
    object      phi.oil;
}
// * * * * * * * * * * * * * * * * * * * * * * * * * * * * * * * * * * * * * //

dimensions      [0 3 -1 0 0 0 0];

internalField   nonuniform List<scalar> 
4432
(
-1.07623e-05
1.07613e-05
-1.83138e-05
7.55076e-06
-2.29178e-05
4.60337e-06
-2.46586e-05
1.74032e-06
-2.43693e-05
-2.89582e-07
-2.31861e-05
-1.18346e-06
-2.12936e-05
-1.89251e-06
-1.92931e-05
-2.00051e-06
-1.78096e-05
-1.48333e-06
-1.69101e-05
-8.99417e-07
-1.60094e-05
-9.00506e-07
-1.4638e-05
-1.37102e-06
-1.3168e-05
-1.4695e-06
-1.20563e-05
-1.1106e-06
-1.13524e-05
-7.01941e-07
-1.0786e-05
-5.63135e-07
-9.95354e-06
-8.27833e-07
-8.45549e-06
-1.48967e-06
-6.16441e-06
-2.25328e-06
-3.75591e-06
-2.18354e-06
-2.58281e-06
-4.52463e-07
-2.14405e-06
1.00736e-06
-2.85932e-07
-1.06524e-05
2.14138e-05
-1.80756e-05
1.49731e-05
-2.25841e-05
9.111e-06
-2.44859e-05
3.64141e-06
-2.46283e-05
-1.47605e-07
-2.36048e-05
-2.20729e-06
-2.15756e-05
-3.92182e-06
-1.94181e-05
-4.15787e-06
-1.78524e-05
-3.04873e-06
-1.66658e-05
-2.08559e-06
-1.5436e-05
-2.12927e-06
-1.42138e-05
-2.59035e-06
-1.30401e-05
-2.6389e-06
-1.21425e-05
-2.00412e-06
-1.14892e-05
-1.35228e-06
-1.06632e-05
-1.38674e-06
-9.55046e-06
-1.93645e-06
-7.96604e-06
-3.06174e-06
-5.71479e-06
-4.4705e-06
-3.36287e-06
-4.54877e-06
-1.23331e-06
-2.77627e-06
-2.28876e-07
-2.01582e-07
-2.61608e-07
-1.28583e-05
3.45429e-05
-2.00491e-05
2.22311e-05
-2.34369e-05
1.25039e-05
-2.47125e-05
4.91676e-06
-2.47573e-05
-1.02976e-07
-2.3719e-05
-3.24544e-06
-2.16475e-05
-5.9865e-06
-1.93651e-05
-6.41338e-06
-1.75694e-05
-4.80391e-06
-1.62346e-05
-3.38289e-06
-1.51156e-05
-3.20759e-06
-1.42072e-05
-3.4231e-06
-1.33764e-05
-3.36677e-06
-1.24066e-05
-2.86814e-06
-1.13942e-05
-2.281e-06
-1.02231e-05
-2.49193e-06
-8.92859e-06
-3.17272e-06
-7.55305e-06
-4.36834e-06
-5.86537e-06
-5.98454e-06
-3.95222e-06
-6.1847e-06
-1.59336e-06
-4.88473e-06
6.73376e-08
-1.72086e-06
-4.55467e-08
-1.71692e-05
5.04981e-05
-2.58064e-05
3.11202e-05
-2.87705e-05
1.55706e-05
-2.89545e-05
5.11516e-06
-2.72848e-05
-1.77047e-06
-2.45333e-05
-5.9606e-06
-2.22834e-05
-8.05526e-06
-2.01558e-05
-8.11123e-06
-1.79773e-05
-6.29087e-06
-1.62463e-05
-4.1451e-06
-1.51127e-05
-3.24827e-06
-1.4427e-05
-3.35517e-06
-1.37672e-05
-3.52574e-06
-1.28142e-05
-3.36712e-06
-1.14786e-05
-3.17377e-06
-9.90222e-06
-3.75191e-06
-8.57244e-06
-4.32864e-06
-7.43913e-06
-5.35787e-06
-6.25987e-06
-7.03053e-06
-4.58951e-06
-7.69202e-06
-1.82733e-06
-7.65771e-06
-1.75434e-07
-3.91835e-06
-8.86046e-07
-2.45625e-05
6.55949e-05
-3.26348e-05
3.81369e-05
-3.41921e-05
1.7274e-05
-3.32547e-05
4.27381e-06
-3.07926e-05
-4.08324e-06
-2.79486e-05
-8.32222e-06
-2.55573e-05
-9.86623e-06
-2.33131e-05
-1.01846e-05
-2.09775e-05
-8.99462e-06
-1.87102e-05
-6.24558e-06
-1.72186e-05
-1.75597e-06
-1.6067e-05
3.12074e-06
-1.49901e-05
5.52004e-06
-1.35062e-05
6.17912e-06
-1.14721e-05
6.53073e-06
-9.64806e-06
6.1611e-06
-8.34667e-06
4.39318e-06
-7.26265e-06
3.13835e-06
-6.04489e-06
2.3344e-06
-4.40423e-06
2.35435e-06
-2.96695e-06
1.14277e-06
-8.45925e-07
3.51845e-07
9.40239e-07
-3.6198e-05
8.27953e-05
-4.36809e-05
4.03895e-05
-4.31423e-05
1.62882e-05
-3.93775e-05
7.68523e-07
-3.4707e-05
-9.3212e-06
-3.04102e-05
-1.65423e-05
-2.71515e-05
-2.0513e-05
-2.46921e-05
-2.37421e-05
-2.2156e-05
-2.65183e-05
-1.84467e-05
-2.80452e-05
-1.58085e-05
-2.15972e-05
-1.53436e-05
-1.03e-05
-1.60469e-05
-4.34065e-06
-1.66203e-05
-2.06571e-06
-1.59073e-05
-7.55596e-07
-1.38407e-05
2.06541e-06
-1.10762e-05
5.6717e-06
-8.23202e-06
7.61449e-06
-5.31851e-06
6.18154e-06
-2.85581e-06
4.07867e-06
-2.23339e-06
1.29488e-05
-4.68706e-06
3.77402e-05
5.87063e-05
-3.66491e-05
0.000102082
-4.46167e-05
3.91686e-05
-4.6262e-05
1.04426e-05
-4.30538e-05
-9.95711e-06
-3.63925e-05
-2.86012e-05
-3.16793e-05
-3.80793e-05
-3.0289e-05
-4.0831e-05
-2.9345e-05
-4.43831e-05
-2.44838e-05
-4.40623e-05
-1.46454e-05
-4.11944e-05
-6.69993e-06
-3.79333e-05
-4.1977e-06
-2.59456e-05
-5.26831e-06
-1.73939e-05
-8.61706e-06
-1.30066e-05
-1.221e-05
-1.03897e-05
-1.43282e-05
-8.33846e-06
-1.36254e-05
-7.3004e-06
-1.09979e-05
-6.99783e-06
-9.9175e-06
-7.53326e-06
-1.408e-05
-6.33166e-06
-2.26949e-05
-1.28131e-06
-1.65008e-05
-8.19623e-06
-2.01707e-05
-2.44376e-05
0.000121796
-3.61568e-05
4.75277e-05
-3.82104e-05
7.32871e-06
-3.5552e-05
-2.11455e-05
-3.43177e-05
-3.80824e-05
-3.55508e-05
-3.58379e-05
-3.41901e-05
-2.90108e-05
-2.99071e-05
-2.74074e-05
-2.1744e-05
-3.01723e-05
-9.5693e-06
-2.34478e-05
-3.46277e-06
-1.49553e-05
2.47188e-06
-4.89371e-06
6.65788e-06
5.10872e-06
7.45668e-06
1.5308e-05
3.54994e-06
1.93217e-05
-8.94809e-07
1.83416e-05
-5.41521e-06
1.29018e-05
-1.15383e-05
1.06058e-05
-1.91835e-05
1.27547e-05
-2.71892e-05
1.92822e-05
-3.51549e-05
2.19485e-05
-3.10508e-05
-1.03683e-05
-3.80689e-05
9.60103e-06
3.68799e-05
1.86059e-05
3.77013e-05
2.21899e-05
5.13883e-05
2.68265e-05
5.54042e-05
2.89032e-05
6.24181e-05
2.87212e-05
6.69149e-05
2.82011e-05
6.84608e-05
2.72958e-05
6.7376e-05
2.28159e-05
7.12461e-05
2.19369e-05
7.12884e-05
2.05483e-05
6.24003e-05
1.87934e-05
5.5907e-05
1.91601e-05
4.75644e-05
2.27109e-05
4.65945e-05
1.59693e-05
5.54012e-05
2.52501e-06
6.03642e-05
-5.02708e-06
5.63148e-05
-9.30784e-06
4.93086e-05
3.4371e-05
1.49191e-05
-3.86227e-06
2.42935e-05
-5.79423e-06
2.85418e-05
1.26178e-07
3.27446e-05
8.68017e-07
3.32653e-05
5.05515e-06
2.80404e-05
1.09766e-05
2.48367e-05
1.55107e-05
2.4585e-05
1.17621e-05
2.15143e-05
1.40522e-05
6.5687e-06
2.79516e-05
-3.51804e-06
2.61242e-05
-7.37418e-06
2.52452e-05
-1.03245e-05
2.93168e-05
-3.52333e-06
1.74786e-05
1.33623e-06
1.85543e-05
-4.86234e-06
4.20372e-05
-6.27757e-06
4.40776e-05
-1.00545e-05
3.18466e-05
1.3895e-05
7.26026e-06
-5.63887e-05
5.74445e-06
-3.22213e-05
1.21373e-05
-1.58891e-05
1.61439e-05
-1.07858e-05
1.71795e-05
-7.33789e-07
1.76323e-05
1.40376e-05
1.49486e-05
2.65134e-05
6.93426e-06
3.27773e-05
-9.67018e-06
5.57021e-05
-3.93317e-05
7.48973e-05
-5.01058e-05
5.49902e-05
-4.68646e-05
4.73395e-05
-4.01058e-05
4.33606e-05
-3.06884e-05
2.37889e-05
-1.28351e-05
1.84369e-05
-8.08012e-06
4.67766e-05
-7.28942e-06
5.75976e-05
-5.67513e-06
4.54438e-05
1.4108e-05
7.52807e-06
-5.72332e-05
1.38905e-05
-3.12526e-05
1.85168e-05
-1.78616e-05
2.07913e-05
-1.46818e-05
2.00301e-05
-4.5993e-06
1.62361e-05
8.27564e-06
8.7452e-06
1.7169e-05
-1.31053e-06
2.6859e-05
-1.60344e-05
5.29989e-05
-3.05989e-05
7.67714e-05
-4.55937e-05
4.84922e-05
-4.3988e-05
2.60952e-05
-4.29538e-05
2.1994e-05
-3.75744e-05
5.43072e-06
-2.86407e-05
-5.37824e-06
-1.70676e-05
2.08722e-05
-7.35854e-06
4.66587e-05
-5.14042e-06
2.97003e-05
8.39443e-06
1.93287e-06
-4.87526e-05
8.64075e-07
-3.12778e-05
4.2607e-06
-2.25967e-05
2.85764e-06
-1.36495e-05
3.12159e-06
-5.2131e-06
-1.12574e-06
1.02754e-05
-1.78968e-06
2.52492e-05
3.07772e-07
3.75002e-05
-1.12683e-06
6.23432e-05
-1.03951e-05
8.49588e-05
-2.37303e-05
5.10341e-05
-3.17714e-05
1.30089e-05
-3.77404e-05
4.22995e-06
-3.7459e-05
-1.54125e-05
-3.86089e-05
-1.67941e-05
-2.28867e-05
1.3099e-05
-8.96671e-06
3.77387e-05
-2.66732e-06
2.9384e-05
7.1234e-06
5.92363e-06
-4.40122e-05
8.51977e-06
-3.06807e-05
1.22298e-05
-2.59993e-05
1.07088e-05
-1.19677e-05
5.52936e-06
1.85998e-07
-3.91741e-06
1.94867e-05
-1.24885e-05
2.57964e-05
-1.20761e-05
2.48978e-05
-2.87365e-06
4.82076e-05
-2.74412e-06
8.49221e-05
-1.76762e-05
6.55142e-05
-2.61485e-05
2.23357e-05
-2.31458e-05
-5.79327e-07
-2.88746e-05
-1.63688e-05
-3.29653e-05
-2.48382e-05
-2.66148e-05
5.10408e-06
-1.02627e-05
2.46578e-05
-1.16478e-06
1.95854e-05
3.62293e-06
5.43101e-06
-4.79691e-05
6.73153e-06
-3.12892e-05
5.84762e-06
-2.57446e-05
-6.85046e-07
-6.46645e-06
-5.02267e-06
3.68409e-06
-1.08284e-05
2.60164e-05
-1.48857e-05
3.26656e-05
-1.11139e-05
2.61569e-05
-2.93087e-06
4.11589e-05
3.92138e-06
7.76904e-05
-6.6207e-06
7.67199e-05
-2.1745e-05
3.62808e-05
-2.59178e-05
4.78609e-06
-2.2532e-05
-2.04645e-05
-2.78775e-05
-2.59131e-05
-2.87986e-05
-5.61976e-06
-1.43956e-05
1.19807e-05
-2.76109e-06
1.20613e-05
2.62768e-06
4.16576e-06
-5.17496e-05
5.06697e-06
-3.11339e-05
6.68536e-06
-2.71637e-05
1.87875e-06
-9.42847e-07
-9.85116e-06
1.5936e-05
-1.77434e-05
3.38822e-05
-1.86614e-05
3.14458e-05
-1.80092e-05
2.071e-05
-6.82523e-06
2.92918e-05
6.24339e-06
6.44291e-05
2.82558e-06
7.96489e-05
-1.43722e-05
5.33368e-05
-2.21514e-05
1.29337e-05
-2.17071e-05
-2.04415e-05
-2.32156e-05
-2.53002e-05
-2.85057e-05
-1.44719e-05
-2.82229e-05
-1.11863e-05
-1.20697e-05
-2.52311e-05
-3.04703e-05
1.82757e-05
0.000113393
8.87893e-06
6.52608e-05
7.45912e-07
2.77712e-05
-6.34933e-06
3.98783e-06
-1.38625e-05
-1.14631e-05
-1.3915e-05
-1.89992e-05
-7.22645e-06
-2.33109e-05
4.1469e-06
-2.2481e-05
1.48452e-05
-2.11722e-05
2.10096e-05
-2.26882e-05
2.94658e-05
-1.79531e-05
3.23372e-05
-1.89445e-07
2.62136e-05
1.01726e-05
1.66463e-05
1.80575e-05
7.85824e-06
2.02661e-05
-1.66801e-06
1.85001e-05
-1.17599e-05
1.4396e-05
-1.97897e-05
9.65126e-06
-1.47327e-05
3.81104e-06
-1.21325e-05
8.20475e-06
-2.41378e-05
1.82121e-05
-4.71219e-05
1.70037e-05
-8.35012e-06
-8.31717e-05
3.95882e-05
5.22463e-05
5.43927e-05
4.22875e-05
5.53255e-05
2.45287e-05
5.13586e-05
1.10904e-05
4.52622e-05
1.03452e-06
4.06671e-05
-6.46149e-06
3.69054e-05
-1.34415e-05
3.92003e-05
-2.24003e-05
4.20464e-05
-2.56563e-05
4.96353e-05
-2.79883e-05
5.83032e-05
-2.17167e-05
6.04414e-05
-7.8603e-06
6.13612e-05
1.09625e-05
5.76771e-05
2.5689e-05
5.01742e-05
3.04074e-05
3.42838e-05
3.55455e-05
1.45715e-05
3.63256e-05
5.85776e-07
2.79364e-05
-6.13447e-06
1.06132e-05
-2.09631e-05
2.00471e-05
-5.10218e-05
4.56642e-05
-7.45054e-05
4.68803e-05
2.07396e-05
-9.91311e-05
3.51241e-05
5.89011e-05
5.26982e-05
5.4691e-05
5.83944e-05
3.75422e-05
5.48788e-05
2.23287e-05
4.96026e-05
9.55142e-06
4.60182e-05
-2.1244e-06
4.67718e-05
-1.42163e-05
4.67831e-05
-2.3323e-05
5.0701e-05
-3.08579e-05
6.01944e-05
-3.67428e-05
6.68007e-05
-2.98826e-05
6.85301e-05
-1.48049e-05
6.24682e-05
9.88115e-06
4.76676e-05
3.41801e-05
3.2212e-05
4.21171e-05
2.32921e-05
4.35439e-05
1.31807e-05
4.68616e-05
-1.61804e-07
4.22953e-05
-3.46779e-05
5.01434e-05
-8.9266e-05
7.42775e-05
-0.000140961
9.19752e-05
-0.000165388
7.1959e-05
1.03557e-05
-0.000153352
2.83882e-05
3.29648e-05
4.18129e-05
4.46809e-05
4.55126e-05
4.02157e-05
4.36658e-05
2.91392e-05
4.07284e-05
1.63419e-05
3.89282e-05
2.67091e-06
3.6925e-05
-1.31591e-05
3.27319e-05
-2.28856e-05
3.52137e-05
-3.34494e-05
3.79925e-05
-4.30594e-05
3.90753e-05
-3.69472e-05
3.84668e-05
-2.06933e-05
3.02682e-05
9.26044e-06
2.11838e-05
3.51578e-05
7.57263e-06
4.96468e-05
-1.10454e-05
5.42106e-05
-5.09263e-05
7.63384e-05
-0.000120524
9.99737e-05
-0.000194909
0.000118515
-0.000241028
0.000116186
-0.000252182
9.98224e-05
-0.000232491
5.20355e-05
-7.6608e-06
-0.000214406
1.39869e-05
1.53705e-05
1.60111e-05
4.09229e-05
1.7859e-05
3.90336e-05
1.75716e-05
3.04339e-05
1.43324e-05
2.10872e-05
8.22007e-06
7.64473e-06
3.31872e-06
-9.91447e-06
-1.11054e-05
-9.15149e-06
-4.40831e-05
-1.21835e-06
-8.18739e-05
-1.04296e-05
-0.000108413
-1.69296e-05
-0.000115752
-1.35065e-05
-0.000107317
-8.06801e-07
-0.000104483
8.37526e-06
-0.000143822
4.49221e-05
-0.000185445
8.07136e-05
-0.000220364
0.000105898
-0.000250938
0.000125889
-0.00026407
0.000129093
-0.00027723
0.000127549
-0.000284589
9.79213e-05
-0.000276125
3.35762e-06
-4.59418e-05
-0.000281145
-1.91071e-06
1.6354e-05
-9.79801e-06
4.52612e-05
-1.52293e-05
4.26111e-05
-1.6675e-05
2.99866e-05
-1.77162e-05
2.00115e-05
-3.2479e-05
1.96019e-05
-7.49105e-05
3.07282e-05
-0.000117332
2.87311e-05
-0.000143746
2.07456e-05
-0.000160108
4.94423e-06
-0.000174799
-3.13877e-06
-0.000197791
-2.05406e-06
-0.000227848
-1.13211e-05
-0.000250288
-3.48059e-05
-0.000262324
-6.02501e-06
-0.000264955
1.75245e-05
-0.00025752
3.81763e-05
-0.000250229
8.53177e-05
-0.000246359
0.000102412
-0.000245249
9.32249e-05
-0.000261294
4.55755e-05
-0.000285775
-7.90326e-05
-0.000132056
-0.00030397
-1.44069e-05
2.68545e-05
-2.07856e-05
5.04913e-05
-2.81345e-05
4.74474e-05
-3.67551e-05
3.76631e-05
-6.19242e-05
4.26992e-05
-0.000109295
6.52834e-05
-0.000149215
6.88042e-05
-0.000162806
4.11035e-05
-0.000161214
1.77051e-05
-0.000164806
6.93844e-06
-0.000174511
1.79466e-06
-0.000205592
-8.74859e-07
-0.000285394
-1.91542e-06
-0.000328947
-4.3137e-05
-0.000328989
-8.63107e-05
-0.000319875
-8.14582e-05
-0.000275094
-2.72147e-05
-0.000238759
3.04997e-05
-0.000225365
5.01947e-05
-0.000227572
5.12298e-05
-0.000285856
1.83252e-05
-0.000339395
-7.46343e-05
-0.000137097
-0.000328559
-1.26642e-05
3.11403e-05
-2.65467e-05
5.78456e-05
-4.55572e-05
6.59169e-05
-8.42503e-05
7.43479e-05
-0.000137839
9.29816e-05
-0.000183727
0.000108514
-0.000196347
7.86489e-05
-0.000185137
2.01405e-05
-0.000173013
-5.07807e-06
-0.000159966
-1.46919e-05
-0.000157875
-2.35238e-05
-0.000186685
-4.12537e-05
-0.000336345
-4.14828e-05
-0.000425063
3.18949e-05
-0.000415835
-3.33969e-05
-0.000384526
-6.99199e-05
-0.000308458
-1.4129e-05
-0.000249084
1.74042e-05
-0.000213846
2.82297e-05
-0.00018921
3.067e-05
-0.000180589
1.46874e-05
-0.000216565
2.4734e-05
-5.58408e-05
-0.000216911
-2.27423e-05
-3.08443e-06
-7.22223e-05
5.50103e-05
-0.000128088
9.64565e-05
-0.000169384
0.000111079
-0.000190965
0.000110358
-0.000194823
9.1392e-05
-0.000203139
1.66098e-05
-0.000195192
-5.62512e-05
-0.000182485
-7.86287e-05
-0.000173773
-7.88994e-05
-0.00018117
-8.09e-05
-0.000257844
-0.000104788
-0.000218088
-6.43305e-05
-0.000270999
0.000182768
-0.000285479
0.000147825
-0.000304135
5.87324e-05
-0.000273478
3.25541e-05
-0.000258536
2.08461e-05
-0.000218142
3.55217e-05
-0.000195185
4.13711e-05
-0.00016946
4.70496e-05
-0.000235695
9.39264e-05
1.42709e-05
-0.000261643
-9.66222e-05
-5.9649e-06
-0.000182837
8.14647e-05
-0.000215613
8.57028e-05
-0.000216587
7.57638e-05
-0.000213433
6.75247e-05
-0.000216784
4.6339e-05
-0.00022409
-4.68614e-05
-0.000200654
-9.92898e-05
-0.000183373
-9.20093e-05
-0.000190693
-8.64407e-05
-0.000252355
-7.85885e-05
-0.000340331
-7.54846e-05
-0.000240247
-6.19384e-07
-0.000253253
0.000215881
-0.000257759
0.000176449
-0.000271682
7.77911e-05
-0.00028867
5.50492e-05
-0.000283286
5.54549e-05
-0.000272943
9.32144e-05
-0.000261784
0.00011658
-0.00025035
0.000120889
-0.000248956
9.52748e-05
1.98635e-05
-0.000261703
-0.000259962
4.41344e-05
-0.000310393
8.03522e-05
-0.000258969
6.98078e-05
-0.000226523
5.40635e-05
-0.000215912
4.63487e-05
-0.00023277
2.78668e-05
-0.000237872
-4.10311e-05
-0.000194097
-5.76658e-05
-0.00014562
-5.83393e-05
-0.00016852
-4.55981e-05
-0.000194918
-3.15347e-05
-0.000205653
-1.89243e-05
-0.000153625
8.8042e-06
-0.000205592
7.94134e-05
-0.000230997
0.000214498
-0.000256624
0.000111706
-0.000260454
6.12142e-05
-0.000258668
5.51044e-05
-0.000253744
8.66743e-05
-0.000246353
0.000112842
-0.00023645
0.000114413
-0.000233746
9.33967e-05
3.09351e-05
-0.00024485
-0.000349416
8.34706e-05
-0.000355011
9.80605e-05
-0.000290784
7.43339e-05
-0.000239902
4.8716e-05
-0.000213972
3.74037e-05
-0.000147138
3.2451e-05
-6.98234e-05
2.20346e-05
-0.000123458
2.35782e-05
-9.53674e-05
2.39904e-06
-0.00012561
-6.96663e-06
-0.000153109
-1.10888e-05
-0.000178003
-1.75227e-05
-0.000190358
-1.09647e-05
-0.000112524
2.80747e-05
-0.000113834
0.000205657
-0.000175941
0.000176535
-0.000204116
9.45047e-05
-0.000210015
6.20444e-05
-0.00020435
7.95117e-05
-0.000200011
0.000104962
-0.000190008
0.000109816
-0.000189339
9.27534e-05
3.19161e-05
-0.000180901
-7.74875e-05
0.000275842
-0.000205271
0.000132892
-0.00022811
8.05562e-05
-0.000191333
5.07932e-05
-0.000102491
3.86758e-05
-7.10107e-06
4.59959e-05
1.71255e-05
7.90398e-05
-1.40704e-05
5.20515e-05
-4.56464e-05
2.81126e-05
-5.73082e-05
1.34903e-05
-0.000108423
1.54145e-06
-0.00014692
4.16325e-06
-0.000149345
4.21965e-06
-0.000116635
3.39751e-05
-4.32961e-05
0.000121733
-1.94436e-05
0.000110373
-6.80857e-05
0.00012253
-0.000107216
9.97127e-05
-0.000120394
9.09009e-05
-0.000117671
9.94147e-05
-0.000109532
0.00010009
-8.35136e-05
7.71522e-05
1.7971e-05
-5.64808e-05
5.57828e-06
0.000273673
3.91355e-05
0.000243806
6.44809e-05
0.000209034
7.00065e-05
0.000149723
7.16124e-05
0.000102962
7.2897e-05
9.06451e-05
6.87411e-05
8.73306e-05
4.74334e-05
7.63424e-05
1.21891e-05
6.47624e-05
-2.53895e-05
5.22607e-05
-4.34284e-05
4.53987e-05
-7.72823e-05
2.17714e-05
-9.03055e-05
2.06729e-05
-8.6932e-05
4.79137e-05
-7.55926e-05
6.08476e-05
-1.60783e-05
0.000105326
3.25146e-05
9.68749e-05
2.89337e-05
6.37291e-05
1.33015e-05
6.25148e-05
1.61217e-05
8.85149e-05
3.8821e-05
8.07449e-05
6.81046e-05
5.15347e-05
-5.34775e-06
9.83209e-05
-2.13121e-06
0.000275797
1.60033e-05
0.000225843
4.49424e-05
0.00017973
6.23633e-05
0.000132994
6.79119e-05
9.79189e-05
7.20551e-05
8.685e-05
7.48761e-05
8.50649e-05
6.89292e-05
8.30732e-05
5.22245e-05
8.18989e-05
2.65834e-05
7.80757e-05
1.03976e-06
7.1693e-05
-1.39239e-05
6.1415e-05
-1.81748e-05
6.50075e-05
-4.38653e-05
5.25014e-05
-4.19721e-05
5.88801e-05
-2.39569e-06
9.05622e-05
1.60588e-05
8.86269e-05
4.42863e-05
7.26459e-05
7.0659e-05
6.98469e-05
0.000109461
5.76223e-05
0.00014252
4.47126e-05
0.000153813
2.50602e-05
-2.54904e-06
0.000171886
-1.27927e-07
0.000276015
1.11411e-05
0.00021435
3.05632e-05
0.000158134
4.69547e-05
0.000116384
5.47774e-05
9.00772e-05
6.09917e-05
8.0698e-05
6.96809e-05
7.6369e-05
7.24582e-05
8.03594e-05
6.79831e-05
8.64452e-05
5.70477e-05
8.90635e-05
4.12227e-05
8.7651e-05
2.90844e-05
7.37503e-05
2.54291e-05
7.43914e-05
7.10232e-06
8.14754e-05
2.60775e-05
5.41401e-05
2.76551e-05
8.57524e-05
2.42851e-05
7.72891e-05
4.77225e-05
6.71954e-05
9.33882e-05
6.23333e-05
0.000129014
5.6729e-05
0.000178366
5.04835e-05
0.000175601
2.80279e-05
-2.74359e-06
0.000197447
1.12625e-05
0.000265007
1.98912e-05
0.000199688
3.29151e-05
0.00014642
4.49079e-05
0.000105445
5.17058e-05
8.35171e-05
5.62758e-05
7.62234e-05
6.16407e-05
7.10119e-05
6.80744e-05
7.39161e-05
7.03469e-05
8.41603e-05
6.79253e-05
9.14706e-05
6.41345e-05
9.14186e-05
5.76157e-05
8.01865e-05
5.65619e-05
7.53793e-05
6.153e-05
7.75401e-05
7.43859e-05
8.40367e-05
5.16304e-05
8.69241e-05
5.91472e-05
5.85877e-05
7.88863e-05
5.46562e-05
0.000115077
4.61504e-05
0.000153529
3.26814e-05
0.000170579
2.88811e-05
0.00018671
1.29183e-05
-1.52615e-05
0.000188548
2.44581e-05
0.000234363
3.4509e-05
0.000193076
4.32428e-05
0.000136953
5.06699e-05
9.8797e-05
5.43428e-05
8.00568e-05
5.62075e-05
7.44198e-05
5.70466e-05
7.01851e-05
6.0307e-05
7.06715e-05
6.63471e-05
7.8133e-05
6.98676e-05
8.79739e-05
7.17778e-05
8.9492e-05
7.12707e-05
8.07054e-05
7.24642e-05
7.41603e-05
7.63716e-05
7.36386e-05
8.54723e-05
7.50097e-05
9.62917e-05
7.50311e-05
8.88537e-05
6.93379e-05
0.000124568
4.36661e-05
0.000143108
3.30209e-05
0.00015618
1.76992e-05
0.000176951
6.6352e-06
0.000180918
-4.03676e-06
-2.14189e-05
0.000166814
3.14237e-05
0.00020838
4.52551e-05
0.000178912
5.27047e-05
0.000130099
5.58709e-05
9.60829e-05
5.5846e-05
8.01293e-05
5.55562e-05
7.47427e-05
5.46254e-05
7.11184e-05
5.44473e-05
7.08577e-05
5.86961e-05
7.38862e-05
6.62977e-05
8.04107e-05
7.2186e-05
8.36291e-05
7.48469e-05
7.80728e-05
7.66248e-05
7.23645e-05
7.996e-05
7.03153e-05
8.62094e-05
6.88567e-05
9.58005e-05
6.55937e-05
0.00010887
5.87462e-05
0.000122458
5.29258e-05
0.000133414
3.6146e-05
0.000140798
1.45711e-05
0.000144968
1.56249e-06
0.000147954
-1.17218e-05
-3.13141e-05
0.00014627
3.11173e-05
0.000177632
4.80197e-05
0.000160452
5.6472e-05
0.000123449
5.71429e-05
9.5609e-05
5.58192e-05
8.14999e-05
5.45042e-05
7.6073e-05
5.31109e-05
7.25153e-05
5.25264e-05
7.14507e-05
5.43297e-05
7.20907e-05
6.06372e-05
7.41026e-05
6.83693e-05
7.59084e-05
7.34698e-05
7.30101e-05
7.59503e-05
6.99803e-05
7.96848e-05
6.66596e-05
8.52358e-05
6.33524e-05
9.30193e-05
5.78228e-05
0.000101477
5.01539e-05
0.000111577
4.19603e-05
0.000119537
2.79009e-05
0.000122277
1.20365e-05
0.000122745
1.1394e-06
0.000123631
-1.27067e-05
-2.75453e-05
0.000119775
2.67601e-05
0.000150684
4.56299e-05
0.000142769
5.43508e-05
0.000115018
5.56136e-05
9.45578e-05
5.4179e-05
8.29604e-05
5.25898e-05
7.76651e-05
5.15065e-05
7.36009e-05
5.14479e-05
7.15117e-05
5.31413e-05
7.0399e-05
5.7427e-05
6.98163e-05
6.35206e-05
6.98092e-05
6.87288e-05
6.77966e-05
7.31155e-05
6.5623e-05
7.78794e-05
6.19029e-05
8.36418e-05
5.75961e-05
9.03487e-05
5.10848e-05
9.63846e-05
4.37567e-05
0.000103714
3.53074e-05
0.000108116
2.35019e-05
0.000108404
1.1704e-05
0.000108037
1.11113e-06
0.000107139
-1.13362e-05
-2.19362e-05
0.00010153
2.146e-05
0.00012942
3.84219e-05
0.000125821
4.71126e-05
0.000106506
4.94455e-05
9.22887e-05
4.92078e-05
8.32065e-05
4.89286e-05
7.79445e-05
4.89722e-05
7.35576e-05
4.97347e-05
7.07495e-05
5.16343e-05
6.84997e-05
5.48499e-05
6.66007e-05
5.93983e-05
6.52601e-05
6.39301e-05
6.32633e-05
6.89315e-05
6.06198e-05
7.40888e-05
5.6746e-05
7.95969e-05
5.20951e-05
8.50803e-05
4.55479e-05
8.97242e-05
3.87943e-05
9.4467e-05
3.09141e-05
9.67642e-05
2.11813e-05
9.66923e-05
1.13565e-05
9.65173e-05
1.8657e-06
9.40078e-05
-8.79084e-06
-1.67363e-05
8.87849e-05
1.6201e-05
0.000113123
3.05127e-05
0.00011147
3.85424e-05
9.85318e-05
4.1982e-05
8.88584e-05
4.35082e-05
8.16806e-05
4.4742e-05
7.67107e-05
4.58778e-05
7.24218e-05
4.7401e-05
6.92263e-05
4.94932e-05
6.64076e-05
5.22133e-05
6.38806e-05
5.58287e-05
6.16448e-05
5.99819e-05
5.91101e-05
6.46198e-05
5.5983e-05
6.93329e-05
5.20357e-05
7.40809e-05
4.73511e-05
7.83436e-05
4.12701e-05
8.21158e-05
3.49887e-05
8.5339e-05
2.78037e-05
8.68933e-05
1.96738e-05
8.71526e-05
1.12404e-05
8.63924e-05
2.70766e-06
8.3654e-05
-6.02786e-06
-1.26755e-05
7.96389e-05
1.22249e-05
0.000100878
2.39275e-05
9.97432e-05
3.12352e-05
9.12336e-05
3.55111e-05
8.45826e-05
3.82571e-05
7.89345e-05
4.04896e-05
7.44781e-05
4.24561e-05
7.04553e-05
4.45491e-05
6.71332e-05
4.69022e-05
6.40546e-05
4.95344e-05
6.12483e-05
5.27048e-05
5.84744e-05
5.63734e-05
5.54417e-05
6.03734e-05
5.19837e-05
6.4448e-05
4.7965e-05
6.83889e-05
4.34246e-05
7.17706e-05
3.78794e-05
7.47042e-05
3.20581e-05
7.70599e-05
2.55123e-05
7.82553e-05
1.85447e-05
7.85779e-05
1.09429e-05
7.78556e-05
3.4515e-06
7.55e-05
-3.66582e-06
-9.72544e-06
7.2562e-05
9.5193e-06
9.13407e-05
1.89637e-05
9.02872e-05
2.55463e-05
8.46506e-05
3.02043e-05
7.99245e-05
3.36641e-05
7.54746e-05
3.65478e-05
7.15942e-05
3.90867e-05
6.79164e-05
4.15787e-05
6.46412e-05
4.41444e-05
6.14888e-05
4.68736e-05
5.85192e-05
4.9819e-05
5.55289e-05
5.29795e-05
5.22813e-05
5.62921e-05
4.86714e-05
5.95695e-05
4.46897e-05
6.28039e-05
4.0194e-05
6.56461e-05
3.50409e-05
6.81591e-05
2.9562e-05
7.00312e-05
2.36481e-05
7.11014e-05
1.74839e-05
7.13142e-05
1.074e-05
7.05397e-05
4.23747e-06
6.88006e-05
-1.92464e-06
-7.66308e-06
6.67405e-05
7.6728e-06
8.3666e-05
1.53344e-05
8.26247e-05
2.12259e-05
7.87589e-05
2.5868e-05
7.52822e-05
2.9601e-05
7.17414e-05
3.28115e-05
6.83836e-05
3.56572e-05
6.50706e-05
3.83533e-05
6.1945e-05
4.09976e-05
5.88445e-05
4.37316e-05
5.57851e-05
4.65313e-05
5.27292e-05
4.94351e-05
4.93775e-05
5.23452e-05
4.57614e-05
5.51996e-05
4.18363e-05
5.79071e-05
3.74879e-05
6.02225e-05
3.27286e-05
6.2152e-05
2.76377e-05
6.35698e-05
2.22392e-05
6.4428e-05
1.66352e-05
6.45662e-05
1.06139e-05
6.40671e-05
4.74645e-06
6.30054e-05
-8.56584e-07
-6.14405e-06
6.14918e-05
6.39167e-06
7.72741e-05
1.27438e-05
7.62724e-05
1.80086e-05
7.34939e-05
2.24449e-05
7.08457e-05
2.62012e-05
6.79849e-05
2.9509e-05
6.50757e-05
3.24744e-05
6.21051e-05
3.52505e-05
5.91689e-05
3.79294e-05
5.61655e-05
4.05679e-05
5.31465e-05
4.32068e-05
5.00903e-05
4.5794e-05
4.67902e-05
4.83225e-05
4.32329e-05
5.0751e-05
3.94078e-05
5.29832e-05
3.5256e-05
5.49512e-05
3.07616e-05
5.65967e-05
2.59948e-05
5.78631e-05
2.09791e-05
5.86385e-05
1.58699e-05
5.87797e-05
1.04822e-05
5.83534e-05
5.18104e-06
5.74931e-05
9.45687e-09
-5.03489e-06
5.63875e-05
5.41984e-06
7.18541e-05
1.0778e-05
7.09141e-05
1.54678e-05
6.88039e-05
1.96024e-05
6.6711e-05
2.32382e-05
6.43489e-05
2.64919e-05
6.18219e-05
2.94434e-05
5.91535e-05
3.22008e-05
5.64114e-05
3.48111e-05
5.3555e-05
3.73204e-05
5.06372e-05
3.97937e-05
4.7617e-05
4.21746e-05
4.44093e-05
4.44695e-05
4.09378e-05
4.66223e-05
3.7255e-05
4.8589e-05
3.32892e-05
5.02638e-05
2.90869e-05
5.16083e-05
2.4651e-05
5.25829e-05
2.00067e-05
5.31849e-05
1.52738e-05
5.3326e-05
1.03473e-05
5.30826e-05
5.42917e-06
5.24797e-05
6.15532e-07
-4.12436e-06
5.15711e-05
4.67544e-06
6.71785e-05
9.28811e-06
6.63013e-05
1.34771e-05
6.46148e-05
1.72856e-05
6.29024e-05
2.0725e-05
6.09094e-05
2.3846e-05
5.87008e-05
2.66997e-05
5.62997e-05
2.9355e-05
5.3756e-05
3.18415e-05
5.10684e-05
3.42147e-05
4.82639e-05
3.64915e-05
4.53401e-05
3.86616e-05
4.22392e-05
4.06918e-05
3.89075e-05
4.25757e-05
3.5371e-05
4.42417e-05
3.16231e-05
4.56739e-05
2.76545e-05
4.68424e-05
2.34825e-05
4.77189e-05
1.91305e-05
4.8287e-05
1.47064e-05
4.84636e-05
1.01726e-05
4.82604e-05
5.63423e-06
4.77469e-05
1.13039e-06
-3.3592e-06
4.69824e-05
4.06859e-06
6.31098e-05
8.08992e-06
6.22798e-05
1.18285e-05
6.08761e-05
1.52961e-05
5.94346e-05
1.84846e-05
5.77207e-05
2.14204e-05
5.5765e-05
2.41293e-05
5.35907e-05
2.66487e-05
5.12365e-05
2.89989e-05
4.87182e-05
3.1215e-05
4.60477e-05
3.33222e-05
4.32329e-05
3.53022e-05
4.02592e-05
3.71314e-05
3.70782e-05
3.87974e-05
3.37049e-05
4.02615e-05
3.01588e-05
4.15128e-05
2.64032e-05
4.25169e-05
2.24782e-05
4.32475e-05
1.83999e-05
4.36944e-05
1.42596e-05
4.38425e-05
1.00245e-05
4.37043e-05
5.77268e-06
4.32999e-05
1.53505e-06
-2.7037e-06
4.26445e-05
3.57173e-06
5.95379e-05
7.10503e-06
5.87464e-05
1.04434e-05
5.75376e-05
1.35802e-05
5.62977e-05
1.65054e-05
5.47955e-05
1.92291e-05
5.30411e-05
2.1761e-05
5.10587e-05
2.41144e-05
4.88831e-05
2.6307e-05
4.65255e-05
2.83557e-05
4.39989e-05
3.02793e-05
4.13092e-05
3.20685e-05
3.84699e-05
3.37058e-05
3.54409e-05
3.51802e-05
3.22304e-05
3.64763e-05
2.88627e-05
3.75688e-05
2.53105e-05
3.84454e-05
2.16016e-05
3.90695e-05
1.77757e-05
3.9452e-05
1.3877e-05
3.95732e-05
9.90336e-06
3.94399e-05
5.90601e-06
3.90795e-05
1.8954e-06
-2.12655e-06
3.85023e-05
3.14682e-06
5.6391e-05
6.26774e-06
5.56254e-05
9.24967e-06
5.45556e-05
1.20782e-05
5.3469e-05
1.47406e-05
5.2133e-05
1.72375e-05
5.0544e-05
1.95691e-05
4.8727e-05
2.17433e-05
4.67088e-05
2.37669e-05
4.45018e-05
2.56463e-05
4.21195e-05
2.73854e-05
3.95701e-05
2.89902e-05
3.6865e-05
3.04456e-05
3.39855e-05
3.17448e-05
3.09311e-05
3.28772e-05
2.77301e-05
3.38266e-05
2.4361e-05
3.45794e-05
2.08486e-05
3.5115e-05
1.72401e-05
3.54286e-05
1.35634e-05
3.55182e-05
9.81373e-06
3.53947e-05
6.02956e-06
3.50689e-05
2.22113e-06
-1.60662e-06
3.45489e-05
2.77269e-06
5.36182e-05
5.53318e-06
5.28648e-05
8.18962e-06
5.18991e-05
1.07291e-05
5.09295e-05
1.31377e-05
4.97243e-05
1.54067e-05
4.8275e-05
1.75309e-05
4.66027e-05
1.95126e-05
4.4727e-05
2.13506e-05
4.26638e-05
2.30561e-05
4.04139e-05
2.46249e-05
3.80012e-05
2.60659e-05
3.5424e-05
2.73673e-05
3.2684e-05
2.8518e-05
2.97804e-05
2.95088e-05
2.67392e-05
3.03209e-05
2.35489e-05
3.09378e-05
2.02316e-05
3.13688e-05
1.68091e-05
3.16206e-05
1.33116e-05
3.16847e-05
9.74953e-06
3.15578e-05
6.15652e-06
3.12492e-05
2.52972e-06
-1.12188e-06
3.07643e-05
2.44535e-06
5.11728e-05
4.89043e-06
5.04196e-05
7.2545e-06
4.95349e-05
9.52348e-06
4.86604e-05
1.16836e-05
4.75641e-05
1.37222e-05
4.62364e-05
1.56339e-05
4.46909e-05
1.74179e-05
4.29431e-05
1.90707e-05
4.10109e-05
2.05959e-05
3.88887e-05
2.19973e-05
3.65997e-05
2.32705e-05
3.41508e-05
2.44128e-05
3.15417e-05
2.54141e-05
2.8779e-05
2.62712e-05
2.5882e-05
2.69699e-05
2.28502e-05
2.75064e-05
1.9695e-05
2.78649e-05
1.64505e-05
2.80419e-05
1.31347e-05
2.80497e-05
9.74165e-06
2.78997e-05
6.30658e-06
2.75897e-05
2.83973e-06
-6.63928e-07
2.71316e-05
2.15487e-06
4.90178e-05
4.31429e-06
4.82601e-05
6.41245e-06
4.74367e-05
8.42707e-06
4.66457e-05
1.0349e-05
4.56421e-05
1.21688e-05
4.44166e-05
1.38747e-05
4.29849e-05
1.54598e-05
4.1358e-05
1.69302e-05
3.95404e-05
1.82758e-05
3.75431e-05
1.94984e-05
3.5377e-05
2.05959e-05
3.30533e-05
2.15732e-05
3.05643e-05
2.24255e-05
2.79267e-05
2.31504e-05
2.51571e-05
2.37367e-05
2.22639e-05
2.41722e-05
1.92594e-05
2.44608e-05
1.61619e-05
2.46095e-05
1.29859e-05
2.45949e-05
9.75622e-06
2.44171e-05
6.48444e-06
2.40949e-05
3.16187e-06
-2.05252e-07
2.36362e-05
1.8925e-06
4.71253e-05
3.78953e-06
4.6363e-05
5.62959e-06
4.55966e-05
7.40569e-06
4.48696e-05
9.10727e-06
4.39404e-05
1.07223e-05
4.28015e-05
1.22427e-05
4.14645e-05
1.36609e-05
3.99397e-05
1.49751e-05
3.82261e-05
1.61732e-05
3.6345e-05
1.72553e-05
3.42949e-05
1.82225e-05
3.2086e-05
1.90616e-05
2.97251e-05
1.9765e-05
2.72232e-05
2.03326e-05
2.45894e-05
2.07622e-05
2.18343e-05
2.10559e-05
1.89656e-05
2.12297e-05
1.59881e-05
2.12776e-05
1.29379e-05
2.12135e-05
9.82039e-06
2.10394e-05
6.65846e-06
2.07259e-05
3.47547e-06
2.53554e-07
2.0267e-05
1.65504e-06
4.54702e-05
3.31433e-06
4.47037e-05
4.93249e-06
4.39784e-05
6.48565e-06
4.33164e-05
7.97059e-06
4.24554e-05
9.38174e-06
4.13903e-05
1.07136e-05
4.01326e-05
1.19558e-05
3.86975e-05
1.30951e-05
3.70868e-05
1.41283e-05
3.53117e-05
1.50486e-05
3.33745e-05
1.5853e-05
3.12816e-05
1.65477e-05
2.90304e-05
1.71375e-05
2.66334e-05
1.76132e-05
2.41137e-05
1.79736e-05
2.14738e-05
1.82094e-05
1.87298e-05
1.82959e-05
1.59016e-05
1.82409e-05
1.29929e-05
1.80671e-05
9.99419e-06
1.77897e-05
6.93592e-06
1.74355e-05
3.82971e-06
7.02134e-07
1.69868e-05
1.46446e-06
4.40057e-05
2.86783e-06
4.33003e-05
4.22448e-06
4.26217e-05
5.53562e-06
4.20052e-05
6.79658e-06
4.11945e-05
8.00105e-06
4.01858e-05
9.14988e-06
3.89838e-05
1.02411e-05
3.76062e-05
1.12618e-05
3.60661e-05
1.21943e-05
3.43792e-05
1.30224e-05
3.25464e-05
1.37345e-05
3.05695e-05
1.43222e-05
2.84426e-05