/*--------------------------------*- C++ -*----------------------------------*\
| =========                 |                                                 |
| \\      /  F ield         | OpenFOAM: The Open Source CFD Toolbox           |
|  \\    /   O peration     | Version:  2.4.0                                 |
|   \\  /    A nd           | Web:      www.OpenFOAM.org                      |
|    \\/     M anipulation  |                                                 |
\*---------------------------------------------------------------------------*/
FoamFile
{
    version     2.0;
    format      ascii;
    class       volVectorField;
    location    "0.95";
    object      U.air;
}
// * * * * * * * * * * * * * * * * * * * * * * * * * * * * * * * * * * * * * //

dimensions      [0 1 -1 0 0 0 0];

internalField   nonuniform List<vector> 
2268
(
(-0.0664916 -0.0337374 0)
(-0.173147 -0.0311522 0)
(-0.243672 -0.0168729 0)
(-0.277705 -0.00599283 0)
(-0.282434 0.0033288 0)
(-0.274542 0.00715997 0)
(-0.256449 0.00536113 0)
(-0.232717 0.00369461 0)
(-0.211647 0.00295769 0)
(-0.198443 0.000971872 0)
(-0.189954 -0.002893 0)
(-0.177243 -0.00588383 0)
(-0.158395 -0.00437841 0)
(-0.143469 -0.00365991 0)
(-0.132595 -0.00254885 0)
(-0.126853 -0.00204782 0)
(-0.119389 -0.00376208 0)
(-0.107123 -0.00481789 0)
(-0.0853035 -0.00548838 0)
(-0.054105 -0.00653879 0)
(-0.0328663 -0.000155876 0)
(-0.0274894 0.00337172 0)
(-0.0211045 -0.00583251 0)
(-0.065876 0.131351 0)
(-0.171823 0.100386 0)
(-0.23573 0.0608858 0)
(-0.276358 0.0226383 0)
(-0.282895 -0.00720339 0)
(-0.279619 -0.0205853 0)
(-0.261368 -0.0249574 0)
(-0.235036 -0.02436 0)
(-0.212698 -0.0182418 0)
(-0.198058 -0.0102237 0)
(-0.184773 -0.00776036 0)
(-0.169858 -0.0109844 0)
(-0.155807 -0.0139869 0)
(-0.143511 -0.0107214 0)
(-0.134493 -0.0068866 0)
(-0.127024 -0.00538004 0)
(-0.115697 -0.00582156 0)
(-0.102017 -0.0109434 0)
(-0.0790595 -0.0187594 0)
(-0.0503204 -0.0194701 0)
(-0.0259204 -0.0125739 0)
(-0.00392649 -0.00923052 0)
(-0.000767904 -0.0194078 0)
(-0.0834715 0.130224 0)
(-0.203887 0.0804638 0)
(-0.254019 0.0466832 0)
(-0.279846 0.0204963 0)
(-0.284803 0.00617174 0)
(-0.281161 -0.00208441 0)
(-0.262627 -0.0180803 0)
(-0.234905 -0.021832 0)
(-0.21146 -0.0155158 0)
(-0.193302 -0.0117665 0)
(-0.178909 -0.0122144 0)
(-0.167178 -0.0124058 0)
(-0.158385 -0.00918693 0)
(-0.147923 -0.00597195 0)
(-0.135451 -0.00379961 0)
(-0.124714 -0.00626934 0)
(-0.108754 -0.0125072 0)
(-0.0945869 -0.0221152 0)
(-0.0767571 -0.03129 0)
(-0.0563284 -0.0326929 0)
(-0.0347258 -0.0217787 0)
(-0.00124615 -0.00348456 0)
(0.0024116 -0.00340143 0)
(-0.108681 0.220718 0)
(-0.264366 0.146389 0)
(-0.319523 0.0818713 0)
(-0.336678 0.030075 0)
(-0.328765 -0.00758526 0)
(-0.297224 -0.0331744 0)
(-0.268508 -0.0454459 0)
(-0.245591 -0.046903 0)
(-0.219404 -0.0381324 0)
(-0.19428 -0.0289774 0)
(-0.178473 -0.0281887 0)
(-0.168521 -0.0328248 0)
(-0.162234 -0.036947 0)
(-0.153345 -0.0345432 0)
(-0.138583 -0.0289312 0)
(-0.121848 -0.028004 0)
(-0.103572 -0.0286541 0)
(-0.0908093 -0.0313224 0)
(-0.0778398 -0.0391011 0)
(-0.0645765 -0.0416372 0)
(-0.0394916 -0.0418338 0)
(-0.00486881 -0.0317573 0)
(0.00217141 -0.0199063 0)
(-0.189847 0.329242 0)
(-0.366141 0.193414 0)
(-0.400864 0.0888364 0)
(-0.397177 0.0239406 0)
(-0.374342 -0.0098571 0)
(-0.338673 -0.0274165 0)
(-0.308308 -0.0369444 0)
(-0.282919 -0.0367046 0)
(-0.256672 -0.0283349 0)
(-0.226912 -0.0181947 0)
(-0.203179 -0.0102031 0)
(-0.18896 -0.00109816 0)
(-0.17816 0.00513521 0)
(-0.165459 0.00485347 0)
(-0.1427 0.000845733 0)
(-0.119614 -0.00459014 0)
(-0.100457 -0.0088317 0)
(-0.0886586 -0.017997 0)
(-0.0767764 -0.0297429 0)
(-0.0610743 -0.0349625 0)
(-0.0429799 -0.0128631 0)
(-0.0191086 0.0369571 0)
(-0.00347335 0.0220295 0)
(-0.371435 0.404812 0)
(-0.514245 0.220127 0)
(-0.522663 0.103894 0)
(-0.487233 0.0301212 0)
(-0.431677 -0.0309422 0)
(-0.37536 -0.0729107 0)
(-0.330145 -0.095727 0)
(-0.299605 -0.113239 0)
(-0.274537 -0.119556 0)
(-0.23759 -0.113205 0)
(-0.195147 -0.102752 0)
(-0.179775 -0.0997086 0)
(-0.180067 -0.0992241 0)
(-0.187502 -0.0959678 0)
(-0.185912 -0.0903651 0)
(-0.16986 -0.0832006 0)
(-0.142139 -0.0749129 0)
(-0.106388 -0.0758438 0)
(-0.0777377 -0.0911745 0)
(-0.0455312 -0.106123 0)
(-0.0200942 -0.0893207 0)
(-0.0343015 -0.0580761 0)
(-0.0589189 -0.0111022 0)
(-0.396003 0.461262 0)
(-0.519744 0.197572 0)
(-0.556239 0.0480901 0)
(-0.535881 -0.0356396 0)
(-0.471288 -0.112185 0)
(-0.394276 -0.162877 0)
(-0.35689 -0.180271 0)
(-0.35112 -0.171044 0)
(-0.329941 -0.135059 0)
(-0.246239 -0.0878092 0)
(-0.136011 -0.0526909 0)
(-0.0616642 -0.0347476 0)
(-0.0544458 -0.0383305 0)
(-0.0796662 -0.0606288 0)
(-0.133545 -0.0952772 0)
(-0.158717 -0.131405 0)
(-0.164168 -0.146948 0)
(-0.127606 -0.156213 0)
(-0.093867 -0.165939 0)
(-0.0941385 -0.16284 0)
(-0.183997 -0.125905 0)
(-0.230007 -0.0163557 0)
(-0.156867 -0.080714 0)
(-0.21532 0.622812 0)
(-0.395305 0.233867 0)
(-0.463883 0.0324824 0)
(-0.425715 -0.118626 0)
(-0.382322 -0.203371 0)
(-0.400271 -0.174643 0)
(-0.411945 -0.127573 0)
(-0.374427 -0.142406 0)
(-0.296683 -0.200283 0)
(-0.188579 -0.245557 0)
(-0.103843 -0.232587 0)
(-0.0280989 -0.187077 0)
(0.0470653 -0.139694 0)
(0.0757539 -0.0957515 0)
(0.0714609 -0.0550888 0)
(0.0205256 -0.0338436 0)
(-0.026849 -0.0371688 0)
(-0.076569 -0.0430067 0)
(-0.145283 -0.0399741 0)
(-0.231806 -0.0276826 0)
(-0.370896 -0.0357309 0)
(-0.340265 0.0105806 0)
(-0.275209 -0.0665133 0)
(-0.00556651 0.266846 0)
(0.168048 0.214773 0)
(0.241608 -0.165655 0)
(0.291003 -0.42853 0)
(0.327389 -0.525839 0)
(0.341172 -0.583129 0)
(0.335818 -0.581734 0)
(0.331805 -0.555784 0)
(0.316859 -0.435556 0)
(0.295613 -0.126832 0)
(0.275054 -0.0555729 0)
(0.257371 -0.141788 0)
(0.234938 -0.108616 0)
(0.256808 -0.0414092 0)
(0.271028 -0.0418389 0)
(0.171088 -0.0367388 0)
(-0.0147297 0.0273297 0)
(-0.109681 -0.0304702 0)
(-0.068765 -0.0660493 0)
(0.137474 0.651016 0)
(0.408404 0.28803 0)
(0.465108 0.0129351 0)
(0.359517 0.309967 0)
(0.389011 0.320395 0)
(0.395847 0.349782 0)
(0.365426 0.351848 0)
(0.333729 0.313108 0)
(0.269509 0.233101 0)
(0.0484409 0.307582 0)
(-0.117203 0.478827 0)
(-0.09659 0.314429 0)
(-0.11662 0.312294 0)
(-0.155123 0.264134 0)
(0.0483008 0.19484 0)
(0.0393797 0.157942 0)
(-0.0441098 0.163347 0)
(-0.107123 0.126917 0)
(-0.0759851 0.0115694 0)
(0.0359102 0.160243 0)
(-0.196277 -0.505768 0)
(-0.0279066 -0.573684 0)
(0.148087 -0.125349 0)
(0.201511 -0.336983 0)
(0.234247 -0.439405 0)
(0.204868 -0.440522 0)
(0.157219 -0.397901 0)
(-0.0354992 0.0348122 0)
(-0.451889 0.0815118 0)
(-0.630672 0.216515 0)
(-0.610438 0.181967 0)
(-0.500269 0.0588262 0)
(-0.405441 -0.0975756 0)
(-0.272216 -0.0844011 0)
(0.00448688 0.10168 0)
(-0.0761249 0.105298 0)
(-0.0900426 0.0314803 0)
(-0.0194287 -0.102208 0)
(0.16729 0.134135 0)
(0.200594 0.398609 0)
(0.33672 0.551546 0)
(0.259027 0.416759 0)
(0.251423 0.396412 0)
(0.230932 0.417196 0)
(0.1682 0.435522 0)
(0.0128207 0.437538 0)
(-0.21458 0.656426 0)
(-0.343386 0.608072 0)
(-0.433024 0.476482 0)
(-0.511807 0.384843 0)
(-0.501694 0.114957 0)
(-0.479009 -0.0736047 0)
(-0.400813 -0.0809453 0)
(-0.158539 0.0426026 0)
(-0.0967668 0.126001 0)
(-0.0813791 0.0687371 0)
(0.00354264 -0.0746549 0)
(0.0955699 0.187768 0)
(-0.0706797 0.0857673 0)
(-0.00669136 -0.0795836 0)
(-0.00574472 -0.0607446 0)
(0.037621 -0.0543314 0)
(0.00474716 -0.223964 0)
(-0.0304087 -0.198121 0)
(-0.000427189 -0.117071 0)
(0.108695 0.0299625 0)
(0.223664 0.505502 0)
(-0.00343251 0.168312 0)
(-0.223448 -0.0105621 0)
(-0.36745 -0.119807 0)
(-0.43211 -0.260438 0)
(-0.456999 -0.0737094 0)
(-0.309768 0.0453079 0)
(-0.123486 0.0828677 0)
(-0.0785292 0.00240623 0)
(0.0267073 -0.109711 0)
(0.130594 0.153994 0)
(0.101424 0.204779 0)
(0.238803 0.330683 0)
(0.175876 0.436705 0)
(0.0743166 0.297467 0)
(-0.00757203 0.376998 0)
(-0.14254 0.284849 0)
(-0.173819 0.253264 0)
(-0.0829886 0.339099 0)
(0.19038 0.605762 0)
(0.0674763 0.382152 0)
(-0.255276 -0.0782414 0)
(-0.239303 -0.085823 0)
(-0.195542 -0.158371 0)
(-0.416001 0.00701332 0)
(-0.441978 0.125456 0)
(-0.180201 0.099288 0)
(-0.0688491 0.0251504 0)
(0.0337179 -0.0462189 0)
(0.110461 0.100936 0)
(0.0619455 0.185034 0)
(0.114212 0.154088 0)
(-0.0625101 0.173676 0)
(-0.167969 -0.0244474 0)
(-0.139119 -0.0285367 0)
(-0.177363 0.0128589 0)
(-0.174757 0.00738081 0)
(-0.0907173 0.170833 0)
(0.069326 0.46358 0)
(0.106518 0.536269 0)
(-0.144486 0.216632 0)
(-0.295803 0.172162 0)
(-0.172541 0.143785 0)
(-0.236028 -0.0106954 0)
(-0.402484 0.188531 0)
(-0.294384 0.274666 0)
(-0.0785975 0.162082 0)
(0.00506555 -0.00525227 0)
(0.0972772 -0.0244614 0)
(0.0716395 0.11908 0)
(0.176349 0.216203 0)
(0.0644543 0.404784 0)
(-0.11133 0.530748 0)
(-0.253279 0.245546 0)
(-0.228801 0.154781 0)
(-0.230282 0.138161 0)
(-0.16601 0.246077 0)
(0.00183197 0.437979 0)
(0.0953012 0.460159 0)
(-0.0233516 0.225659 0)
(-0.222816 0.062564 0)
(-0.14068 0.175505 0)
(-0.0475922 0.0886958 0)
(-0.0672314 -0.141114 0)
(-0.308207 -0.260534 0)
(-0.278853 -0.270184 0)
(-0.0967377 -0.292411 0)
(0.0664411 0.699443 0)
(0.0469457 0.378588 0)
(0.00321977 0.15292 0)
(-0.005407 -0.0195023 0)
(-0.0571309 -0.139461 0)
(-0.0778291 -0.205375 0)
(-0.0671552 -0.232049 0)
(-0.0117344 -0.238057 0)
(0.0524338 -0.218447 0)
(0.104819 -0.170117 0)
(0.132411 -0.0852404 0)
(0.153185 -0.0046725 0)
(0.155028 0.0675212 0)
(0.106498 0.105669 0)
(0.0631013 0.0790206 0)
(0.0176655 -0.00166502 0)
(-0.0305106 -0.068635 0)
(-0.0787229 -0.0843362 0)
(-0.0900877 -0.0663579 0)
(-0.0365721 -0.00576195 0)
(-0.137561 0.0738474 0)
(-0.109672 0.364647 0)
(-0.493515 0.247451 0)
(0.128632 0.572147 0)
(0.250599 0.414072 0)
(0.294555 0.20698 0)
(0.290176 0.0614005 0)
(0.267025 -0.024158 0)
(0.233293 -0.0664927 0)
(0.215635 -0.106301 0)
(0.217338 -0.152252 0)
(0.225639 -0.185885 0)
(0.241655 -0.191651 0)
(0.267243 -0.17128 0)
(0.295041 -0.100294 0)
(0.310634 -0.0610905 0)
(0.31298 -0.00450173 0)
(0.297458 0.0496577 0)
(0.24781 0.114633 0)
(0.153804 0.139889 0)
(0.0497463 0.108596 0)
(-0.009043 0.0109292 0)
(-0.0620622 0.0123046 0)
(-0.322707 0.160232 0)
(-0.423034 0.237501 0)
(-0.190984 0.28714 0)
(0.101791 0.352563 0)
(0.219547 0.292386 0)
(0.299968 0.195842 0)
(0.303123 0.0883849 0)
(0.287679 -0.00171906 0)
(0.257863 -0.0708462 0)
(0.2457 -0.13631 0)
(0.248618 -0.187301 0)
(0.260965 -0.212946 0)
(0.291594 -0.187551 0)
(0.339162 0.0684983 0)
(0.365335 0.235069 0)
(0.349288 0.30801 0)
(0.302225 0.245164 0)
(0.216767 0.153751 0)
(0.156778 0.135967 0)
(0.116754 0.19322 0)
(0.0668374 0.0672525 0)
(-0.0148372 -0.0334265 0)
(-0.386101 0.141941 0)
(-0.784639 0.603368 0)
(-0.956611 0.860487 0)
(-0.878179 0.502852 0)
(0.085039 0.188156 0)
(0.183825 0.221588 0)
(0.234352 0.169814 0)
(0.240655 0.10709 0)
(0.228363 0.0430034 0)
(0.209432 -0.0319284 0)
(0.200148 -0.114944 0)
(0.194695 -0.177624 0)
(0.240283 -0.241799 0)
(0.398876 -0.234556 0)
(0.49831 0.0845681 0)
(0.416603 0.317986 0)
(0.245488 0.520598 0)
(0.116642 0.524148 0)
(0.0244118 0.368919 0)
(-0.0373037 0.241272 0)
(-0.226649 0.44143 0)
(-0.393927 0.428788 0)
(-0.833424 0.494155 0)
(-1.28449 0.767719 0)
(-1.5059 0.961019 0)
(-1.41893 0.827204 0)
(-1.17059 0.3805 0)
(0.0518833 0.0856195 0)
(0.0930557 0.176553 0)
(0.104407 0.16412 0)
(0.0907285 0.100539 0)
(0.0901309 0.0301195 0)
(0.0560162 -0.0351331 0)
(0.0422802 -0.126829 0)
(0.00213122 -0.199065 0)
(0.0127875 -0.104281 0)
(-0.0506298 0.0949362 0)
(-0.136244 0.0868728 0)
(-0.281342 0.171642 0)
(-0.405098 0.413446 0)
(-0.574138 0.649413 0)
(-0.817153 0.792447 0)
(-0.888568 0.710625 0)
(-1.14587 0.876804 0)
(-1.40849 0.957447 0)
(-1.48328 0.934113 0)
(-1.54375 1.01951 0)
(-1.56842 1.06993 0)
(-1.54946 0.932468 0)
(-1.52108 0.637755 0)
(-0.0123443 0.0464454 0)
(-0.0217741 0.194709 0)
(-0.0667894 0.165164 0)
(-0.0907663 0.11353 0)
(-0.0825177 0.0863238 0)
(-0.106232 0.021043 0)
(-0.210715 -0.0724776 0)
(-0.511154 0.069303 0)
(-0.525488 0.417675 0)
(-0.611562 0.362294 0)
(-0.593035 0.195862 0)
(-0.658815 0.148097 0)
(-0.849103 0.147086 0)
(-1.20511 0.238665 0)
(-1.45249 0.678573 0)
(-1.55964 0.83843 0)
(-1.54664 0.977774 0)
(-1.44027 1.14236 0)
(-1.32648 1.18633 0)
(-1.20339 1.20786 0)
(-1.24136 1.08959 0)
(-1.43992 0.685081 0)
(-1.57501 0.352946 0)
(-0.0631051 0.30119 0)
(-0.101838 0.354817 0)
(-0.11585 0.244702 0)
(-0.161658 0.183691 0)
(-0.228969 0.0735759 0)
(-0.405801 0.138088 0)
(-0.70285 0.444922 0)
(-0.791758 0.431946 0)
(-0.683271 0.381675 0)
(-0.626236 0.319357 0)
(-0.626191 0.296331 0)
(-0.667581 0.271848 0)
(-0.838697 0.368613 0)
(-0.961101 0.937877 0)
(-1.81682 1.17051 0)
(-1.82058 0.697972 0)
(-1.57059 0.541737 0)
(-1.31706 0.738291 0)
(-1.24001 0.854408 0)
(-1.14178 0.860899 0)
(-1.02675 0.892393 0)
(-1.18302 1.41949 0)
(-1.65237 1.45121 0)
(-0.104532 0.625315 0)
(-0.185164 0.660912 0)
(-0.217317 0.315339 0)
(-0.29748 0.323346 0)
(-0.548766 0.403471 0)
(-0.816002 0.71602 0)
(-0.937697 0.826399 0)
(-0.937139 0.683336 0)
(-0.856973 0.545697 0)
(-0.704522 0.390748 0)
(-0.621349 0.285474 0)
(-0.614868 0.172711 0)
(-0.495448 0.644202 0)
(-0.875335 0.79835 0)
(-1.42457 0.856338 0)
(-1.25885 0.572942 0)
(-1.20177 0.402336 0)
(-1.20659 0.650196 0)
(-1.25986 0.912312 0)
(-1.29002 1.04079 0)
(-1.36968 1.17591 0)
(-1.44901 0.36283 0)
(-1.28989 -0.388488 0)
(-0.116984 0.660557 0)
(-0.402231 0.836395 0)
(-0.686839 0.87663 0)
(-0.753236 0.873541 0)
(-0.873922 0.905766 0)
(-0.87819 1.03425 0)
(-0.948544 0.860013 0)
(-1.01593 0.377761 0)
(-0.998562 0.186153 0)
(-0.936803 0.107507 0)
(-0.826022 0.0236756 0)
(-0.742497 0.213208 0)
(-0.84403 0.950602 0)
(-1.30827 0.971008 0)
(-1.4889 0.788678 0)
(-1.43028 0.268653 0)
(-1.46963 0.174764 0)
(-1.45845 0.291608 0)
(-1.43812 0.578356 0)
(-1.45383 0.772878 0)
(-1.40625 0.844319 0)
(-1.31416 0.617958 0)
(-1.30115 0.263654 0)
(-0.258284 0.565127 0)
(-0.879137 0.964084 0)
(-1.24488 1.09095 0)
(-1.23456 1.03165 0)
(-1.13762 0.952905 0)
(-1.0649 0.804411 0)
(-0.993618 0.635043 0)
(-0.743003 0.788082 0)
(-1.00285 0.714953 0)
(-1.01287 0.460542 0)
(-1.05616 0.438918 0)
(-1.11371 0.481629 0)
(-1.08773 0.893432 0)
(-1.2374 1.12378 0)
(-1.47186 0.91698 0)
(-1.44337 0.375113 0)
(-1.48518 0.26869 0)
(-1.5053 0.285879 0)
(-1.49388 0.522177 0)
(-1.45385 0.680222 0)
(-1.39618 0.705982 0)
(-1.32084 0.523061 0)
(-1.34727 0.0523004 0)
(-0.299615 1.68733 0)
(-0.814659 1.62963 0)
(-1.48927 0.87884 0)
(-1.38278 0.752978 0)
(-1.25825 0.749319 0)
(-1.15424 0.834499 0)
(-1.24594 0.770545 0)
(-1.27356 -0.350647 0)
(-1.12099 -0.498891 0)
(-1.0366 -0.441163 0)
(-1.06126 -0.233209 0)
(-0.910723 0.0747153 0)
(-0.835195 0.924868 0)
(-0.934482 1.27391 0)
(-1.2252 1.04256 0)
(-1.33017 0.501349 0)
(-1.36635 0.379999 0)
(-1.3892 0.372217 0)
(-1.41132 0.537525 0)
(-1.34445 0.643643 0)
(-1.28496 0.650949 0)
(-1.25149 0.540792 0)
(-1.30696 0.219638 0)
(-0.144538 1.60292 0)
(0.00318752 1.92334 0)
(-0.414508 1.41374 0)
(-0.597942 0.730478 0)
(-0.725035 0.66375 0)
(-0.711806 0.608275 0)
(-0.672132 0.474694 0)
(-0.485741 0.224562 0)
(-0.746132 0.137413 0)
(-0.856144 0.0737306 0)
(-0.909843 0.0516717 0)
(-0.921233 0.125523 0)
(-0.694944 0.69162 0)
(-0.404858 1.34902 0)
(-0.511135 1.38836 0)
(-0.870407 0.76431 0)
(-1.01387 0.292624 0)
(-1.08275 0.250263 0)
(-1.14365 0.456052 0)
(-1.0741 0.634035 0)
(-1.03849 0.660234 0)
(-1.03664 0.579678 0)
(-1.03667 0.239552 0)
(-0.0552378 1.50394 0)
(0.198936 1.63494 0)
(0.308768 1.36523 0)
(0.28513 0.860963 0)
(0.1989 0.539837 0)
(0.167453 0.472231 0)
(0.121913 0.392472 0)
(0.0310034 0.115892 0)
(-0.190876 -0.0789012 0)
(-0.327478 -0.11692 0)
(-0.461286 -0.0192903 0)
(-0.551064 0.11609 0)
(-0.608562 0.420883 0)
(-0.252772 1.0608 0)
(0.0769958 1.38422 0)
(0.0283901 1.19205 0)
(-0.236772 0.742414 0)
(-0.478182 0.435905 0)
(-0.633539 0.414214 0)
(-0.649348 0.505497 0)
(-0.602569 0.536331 0)
(-0.553753 0.453416 0)
(-0.388095 0.165184 0)
(-0.0534787 1.51131 0)
(0.117172 1.41223 0)
(0.289888 1.22354 0)
(0.401503 0.824435 0)
(0.391555 0.549891 0)
(0.393691 0.490333 0)
(0.383493 0.463814 0)
(0.335873 0.389981 0)
(0.178271 0.323973 0)
(-0.0355568 0.235689 0)
(-0.230818 0.196181 0)
(-0.291203 0.224699 0)
(-0.352223 0.3578 0)
(-0.257438 0.609881 0)
(0.112612 1.06725 0)
(0.365454 1.11904 0)
(0.350557 0.918925 0)
(0.228353 0.667103 0)
(0.120311 0.545628 0)
(0.0482379 0.544866 0)
(0.139304 0.52014 0)
(0.321738 0.376553 0)
(0.371541 0.0202899 0)
(-0.072471 1.50656 0)
(0.0433374 1.26483 0)
(0.130263 1.02512 0)
(0.318716 0.753321 0)
(0.34519 0.536361 0)
(0.376821 0.475878 0)
(0.395069 0.475439 0)
(0.39837 0.437881 0)
(0.346928 0.420332 0)
(0.235652 0.370551 0)
(0.0515881 0.322883 0)
(-0.0335447 0.295294 0)
(-0.0786052 0.371199 0)
(-0.0634738 0.503122 0)
(0.0819373 0.677349 0)
(0.342034 0.889923 0)
(0.518605 0.805825 0)
(0.546194 0.678825 0)
(0.596945 0.59456 0)
(0.633037 0.53485 0)
(0.6662 0.391296 0)
(0.841336 0.203184 0)
(0.930946 -0.122258 0)
(-0.0638351 1.50152 0)
(0.060743 1.18776 0)
(0.0717399 0.907099 0)
(0.23646 0.662677 0)
(0.269363 0.500804 0)
(0.307346 0.443788 0)
(0.343556 0.427302 0)
(0.395825 0.447385 0)
(0.386688 0.457365 0)
(0.353696 0.463281 0)
(0.260374 0.448371 0)
(0.189711 0.362958 0)
(0.142141 0.391377 0)
(0.159212 0.459401 0)
(0.227477 0.573748 0)
(0.388793 0.663152 0)
(0.562484 0.701311 0)
(0.686924 0.597144 0)
(0.770721 0.51892 0)
(0.909985 0.425292 0)
(0.977278 0.31306 0)
(1.10577 0.0889031 0)
(1.15311 -0.199617 0)
(-0.0255367 1.48101 0)
(0.12297 1.14575 0)
(0.116074 0.832784 0)
(0.233366 0.597307 0)
(0.258469 0.466791 0)
(0.287548 0.419221 0)
(0.311093 0.386215 0)
(0.345284 0.408772 0)
(0.384031 0.465432 0)
(0.378699 0.492849 0)
(0.353339 0.494393 0)
(0.336008 0.426391 0)
(0.300085 0.41012 0)
(0.31653 0.432001 0)
(0.358255 0.490875 0)
(0.475419 0.533225 0)
(0.586991 0.570347 0)
(0.74442 0.498915 0)
(0.808086 0.380089 0)
(0.923675 0.265651 0)
(1.04692 0.165471 0)
(1.13974 0.0176192 0)
(1.15397 -0.210928 0)
(0.0331455 1.40039 0)
(0.188767 1.09619 0)
(0.196267 0.775019 0)
(0.273209 0.554025 0)
(0.281668 0.43824 0)
(0.295438 0.402962 0)
(0.303662 0.376337 0)
(0.305712 0.382462 0)
(0.341821 0.437762 0)
(0.373289 0.490683 0)
(0.379937 0.491684 0)
(0.391554 0.442762 0)
(0.384043 0.409713 0)
(0.397599 0.411739 0)
(0.426632 0.429149 0)
(0.496776 0.439598 0)
(0.565632 0.430738 0)
(0.70655 0.395663 0)
(0.762717 0.276747 0)
(0.816439 0.136019 0)
(0.944387 0.0487996 0)
(1.0032 -0.0393551 0)
(0.97501 -0.193325 0)
(0.0932691 1.22596 0)
(0.223924 1.01874 0)
(0.263762 0.726829 0)
(0.306968 0.525718 0)
(0.299044 0.431316 0)
(0.297312 0.400789 0)
(0.296541 0.378912 0)
(0.289694 0.379015 0)
(0.295235 0.402712 0)
(0.335134 0.456353 0)
(0.378962 0.473379 0)
(0.399861 0.43284 0)
(0.40618 0.396758 0)
(0.419896 0.391792 0)
(0.442093 0.389831 0)
(0.486628 0.378771 0)
(0.536986 0.340636 0)
(0.62711 0.309668 0)
(0.684 0.214076 0)
(0.730071 0.0845415 0)
(0.775649 0.00563358 0)
(0.788388 -0.0624486 0)
(0.784219 -0.185299 0)
(0.114783 1.04042 0)
(0.21931 0.920469 0)
(0.294562 0.686151 0)
(0.31498 0.516585 0)
(0.301238 0.435238 0)
(0.295931 0.405462 0)
(0.288658 0.387559 0)
(0.281413 0.383436 0)
(0.282261 0.391963 0)
(0.303312 0.410818 0)
(0.349532 0.428592 0)
(0.387012 0.40942 0)
(0.40226 0.388268 0)
(0.416213 0.374304 0)
(0.440212 0.360236 0)
(0.475992 0.333055 0)
(0.518533 0.290053 0)
(0.568322 0.249609 0)
(0.624958 0.165424 0)
(0.647989 0.0642107 0)
(0.659834 0.00751888 0)
(0.663903 -0.0726507 0)
(0.649793 -0.169764 0)
(0.10638 0.876513 0)
(0.192364 0.815159 0)
(0.281757 0.642285 0)
(0.304832 0.514439 0)
(0.293008 0.444656 0)
(0.286382 0.41641 0)
(0.278462 0.395758 0)
(0.274203 0.386621 0)
(0.278529 0.384587 0)
(0.293503 0.386033 0)
(0.325725 0.389716 0)
(0.356728 0.379092 0)
(0.382487 0.370276 0)
(0.404189 0.350738 0)
(0.4318 0.329229 0)
(0.465129 0.295305 0)
(0.501801 0.254188 0)
(0.53475 0.207813 0)
(0.573402 0.135089 0)
(0.57815 0.0630293 0)
(0.582305 0.00410311 0)
(0.581382 -0.0691021 0)
(0.559195 -0.136636 0)
(0.0828932 0.746071 0)
(0.155919 0.717924 0)
(0.241981 0.595214 0)
(0.265049 0.505009 0)
(0.263899 0.450457 0)
(0.262927 0.421667 0)
(0.262105 0.398211 0)
(0.263283 0.384806 0)
(0.271246 0.374779 0)
(0.284059 0.367003 0)
(0.306487 0.363153 0)
(0.331695 0.353909 0)
(0.356339 0.340913 0)
(0.38336 0.320699 0)
(0.411958 0.296496 0)
(0.440846 0.260202 0)
(0.470656 0.222283 0)
(0.493688 0.177456 0)
(0.515849 0.11961 0)
(0.51822 0.0615447 0)
(0.520403 0.00702252 0)
(0.512581 -0.0564878 0)
(0.490984 -0.105041 0)
(0.0588618 0.647025 0)
(0.120975 0.635081 0)
(0.195567 0.550646 0)
(0.218568 0.488718 0)
(0.22899 0.446181 0)
(0.236892 0.418404 0)
(0.2428 0.394964 0)
(0.249448 0.378523 0)
(0.259638 0.364354 0)
(0.272283 0.35189 0)
(0.2892 0.341588 0)
(0.310585 0.329602 0)
(0.334077 0.313798 0)
(0.359293 0.29315 0)
(0.384798 0.267319 0)
(0.408586 0.232917 0)
(0.430807 0.197487 0)
(0.448636 0.157302 0)
(0.464189 0.10886 0)
(0.464965 0.0593418 0)
(0.46791 0.011705 0)
(0.455608 -0.039755 0)
(0.438478 -0.0783896 0)
(0.0413793 0.573068 0)
(0.0939278 0.566384 0)
(0.154889 0.510624 0)
(0.18042 0.468236 0)
(0.197944 0.434232 0)
(0.211487 0.408747 0)
(0.222336 0.386284 0)
(0.233128 0.368427 0)
(0.245057 0.352365 0)
(0.258589 0.337701 0)
(0.273577 0.323891 0)
(0.292512 0.308557 0)
(0.31297 0.290992 0)
(0.334657 0.269245 0)
(0.356703 0.244371 0)
(0.375783 0.213159 0)
(0.393175 0.180427 0)
(0.40677 0.142609 0)
(0.417833 0.102326 0)
(0.418851 0.0598607 0)
(0.422127 0.0157901 0)
(0.410443 -0.0263229 0)
(0.397772 -0.0596047 0)
(0.0304779 0.515889 0)
(0.0743229 0.510131 0)
(0.123587 0.47351 0)
(0.150346 0.443787 0)
(0.171606 0.416932 0)
(0.188604 0.394508 0)
(0.202844 0.373787 0)
(0.216283 0.355947 0)
(0.229806 0.338993 0)
(0.244028 0.323598 0)
(0.25929 0.30772 0)
(0.275577 0.290413 0)
(0.293074 0.270822 0)
(0.310704 0.249189 0)
(0.328333 0.224993 0)
(0.344351 0.195968 0)
(0.359116 0.16563 0)
(0.370561 0.132123 0)
(0.379297 0.0966915 0)
(0.381432 0.0570299 0)
(0.382246 0.0203402 0)
(0.372242 -0.0135522 0)
(0.364514 -0.046412 0)
(0.0237965 0.470622 0)
(0.0602099 0.464894 0)
(0.100567 0.440162 0)
(0.126834 0.418595 0)
(0.149099 0.397291 0)
(0.167648 0.377815 0)
(0.183691 0.358964 0)
(0.198531 0.341645 0)
(0.21281 0.324733 0)
(0.227218 0.308266 0)
(0.242039 0.291938 0)
(0.257254 0.274172 0)
(0.273124 0.254686 0)
(0.288347 0.233381 0)
(0.303536 0.209015 0)
(0.317099 0.18258 0)
(0.328277 0.153683 0)
(0.337254 0.12312 0)
(0.343842 0.0915763 0)
(0.345562 0.0575345 0)
(0.345905 0.0239205 0)
(0.340213 -0.0074876 0)
(0.334545 -0.0367881 0)
(0.0194944 0.43319 0)
(0.050149 0.427607 0)
(0.0840359 0.410222 0)
(0.108893 0.394036 0)
(0.130734 0.376958 0)
(0.149605 0.360095 0)
(0.166353 0.343165 0)
(0.18171 0.326776 0)
(0.196297 0.310229 0)
(0.210523 0.293699 0)
(0.224705 0.277192 0)
(0.238832 0.259072 0)
(0.252408 0.239809 0)
(0.265842 0.218812 0)
(0.27838 0.195992 0)
(0.289472 0.170743 0)
(0.29939 0.144198 0)
(0.306853 0.11607 0)
(0.313013 0.0868379 0)
(0.315059 0.0561566 0)
(0.314664 0.0265784 0)
(0.310245 -0.00177366 0)
(0.30602 -0.0301579 0)
(0.0163607 0.401672 0)
(0.042488 0.396378 0)
(0.0713855 0.383463 0)
(0.0943434 0.370835 0)
(0.115109 0.356877 0)
(0.13353 0.342281 0)
(0.150155 0.327122 0)
(0.165375 0.311822 0)
(0.179833 0.296007 0)
(0.193464 0.280061 0)
(0.206861 0.263611 0)
(0.219976 0.246039 0)
(0.232401 0.226906 0)
(0.244443 0.206585 0)
(0.255413 0.184622 0)
(0.265312 0.161201 0)
(0.273574 0.136337 0)
(0.2794 0.110314 0)
(0.284085 0.0839165 0)
(0.285598 0.0559829 0)
(0.285824 0.0281594 0)
(0.283046 0.00148917 0)
(0.279663 -0.0246522 0)
(0.0140009 0.37454 0)
(0.0366585 0.369617 0)
(0.0617189 0.359535 0)
(0.0827117 0.349364 0)
(0.102117 0.337684 0)
(0.119687 0.324954 0)
(0.135702 0.31129 0)
(0.150416 0.297001 0)
(0.164244 0.282006 0)
(0.177177 0.266524 0)
(0.189718 0.250418 0)
(0.201675 0.233353 0)
(0.212891 0.214968 0)
(0.223472 0.195445 0)
(0.23301 0.174611 0)
(0.241271 0.152585 0)
(0.248328 0.129267 0)
(0.253625 0.104923 0)
(0.257813 0.0800902 0)
(0.259653 0.0548348 0)
(0.25983 0.0296011 0)
(0.257466 0.004636 0)
(0.254638 -0.0201888 0)
(0.0120827 0.351141 0)
(0.031951 0.346571 0)
(0.0538934 0.338361 0)
(0.0729069 0.329927 0)
(0.0907322 0.31998 0)
(0.107156 0.308784 0)
(0.122278 0.296457 0)
(0.13628 0.283243 0)
(0.149343 0.269213 0)
(0.161565 0.254429 0)
(0.173171 0.238945 0)
(0.184142 0.222551 0)
(0.194363 0.20495 0)
(0.203823 0.186231 0)
(0.21219 0.166525 0)
(0.219418 0.145612 0)
(0.22561 0.123822 0)
(0.230133 0.101113 0)
(0.233455 0.0779777 0)
(0.234906 0.0541819 0)
(0.235166 0.0303998 0)
(0.233411 0.00694467 0)
(0.231038 -0.0163574 0)
(0.010541 0.330546 0)
(0.0280878 0.32613 0)
(0.0474173 0.319131 0)
(0.0645584 0.311924 0)
(0.0807894 0.303266 0)
(0.0959488 0.293257 0)
(0.110038 0.282051 0)
(0.123151 0.26984 0)
(0.135325 0.256696 0)
(0.146701 0.242677 0)
(0.15732 0.227825 0)
(0.167338 0.21216 0)
(0.176536 0.195433 0)
(0.184898 0.177673 0)
(0.192323 0.158991 0)
(0.198732 0.139213 0)
(0.204056 0.118551 0)
(0.20805 0.0971856 0)
(0.21084 0.0754696 0)
(0.212135 0.0533829 0)
(0.21224 0.0312247 0)
(0.210702 0.00905397 0)
(0.208552 -0.0130567 0)
(0.00921435 0.312531 0)
(0.0248024 0.308376 0)
(0.0418858 0.302299 0)
(0.0573057 0.296047 0)
(0.0720085 0.288405 0)
(0.0858607 0.279396 0)
(0.0988096 0.269131 0)
(0.110898 0.257793 0)
(0.12216 0.245448 0)
(0.13264 0.232199 0)
(0.142321 0.218045 0)
(0.151327 0.203055 0)
(0.159531 0.187057 0)
(0.166916 0.170089 0)
(0.173462 0.15235 0)
(0.179056 0.13372 0)
(0.183629 0.11426 0)
(0.187136 0.0942473 0)
(0.189409 0.0737989 0)
(0.190475 0.0529265 0)
(0.190468 0.0319168 0)
(0.18915 0.0108719 0)
(0.187146 -0.0101223 0)
(0.00807642 0.296538 0)
(0.0219038 0.292416 0)
(0.0370109 0.286915 0)
(0.0508259 0.281379 0)
(0.064081 0.274546 0)
(0.0766436 0.266358 0)
(0.0884379 0.256978 0)
(0.0994495 0.246507 0)
(0.109694 0.235 0)
(0.119213 0.222516 0)
(0.127979 0.209126 0)
(0.136059 0.194855 0)
(0.143434 0.179712 0)
(0.150015 0.163688 0)
(0.155781 0.146862 0)
(0.160636 0.129095 0)
(0.164479 0.11055 0)
(0.167296 0.0915199 0)
(0.169113 0.0721858 0)
(0.169993 0.0525012 0)
(0.169876 0.0326287 0)
(0.168655 0.012611 0)
(0.166688 -0.00740039 0)
(0.00705334 0.282527 0)
(0.0193782 0.278492 0)
(0.0327336 0.273568 0)
(0.0450752 0.268607 0)
(0.0569447 0.262396 0)
(0.0682267 0.254907 0)
(0.0788288 0.246195 0)
(0.0887446 0.236374 0)
(0.0979556 0.225547 0)
(0.106485 0.21375 0)
(0.114347 0.201039 0)
(0.121525 0.187476 0)
(0.128014 0.173069 0)
(0.133768 0.15776 0)
(0.138764 0.141736 0)
(0.142949 0.125027 0)
(0.146278 0.107647 0)
(0.14872 0.0896366 0)
(0.150135 0.07112 0)
(0.15063 0.052288 0)
(0.150279 0.033344 0)
(0.149051 0.014272 0)
(0.147063 -0.00484796 0)
(0.00617539 0.270132 0)
(0.0170932 0.266043 0)
(0.0289101 0.261386 0)
(0.0398741 0.25688 0)
(0.0504216 0.251221 0)
(0.0604783 0.244337 0)
(0.0699324 0.236317 0)
(0.0787783 0.227226 0)
(0.0869698 0.217145 0)
(0.0945231 0.20607 0)
(0.101437 0.194028 0)
(0.107659 0.181081 0)
(0.113195 0.167239 0)
(0.118119 0.152639 0)
(0.122382 0.137349 0)
(0.125908 0.121354 0)
(0.128661 0.104687 0)
(0.130587 0.0876783 0)
(0.131789 0.0703742 0)
(0.132205 0.0525637 0)
(0.131664 0.0343678 0)
(0.130339 0.0159958 0)
(0.128262 -0.00238226 0)
(0.00536828 0.259182 0)
(0.0150738 0.255192 0)
(0.0253457 0.250984 0)
(0.0350339 0.246909 0)
(0.0443384 0.241707 0)
(0.0532553 0.23534 0)
(0.0616753 0.227908 0)
(0.0695606 0.219413 0)
(0.0769075 0.209829 0)
(0.0836469 0.199321 0)
(0.0897639 0.187933 0)
(0.0952556 0.175707 0)
(0.100139 0.162652 0)
(0.104294 0.148766 0)
(0.107697 0.134113 0)
(0.110365 0.118766 0)
(0.112285 0.102871 0)
(0.113576 0.0863992 0)
(0.114181 0.0694462 0)
(0.114088 0.0524184 0)
(0.113534 0.0352907 0)
(0.112276 0.017804 0)
(0.110158 9.20408e-05 0)
(0.0046474 0.249739 0)
(0.0131614 0.245446 0)
(0.0222148 0.241329 0)
(0.0306954 0.237538 0)
(0.0388212 0.232696 0)
(0.0466035 0.226776 0)
(0.0539739 0.219801 0)
(0.0609034 0.211837 0)
(0.0672776 0.202959 0)
(0.0731238 0.193163 0)
(0.0783744 0.182452 0)
(0.0829859 0.170835 0)
(0.0870219 0.158385 0)
(0.0904569 0.145196 0)
(0.0933186 0.131324 0)
(0.0955659 0.116852 0)
(0.0972404 0.101766 0)
(0.0981024 0.0860605 0)
(0.0981234 0.0699483 0)
(0.0975886 0.0532885 0)
(0.0962893 0.0362804 0)
(0.0946518 0.019403 0)
(0.0925324 0.00247242 0)
(0.00418918 0.241348 0)
(0.0115866 0.237529 0)
(0.0190506 0.233912 0)
(0.0262419 0.230568 0)
(0.0331175 0.226094 0)
(0.0397247 0.220476 0)
(0.046053 0.213809 0)
(0.0520523 0.206168 0)
(0.0577578 0.197598 0)
(0.0630055 0.188186 0)
(0.0677445 0.17796 0)
(0.071912 0.166937 0)
(0.0753957 0.155083 0)
(0.0782078 0.142449 0)
(0.0803735 0.129115 0)
(0.0818449 0.115092 0)
(0.0826722 0.100467 0)
(0.0829458 0.085477 0)
(0.0827945 0.070095 0)
(0.0820231 0.0543234 0)
(0.0805473 0.0382548 0)
(0.0784329 0.021607 0)
(0.0757622 0.00482689 0)
(0.00363686 0.233903 0)
(0.0099338 0.22992 0)
(0.0162048 0.226071 0)
(0.0224008 0.222706 0)
(0.0282473 0.218391 0)
(0.0339133 0.213114 0)
(0.0392321 0.206861 0)
(0.0442309 0.199721 0)
(0.0488625 0.191758 0)
(0.05314 0.183017 0)
(0.0570338 0.173536 0)
(0.0604879 0.163258 0)
(0.0634499 0.152191 0)
(0.0658539 0.140373 0)
(0.0676761 0.127867 0)
(0.068864 0.114667 0)
(0.0693975 0.100863 0)
(0.0693057 0.0864624 0)
(0.068521 0.0714697 0)
(0.0671508 0.0561145 0)
(0.0653824 0.0404228 0)
(0.0631798 0.024565 0)
(0.0601283 0.00842482 0)
(0.00320229 0.227671 0)
(0.00812436 0.224771 0)
(0.0122013 0.221896 0)
(0.0162607 0.219039 0)
(0.0200237 0.215035 0)
(0.0238186 0.209992 0)
(0.0273204 0.203881 0)
(0.0306549 0.196828 0)
(0.0337442 0.188922 0)
(0.0366566 0.180181 0)
(0.0393686 0.170683 0)
(0.0418861 0.160495 0)
(0.0441759 0.149629 0)
(0.0461645 0.138115 0)
(0.0478667 0.125941 0)
(0.0492485 0.113187 0)
(0.0501954 0.0998446 0)
(0.0506708 0.0859848 0)
(0.0506097 0.0716721 0)
(0.0499713 0.0570112 0)
(0.0486489 0.0419921 0)
(0.0466423 0.0265946 0)
(0.0438948 0.0109545 0)
(0.00261576 0.222397 0)
(0.0055396 0.22014 0)
(0.00800043 0.216927 0)
(0.0109355 0.213765 0)
(0.0134958 0.209754 0)
(0.0161947 0.204949 0)
(0.018652 0.199223 0)
(0.0209928 0.192631 0)
(0.0231764 0.185183 0)
(0.0252158 0.176901 0)
(0.0271299 0.167878 0)
(0.0289233 0.158189 0)
(0.0305519 0.147819 0)
(0.0319602 0.136723 0)
(0.0331477 0.125011 0)