/*--------------------------------*- C++ -*----------------------------------*\
| =========                 |                                                 |
| \\      /  F ield         | OpenFOAM: The Open Source CFD Toolbox           |
|  \\    /   O peration     | Version:  2.4.0                                 |
|   \\  /    A nd           | Web:      www.OpenFOAM.org                      |
|    \\/     M anipulation  |                                                 |
\*---------------------------------------------------------------------------*/
FoamFile
{
    version     2.0;
    format      ascii;
    class       volVectorField;
    location    "0.95";
    object      U.oil;
}
// * * * * * * * * * * * * * * * * * * * * * * * * * * * * * * * * * * * * * //

dimensions      [0 1 -1 0 0 0 0];

internalField   nonuniform List<vector> 
2268
(
(-0.0664916 -0.0337378 0)
(-0.173147 -0.0311525 0)
(-0.243672 -0.0168731 0)
(-0.277705 -0.005993 0)
(-0.282434 0.00332867 0)
(-0.274542 0.00715988 0)
(-0.256449 0.00536109 0)
(-0.232717 0.00369462 0)
(-0.211647 0.00295779 0)
(-0.198443 0.000972126 0)
(-0.189954 -0.00289247 0)
(-0.177243 -0.00588282 0)
(-0.158395 -0.00437641 0)
(-0.143469 -0.00365525 0)
(-0.132595 -0.0025398 0)
(-0.126853 -0.00203263 0)
(-0.11939 -0.00373932 0)
(-0.107124 -0.00477921 0)
(-0.0853068 -0.00529903 0)
(-0.0541132 -0.00520492 0)
(-0.0328822 0.00405042 0)
(-0.0275165 0.0109304 0)
(-0.0211218 0.00343175 0)
(-0.065876 0.13135 0)
(-0.171823 0.100385 0)
(-0.23573 0.0608853 0)
(-0.276358 0.0226379 0)
(-0.282895 -0.0072037 0)
(-0.279619 -0.0205855 0)
(-0.261368 -0.0249575 0)
(-0.235036 -0.0243598 0)
(-0.212698 -0.0182414 0)
(-0.198058 -0.010223 0)
(-0.184773 -0.00775749 0)
(-0.169858 -0.0109762 0)
(-0.155807 -0.0139737 0)
(-0.143511 -0.0107055 0)
(-0.134493 -0.00686832 0)
(-0.127024 -0.00535656 0)
(-0.115698 -0.00578602 0)
(-0.102017 -0.0108669 0)
(-0.0790611 -0.0184931 0)
(-0.050326 -0.0183645 0)
(-0.0259167 -0.00919032 0)
(-0.00394594 -0.00189085 0)
(-0.000794858 -0.00869036 0)
(-0.0834746 0.130189 0)
(-0.203887 0.0804608 0)
(-0.254019 0.0466821 0)
(-0.279846 0.0204955 0)
(-0.284804 0.00617108 0)
(-0.281161 -0.00208394 0)
(-0.262627 -0.0180609 0)
(-0.234905 -0.021755 0)
(-0.21146 -0.0154021 0)
(-0.193302 -0.0116628 0)
(-0.178909 -0.0120982 0)
(-0.167178 -0.0121811 0)
(-0.158386 -0.00887089 0)
(-0.147923 -0.00564468 0)
(-0.135452 -0.00353677 0)
(-0.124714 -0.00605338 0)
(-0.108754 -0.0122987 0)
(-0.094588 -0.0218189 0)
(-0.0767598 -0.0304736 0)
(-0.0563363 -0.0309012 0)
(-0.034772 -0.0182679 0)
(-0.00127915 0.00369061 0)
(0.00241856 0.00838682 0)
(-0.1087 0.220394 0)
(-0.2644 0.146108 0)
(-0.319534 0.0818091 0)
(-0.336679 0.0300711 0)
(-0.328765 -0.00758194 0)
(-0.297221 -0.0330789 0)
(-0.268496 -0.0449623 0)
(-0.245568 -0.045732 0)
(-0.219383 -0.0362312 0)
(-0.194266 -0.0263856 0)
(-0.178463 -0.0253543 0)
(-0.168511 -0.0307454 0)
(-0.162233 -0.0353233 0)
(-0.153355 -0.033007 0)
(-0.138598 -0.0275254 0)
(-0.121863 -0.0269615 0)
(-0.103586 -0.02793 0)
(-0.0908273 -0.0305162 0)
(-0.0778538 -0.0375186 0)
(-0.064572 -0.0388884 0)
(-0.0394797 -0.0396796 0)
(-0.00501627 -0.0302735 0)
(0.00201892 -0.0132541 0)
(-0.18984 0.329707 0)
(-0.366151 0.193125 0)
(-0.400903 0.0885441 0)
(-0.397197 0.0238092 0)
(-0.374328 -0.00968362 0)
(-0.338596 -0.0266091 0)
(-0.308131 -0.0350538 0)
(-0.282676 -0.0335546 0)
(-0.256419 -0.0227352 0)
(-0.226754 -0.00645697 0)
(-0.203175 0.0118044 0)
(-0.189051 0.0291882 0)
(-0.178239 0.0386693 0)
(-0.165518 0.0386715 0)
(-0.142752 0.0342083 0)
(-0.119653 0.0262686 0)
(-0.10047 0.0169796 0)
(-0.0886591 0.00714869 0)
(-0.0767645 -0.00117368 0)
(-0.06106 -0.00320338 0)
(-0.04283 -0.00235526 0)
(-0.0191278 0.0219285 0)
(-0.00363371 0.0151224 0)
(-0.371373 0.420035 0)
(-0.514248 0.220195 0)
(-0.522671 0.103564 0)
(-0.487239 0.0299056 0)
(-0.431604 -0.0308031 0)
(-0.375184 -0.0722005 0)
(-0.329881 -0.0941814 0)
(-0.299315 -0.110613 0)
(-0.274327 -0.114664 0)
(-0.237168 -0.10044 0)
(-0.193476 -0.0687431 0)
(-0.176609 -0.0404743 0)
(-0.178874 -0.02987 0)
(-0.188546 -0.0218826 0)
(-0.187918 -0.00916584 0)
(-0.171566 0.00206814 0)
(-0.143667 0.00415143 0)
(-0.107587 0.00337969 0)
(-0.0779151 -0.00498249 0)
(-0.0456816 -0.015958 0)
(-0.021683 -0.028495 0)
(-0.0341274 -0.0389554 0)
(-0.0580311 0.0289728 0)
(-0.391355 0.48937 0)
(-0.519532 0.202785 0)
(-0.556238 0.0480196 0)
(-0.535876 -0.0357401 0)
(-0.47122 -0.111531 0)
(-0.393931 -0.157391 0)
(-0.35651 -0.16585 0)
(-0.350411 -0.149592 0)
(-0.327603 -0.106158 0)
(-0.242968 -0.054214 0)
(-0.133569 -0.018077 0)
(-0.0583675 0.00233884 0)
(-0.0462283 0.00652432 0)
(-0.0727617 -0.0057027 0)
(-0.12879 -0.023243 0)
(-0.158064 -0.0323714 0)
(-0.169204 -0.0189758 0)
(-0.138065 -0.00747655 0)
(-0.112043 -0.0133867 0)
(-0.11716 -0.0133061 0)
(-0.216998 0.0627397 0)
(-0.245252 0.23184 0)
(-0.181782 0.313197 0)
(-0.198628 0.6614 0)
(-0.389965 0.253574 0)
(-0.462819 0.0429853 0)
(-0.426911 -0.106125 0)
(-0.387243 -0.181496 0)
(-0.407004 -0.147826 0)
(-0.418571 -0.105262 0)
(-0.381609 -0.125669 0)
(-0.302045 -0.188717 0)
(-0.191105 -0.232003 0)
(-0.100624 -0.20193 0)
(-0.0132453 -0.134195 0)
(0.0614027 -0.0842035 0)
(0.0865247 -0.0412675 0)
(0.0756317 -0.00186314 0)
(0.0163879 0.026427 0)
(-0.0360829 0.0229121 0)
(-0.0923894 0.0182397 0)
(-0.166242 0.0201931 0)
(-0.259559 0.0284818 0)
(-0.396577 0.00384913 0)
(-0.365545 -0.229368 0)
(-0.314479 -0.367386 0)
(0.00278306 -0.162008 0)
(0.182174 -0.251768 0)
(0.242421 -0.335666 0)
(0.287047 -0.376934 0)
(0.323941 -0.433196 0)
(0.334292 -0.471654 0)
(0.325949 -0.464329 0)
(0.315698 -0.43154 0)
(0.284035 -0.364056 0)
(0.259129 -0.237655 0)
(0.244595 -0.137405 0)
(0.22811 -0.0613165 0)
(0.206905 -0.0371758 0)
(0.235417 0.0189988 0)
(0.241761 0.0812329 0)
(0.13029 0.127727 0)
(-0.0362147 0.136712 0)
(-0.116426 0.104348 0)
(-0.0747759 0.0751451 0)
(0.0821888 0.295706 0)
(0.218054 0.371423 0)
(0.329964 0.524844 0)
(0.346629 0.574875 0)
(0.389077 0.660403 0)
(0.360175 0.707139 0)
(0.299891 0.695929 0)
(0.274232 0.637483 0)
(0.266353 0.573061 0)
(0.146728 0.474047 0)
(-0.018254 0.416337 0)
(-0.0534343 0.376347 0)
(-0.104371 0.350013 0)
(-0.144823 0.279335 0)
(0.0396591 0.287824 0)
(0.00157156 0.310683 0)
(-0.0730909 0.287262 0)
(-0.116052 0.255996 0)
(-0.0842115 0.161285 0)
(0.146367 -0.240671 0)
(0.0360169 -0.340038 0)
(0.110129 -0.39282 0)
(0.164677 -0.408196 0)
(0.197546 -0.445319 0)
(0.21988 -0.445404 0)
(0.197591 -0.39483 0)
(0.138028 -0.353851 0)
(0.0544437 -0.238714 0)
(-0.31387 0.0440639 0)
(-0.584359 0.0302047 0)
(-0.582346 0.0328462 0)
(-0.506661 0.063046 0)
(-0.422942 0.0121165 0)
(-0.287925 0.024755 0)
(-0.0315471 0.213371 0)
(-0.105487 0.235338 0)
(-0.0976571 0.155371 0)
(-0.023323 0.0348099 0)
(0.118258 -0.338731 0)
(0.0686014 -0.0642113 0)
(0.222494 0.134843 0)
(0.211569 0.200342 0)
(0.24305 0.321071 0)
(0.233099 0.445636 0)
(0.155727 0.458289 0)
(0.0527349 0.462398 0)
(-0.0811373 0.520974 0)
(-0.244403 0.463212 0)
(-0.495209 0.295397 0)
(-0.503316 0.205629 0)
(-0.492323 0.158953 0)
(-0.48891 0.0931247 0)
(-0.440421 0.045932 0)
(-0.210665 0.157882 0)
(-0.125652 0.264316 0)
(-0.0898278 0.20341 0)
(-0.00440042 0.0690483 0)
(0.0857183 -0.222731 0)
(-0.0433467 -0.18258 0)
(0.0634217 -0.226074 0)
(0.0296606 -0.24943 0)
(0.0442417 -0.284506 0)
(0.0135299 -0.272917 0)
(-0.0345242 -0.169355 0)
(-0.000273254 -0.050274 0)
(0.0107212 0.180339 0)
(-0.0344629 0.414721 0)
(-0.240738 0.325866 0)
(-0.306166 0.195355 0)
(-0.428265 0.186775 0)
(-0.48807 -0.0128376 0)
(-0.517223 -0.0976391 0)
(-0.360657 0.104633 0)
(-0.14771 0.219693 0)
(-0.0835055 0.136665 0)
(0.0252566 0.02983 0)
(0.115684 -0.217548 0)
(0.0275672 -0.141546 0)
(0.150511 -0.0574231 0)
(0.133696 0.043618 0)
(0.0955347 0.176374 0)
(0.0372508 0.294409 0)
(-0.13637 0.287417 0)
(-0.167243 0.271359 0)
(-0.0863254 0.303972 0)
(0.0314653 0.406276 0)
(-0.113318 0.256848 0)
(-0.268441 -0.00813732 0)
(-0.280856 -0.102468 0)
(-0.295723 -0.0569402 0)
(-0.475055 -0.083812 0)
(-0.406503 -0.00795089 0)
(-0.185494 0.147632 0)
(-0.0703126 0.128602 0)
(0.0351211 0.02151 0)
(0.11362 -0.236275 0)
(0.0216458 -0.155439 0)
(0.111444 -0.152154 0)
(0.0324771 -0.104192 0)
(-0.0466327 -0.135601 0)
(-0.0743511 -0.0209169 0)
(-0.177701 0.0597676 0)
(-0.179167 0.0553071 0)
(-0.0898838 0.217578 0)
(0.0365239 0.401627 0)
(0.0367965 0.347877 0)
(-0.179523 0.165118 0)
(-0.294957 0.0731015 0)
(-0.259071 -0.0923958 0)
(-0.307212 -0.0850742 0)
(-0.380937 0.00863856 0)
(-0.26282 0.0662521 0)
(-0.0805264 0.0481886 0)
(0.0033563 -0.005459 0)
(0.0980536 -0.252408 0)
(0.0084183 -0.170503 0)
(0.0915936 -0.126329 0)
(0.0587565 0.00671007 0)
(-0.021886 0.142103 0)
(-0.182271 0.205755 0)
(-0.22747 0.185449 0)
(-0.234628 0.139268 0)
(-0.161679 0.167986 0)
(0.0163839 0.363015 0)
(0.109461 0.392572 0)
(-0.0427415 0.230404 0)
(-0.254778 -0.0041675 0)
(-0.234236 -0.117657 0)
(-0.241577 -0.133603 0)
(-0.326021 -0.00667979 0)
(-0.368985 0.073241 0)
(-0.211235 0.0645094 0)
(-0.0740787 0.0731936 0)
(0.0825568 0.730781 0)
(0.06825 0.407108 0)
(0.0178837 0.173269 0)
(-0.00414535 -0.00439968 0)
(-0.062653 -0.12793 0)
(-0.0834833 -0.195753 0)
(-0.0714273 -0.222783 0)
(-0.0138854 -0.228564 0)
(0.052389 -0.208516 0)
(0.113168 -0.14947 0)
(0.146466 -0.0187668 0)
(0.167872 0.0969476 0)
(0.166411 0.169465 0)
(0.114154 0.204761 0)
(0.0667208 0.175219 0)
(0.016656 0.0947894 0)
(-0.0360304 0.0266876 0)
(-0.0913661 0.00544066 0)
(-0.107117 0.0242244 0)
(-0.0500646 0.0897639 0)
(-0.0925007 0.175512 0)
(-0.134457 0.173995 0)
(-0.430879 -0.184844 0)
(0.131308 0.577055 0)
(0.258577 0.422687 0)
(0.302363 0.213793 0)
(0.294392 0.0661987 0)
(0.269669 -0.0191222 0)
(0.234648 -0.0601394 0)
(0.216942 -0.0981855 0)
(0.221638 -0.137281 0)
(0.233721 -0.153905 0)
(0.255028 -0.144693 0)
(0.29372 -0.118519 0)
(0.316853 -0.0677392 0)
(0.323173 -0.00130787 0)
(0.321048 0.0634187 0)
(0.298621 0.118367 0)
(0.240243 0.175309 0)
(0.135799 0.191617 0)
(0.0309935 0.154459 0)
(-0.0210022 0.0595578 0)
(-0.0560229 0.0530885 0)
(-0.18031 0.103622 0)
(-0.313258 0.0946698 0)
(-0.457822 0.151527 0)
(0.114525 0.407308 0)
(0.237719 0.329495 0)
(0.312316 0.221504 0)
(0.310335 0.111855 0)
(0.2886 0.0200501 0)
(0.257252 -0.0451057 0)
(0.249781 -0.105045 0)
(0.258232 -0.147628 0)
(0.2662 -0.16512 0)
(0.292359 -0.182556 0)
(0.336921 -0.140554 0)
(0.366469 -0.0488429 0)
(0.357757 0.0812142 0)
(0.308419 0.165856 0)
(0.215815 0.165052 0)
(0.146028 0.176372 0)
(0.0996836 0.176254 0)
(0.0469235 0.106229 0)
(-0.0484295 0.0204397 0)
(-0.326886 0.130656 0)
(-0.636724 0.349813 0)
(-0.811825 0.358366 0)
(-0.895723 0.0476786 0)
(0.090863 0.25554 0)
(0.195644 0.282469 0)
(0.243837 0.220957 0)
(0.244764 0.153786 0)
(0.230633 0.0882402 0)
(0.216524 0.015254 0)
(0.213377 -0.0679359 0)
(0.176722 -0.1298 0)
(0.197182 -0.202724 0)
(0.197984 -0.279108 0)
(0.200723 -0.246012 0)
(0.206402 -0.150014 0)
(0.187076 0.00513843 0)
(0.160867 0.177928 0)
(0.0725002 0.248567 0)
(0.00365277 0.224059 0)
(-0.142635 0.260736 0)
(-0.350036 0.323525 0)
(-0.911373 0.485172 0)
(-1.23269 0.6162 0)
(-1.33091 0.616427 0)
(-1.30726 0.408996 0)
(-1.16319 0.0502725 0)
(0.051569 0.135599 0)
(0.0901344 0.230599 0)
(0.101239 0.216494 0)
(0.0922799 0.151325 0)
(0.0951506 0.0798075 0)
(0.0650773 0.0137704 0)
(0.036178 -0.081419 0)
(-0.0142173 -0.156816 0)
(-0.0776093 -0.183633 0)
(-0.364028 -0.154137 0)
(-0.565659 -0.112275 0)
(-0.648149 -0.0453034 0)
(-0.610282 0.110077 0)
(-0.523214 0.217632 0)
(-0.60575 0.329932 0)
(-0.890151 0.458596 0)
(-1.12756 0.649516 0)
(-1.26588 0.745088 0)
(-1.38829 0.741034 0)
(-1.44453 0.685093 0)
(-1.47434 0.527548 0)
(-1.54834 0.158106 0)
(-1.53736 -0.136809 0)
(-0.00702353 0.0545907 0)
(-0.020219 0.236738 0)
(-0.0747562 0.211699 0)
(-0.0965267 0.159486 0)
(-0.0845066 0.133065 0)
(-0.106578 0.0613924 0)
(-0.221481 -0.0339656 0)
(-0.564666 0.048325 0)
(-0.704415 0.16051 0)
(-0.848136 0.0178115 0)
(-0.883256 -0.0691837 0)
(-1.00125 -0.0729676 0)
(-1.15211 -0.113368 0)
(-1.32865 -0.111471 0)
(-1.37665 0.163021 0)
(-1.426 0.340024 0)
(-1.40035 0.452173 0)
(-1.32134 0.642278 0)
(-1.33277 0.680851 0)
(-1.31578 0.633463 0)
(-1.34869 0.404126 0)
(-1.50823 -0.157491 0)
(-1.58983 -0.455376 0)
(-0.0582423 0.109952 0)
(-0.0985775 0.27701 0)
(-0.124683 0.270864 0)
(-0.165801 0.190726 0)
(-0.235104 0.102453 0)
(-0.42819 0.15315 0)
(-0.710693 0.320596 0)
(-0.871571 0.23494 0)
(-0.871923 0.0822848 0)
(-0.866691 0.0415629 0)
(-0.909064 0.0264451 0)
(-0.99297 0.0414026 0)
(-1.22377 -0.0116843 0)
(-1.76395 -0.268714 0)
(-1.72768 -0.237736 0)
(-1.75122 -0.130295 0)
(-1.5386 -0.0403633 0)
(-1.27563 0.24757 0)
(-1.22793 0.371529 0)
(-1.1927 0.360293 0)
(-1.2343 0.147802 0)
(-1.76094 -0.631674 0)
(-1.84234 -0.893815 0)
(-0.0511465 0.210062 0)
(-0.0837999 0.295699 0)
(-0.180689 0.273281 0)
(-0.316599 0.233552 0)
(-0.57617 0.371185 0)
(-0.874878 0.5599 0)
(-1.06208 0.473743 0)
(-1.0641 0.236771 0)
(-0.964716 0.118938 0)
(-0.876264 0.0469992 0)
(-0.849003 -0.00265758 0)
(-0.876058 -0.0476484 0)
(-1.11525 -0.0120319 0)
(-2.45278 -0.178344 0)
(-2.17331 -0.58561 0)
(-2.41549 -0.610062 0)
(-1.97065 -0.162932 0)
(-1.44967 0.0970511 0)
(-1.24781 0.194226 0)
(-1.13356 0.201394 0)
(-1.00354 0.0346535 0)
(-1.02538 -0.134181 0)
(-1.6561 -0.658607 0)
(-0.106498 0.0805603 0)
(-0.178136 0.256554 0)
(-0.518106 0.419354 0)
(-0.843109 0.57051 0)
(-0.967398 0.618505 0)
(-1.03477 0.565047 0)
(-1.11052 0.293821 0)
(-1.10413 -0.0660841 0)
(-1.01451 -0.193799 0)
(-0.952949 -0.234498 0)
(-0.927522 -0.269377 0)
(-1.02362 -0.397699 0)
(-1.70586 -0.446053 0)
(-1.50022 0.888058 0)
(-1.56246 0.627097 0)
(-1.5869 0.208781 0)
(-2.0182 0.121693 0)
(-1.88929 0.123673 0)
(-1.38248 0.141508 0)
(-1.18272 0.164113 0)
(-1.11331 0.179366 0)
(-1.34308 0.591605 0)
(-1.3023 0.202191 0)
(-0.246984 -0.101269 0)
(-0.784973 0.365507 0)
(-1.16462 0.52861 0)
(-1.21673 0.526876 0)
(-1.18422 0.481266 0)
(-1.18657 0.346392 0)
(-1.20667 -0.0865371 0)
(-1.15576 -0.483105 0)
(-0.986371 -0.582468 0)
(-0.97933 -0.557097 0)
(-1.06482 -0.569243 0)
(-1.63472 -0.724396 0)
(-2.08101 -0.197548 0)
(-1.29644 1.08694 0)
(-1.47151 0.846366 0)
(-1.40545 0.330909 0)
(-1.51348 0.247337 0)
(-1.53171 0.269408 0)
(-1.51342 0.477165 0)
(-1.44182 0.600918 0)
(-1.38625 0.634679 0)
(-1.34715 0.484185 0)
(-1.30944 0.00898532 0)
(-0.940593 0.0141847 0)
(-1.90762 0.460605 0)
(-1.68448 0.437055 0)
(-1.36775 0.359337 0)
(-1.24615 0.315188 0)
(-1.19485 0.196157 0)
(-1.36254 -0.418344 0)
(-1.34418 -0.581849 0)
(-0.932494 -0.554487 0)
(-0.88497 -0.410674 0)
(-1.02603 -0.269614 0)
(-1.08005 -0.0896247 0)
(-1.17152 0.201897 0)
(-0.988879 1.28671 0)
(-1.26545 1.04196 0)
(-1.34039 0.480557 0)
(-1.37584 0.364905 0)
(-1.3417 0.346593 0)
(-1.40643 0.516045 0)
(-1.36034 0.615045 0)
(-1.30787 0.617564 0)
(-1.27453 0.492606 0)
(-1.30265 0.151393 0)
(-1.55384 0.615896 0)
(-2.32286 0.546724 0)
(-1.96114 0.390868 0)
(-1.50405 0.277464 0)
(-1.28374 0.222247 0)
(-1.0953 0.123534 0)
(-0.6644 0.0612397 0)
(-0.477257 0.214225 0)
(-0.738923 0.116756 0)
(-0.829591 -0.0235305 0)
(-0.822006 -0.0635409 0)
(-0.905708 -0.113424 0)
(-1.02745 -0.0681855 0)
(-1.00618 0.147077 0)
(-0.516839 1.40371 0)
(-0.887317 0.766836 0)
(-1.00831 0.278886 0)
(-1.07945 0.239334 0)
(-1.12527 0.435457 0)
(-1.11139 0.62336 0)
(-1.06905 0.63217 0)
(-1.07281 0.520854 0)
(-1.05513 0.15913 0)
(-0.112691 1.47607 0)
(-0.814494 1.1903 0)
(-1.34847 0.710139 0)
(-1.14374 0.410368 0)
(-0.889657 0.300048 0)
(-0.148761 0.376022 0)
(0.119138 0.38544 0)
(0.0363559 0.120438 0)
(-0.188262 -0.0786081 0)
(-0.328139 -0.119136 0)
(-0.590348 -0.0500066 0)
(-0.803606 -0.065299 0)
(-0.858167 -0.0464771 0)
(-0.780872 0.158463 0)
(-0.439373 1.17232 0)
(0.0098044 1.2112 0)
(-0.224945 0.751422 0)
(-0.473757 0.427634 0)
(-0.641613 0.40677 0)
(-0.669647 0.495558 0)
(-0.635153 0.521538 0)
(-0.593043 0.436934 0)
(-0.422819 0.140523 0)
(-0.0544502 1.5102 0)
(0.11488 1.40824 0)
(0.273626 1.21795 0)
(0.374732 0.815747 0)
(0.381488 0.545675 0)
(0.392769 0.487773 0)
(0.383183 0.464256 0)
(0.336012 0.388467 0)
(0.179362 0.323042 0)
(-0.0347495 0.234697 0)
(-0.231919 0.191309 0)
(-0.428936 0.147237 0)
(-0.572082 0.109629 0)
(-0.450515 0.239717 0)
(-0.503034 0.343741 0)
(-0.297253 0.596186 0)
(0.203261 0.839947 0)
(0.228599 0.672388 0)
(0.116092 0.539753 0)
(0.0314208 0.538959 0)
(0.114759 0.517494 0)
(0.295099 0.380344 0)
(0.360146 0.031383 0)
(-0.0727032 1.50614 0)
(0.0431493 1.26465 0)
(0.130177 1.02526 0)
(0.318711 0.753545 0)
(0.345078 0.536181 0)
(0.376776 0.475665 0)
(0.395065 0.475076 0)
(0.398516 0.437509 0)
(0.347165 0.420025 0)
(0.235913 0.370253 0)
(0.0517184 0.322314 0)
(-0.0341921 0.291747 0)
(-0.103639 0.350298 0)
(-0.150073 0.418279 0)
(-0.367513 0.340995 0)
(-0.0647492 0.589507 0)
(0.0413105 0.504153 0)
(0.127941 0.412976 0)
(0.409671 0.497786 0)
(0.610991 0.536653 0)
(0.652925 0.395426 0)
(0.830434 0.21158 0)
(0.939061 -0.0642942 0)
(-0.0639839 1.50111 0)
(0.0605458 1.18729 0)
(0.0709228 0.906661 0)
(0.235944 0.662272 0)
(0.269225 0.500593 0)
(0.307385 0.443685 0)
(0.343645 0.42723 0)
(0.395897 0.447215 0)
(0.38679 0.45719 0)
(0.353776 0.463059 0)
(0.260497 0.448098 0)
(0.189781 0.362499 0)
(0.141816 0.389563 0)
(0.148929 0.455502 0)
(0.00199439 0.478081 0)
(0.298874 0.616632 0)
(0.112214 0.454353 0)
(0.153251 0.38458 0)
(0.355857 0.365052 0)
(0.702812 0.365438 0)
(0.924037 0.334643 0)
(1.01186 0.185979 0)
(1.04829 0.015114 0)
(-0.0257287 1.48208 0)
(0.122602 1.14575 0)
(0.11454 0.829521 0)
(0.232657 0.596445 0)
(0.258319 0.466527 0)
(0.287538 0.419129 0)
(0.311128 0.38616 0)
(0.345347 0.408685 0)
(0.384087 0.465292 0)
(0.378754 0.492657 0)
(0.353389 0.49412 0)
(0.336087 0.425903 0)
(0.300153 0.409469 0)
(0.315624 0.430884 0)
(0.352417 0.487263 0)
(0.464293 0.529223 0)
(0.37549 0.497764 0)
(0.362236 0.379868 0)
(0.500939 0.347408 0)
(0.779175 0.283781 0)
(0.922823 0.25377 0)
(0.972428 0.147832 0)
(1.07319 -0.0434374 0)
(0.0333479 1.41088 0)
(0.187971 1.09241 0)
(0.195578 0.774276 0)
(0.272772 0.553146 0)
(0.281562 0.437992 0)
(0.29543 0.402896 0)
(0.303687 0.376312 0)
(0.305736 0.382395 0)
(0.341849 0.437642 0)
(0.37332 0.490525 0)
(0.379963 0.491461 0)
(0.391546 0.442139 0)
(0.383956 0.408976 0)
(0.397406 0.41108 0)
(0.426173 0.42839 0)
(0.495651 0.438586 0)
(0.557041 0.426444 0)
(0.632623 0.381905 0)
(0.715919 0.284719 0)
(0.803269 0.148827 0)
(0.928612 0.0691294 0)
(0.992355 -0.0133651 0)
(0.968944 -0.173958 0)
(0.0923612 1.2134 0)
(0.222574 1.01503 0)
(0.2627 0.724629 0)
(0.306687 0.525012 0)
(0.298977 0.431127 0)
(0.297322 0.400752 0)
(0.296564 0.37891 0)
(0.289714 0.378981 0)
(0.295258 0.402641 0)
(0.335158 0.45626 0)
(0.378981 0.473238 0)
(0.39983 0.432385 0)
(0.406061 0.396135 0)
(0.419749 0.391298 0)
(0.441956 0.389415 0)
(0.486303 0.378084 0)
(0.536785 0.339769 0)
(0.626405 0.307224 0)
(0.683644 0.211598 0)
(0.729525 0.0823103 0)
(0.775624 0.00347537 0)
(0.788216 -0.0647929 0)
(0.784052 -0.187529 0)
(0.11421 1.03734 0)
(0.218067 0.918138 0)
(0.294108 0.685682 0)
(0.314852 0.516273 0)
(0.301219 0.435123 0)
(0.295952 0.405467 0)
(0.288681 0.387575 0)
(0.281437 0.383438 0)
(0.282287 0.391948 0)
(0.30334 0.410796 0)
(0.349556 0.428537 0)
(0.387016 0.409225 0)
(0.402223 0.387947 0)
(0.416181 0.374047 0)
(0.440217 0.360075 0)
(0.475925 0.332787 0)
(0.518406 0.289579 0)
(0.568019 0.248966 0)
(0.624365 0.164204 0)
(0.647718 0.0633922 0)
(0.659699 0.00675839 0)
(0.66385 -0.0731102 0)
(0.649799 -0.170143 0)
(0.106163 0.874928 0)
(0.192051 0.814096 0)
(0.281495 0.641753 0)
(0.304786 0.514319 0)
(0.293015 0.444643 0)
(0.286403 0.41644 0)
(0.278485 0.395786 0)
(0.274227 0.386644 0)
(0.278554 0.384605 0)
(0.29353 0.386046 0)
(0.325752 0.389714 0)
(0.356754 0.37905 0)
(0.382516 0.370196 0)
(0.404214 0.350668 0)
(0.431776 0.329127 0)
(0.465136 0.295208 0)
(0.50168 0.253899 0)
(0.534169 0.206761 0)
(0.573015 0.133968 0)
(0.577794 0.0622249 0)
(0.582112 0.00361099 0)
(0.581363 -0.0694403 0)
(0.559189 -0.137002 0)
(0.0829036 0.745501 0)
(0.155785 0.717286 0)
(0.241892 0.59498 0)
(0.265038 0.50498 0)
(0.263914 0.450482 0)
(0.262944 0.421701 0)
(0.262124 0.398242 0)
(0.263305 0.384834 0)
(0.271268 0.374804 0)
(0.284083 0.367024 0)
(0.306512 0.363169 0)
(0.331721 0.353918 0)
(0.356365 0.340917 0)
(0.383385 0.320695 0)
(0.41198 0.296475 0)
(0.440843 0.260116 0)
(0.47051 0.221918 0)
(0.493396 0.176369 0)
(0.515549 0.118508 0)
(0.517983 0.0606249 0)
(0.520376 0.006487 0)
(0.51258 -0.0567513 0)
(0.491077 -0.105286 0)
(0.058849 0.646628 0)
(0.120962 0.634913 0)
(0.195567 0.550608 0)
(0.218578 0.488738 0)
(0.229002 0.446215 0)
(0.236907 0.418437 0)
(0.242817 0.394994 0)
(0.249466 0.378551 0)
(0.259658 0.364379 0)
(0.272305 0.351912 0)
(0.289222 0.341607 0)
(0.310608 0.329618 0)
(0.3341 0.31381 0)
(0.359315 0.293154 0)
(0.384815 0.267299 0)
(0.408587 0.23283 0)
(0.430737 0.197131 0)
(0.448504 0.156537 0)
(0.464084 0.108058 0)
(0.464923 0.0587235 0)
(0.467905 0.0114302 0)
(0.455612 -0.0399187 0)
(0.438484 -0.078556 0)
(0.0413792 0.572985 0)
(0.0939312 0.566361 0)
(0.154894 0.510644 0)
(0.180428 0.468269 0)
(0.197954 0.434264 0)
(0.211499 0.408778 0)
(0.22235 0.386312 0)
(0.233144 0.368453 0)
(0.245075 0.352389 0)
(0.258607 0.337722 0)
(0.273596 0.323909 0)
(0.292532 0.308573 0)
(0.31299 0.291005 0)
(0.334677 0.269251 0)
(0.356717 0.244352 0)
(0.375883 0.213118 0)
(0.39303 0.180113 0)
(0.40675 0.142235 0)
(0.417815 0.101926 0)
(0.418837 0.0595625 0)
(0.422126 0.0156204 0)
(0.41045 -0.0264296 0)
(0.397781 -0.0596989 0)
(0.030479 0.515897 0)
(0.0743259 0.510151 0)
(0.123591 0.473541 0)
(0.150352 0.443818 0)
(0.171615 0.416962 0)
(0.188615 0.394536 0)
(0.202856 0.373814 0)
(0.216297 0.355971 0)
(0.229821 0.339015 0)
(0.244044 0.323618 0)
(0.259307 0.307738 0)
(0.275595 0.290428 0)
(0.293093 0.270835 0)
(0.310722 0.249196 0)
(0.328347 0.224979 0)
(0.344358 0.195902 0)
(0.359152 0.165515 0)
(0.370557 0.131951 0)
(0.379292 0.0964856 0)
(0.381436 0.056843 0)
(0.382243 0.0202106 0)
(0.37225 -0.0136375 0)
(0.364523 -0.0464754 0)
(0.0237972 0.47065 0)
(0.0602123 0.464923 0)
(0.100571 0.44019 0)
(0.12684 0.418624 0)
(0.149107 0.397318 0)
(0.167657 0.377841 0)
(0.183701 0.358988 0)
(0.198543 0.341668 0)
(0.212823 0.324754 0)
(0.227233 0.308285 0)
(0.242055 0.291955 0)
(0.25727 0.274187 0)
(0.27314 0.254698 0)
(0.288363 0.233391 0)
(0.30355 0.209012 0)
(0.317111 0.18255 0)
(0.328286 0.153629 0)
(0.337258 0.123027 0)
(0.343842 0.0914391 0)
(0.345565 0.0574124 0)
(0.345912 0.0238304 0)
(0.340221 -0.00755125 0)
(0.334554 -0.0368314 0)
(0.019495 0.433217 0)
(0.050151 0.427634 0)
(0.0840394 0.410248 0)
(0.108898 0.394062 0)
(0.130741 0.376983 0)
(0.149613 0.360119 0)
(0.166362 0.343188 0)
(0.18172 0.326798 0)
(0.196309 0.310249 0)
(0.210535 0.293717 0)
(0.224718 0.277208 0)
(0.238846 0.259087 0)
(0.252423 0.239821 0)
(0.265856 0.218823 0)
(0.278393 0.195997 0)
(0.289485 0.170739 0)
(0.299401 0.144184 0)
(0.306862 0.11603 0)
(0.31302 0.0867619 0)
(0.315066 0.0560878 0)
(0.314672 0.0265267 0)
(0.310254 -0.0018086 0)
(0.306029 -0.0301798 0)
(0.0163613 0.401696 0)
(0.0424899 0.396402 0)
(0.0713886 0.383487 0)
(0.0943477 0.370859 0)
(0.115115 0.3569 0)
(0.133537 0.342303 0)
(0.150163 0.327143 0)
(0.165384 0.311841 0)
(0.179844 0.296025 0)
(0.193475 0.280078 0)
(0.206872 0.263627 0)
(0.219988 0.246053 0)
(0.232414 0.226919 0)
(0.244456 0.206595 0)
(0.255425 0.18463 0)
(0.265323 0.161207 0)
(0.273585 0.136338 0)
(0.27941 0.110306 0)
(0.284094 0.0838935 0)
(0.285607 0.0559567 0)
(0.285833 0.0281388 0)
(0.283055 0.0014755 0)
(0.279671 -0.0246601 0)
(0.0140014 0.374562 0)
(0.0366601 0.369639 0)
(0.0617216 0.359557 0)
(0.0827155 0.349385 0)
(0.102122 0.337705 0)
(0.119693 0.324974 0)
(0.135709 0.311309 0)
(0.150424 0.297019 0)
(0.164253 0.282023 0)
(0.177187 0.26654 0)
(0.189728 0.250432 0)
(0.201686 0.233366 0)
(0.212903 0.21498 0)
(0.223484 0.195455 0)
(0.233021 0.17462 0)
(0.241281 0.152592 0)
(0.248338 0.129273 0)
(0.253634 0.104927 0)
(0.257822 0.0800905 0)
(0.259662 0.0548313 0)
(0.259839 0.0295974 0)
(0.257474 0.00463364 0)
(0.254646 -0.0201897 0)
(0.0120832 0.351161 0)
(0.0319524 0.346591 0)
(0.0538958 0.338381 0)
(0.0729102 0.329947 0)
(0.0907365 0.32 0)
(0.107161 0.308802 0)
(0.122284 0.296475 0)
(0.136287 0.28326 0)
(0.149351 0.269229 0)
(0.161574 0.254444 0)
(0.17318 0.238959 0)
(0.184151 0.222563 0)
(0.194372 0.204961 0)
(0.203833 0.186241 0)
(0.2122 0.166533 0)
(0.219427 0.145619 0)
(0.225619 0.123828 0)
(0.230141 0.101119 0)
(0.233463 0.077982 0)
(0.234914 0.0541852 0)
(0.235174 0.030402 0)
(0.233419 0.00694641 0)
(0.231045 -0.0163558 0)
(0.0105414 0.330565 0)
(0.028089 0.326149 0)
(0.0474194 0.31915 0)
(0.0645613 0.311943 0)
(0.0807932 0.303283 0)
(0.0959534 0.293274 0)
(0.110044 0.282067 0)
(0.123157 0.269856 0)
(0.135332 0.256711 0)
(0.146708 0.242691 0)
(0.157328 0.227838 0)
(0.167346 0.212171 0)
(0.176545 0.195443 0)
(0.184906 0.177682 0)
(0.192332 0.158999 0)
(0.19874 0.13922 0)
(0.204064 0.118557 0)
(0.208057 0.0971909 0)
(0.210848 0.0754741 0)
(0.212143 0.0533867 0)
(0.212248 0.0312278 0)
(0.210709 0.00905646 0)
(0.208559 -0.0130547 0)
(0.00921472 0.312548 0)
(0.0248035 0.308393 0)
(0.0418876 0.302316 0)
(0.0573083 0.296064 0)
(0.0720117 0.288422 0)
(0.0858647 0.279412 0)
(0.0988143 0.269146 0)
(0.110903 0.257807 0)
(0.122166 0.245462 0)
(0.132647 0.232212 0)
(0.142328 0.218057 0)
(0.151335 0.203066 0)
(0.159539 0.187067 0)
(0.166923 0.170098 0)
(0.173469 0.152358 0)
(0.179063 0.133727 0)
(0.183636 0.114266 0)
(0.187143 0.0942525 0)
(0.189416 0.0738034 0)
(0.190481 0.0529303 0)
(0.190475 0.0319199 0)
(0.189157 0.0108744 0)
(0.187153 -0.0101204 0)
(0.00807673 0.296554 0)
(0.0219048 0.292432 0)
(0.0370125 0.286931 0)
(0.0508281 0.281395 0)
(0.0640838 0.274561 0)
(0.0766471 0.266373 0)
(0.088442 0.256992 0)
(0.0994541 0.246521 0)
(0.109699 0.235013 0)
(0.119219 0.222528 0)
(0.127985 0.209137 0)
(0.136065 0.194865 0)
(0.143441 0.179721 0)
(0.150022 0.163696 0)
(0.155788 0.146869 0)
(0.160643 0.129102 0)
(0.164485 0.110555 0)
(0.167302 0.091525 0)
(0.169119 0.0721902 0)
(0.169999 0.0525049 0)
(0.169882 0.0326318 0)
(0.168661 0.0126134 0)
(0.166694 -0.00739852 0)
(0.00705362 0.282542 0)
(0.0193791 0.278507 0)
(0.0327349 0.273583 0)
(0.0450771 0.268622 0)
(0.0569471 0.262411 0)
(0.0682297 0.254921 0)
(0.0788323 0.246208 0)
(0.0887486 0.236387 0)
(0.09796 0.225559 0)
(0.10649 0.213762 0)
(0.114353 0.20105 0)
(0.12153 0.187486 0)
(0.12802 0.173078 0)
(0.133774 0.157768 0)
(0.13877 0.141743 0)
(0.142955 0.125033 0)
(0.146284 0.107652 0)
(0.148726 0.0896415 0)
(0.150141 0.0711243 0)
(0.150636 0.0522916 0)
(0.150285 0.0333469 0)
(0.149056 0.0142744 0)
(0.147068 -0.0048462 0)
(0.00617562 0.270146 0)
(0.0170939 0.266057 0)
(0.0289113 0.2614 0)
(0.0398758 0.256894 0)
(0.0504237 0.251235 0)
(0.0604808 0.24435 0)
(0.0699354 0.236329 0)
(0.0787816 0.227238 0)
(0.0869735 0.217156 0)
(0.0945272 0.206081 0)
(0.101441 0.194038 0)
(0.107664 0.181091 0)
(0.1132 0.167248 0)
(0.118124 0.152647 0)
(0.122387 0.137356 0)
(0.125913 0.12136 0)
(0.128666 0.104692 0)
(0.130592 0.0876831 0)
(0.131793 0.0703783 0)
(0.13221 0.0525672 0)
(0.131669 0.0343707 0)
(0.130344 0.015998 0)
(0.128267 -0.00238061 0)
(0.00536848 0.259196 0)
(0.0150744 0.255206 0)
(0.0253467 0.250997 0)
(0.0350353 0.246922 0)
(0.0443402 0.24172 0)
(0.0532574 0.235352 0)
(0.0616778 0.22792 0)
(0.0695634 0.219425 0)
(0.0769107 0.20984 0)
(0.0836503 0.199332 0)
(0.0897676 0.187943 0)
(0.0952595 0.175716 0)
(0.100144 0.162661 0)
(0.104298 0.148773 0)
(0.107701 0.13412 0)
(0.110369 0.118772 0)
(0.112289 0.102877 0)
(0.11358 0.0864038 0)
(0.114185 0.0694502 0)
(0.114092 0.0524218 0)
(0.113538 0.0352934 0)
(0.11228 0.0178062 0)
(0.110162 9.35938e-05 0)
(0.00464756 0.249751 0)
(0.0131618 0.245459 0)
(0.0222156 0.241342 0)
(0.0306966 0.237551 0)
(0.0388226 0.232708 0)
(0.0466052 0.226788 0)
(0.053976 0.219813 0)
(0.0609057 0.211848 0)
(0.0672802 0.20297 0)
(0.0731267 0.193173 0)
(0.0783775 0.182461 0)
(0.0829891 0.170844 0)
(0.0870252 0.158393 0)
(0.0904603 0.145204 0)
(0.0933221 0.13133 0)
(0.0955693 0.116858 0)
(0.0972437 0.101771 0)
(0.0981057 0.0860651 0)
(0.0981267 0.0699522 0)
(0.097592 0.0532918 0)
(0.0962928 0.0362831 0)
(0.0946553 0.0194051 0)
(0.0925359 0.0024739 0)
(0.00418931 0.241361 0)
(0.011587 0.237542 0)
(0.0190512 0.233924 0)
(0.0262428 0.23058 0)
(0.0331187 0.226106 0)
(0.0397261 0.220487 0)
(0.0460546 0.21382 0)
(0.0520542 0.206179 0)
(0.0577599 0.197608 0)
(0.0630077 0.188196 0)
(0.067747 0.17797 0)
(0.0719146 0.166946 0)
(0.0753984 0.155091 0)
(0.0782106 0.142456 0)
(0.0803763 0.129121 0)
(0.0818476 0.115098 0)
(0.0826749 0.100472 0)
(0.0829485 0.0854815 0)
(0.0827972 0.0700988 0)
(0.0820258 0.0543266 0)
(0.0805501 0.0382574 0)
(0.0784358 0.0216091 0)
(0.0757651 0.00482831 0)
(0.00363695 0.233915 0)
(0.00993409 0.229932 0)
(0.0162053 0.226083 0)
(0.0224015 0.222717 0)
(0.0282482 0.218403 0)
(0.0339144 0.213125 0)
(0.0392333 0.206871 0)
(0.0442323 0.199731 0)
(0.0488641 0.191768 0)
(0.0531417 0.183026 0)
(0.0570356 0.173545 0)
(0.0604898 0.163266 0)
(0.0634519 0.152199 0)
(0.065856 0.14038 0)
(0.0676782 0.127873 0)
(0.0688661 0.114673 0)
(0.0693996 0.100868 0)
(0.0693078 0.0864669 0)
(0.0685231 0.0714736 0)
(0.0671529 0.0561177 0)
(0.0653846 0.0404255 0)
(0.063182 0.024567 0)
(0.0601306 0.0084262 0)
(0.00320236 0.227683 0)
(0.00812456 0.224783 0)
(0.0122016 0.221908 0)
(0.0162612 0.219051 0)
(0.0200243 0.215046 0)
(0.0238193 0.210003 0)
(0.0273213 0.203891 0)
(0.0306558 0.196838 0)
(0.0337453 0.188932 0)
(0.0366578 0.18019 0)
(0.0393698 0.170692 0)
(0.0418875 0.160503 0)
(0.0441773 0.149636 0)
(0.0461659 0.138122 0)
(0.0478681 0.125947 0)
(0.0492499 0.113193 0)
(0.0501968 0.0998497 0)
(0.0506722 0.0859893 0)
(0.0506112 0.071676 0)
(0.0499728 0.0570145 0)
(0.0486504 0.0419947 0)
(0.0466439 0.0265966 0)
(0.0438964 0.0109558 0)
(0.0026158 0.222409 0)
(0.00553971 0.220152 0)
(0.00800061 0.216938 0)
(0.0109358 0.213776 0)
(0.0134961 0.209765 0)
(0.0161951 0.204959 0)
(0.0186525 0.199233 0)
(0.0209933 0.192641 0)
(0.023177 0.185192 0)
(0.0252164 0.17691 0)
(0.0271306 0.167887 0)
(0.0289241 0.158197 0)
(0.0305527 0.147827 0)