/*--------------------------------*- C++ -*----------------------------------*\
| =========                 |                                                 |
| \\      /  F ield         | OpenFOAM: The Open Source CFD Toolbox           |
|  \\    /   O peration     | Version:  2.4.0                                 |
|   \\  /    A nd           | Web:      www.OpenFOAM.org                      |
|    \\/     M anipulation  |                                                 |
\*---------------------------------------------------------------------------*/
FoamFile
{
    version     2.0;
    format      ascii;
    class       volVectorField;
    location    "0.95";
    object      U.water;
}
// * * * * * * * * * * * * * * * * * * * * * * * * * * * * * * * * * * * * * //

dimensions      [0 1 -1 0 0 0 0];

internalField   nonuniform List<vector> 
2268
(
(-0.0664813 -0.032444 0)
(-0.173126 -0.0300271 0)
(-0.243654 -0.0161464 0)
(-0.277692 -0.0054309 0)
(-0.282424 0.00363327 0)
(-0.274534 0.00729781 0)
(-0.256443 0.00547718 0)
(-0.232712 0.00380625 0)
(-0.211643 0.00305083 0)
(-0.19844 0.00105246 0)
(-0.189953 -0.00281323 0)
(-0.177243 -0.00579993 0)
(-0.158395 -0.00429894 0)
(-0.143469 -0.00360208 0)
(-0.132596 -0.00250835 0)
(-0.126853 -0.00201656 0)
(-0.11939 -0.00373388 0)
(-0.107123 -0.00478676 0)
(-0.0853037 -0.00545275 0)
(-0.0541051 -0.00650666 0)
(-0.0328663 -0.000144395 0)
(-0.0274894 0.00337424 0)
(-0.0211045 -0.00583049 0)
(-0.0657298 0.148282 0)
(-0.171454 0.110666 0)
(-0.235293 0.0641101 0)
(-0.276011 0.0242609 0)
(-0.282702 -0.00621404 0)
(-0.279539 -0.0197916 0)
(-0.261329 -0.0240662 0)
(-0.23501 -0.0235735 0)
(-0.212682 -0.0177589 0)
(-0.198049 -0.00988355 0)
(-0.184768 -0.00745061 0)
(-0.169856 -0.0106903 0)
(-0.155807 -0.0137663 0)
(-0.143511 -0.0105904 0)
(-0.134494 -0.00679258 0)
(-0.127025 -0.00529922 0)
(-0.115698 -0.00573471 0)
(-0.102018 -0.0108248 0)
(-0.07906 -0.0186231 0)
(-0.0503207 -0.019356 0)
(-0.0259205 -0.0125374 0)
(-0.00392647 -0.00922002 0)
(-0.000767916 -0.0194007 0)
(-0.0734301 0.244132 0)
(-0.195087 0.138488 0)
(-0.250917 0.0754327 0)
(-0.279123 0.0338647 0)
(-0.284477 0.0139984 0)
(-0.280881 0.00340989 0)
(-0.262363 -0.0147328 0)
(-0.23471 -0.0195264 0)
(-0.211361 -0.0134576 0)
(-0.193266 -0.0099626 0)
(-0.178897 -0.0108401 0)
(-0.167177 -0.0114979 0)
(-0.158388 -0.00859677 0)
(-0.147926 -0.00561311 0)
(-0.135453 -0.00356171 0)
(-0.124715 -0.00607439 0)
(-0.108755 -0.012316 0)
(-0.0945882 -0.0218615 0)
(-0.0767585 -0.0309103 0)
(-0.0563295 -0.0318545 0)
(-0.0347268 -0.0203755 0)
(-0.00124664 -0.00312276 0)
(0.00241162 -0.00310531 0)
(-0.0973029 0.420278 0)
(-0.242391 0.328317 0)
(-0.296474 0.220476 0)
(-0.326665 0.0896451 0)
(-0.324458 0.0223873 0)
(-0.295159 -0.0107098 0)
(-0.267644 -0.0155681 0)
(-0.245211 -0.015834 0)
(-0.219215 -0.00690598 0)
(-0.194177 0.0015657 0)
(-0.178423 0.000261219 0)
(-0.168501 -0.00832253 0)
(-0.162233 -0.0155057 0)
(-0.153352 -0.0143826 0)
(-0.138591 -0.00959092 0)
(-0.121854 -0.00860515 0)
(-0.103577 -0.00939201 0)
(-0.0908155 -0.0104783 0)
(-0.0778441 -0.013967 0)
(-0.0645688 -0.0142155 0)
(-0.0394963 -0.0149815 0)
(-0.00488327 -0.0127536 0)
(0.00214326 0.00526 0)
(-0.185943 0.562964 0)
(-0.360046 0.387956 0)
(-0.377276 0.268983 0)
(-0.372734 0.191876 0)
(-0.362447 0.0748357 0)
(-0.330196 0.0511534 0)
(-0.295484 0.110811 0)
(-0.270747 0.139754 0)
(-0.248863 0.147123 0)
(-0.222921 0.154697 0)
(-0.203031 0.161644 0)
(-0.191811 0.170855 0)
(-0.181263 0.177473 0)
(-0.168114 0.174857 0)
(-0.145308 0.153372 0)
(-0.122119 0.137634 0)
(-0.101952 0.122682 0)
(-0.0890377 0.119963 0)
(-0.0757778 0.139742 0)
(-0.0595802 0.136112 0)
(-0.0447306 0.138711 0)
(-0.0200182 0.164865 0)
(-0.00249427 0.15794 0)
(-0.370254 0.703076 0)
(-0.526152 0.437622 0)
(-0.517496 0.297784 0)
(-0.468046 0.219632 0)
(-0.408321 0.152033 0)
(-0.35308 0.10627 0)
(-0.31166 0.0792453 0)
(-0.287002 0.0586358 0)
(-0.269431 0.0537272 0)
(-0.234019 0.0622182 0)
(-0.188321 0.0716888 0)
(-0.171939 0.0713287 0)
(-0.176342 0.0700675 0)
(-0.188773 0.0733947 0)
(-0.189492 0.0800306 0)
(-0.173149 0.0875557 0)
(-0.145193 0.0947401 0)
(-0.108854 0.093261 0)
(-0.0783371 0.0774021 0)
(-0.0457442 0.061135 0)
(-0.0242423 0.0546145 0)
(-0.0466542 0.0604822 0)
(-0.0686526 0.131279 0)
(-0.336993 0.818029 0)
(-0.510494 0.42597 0)
(-0.550582 0.244221 0)
(-0.524129 0.148737 0)
(-0.457508 0.0627416 0)
(-0.383382 0.0217002 0)
(-0.352044 0.0172133 0)
(-0.344189 0.043184 0)
(-0.312185 0.085434 0)
(-0.227224 0.116879 0)
(-0.128188 0.137682 0)
(-0.0594293 0.153299 0)
(-0.044824 0.150026 0)
(-0.0687666 0.133824 0)
(-0.121396 0.0916183 0)
(-0.152168 0.0475905 0)
(-0.163396 0.0290938 0)
(-0.134874 0.0207922 0)
(-0.107733 0.0128053 0)
(-0.113704 0.0186847 0)
(-0.199331 0.0706676 0)
(-0.218377 0.213201 0)
(-0.149616 0.336706 0)
(-0.0772481 0.941888 0)
(-0.329249 0.477655 0)
(-0.444773 0.221047 0)
(-0.442833 0.0607749 0)
(-0.428624 0.00236035 0)
(-0.444356 0.00101511 0)
(-0.444357 -0.0184307 0)
(-0.403486 -0.0746701 0)
(-0.3151 -0.161918 0)
(-0.198319 -0.217602 0)
(-0.110149 -0.213261 0)
(-0.0278988 -0.180229 0)
(0.0470384 -0.139933 0)
(0.0756802 -0.0967306 0)
(0.0714573 -0.056322 0)
(0.0206279 -0.0353998 0)
(-0.0264342 -0.0400922 0)
(-0.0758217 -0.049035 0)
(-0.144619 -0.0437929 0)
(-0.231401 -0.0295891 0)
(-0.361165 -0.0355983 0)
(-0.328528 -0.232858 0)
(-0.279466 -0.433884 0)
(0.00490805 -0.1683 0)
(0.184636 -0.266473 0)
(0.245317 -0.34585 0)
(0.289152 -0.381811 0)
(0.325311 -0.439168 0)
(0.334459 -0.481536 0)
(0.326338 -0.47126 0)
(0.315883 -0.438516 0)
(0.28208 -0.378969 0)
(0.257673 -0.255862 0)
(0.243878 -0.148615 0)
(0.228056 -0.0664461 0)
(0.207215 -0.0401536 0)
(0.236329 0.0152295 0)
(0.252616 0.0291693 0)
(0.159744 0.0519541 0)
(-0.0141037 0.0191115 0)
(-0.109771 -0.0337964 0)
(-0.0690172 -0.0493365 0)
(0.0813242 0.21828 0)
(0.211754 0.263375 0)
(0.318328 0.39533 0)
(0.339357 0.43408 0)
(0.388431 0.521918 0)
(0.377891 0.612529 0)
(0.324188 0.621398 0)
(0.294823 0.564472 0)
(0.282582 0.545288 0)
(0.170532 0.482612 0)
(-0.00929246 0.419 0)
(-0.0508644 0.376173 0)
(-0.102925 0.347587 0)
(-0.142716 0.277687 0)
(0.0391817 0.286185 0)
(0.00215128 0.305773 0)
(-0.0642263 0.216243 0)
(-0.108004 0.126233 0)
(-0.0769761 0.0432931 0)
(0.178452 -0.391615 0)
(0.0710089 -0.427932 0)
(0.122555 -0.497805 0)
(0.178794 -0.523005 0)
(0.215389 -0.535858 0)
(0.248155 -0.514907 0)
(0.222436 -0.518613 0)
(0.173979 -0.467701 0)
(0.0714503 -0.346336 0)
(-0.258524 -0.0303112 0)
(-0.570208 0.024517 0)
(-0.575868 0.0236747 0)
(-0.496839 0.0525038 0)
(-0.416574 0.00662593 0)
(-0.276447 0.0270245 0)
(-0.0276163 0.21207 0)
(-0.0950571 0.182915 0)
(-0.0912132 0.0362173 0)
(-0.0202227 -0.0616659 0)
(0.12288 -0.498032 0)
(0.0659126 -0.292963 0)
(0.193786 -0.0328709 0)
(0.212779 0.0639548 0)
(0.264852 0.190685 0)
(0.260598 0.321576 0)
(0.188971 0.387344 0)
(0.0927835 0.383921 0)
(-0.0544284 0.402137 0)
(-0.226025 0.344371 0)
(-0.501312 0.261878 0)
(-0.50941 0.191711 0)
(-0.495637 0.143671 0)
(-0.487947 0.0795813 0)
(-0.437448 0.0389501 0)
(-0.2039 0.156064 0)
(-0.116442 0.198144 0)
(-0.0830335 0.080154 0)
(0.00117036 -0.02614 0)
(0.0895738 -0.372898 0)
(-0.020678 -0.304038 0)
(0.0583389 -0.31301 0)
(0.0388844 -0.339144 0)
(0.0657932 -0.365561 0)
(0.0461196 -0.365086 0)
(-0.00977175 -0.249838 0)
(0.0059444 -0.153833 0)
(0.0154768 0.0824985 0)
(-0.0482049 0.318424 0)
(-0.292968 0.27027 0)
(-0.359138 0.140031 0)
(-0.410341 0.0908858 0)
(-0.476978 -0.0374809 0)
(-0.5178 -0.105205 0)
(-0.344272 0.091617 0)
(-0.132188 0.129825 0)
(-0.0790268 0.0323077 0)
(0.0262932 -0.0481864 0)
(0.113674 -0.342081 0)
(0.0215869 -0.27642 0)
(0.107796 -0.19731 0)
(0.11082 -0.100352 0)
(0.0928709 0.0204899 0)
(0.0316047 0.169 0)
(-0.115759 0.19779 0)
(-0.154542 0.190766 0)
(-0.0818555 0.209911 0)
(0.0119944 0.321845 0)
(-0.135471 0.22626 0)
(-0.290689 -0.0547668 0)
(-0.302272 -0.174245 0)
(-0.314343 -0.154132 0)
(-0.467417 -0.109674 0)
(-0.403992 -0.0133885 0)
(-0.183406 0.0900466 0)
(-0.070257 0.0834002 0)
(0.0324116 0.0143282 0)
(0.0969377 -0.341486 0)
(0.0119872 -0.282317 0)
(0.0525818 -0.273039 0)
(0.0209186 -0.221132 0)
(-0.0337565 -0.221858 0)
(-0.11345 -0.1056 0)
(-0.163662 -0.024712 0)
(-0.173191 -0.0201212 0)
(-0.096372 0.132887 0)
(0.0162147 0.319014 0)
(0.0170469 0.294671 0)
(-0.186497 0.0902412 0)
(-0.299014 -0.060736 0)
(-0.268007 -0.204798 0)
(-0.325482 -0.169641 0)
(-0.391835 0.00105946 0)
(-0.265506 0.0569692 0)
(-0.0870137 0.0378083 0)
(-0.00249419 -0.0161266 0)
(0.0454137 -0.352674 0)
(-0.0556504 -0.27337 0)
(-0.0175077 -0.237786 0)
(0.00192437 -0.119816 0)
(-0.0535615 0.0180803 0)
(-0.190233 0.113662 0)
(-0.218825 0.0925065 0)
(-0.22797 0.0677674 0)
(-0.166408 0.0926592 0)
(-0.00442011 0.284094 0)
(0.0848225 0.330856 0)
(-0.0220392 0.185387 0)
(-0.247234 -0.0918633 0)
(-0.235456 -0.211982 0)
(-0.296255 -0.21252 0)
(-0.359782 -0.0718842 0)
(-0.365016 0.026259 0)
(-0.203271 -0.00770301 0)
(-0.0728637 -0.0414329 0)
(0.154132 0.869915 0)
(0.199893 0.584135 0)
(0.105373 0.295607 0)
(0.00102272 0.0574909 0)
(-0.0798659 -0.0935751 0)
(-0.0983337 -0.173372 0)
(-0.0818354 -0.204953 0)
(-0.0205926 -0.214839 0)
(0.0468899 -0.196434 0)
(0.10097 -0.148953 0)
(0.130763 -0.0793272 0)
(0.153048 -0.00444662 0)
(0.15489 0.0662973 0)
(0.106376 0.103709 0)
(0.0630767 0.076658 0)
(0.0177905 -0.00467332 0)
(-0.030084 -0.0736615 0)
(-0.0777004 -0.092414 0)
(-0.0887985 -0.0724511 0)
(-0.0351809 -0.0126408 0)
(-0.0664873 0.0775038 0)
(-0.0624015 0.129484 0)
(-0.412647 -0.20731 0)
(0.135017 0.583865 0)
(0.275735 0.446493 0)
(0.319027 0.233542 0)
(0.301564 0.07714 0)
(0.274632 -0.00888882 0)
(0.238037 -0.0500792 0)
(0.218568 -0.0898734 0)
(0.219281 -0.137184 0)
(0.226743 -0.176279 0)
(0.241986 -0.190463 0)
(0.267044 -0.179906 0)
(0.294795 -0.143851 0)
(0.310209 -0.0796612 0)
(0.312636 -0.0125571 0)
(0.297614 0.0455184 0)
(0.248807 0.11028 0)
(0.156021 0.137159 0)
(0.0529226 0.105357 0)
(-0.00641559 0.00472997 0)
(-0.0383542 -0.0120296 0)
(-0.139813 0.0459904 0)
(-0.251458 0.046774 0)
(-0.436856 0.0914394 0)
(0.101836 0.352323 0)
(0.221715 0.29542 0)
(0.30416 0.201213 0)
(0.306381 0.0936254 0)
(0.289282 0.00197075 0)
(0.258708 -0.0674147 0)
(0.245942 -0.134443 0)
(0.248519 -0.186886 0)
(0.260487 -0.216479 0)
(0.288843 -0.239547 0)
(0.326657 -0.217818 0)
(0.346481 -0.151275 0)
(0.33919 -0.0379041 0)
(0.301542 0.0547394 0)
(0.217623 0.0648719 0)
(0.157976 0.0819952 0)
(0.117554 0.0810932 0)
(0.0680571 0.0209777 0)
(-0.00551353 -0.0720624 0)
(-0.340388 0.0260123 0)
(-0.59238 0.260046 0)
(-0.745565 0.282427 0)
(-0.999692 -0.126391 0)
(0.0841428 0.177615 0)
(0.182629 0.21528 0)
(0.233896 0.167201 0)
(0.240562 0.10578 0)
(0.228327 0.0421801 0)
(0.209371 -0.0322976 0)
(0.200044 -0.115254 0)
(0.19368 -0.18048 0)
(0.209032 -0.256707 0)
(0.22044 -0.356875 0)
(0.188718 -0.350055 0)
(0.154504 -0.264627 0)
(0.118401 -0.113859 0)
(0.13774 0.0594173 0)
(0.0511572 0.147128 0)
(-0.00964664 0.142378 0)
(-0.128952 0.165364 0)
(-0.281192 0.205887 0)
(-0.727157 0.309781 0)
(-1.11251 0.452564 0)
(-1.20938 0.460803 0)
(-1.28211 0.21218 0)
(-1.24963 -0.199618 0)
(0.0521621 0.0321805 0)
(0.0946027 0.148103 0)
(0.105158 0.152987 0)
(0.0906235 0.0957012 0)
(0.0899278 0.0278793 0)
(0.0557363 -0.036683 0)
(0.0417409 -0.131208 0)
(0.0040794 -0.220108 0)
(-0.0972638 -0.256549 0)
(-0.547069 -0.199436 0)
(-0.713914 -0.153428 0)
(-0.747153 -0.0910454 0)
(-0.699091 0.0353381 0)
(-0.588815 0.129922 0)
(-0.582694 0.202497 0)
(-0.708163 0.298116 0)
(-0.924865 0.446635 0)
(-1.07823 0.580285 0)
(-1.3069 0.565387 0)
(-1.39465 0.524271 0)
(-1.44187 0.324347 0)
(-1.5572 -0.141586 0)
(-1.55308 -0.393607 0)
(-0.0157266 -0.0590142 0)
(-0.0237004 0.142543 0)
(-0.0637025 0.147118 0)
(-0.0896983 0.10391 0)
(-0.082271 0.0748137 0)
(-0.106146 0.00863361 0)
(-0.214015 -0.105842 0)
(-0.670346 -0.0454177 0)
(-0.808776 0.0538664 0)
(-0.926413 -0.0793213 0)
(-0.96068 -0.136171 0)
(-1.04566 -0.137581 0)
(-1.11585 -0.181547 0)
(-1.11177 -0.180951 0)
(-0.978518 -0.0490314 0)
(-1.08201 0.136432 0)
(-1.27732 0.272979 0)
(-1.25718 0.476598 0)
(-1.29778 0.507688 0)
(-1.3134 0.451814 0)
(-1.41892 0.098855 0)
(-1.68866 -0.694536 0)
(-1.66575 -0.819402 0)
(-0.0555145 -0.00366312 0)
(-0.0919216 0.174521 0)
(-0.11164 0.188337 0)
(-0.16157 0.123283 0)
(-0.228418 0.0389042 0)
(-0.394794 0.0689625 0)
(-0.729052 0.229573 0)
(-0.93596 0.11662 0)
(-0.943754 -0.0192072 0)
(-0.942525 -0.051807 0)
(-0.977963 -0.0631845 0)
(-1.05672 -0.0598774 0)
(-1.35047 -0.161923 0)
(-1.52407 -0.290517 0)
(-1.29897 -0.238758 0)
(-1.51515 -0.111181 0)
(-1.63862 -0.0228169 0)
(-1.38099 0.158731 0)
(-1.29899 0.25958 0)
(-1.21815 0.20145 0)
(-1.21712 -0.0195212 0)
(-1.85195 -0.62916 0)
(-2.03714 -1.01368 0)
(-0.0595732 0.0396038 0)
(-0.0781299 0.162875 0)
(-0.171 0.167019 0)
(-0.310326 0.140311 0)
(-0.554111 0.250527 0)
(-0.856621 0.429436 0)
(-1.08396 0.339348 0)
(-1.09934 0.0814888 0)
(-0.991021 -0.0243304 0)
(-0.932155 -0.0628468 0)
(-0.923408 -0.0981053 0)
(-1.03933 -0.188393 0)
(-1.55899 -0.329916 0)
(-1.30507 0.321211 0)
(-1.4578 0.243031 0)
(-1.579 0.134671 0)
(-1.75473 0.104621 0)
(-1.59947 0.141634 0)
(-1.37925 0.182978 0)
(-1.21927 0.167576 0)
(-1.16027 0.372726 0)
(-1.41896 0.365749 0)
(-1.30467 -0.406562 0)
(-0.134308 -0.112028 0)
(-0.17257 0.0484275 0)
(-0.462608 0.223307 0)
(-0.796118 0.417525 0)
(-0.973429 0.477415 0)
(-1.056 0.438709 0)
(-1.24186 0.127981 0)
(-1.17143 -0.225508 0)
(-1.00262 -0.335573 0)
(-0.971808 -0.371447 0)
(-0.974831 -0.400557 0)
(-1.07144 -0.468052 0)
(-1.25009 0.245074 0)
(-1.31265 0.9726 0)
(-1.493 0.783025 0)
(-1.43717 0.265503 0)
(-1.47273 0.169971 0)
(-1.4982 0.28172 0)
(-1.45275 0.479253 0)
(-1.4061 0.621636 0)
(-1.3994 0.821944 0)
(-1.31474 0.616123 0)
(-1.30175 0.261233 0)
(-0.428905 -0.118604 0)
(-0.715266 0.0802403 0)
(-1.00816 0.294458 0)
(-1.0992 0.366254 0)
(-1.12692 0.359157 0)
(-1.15674 0.258147 0)
(-1.39366 -0.0962734 0)
(-1.1678 -0.27721 0)
(-0.994411 -0.222818 0)
(-0.989246 -0.332514 0)
(-1.0552 -0.249373 0)
(-1.25027 0.145889 0)
(-1.12528 0.859942 0)
(-1.23549 1.12239 0)
(-1.46991 0.911164 0)
(-1.43943 0.371073 0)
(-1.48502 0.266442 0)
(-1.50596 0.284067 0)
(-1.49631 0.520918 0)
(-1.45555 0.67893 0)
(-1.39605 0.704509 0)
(-1.32065 0.521562 0)
(-1.34682 0.0510487 0)
(-0.957854 0.701214 0)
(-1.84589 0.453906 0)
(-1.61474 0.33055 0)
(-1.31387 0.272583 0)
(-1.17679 0.238299 0)
(-1.13103 0.163628 0)
(-1.30034 0.0410505 0)
(-1.27537 -0.363537 0)
(-1.11875 -0.501306 0)
(-1.03402 -0.441005 0)
(-1.06421 -0.231963 0)
(-0.920933 0.066254 0)
(-0.839432 0.917562 0)
(-0.938478 1.27218 0)
(-1.22737 1.04121 0)
(-1.33088 0.499468 0)
(-1.36605 0.378072 0)
(-1.38782 0.370471 0)
(-1.41064 0.535958 0)
(-1.34377 0.64128 0)
(-1.28564 0.649327 0)
(-1.25229 0.539826 0)
(-1.30765 0.218187 0)
(-0.199835 1.56437 0)
(-0.895214 1.35114 0)
(-1.51915 0.617423 0)
(-1.3535 0.328078 0)
(-1.16479 0.24961 0)
(-0.862462 0.278637 0)
(-0.642077 0.477334 0)
(-0.485529 0.224048 0)
(-0.746064 0.137119 0)
(-0.856102 0.0729457 0)
(-0.907676 0.0484552 0)
(-0.918021 0.107665 0)
(-0.73157 0.606115 0)
(-0.471838 1.23284 0)
(-0.514167 1.38713 0)
(-0.87169 0.763325 0)
(-1.0138 0.29106 0)
(-1.08101 0.248145 0)
(-1.14498 0.455199 0)
(-1.07556 0.632971 0)
(-1.0397 0.659117 0)
(-1.03748 0.578716 0)
(-1.03708 0.237877 0)
(-0.0553093 1.50368 0)
(0.195957 1.63253 0)
(0.235893 1.33689 0)
(0.187335 0.829918 0)
(0.13172 0.524042 0)
(0.164764 0.468637 0)
(0.12152 0.391532 0)
(0.0310954 0.115928 0)
(-0.190804 -0.0789058 0)
(-0.327421 -0.11692 0)
(-0.461368 -0.0193978 0)
(-0.557877 0.111727 0)
(-0.633399 0.373518 0)
(-0.309772 0.976201 0)
(0.0688093 1.38288 0)
(0.0265157 1.19418 0)
(-0.234983 0.743096 0)
(-0.47605 0.434079 0)
(-0.634409 0.411918 0)
(-0.650818 0.504322 0)
(-0.604138 0.535596 0)
(-0.555265 0.452808 0)
(-0.388886 0.164327 0)
(-0.0535391 1.51109 0)
(0.117203 1.4123 0)
(0.29001 1.2236 0)
(0.401597 0.824198 0)
(0.391638 0.549572 0)
(0.393759 0.490202 0)
(0.383534 0.46379 0)
(0.335922 0.389935 0)
(0.178333 0.323918 0)
(-0.0354893 0.235625 0)
(-0.230742 0.196104 0)
(-0.291275 0.224439 0)
(-0.355539 0.353306 0)
(-0.275843 0.595472 0)
(0.0626455 1.0358 0)
(0.339254 1.1246 0)
(0.348008 0.925296 0)
(0.229759 0.668378 0)
(0.122954 0.541755 0)
(0.0464577 0.541728 0)
(0.137502 0.518235 0)
(0.319931 0.375828 0)
(0.371036 0.0219864 0)
(-0.0725374 1.50642 0)
(0.0432822 1.26483 0)
(0.130195 1.02513 0)
(0.318708 0.75331 0)
(0.345228 0.53634 0)
(0.376868 0.475863 0)
(0.395115 0.475428 0)
(0.39842 0.437868 0)
(0.346988 0.420311 0)
(0.235717 0.37051 0)
(0.0516513 0.322817 0)
(-0.0334777 0.295197 0)
(-0.0787332 0.370695 0)
(-0.06772 0.500797 0)
(0.0542455 0.666611 0)
(0.297924 0.90053 0)
(0.47473 0.814142 0)
(0.5155 0.685565 0)
(0.585853 0.596916 0)
(0.622823 0.537331 0)
(0.656071 0.396183 0)
(0.835737 0.219584 0)
(0.927236 -0.0888806 0)
(-0.0638973 1.50139 0)
(0.0606448 1.18763 0)
(0.0715834 0.906947 0)
(0.236147 0.662473 0)
(0.269271 0.500699 0)
(0.307367 0.44374 0)
(0.343596 0.427294 0)
(0.39587 0.447374 0)
(0.38674 0.457341 0)
(0.35375 0.463231 0)
(0.260426 0.4483 0)
(0.189761 0.362856 0)
(0.142181 0.391241 0)
(0.158995 0.458799 0)
(0.222989 0.57199 0)
(0.375961 0.666601 0)
(0.530937 0.701123 0)
(0.64671 0.600397 0)
(0.72992 0.521462 0)
(0.881284 0.439849 0)
(0.968058 0.327418 0)
(1.10602 0.0990167 0)
(1.15307 -0.17951 0)
(-0.0255987 1.48085 0)
(0.122885 1.14559 0)
(0.115987 0.832651 0)
(0.233107 0.596827 0)
(0.258294 0.466486 0)
(0.287513 0.41912 0)
(0.311124 0.38621 0)
(0.345322 0.408761 0)
(0.384074 0.465407 0)
(0.378742 0.4928 0)
(0.35338 0.494325 0)
(0.336048 0.426296 0)
(0.300112 0.41 0)
(0.316523 0.431876 0)
(0.358157 0.490395 0)
(0.473345 0.532399 0)
(0.583322 0.569647 0)
(0.733519 0.499016 0)
(0.797775 0.387847 0)
(0.917869 0.274216 0)
(1.04483 0.169982 0)
(1.14051 0.0202014 0)
(1.15163 -0.208244 0)
(0.0330983 1.4004 0)
(0.1887 1.09612 0)
(0.196198 0.774923 0)
(0.273001 0.553394 0)
(0.281501 0.437782 0)
(0.295391 0.402803 0)
(0.30369 0.376339 0)
(0.305743 0.382457 0)
(0.341855 0.43774 0)
(0.373324 0.490641 0)
(0.37997 0.491622 0)
(0.391584 0.442674 0)
(0.384061 0.409608 0)
(0.397603 0.411639 0)
(0.426621 0.42906 0)
(0.49674 0.439441 0)
(0.565575 0.430223 0)
(0.70641 0.394609 0)
(0.762862 0.275747 0)
(0.816668 0.134992 0)
(0.944457 0.04793 0)
(1.00321 -0.039895 0)
(0.974929 -0.193662 0)
(0.0932537 1.22608 0)
(0.223881 1.01871 0)
(0.263666 0.726632 0)
(0.306688 0.524973 0)
(0.298884 0.430868 0)
(0.297284 0.400651 0)
(0.296568 0.378924 0)
(0.289722 0.379021 0)
(0.295263 0.402701 0)
(0.335162 0.456324 0)
(0.378989 0.47333 0)
(0.399883 0.432768 0)
(0.406195 0.396678 0)
(0.419906 0.39172 0)
(0.442105 0.389776 0)
(0.486644 0.378706 0)
(0.537018 0.340602 0)
(0.627137 0.309562 0)
(0.684029 0.213959 0)
(0.730095 0.0844536 0)
(0.775667 0.00557219 0)
(0.788399 -0.0624942 0)
(0.784223 -0.185332 0)
(0.114737 1.03981 0)
(0.21927 0.920375 0)
(0.294284 0.685393 0)
(0.314686 0.515916 0)
(0.301117 0.434903 0)
(0.295938 0.405405 0)
(0.288683 0.387582 0)
(0.281439 0.383454 0)
(0.282286 0.391967 0)
(0.303339 0.41081 0)
(0.349558 0.428566 0)
(0.387034 0.409377 0)
(0.40228 0.388223 0)
(0.416233 0.374266 0)
(0.440237 0.360211 0)
(0.476016 0.333034 0)
(0.518562 0.290042 0)
(0.568349 0.249598 0)
(0.624982 0.165409 0)
(0.64801 0.0641929 0)
(0.65985 0.00749883 0)
(0.663914 -0.0726723 0)
(0.649799 -0.169786 0)
(0.106277 0.87529 0)
(0.192006 0.814124 0)
(0.281335 0.641389 0)
(0.304592 0.513947 0)
(0.292981 0.444514 0)
(0.286403 0.416418 0)
(0.278485 0.395788 0)
(0.274227 0.386647 0)
(0.278554 0.384606 0)
(0.293529 0.386043 0)
(0.325751 0.389714 0)
(0.356754 0.379081 0)
(0.382513 0.370264 0)
(0.404216 0.350728 0)
(0.431821 0.329216 0)
(0.465156 0.2953 0)
(0.501826 0.254185 0)
(0.534773 0.207809 0)
(0.573423 0.135082 0)
(0.578169 0.0630185 0)
(0.582319 0.00408956 0)
(0.581393 -0.0691182 0)
(0.559202 -0.136654 0)
(0.0828113 0.744834 0)
(0.155667 0.716865 0)
(0.241689 0.594476 0)
(0.264992 0.504792 0)
(0.263915 0.45044 0)
(0.262944 0.421698 0)
(0.262124 0.398243 0)
(0.263305 0.384834 0)
(0.271268 0.374803 0)
(0.284083 0.367023 0)
(0.306512 0.363167 0)
(0.331721 0.353919 0)
(0.356365 0.34092 0)
(0.383386 0.320704 0)
(0.411983 0.2965 0)
(0.44087 0.260204 0)
(0.470678 0.222284 0)
(0.493708 0.177455 0)
(0.515867 0.119606 0)
(0.518236 0.0615386 0)
(0.520417 0.00701451 0)
(0.512592 -0.0564979 0)
(0.490992 -0.105053 0)
(0.0588405 0.646153 0)
(0.120909 0.634435 0)
(0.195549 0.550412 0)
(0.218579 0.488686 0)
(0.229003 0.446211 0)
(0.236907 0.418437 0)
(0.242817 0.394994 0)
(0.249466 0.378551 0)
(0.259658 0.364379 0)
(0.272305 0.351912 0)
(0.289223 0.341607 0)
(0.310608 0.329618 0)
(0.3341 0.313811 0)
(0.359316 0.29316 0)
(0.38482 0.267327 0)
(0.408607 0.232922 0)
(0.430827 0.19749 0)
(0.448654 0.157304 0)
(0.464205 0.108859 0)
(0.464979 0.0593393 0)
(0.467923 0.0117011 0)
(0.455619 -0.0397599 0)
(0.438485 -0.0783953 0)
(0.0413791 0.572721 0)
(0.0939318 0.566209 0)
(0.154894 0.510598 0)
(0.180428 0.468264 0)
(0.197954 0.434264 0)
(0.211499 0.408778 0)
(0.22235 0.386312 0)
(0.233144 0.368453 0)
(0.245075 0.352389 0)
(0.258607 0.337722 0)
(0.273596 0.32391 0)
(0.292532 0.308573 0)
(0.31299 0.291006 0)
(0.334678 0.269256 0)
(0.356723 0.24438 0)
(0.375801 0.213166 0)
(0.393193 0.180431 0)
(0.406786 0.142612 0)
(0.417848 0.102327 0)
(0.418865 0.0598605 0)
(0.422139 0.0157889 0)
(0.410453 -0.0263247 0)
(0.39778 -0.0596068 0)
(0.03048 0.515836 0)
(0.0743269 0.510119 0)
(0.123591 0.473537 0)
(0.150352 0.443818 0)
(0.171615 0.416962 0)
(0.188615 0.394536 0)
(0.202856 0.373814 0)
(0.216297 0.355971 0)
(0.229821 0.339015 0)
(0.244044 0.323619 0)
(0.259307 0.307738 0)
(0.275595 0.290429 0)
(0.293093 0.270836 0)
(0.310723 0.2492 0)
(0.32835 0.225002 0)
(0.344368 0.195975 0)
(0.359132 0.165636 0)
(0.370575 0.132127 0)
(0.37931 0.0966941 0)
(0.381445 0.0570313 0)
(0.382257 0.0203407 0)
(0.372252 -0.0135522 0)
(0.364523 -0.0464121 0)
(0.0237972 0.470644 0)
(0.0602123 0.464921 0)
(0.100571 0.44019 0)
(0.12684 0.418624 0)
(0.149107 0.397318 0)
(0.167657 0.377841 0)
(0.183701 0.358988 0)
(0.198543 0.341668 0)
(0.212823 0.324754 0)
(0.227233 0.308285 0)
(0.242055 0.291955 0)
(0.25727 0.274187 0)
(0.27314 0.254699 0)
(0.288364 0.233393 0)
(0.303551 0.209024 0)
(0.317114 0.182587 0)
(0.328291 0.153689 0)
(0.337267 0.123125 0)
(0.343854 0.0915799 0)
(0.345573 0.057537 0)
(0.345916 0.0239222 0)
(0.340223 -0.00748638 0)
(0.334554 -0.0367871 0)
(0.019495 0.433217 0)
(0.050151 0.427634 0)
(0.0840394 0.410248 0)
(0.108898 0.394062 0)
(0.130741 0.376983 0)
(0.149613 0.360119 0)
(0.166362 0.343188 0)
(0.18172 0.326798 0)
(0.196309 0.310249 0)
(0.210535 0.293717 0)
(0.224718 0.277209 0)
(0.238846 0.259087 0)
(0.252423 0.239822 0)
(0.265856 0.218823 0)
(0.278394 0.196001 0)
(0.289486 0.17075 0)
(0.299403 0.144205 0)
(0.306865 0.116075 0)
(0.313024 0.086842 0)
(0.315069 0.0561598 0)
(0.314674 0.0265808 0)
(0.310254 -0.00177175 0)
(0.306029 -0.0301563 0)
(0.0163613 0.401696 0)
(0.0424899 0.396402 0)
(0.0713886 0.383487 0)
(0.0943477 0.370858 0)
(0.115115 0.3569 0)
(0.133537 0.342303 0)
(0.150163 0.327143 0)
(0.165384 0.311841 0)
(0.179844 0.296025 0)
(0.193475 0.280078 0)
(0.206873 0.263627 0)
(0.219988 0.246053 0)
(0.232414 0.226919 0)
(0.244456 0.206596 0)
(0.255425 0.184631 0)
(0.265323 0.161209 0)
(0.273586 0.136343 0)
(0.279411 0.110319 0)
(0.284095 0.0839209 0)
(0.285608 0.0559865 0)
(0.285834 0.0281623 0)
(0.283055 0.00149146 0)
(0.279671 -0.0246503 0)
(0.0140014 0.374562 0)
(0.0366601 0.369639 0)
(0.0617216 0.359557 0)
(0.0827155 0.349385 0)
(0.102122 0.337705 0)
(0.119693 0.324974 0)
(0.135709 0.311309 0)
(0.150424 0.297019 0)
(0.164253 0.282023 0)
(0.177187 0.26654 0)
(0.189728 0.250432 0)
(0.201686 0.233366 0)
(0.212903 0.21498 0)
(0.223484 0.195455 0)
(0.233021 0.17462 0)
(0.241281 0.152593 0)
(0.248338 0.129274 0)
(0.253634 0.104929 0)
(0.257822 0.0800947 0)
(0.259662 0.0548385 0)
(0.259839 0.0296041 0)
(0.257474 0.00463851 0)
(0.254646 -0.0201867 0)
(0.0120832 0.351161 0)
(0.0319524 0.346591 0)
(0.0538958 0.338381 0)
(0.0729102 0.329947 0)
(0.0907365 0.32 0)
(0.107161 0.308802 0)
(0.122284 0.296475 0)
(0.136287 0.28326 0)
(0.149351 0.269229 0)
(0.161574 0.254444 0)
(0.17318 0.238959 0)
(0.184151 0.222563 0)
(0.194372 0.204961 0)
(0.203833 0.186241 0)
(0.2122 0.166533 0)
(0.219427 0.145619 0)
(0.225619 0.123828 0)
(0.230141 0.101119 0)
(0.233463 0.0779824 0)
(0.234914 0.0541858 0)
(0.235174 0.030403 0)
(0.233419 0.00694727 0)
(0.231045 -0.0163553 0)
(0.0105414 0.330565 0)
(0.028089 0.326149 0)
(0.0474194 0.31915 0)
(0.0645613 0.311943 0)
(0.0807932 0.303283 0)
(0.0959534 0.293274 0)
(0.110044 0.282067 0)
(0.123157 0.269856 0)
(0.135332 0.256711 0)
(0.146708 0.242691 0)
(0.157328 0.227838 0)
(0.167346 0.212171 0)
(0.176545 0.195443 0)
(0.184906 0.177682 0)
(0.192332 0.158999 0)
(0.19874 0.13922 0)
(0.204064 0.118557 0)
(0.208057 0.097191 0)
(0.210848 0.0754742 0)
(0.212143 0.0533868 0)
(0.212248 0.0312279 0)
(0.210709 0.00905656 0)
(0.208559 -0.0130547 0)
(0.00921472 0.312548 0)
(0.0248035 0.308393 0)
(0.0418876 0.302316 0)
(0.0573083 0.296064 0)
(0.0720117 0.288422 0)
(0.0858647 0.279412 0)
(0.0988143 0.269146 0)
(0.110903 0.257807 0)
(0.122166 0.245462 0)
(0.132647 0.232212 0)
(0.142328 0.218057 0)
(0.151335 0.203066 0)
(0.159539 0.187067 0)
(0.166923 0.170098 0)
(0.173469 0.152358 0)
(0.179063 0.133727 0)
(0.183636 0.114266 0)
(0.187143 0.0942525 0)
(0.189416 0.0738034 0)
(0.190481 0.0529303 0)
(0.190475 0.03192 0)
(0.189157 0.0108745 0)
(0.187153 -0.0101204 0)
(0.00807673 0.296554 0)
(0.0219048 0.292432 0)
(0.0370125 0.286931 0)
(0.0508281 0.281395 0)
(0.0640838 0.274561 0)
(0.0766471 0.266373 0)
(0.088442 0.256992 0)
(0.0994541 0.246521 0)
(0.109699 0.235013 0)
(0.119219 0.222528 0)
(0.127985 0.209137 0)
(0.136065 0.194865 0)
(0.143441 0.179721 0)
(0.150022 0.163696 0)
(0.155788 0.146869 0)
(0.160643 0.129102 0)
(0.164485 0.110555 0)
(0.167302 0.091525 0)
(0.169119 0.0721902 0)
(0.169999 0.0525049 0)
(0.169882 0.0326318 0)
(0.168661 0.0126134 0)
(0.166694 -0.00739852 0)
(0.00705362 0.282542 0)
(0.0193791 0.278507 0)
(0.0327349 0.273583 0)
(0.0450771 0.268622 0)
(0.0569471 0.262411 0)
(0.0682297 0.254921 0)
(0.0788323 0.246208 0)
(0.0887486 0.236387 0)
(0.09796 0.225559 0)
(0.10649 0.213762 0)
(0.114353 0.20105 0)
(0.12153 0.187486 0)
(0.12802 0.173078 0)
(0.133774 0.157768 0)
(0.13877 0.141743 0)
(0.142955 0.125033 0)
(0.146284 0.107652 0)
(0.148726 0.0896415 0)
(0.150141 0.0711243 0)
(0.150636 0.0522916 0)
(0.150285 0.0333469 0)
(0.149056 0.0142744 0)
(0.147068 -0.0048462 0)
(0.00617562 0.270146 0)
(0.0170939 0.266057 0)
(0.0289113 0.2614 0)
(0.0398758 0.256894 0)
(0.0504237 0.251235 0)
(0.0604808 0.24435 0)
(0.0699354 0.236329 0)
(0.0787816 0.227238 0)
(0.0869735 0.217156 0)
(0.0945272 0.206081 0)
(0.101441 0.194038 0)
(0.107664 0.181091 0)
(0.1132 0.167248 0)
(0.118124 0.152647 0)
(0.122387 0.137356 0)
(0.125913 0.12136 0)
(0.128666 0.104692 0)
(0.130592 0.0876831 0)
(0.131793 0.0703783 0)
(0.13221 0.0525672 0)
(0.131669 0.0343707 0)
(0.130344 0.015998 0)
(0.128267 -0.00238061 0)
(0.00536848 0.259196 0)
(0.0150744 0.255206 0)
(0.0253467 0.250997 0)
(0.0350353 0.246922 0)
(0.0443402 0.24172 0)
(0.0532574 0.235352 0)
(0.0616778 0.22792 0)
(0.0695634 0.219425 0)
(0.0769107 0.20984 0)
(0.0836503 0.199332 0)
(0.0897676 0.187943 0)
(0.0952595 0.175716 0)
(0.100144 0.162661 0)
(0.104298 0.148773 0)
(0.107701 0.13412 0)
(0.110369 0.118772 0)
(0.112289 0.102877 0)
(0.11358 0.0864038 0)
(0.114185 0.0694502 0)
(0.114092 0.0524218 0)
(0.113538 0.0352934 0)
(0.11228 0.0178062 0)
(0.110162 9.35938e-05 0)
(0.00464756 0.249751 0)
(0.0131618 0.245459 0)
(0.0222156 0.241342 0)
(0.0306966 0.237551 0)
(0.0388226 0.232708 0)
(0.0466052 0.226788 0)
(0.053976 0.219813 0)
(0.0609057 0.211848 0)
(0.0672802 0.20297 0)
(0.0731267 0.193173 0)
(0.0783775 0.182461 0)
(0.0829891 0.170844 0)
(0.0870252 0.158393 0)
(0.0904603 0.145204 0)
(0.0933221 0.13133 0)
(0.0955693 0.116858 0)
(0.0972437 0.101771 0)
(0.0981057 0.0860651 0)
(0.0981267 0.0699522 0)
(0.097592 0.0532918 0)
(0.0962928 0.0362831 0)
(0.0946553 0.0194051 0)
(0.0925359 0.0024739 0)
(0.00418931 0.241361 0)
(0.011587 0.237542 0)
(0.0190512 0.233924 0)
(0.0262428 0.23058 0)
(0.0331187 0.226106 0)
(0.0397261 0.220487 0)
(0.0460546 0.21382 0)
(0.0520542 0.206179 0)
(0.0577599 0.197608 0)
(0.0630077 0.188196 0)
(0.067747 0.17797 0)
(0.0719146 0.166946 0)
(0.0753984 0.155091 0)
(0.0782106 0.142456 0)
(0.0803763 0.129121 0)
(0.0818476 0.115098 0)
(0.0826749 0.100472 0)
(0.0829485 0.0854815 0)
(0.0827972 0.0700988 0)
(0.0820258 0.0543266 0)
(0.0805501 0.0382574 0)
(0.0784358 0.0216091 0)
(0.0757651 0.00482831 0)
(0.00363695 0.233915 0)
(0.00993409 0.229932 0)
(0.0162053 0.226083 0)
(0.0224015 0.222717 0)
(0.0282482 0.218403 0)
(0.0339144 0.213125 0)
(0.0392333 0.206871 0)
(0.0442323 0.199731 0)
(0.0488641 0.191768 0)
(0.0531417 0.183026 0)
(0.0570356 0.173545 0)
(0.0604898 0.163266 0)
(0.0634519 0.152199 0)
(0.065856 0.14038 0)
(0.0676782 0.127873 0)
(0.0688661 0.114673 0)
(0.0693996 0.100868 0)
(0.0693078 0.0864669 0)
(0.0685231 0.0714736 0)
(0.0671529 0.0561177 0)
(0.0653846 0.0404255 0)
(0.063182 0.024567 0)
(0.0601306 0.0084262 0)
(0.00320236 0.227683 0)
(0.00812456 0.224783 0)
(0.0122016 0.221908 0)
(0.0162612 0.219051 0)
(0.0200243 0.215046 0)
(0.0238193 0.210003 0)
(0.0273213 0.203891 0)
(0.0306558 0.196838 0)
(0.0337453 0.188932 0)
(0.0366578 0.18019 0)
(0.0393698 0.170692 0)
(0.0418875 0.160503 0)
(0.0441773 0.149636 0)
(0.0461659 0.138122 0)
(0.0478681 0.125947 0)
(0.0492499 0.113193 0)
(0.0501968 0.0998497 0)
(0.0506722 0.0859893 0)
(0.0506112 0.071676 0)
(0.0499728 0.0570145 0)
(0.0486504 0.0419947 0)
(0.0466439 0.0265966 0)
(0.0438964 0.0109558 0)
(0.0026158 0.222409 0)
(0.00553971 0.220152 0)
(0.00800061 0.216938 0)
(0.0109358 0.213776 0)
(0.0134961 0.209765 0)
(0.0161951 0.204959 0)
(0.0186525 0.199233 0)
(0.0209933 0.192641 0)
(0.023177 0.185192 0)
(0.0252164 0.17691 0)
(0.0271306 0.167887 0)
(0.0289241 0.158197 0)
(0.0305527 0.147827 0)
(0.031961 0.13673 0)
(0.0331485 0.125017 0)