/*--------------------------------*- C++ -*----------------------------------*\
| =========                 |                                                 |
| \\      /  F ield         | OpenFOAM: The Open Source CFD Toolbox           |
|  \\    /   O peration     | Version:  2.4.0                                 |
|   \\  /    A nd           | Web:      www.OpenFOAM.org                      |
|    \\/     M anipulation  |                                                 |
\*---------------------------------------------------------------------------*/
FoamFile
{
    version     2.0;
    format      ascii;
    class       volScalarField;
    location    "0.25";
    object      alpha.air;
}
// * * * * * * * * * * * * * * * * * * * * * * * * * * * * * * * * * * * * * //

dimensions      [0 0 0 0 0 0 0];

internalField   nonuniform List<scalar> 
559
(
1.12501e-18
1.23515e-17
7.42831e-17
3.12099e-16
8.05864e-16
1.48514e-15
2.81437e-15
4.97115e-15
9.08568e-05
0.000204782
0.000274591
0.00026605
0.000196291
0.000195296
0.000209836
0.000137748
0.000145865
9.93586e-05
4.36908e-05
6.23579e-05
0.000820346
0.011594
0.00807877
0.00372124
0.0231306
0.152357
0.0268765
5.13671e-05
4.36522e-05
2.5088e-05
8.83634e-06
4.39234e-06
2.91718e-06
6.86099e-07
2.34994e-07
2.50902e-07
3.76368e-07
7.02154e-07
3.89416e-05
0.000374887
0.000365985
0.000424056
0.000915013
0.0220101
0.152089
0.0668145
2.99112e-05
2.84432e-05
2.48213e-05
2.0311e-05
6.31827e-06
3.34226e-06
5.32533e-07
1.84906e-07
1.84629e-07
1.84384e-07
1.84202e-07
2.08069e-07
2.50384e-07
3.78476e-07
1.06058e-06
4.6035e-05
0.0143469
0.0723233
0.0488651
3.38615e-05
0.00254021
0.0401606
0.00188143
6.45704e-05
2.63212e-05
1.70406e-06
1.84971e-07
1.84539e-07
1.84318e-07
1.8403e-07
1.83677e-07
1.83483e-07
1.76055e-07
1.75997e-07
4.20312e-06
0.00363281
0.0157811
0.0165109
0.00110504
0.136202
0.79605
0.128492
0.00125062
0.00014687
3.14786e-06
1.85249e-07
1.84854e-07
1.95197e-07
1.95192e-07
1.8466e-07
1.81252e-07
1.80511e-07
1.76838e-07
9.30662e-07
0.000276824
0.00180473
0.00288561
0.0113231
0.636247
0.994098
0.777373
0.0352238
0.000675906
6.02572e-06
1.85368e-07
1.85065e-07
1.93732e-07
1.95148e-07
1.84089e-07
1.81742e-07
2.01668e-07
2.49151e-07
3.5931e-07
5.28034e-06
9.91946e-05
0.000307692
0.00988485
0.866954
0.999292
0.97105
0.256343
0.00223141
1.01292e-05
1.85065e-07
1.84769e-07
1.8449e-07
1.84176e-07
1.83279e-07
1.82683e-07
2.46245e-07
3.95419e-07
4.16075e-07
4.36314e-07
1.96638e-06
1.98394e-05
0.00757298
0.882847
0.999275
0.996255
0.387338
0.00434446
1.16566e-05
1.85363e-07
1.85058e-07
1.84765e-07
1.84489e-07
1.84177e-07
1.83279e-07
3.9086e-07
6.3863e-07
6.63514e-07
6.01159e-07
7.43043e-07
1.75428e-06
2.18392e-14
8.5584e-14
2.036e-13
2.95263e-13
1.62837e-12
2.12155e-12
1.48064e-11
2.42332e-09
0.0140457
0.917384
0.976967
0.641118
0.00229524
0.161483
0.381913
0.586269
6.37514e-05
0.00875161
0.0290616
0.0997611
7.37207e-07
6.74951e-05
0.000309873
0.0024239
1.56643e-09
5.61396e-08
3.98505e-07
1.709e-05
5.33066e-12
1.17313e-11
1.99757e-10
2.86423e-08
2.5717e-11
3.78547e-11
6.57257e-11
1.13283e-10
3.03411e-09
3.89306e-09
3.13061e-09
2.18723e-09
6.83485e-08
7.25939e-08
7.8456e-08
8.62688e-08
8.82028e-05
0.000138839
0.000269379
0.00105791
0.0710494
0.101842
0.121425
0.192827
0.947072
0.987603
0.999095
0.999966
0.999861
0.999968
0.999999
0.999999
1
1
0.999999
0.999999
1
0.999999
0.999999
0.999999
0.999999
0.999999
0.999999
0.999999
0.999999
0.999999
0.999999
0.999998
0.142465
0.969123
0.999293
0.935101
0.217288
0.00388716
9.01073e-06
6.20748e-06
0.000195021
0.00289051
0.0171241
0.0480827
0.118554
0.164044
0.217561
0.130176
0.0121951
0.000363605
5.02893e-06
0.843536
0.991696
0.994479
0.66145
0.069504
0.00075648
8.60616e-06
0.000795816
0.01937
0.135136
0.392681
0.678532
0.905398
0.985593
0.972267
0.89754
0.366483
0.0125237
4.44631e-05
0.489874
0.790434
0.655208
0.159644
0.00528197
0.000130654
0.000413605
0.0237188
0.275006
0.749215
0.970367
0.998695
0.999976
0.999991
0.999959
0.999295
0.904086
0.0739628
0.000556161
0.039929
0.0836685
0.0361731
0.00276399
0.000105941
0.000130509
0.00888063
0.215041
0.787026
0.987602
0.999858
1
1
1
1
1
0.997538
0.311423
0.00837071
0.000394152
0.000490457
9.40913e-05
2.17284e-05
6.71072e-05
0.00199396
0.0939416
0.645897
0.972727
0.999713
1
1
1
1
1
1
0.999991
0.672571
0.0275473
4.02805e-07
1.98766e-07
1.06865e-07
1.83822e-05
0.00180054
0.0408829
0.436433
0.918003
0.998187
0.999999
1
1
1
1
1
1
1
0.828495
0.0200942
2.2174e-10
1.26999e-09
2.60645e-07
0.00106025
0.0178344
0.297013
0.857841
0.994467
0.999968
1
1
1
1
1
1
1
1
0.844413
0.0141718
4.75376e-08
1.63951e-05
0.000340914
0.0110666
0.231011
0.81367
0.993668
0.999961
1
1
1
1
1
1
1
1
1
0.895553
0.0141721
5.77094e-06
0.000992577
0.0271743
0.312972
0.875289
0.997493
0.999998
1
1
1
1
1
1
1
1
1
1
0.969196
0.0436347
0.0100747
0.126842
0.645982
0.976858
0.999918
1
1
1
1
1
1
1
1
1
1
1
1
0.996742
0.204356
0.632846
0.974525
0.999912
0.999983
1
1
1
1
1
1
1
1
1
1
1
1
1
0.999906
0.628931
0.999993
0.999968
0.999998
1
1
1
1
1
1
1
1
1
1
1
1
1
1
1
0.938911
0.999999
0.999999
0.999999
1
1
1
1
1
1
1
1
1
1
1
1
1
1
0.999956
0.997293
0.999999
0.999999
0.999999
0.999999
1
1
1
1
1
1
1
1
1
1
1
1
0.999997
0.99996
0.999971
0.999999
0.999999
0.999999
0.999999
0.999999
1
1
1
1
1
1
1
1
1
1
1
1
0.999996
1
0.999998
0.999998
0.999998
0.999999
0.999999
0.999999
1
1
1
1
1
1
1
1
1
1
1
1
1
0.999998
0.999998
0.999998
0.999998
0.999999
0.999999
0.999999
1
1
1
1
1
1
1
1
1
1
1
1
)
;

boundaryField
{
    leftWall
    {
        type            alphaContactAngle;
        thetaProperties 
6
(

(
water
mercury
)
 90 0 0 0

(
water
air
)
 90 0 0 0

(
water
oil
)
 90 0 0 0

(
mercury
air
)
 90 0 0 0

(
oil
mercury
)
 90 0 0 0

(
oil
air
)
 90 0 0 0
);
        value           nonuniform 0();
    }
    rightWall
    {
        type            alphaContactAngle;
        thetaProperties 
6
(

(
water
mercury
)
 90 0 0 0

(
water
air
)
 90 0 0 0

(
water
oil
)
 90 0 0 0

(
mercury
air
)
 90 0 0 0

(
oil
mercury
)
 90 0 0 0

(
oil
air
)
 90 0 0 0
);
        value           nonuniform List<scalar> 
25
(
0.0268765
0.0668145
0.0488651
0.0165109
0.00288561
0.000307692
1.98394e-05
1.75428e-06
5.02893e-06
4.44631e-05
0.000556161
0.00837071
0.0275473
0.0200942
0.0141718
0.0141721
0.0436347
0.204356
0.628931
0.938911
0.997293
0.999971
1
1
1
)
;
    }
    lowerWall
    {
        type            alphaContactAngle;
        thetaProperties 
6
(

(
water
mercury
)
 90 0 0 0

(
water
air
)
 90 0 0 0

(
water
oil
)
 90 0 0 0

(
mercury
air
)
 90 0 0 0

(
oil
mercury
)
 90 0 0 0

(
oil
air
)
 90 0 0 0
);
        value           nonuniform List<scalar> 
40
(
1.12501e-18
1.12501e-18
1.23515e-17
7.42831e-17
3.12099e-16
8.05864e-16
1.48514e-15
2.81437e-15
4.97115e-15
0.0140457
0.917384
0.976967
0.641118
9.08568e-05
5.13671e-05
2.99112e-05
3.38615e-05
0.00110504
0.0113231
0.00988485
0.00757298
9.08568e-05
0.000204782
0.000274591
0.00026605
0.000196291
0.000195296
0.000209836
0.000137748
0.000145865
9.93586e-05
4.36908e-05
6.23579e-05
0.000820346
0.011594
0.00807877
0.00372124
0.0231306
0.152357
0.0268765
)
;
    }
    atmosphere
    {
        type            inletOutlet;
        inletValue      nonuniform 0();
        value           nonuniform 0();
    }
    defaultFaces
    {
        type            empty;
    }
    procBoundary1to0
    {
        type            processor;
        value           nonuniform List<scalar> 
26
(
4.64236e-18
5.74788e-17
3.67148e-16
1.67195e-15
4.29752e-15
8.58292e-15
1.74947e-14
3.65789e-14
1.40003e-13
4.27282e-13
7.52459e-13
9.09794e-13
8.10097e-13
9.38812e-13
8.62696e-12
1.56753e-09
6.13067e-08
6.13067e-08
2.07985e-05
0.0251881
0.744686
0.999985
1
1
0.999999
0.999999
)
;
    }
    procBoundary1to3
    {
        type            processor;
        value           nonuniform List<scalar> 
23
(
0.999998
0.999999
0.999998
0.999998
0.999998
0.999998
0.999998
0.999998
0.999998
0.999998
0.999999
0.999999
0.999999
1
1
1
1
1
1
1
1
1
1
)
;
    }
}


// ************************************************************************* //
