/*--------------------------------*- C++ -*----------------------------------*\
| =========                 |                                                 |
| \\      /  F ield         | OpenFOAM: The Open Source CFD Toolbox           |
|  \\    /   O peration     | Version:  2.4.0                                 |
|   \\  /    A nd           | Web:      www.OpenFOAM.org                      |
|    \\/     M anipulation  |                                                 |
\*---------------------------------------------------------------------------*/
FoamFile
{
    version     2.0;
    format      ascii;
    class       volScalarField;
    location    "0.25";
    object      alpha.water;
}
// * * * * * * * * * * * * * * * * * * * * * * * * * * * * * * * * * * * * * //

dimensions      [0 0 0 0 0 0 0];

internalField   nonuniform List<scalar> 
559
(
3.61542e-11
2.70531e-10
7.75991e-08
1.421e-06
1.25092e-05
0.000148297
0.00110957
0.00407566
3.41503e-11
1.28718e-10
2.27957e-10
3.2375e-10
3.69172e-10
3.14705e-10
2.2866e-10
2.44981e-10
1.46135e-10
9.91203e-11
5.69641e-11
2.83829e-11
1.55876e-11
8.91576e-12
5.70908e-12
3.76591e-12
2.34604e-12
1.20423e-12
4.34012e-13
4.66617e-11
2.8769e-10
6.66478e-10
1.02639e-09
1.23681e-09
1.28306e-09
1.02844e-09
1.01758e-09
8.73966e-10
7.44834e-10
5.22143e-10
3.32174e-10
1.76255e-10
7.42018e-11
2.1956e-11
1.26659e-11
7.72673e-12
3.94627e-12
1.37792e-12
6.7213e-11
3.04846e-10
6.78824e-10
1.32907e-09
2.19783e-09
2.55209e-09
2.307e-09
2.13207e-09
1.75659e-09
1.31835e-09
9.84483e-10
7.65648e-10
5.27171e-10
3.40035e-10
1.8876e-10
7.94235e-11
1.65249e-11
7.58551e-12
2.90022e-12
4.76267e-11
2.00497e-10
6.03411e-10
1.61916e-09
2.7771e-09
3.36862e-09
3.20881e-09
2.82392e-09
2.31689e-09
1.79542e-09
1.29312e-09
8.77339e-10
6.80758e-10
4.49193e-10
3.16168e-10
2.01546e-10
7.15574e-11
1.34742e-11
5.05878e-12
2.55915e-11
6.50439e-11
3.92103e-10
2.10493e-09
3.1919e-09
3.94353e-09
3.72392e-09
3.10469e-09
2.47618e-09
1.96997e-09
1.50296e-09
1.01126e-09
6.92517e-10
6.10188e-10
4.67727e-10
3.03149e-10
1.38942e-10
2.86992e-11
5.94463e-12
1.29878e-11
8.25025e-12
4.82246e-11
9.71235e-10
3.47069e-09
4.46321e-09
4.01016e-09
3.15679e-09
2.48002e-09
1.96713e-09
1.51359e-09
1.04242e-09
7.78876e-10
6.88673e-10
5.4262e-10
3.50231e-10
1.68894e-10
3.89021e-11
7.02774e-12
1.0651e-11
6.43422e-12
3.08447e-12
1.70129e-10
3.19885e-09
5.1332e-09
4.17743e-09
2.90487e-09
2.26542e-09
1.75287e-09
1.33464e-09
9.5525e-10
6.51282e-10
5.80446e-10
4.54851e-10
3.23503e-10
1.69512e-10
4.20226e-11
8.38506e-12
8.54143e-12
5.67182e-12
2.92419e-12
3.03848e-12
2.75113e-09
6.58505e-09
4.27928e-09
2.44337e-09
1.97559e-09
1.51186e-09
1.12511e-09
7.90416e-10
4.95298e-10
3.81737e-10
2.70364e-10
1.99235e-10
1.43514e-10
5.12944e-11
9.62521e-12
0.0437004
0.11735
0.160385
0.135553
0.0657495
0.0135973
0.000713103
4.76291e-06
0.0124339
0.000111687
1.07587e-08
1.09678e-10
0.0213213
0.00242859
7.16517e-05
8.964e-07
0.0394632
0.0122949
0.00181406
0.000109969
0.0579181
0.0224461
0.00591828
0.00071162
0.0392632
0.0204075
0.00738856
0.00127022
0.00951279
0.00686477
0.00365833
0.000960253
0.000438331
0.000395413
0.000302455
0.000124549
1.87315e-06
1.70506e-06
1.49387e-06
9.49272e-07
3.30242e-09
1.68359e-09
7.28612e-10
3.22678e-10
4.96078e-12
5.07311e-12
7.18282e-12
5.51589e-12
4.83647e-12
3.90498e-12
3.0729e-12
2.17327e-12
8.19449e-13
6.55897e-13
5.34117e-14
5.38257e-14
4.18592e-13
3.71938e-13
3.71701e-14
3.08151e-15
1.88567e-13
2.25677e-13
1.34454e-14
1.97618e-15
5.41929e-14
5.68473e-14
3.25978e-15
1.23864e-15
7.1785e-15
6.52843e-15
8.04144e-16
5.92165e-16
7.34949e-16
6.0806e-16
2.19748e-16
2.20921e-16
4.85672e-12
3.44732e-12
3.52679e-12
3.99935e-10
1.43101e-08
1.26016e-08
4.16089e-09
2.04912e-09
1.60696e-09
1.04682e-09
5.71567e-10
3.06403e-10
1.76243e-10
1.08333e-10
7.09665e-11
5.68222e-11
6.22569e-11
3.7577e-11
9.63104e-12
3.38463e-08
6.75512e-10
6.4042e-10
3.49861e-08
7.24462e-08
2.43459e-08
3.5497e-09
1.96689e-09
8.94661e-10
3.21994e-10
9.47336e-11
3.24089e-11
1.21574e-11
3.07599e-12
2.34089e-12
3.01e-12
1.39391e-11
1.8624e-11
8.20086e-12
1.34337e-05
1.31043e-06
7.89554e-07
7.19484e-07
2.64308e-07
2.76309e-08
3.76983e-09
1.50565e-09
4.03665e-10
6.46956e-11
7.27734e-12
1.43742e-12
7.89429e-13
1.16202e-12
1.08359e-12
1.28784e-12
1.90235e-12
7.05495e-12
6.37305e-12
9.56314e-05
2.0175e-05
7.95457e-06
2.53587e-06
4.32222e-07
2.62069e-08
7.54315e-09
1.07607e-09
1.218e-10
8.47746e-12
2.3509e-12
1.27194e-12
6.82601e-13
3.4292e-13
2.94325e-13
8.1825e-13
1.42139e-12
4.71472e-12
5.15047e-12
0.000161876
2.65587e-05
1.01206e-05
3.09538e-06
4.97804e-07
4.44736e-08
6.38344e-09
3.58453e-10
2.30812e-11
3.19251e-12
7.9537e-13
1.79828e-13
6.70768e-14
6.57979e-14
7.51301e-14
5.74289e-13
1.17154e-12
3.72732e-12
4.26491e-12
0.000125908
1.60494e-05
4.95732e-06
1.21401e-06
2.35077e-07
5.50074e-08
2.58515e-09
5.08728e-11
3.82052e-12
6.10753e-13
1.50283e-13
6.67264e-14
2.43354e-14
2.41654e-14
4.892e-14
3.96823e-13
9.33554e-13
3.0755e-12
3.551e-12
2.14567e-05
2.39918e-06
4.59467e-07
1.14654e-07
3.13782e-08
4.4777e-09
1.77432e-10
6.24816e-12
1.6609e-12
1.51631e-13
7.02721e-14
2.57474e-14
1.51115e-14
2.7463e-14
5.80273e-14
2.34987e-13
6.74443e-13
2.56514e-12
2.92927e-12
3.01968e-07
3.21363e-08
4.9986e-09
7.49007e-10
1.52971e-10
1.28388e-11
1.39392e-12
3.02064e-13
1.26332e-13
7.32441e-14
3.18312e-14
1.17878e-14
1.2644e-14
3.19592e-14
7.38625e-14
1.69468e-13
4.94241e-13
2.29429e-12
2.40318e-12
1.86902e-10
4.28063e-11
3.42891e-12
1.10061e-12
3.74091e-13
1.33593e-13
1.08285e-13
9.93934e-14
7.13232e-14
3.78295e-14
1.44943e-14
6.13277e-15
1.15213e-14
3.54994e-14
8.82535e-14
1.8829e-13
4.11601e-13
2.04405e-12
2.00111e-12
2.46823e-12
1.31282e-12
7.16351e-13
3.6076e-13
9.64917e-14
6.64322e-14
7.05305e-14
5.84988e-14
3.84284e-14
1.83598e-14
6.44351e-15
3.46251e-15
1.0197e-14
3.671e-14
9.96914e-14
2.26032e-13
3.97673e-13
1.65586e-12
1.70416e-12
1.01837e-12
4.97075e-13
1.20614e-13
6.69187e-14
3.98977e-14
4.72282e-14
4.34484e-14
3.25947e-14
1.92938e-14
8.34395e-15
2.74941e-15
1.91335e-15
7.84829e-15
3.33587e-14
1.03659e-13
2.55735e-13
4.45917e-13
1.36208e-12
1.49544e-12
6.11915e-14
1.16749e-13
3.47622e-14
2.48906e-14
2.70041e-14
2.87631e-14
2.42431e-14
1.66241e-14
8.90642e-15
3.57899e-15
1.11688e-15
9.10021e-16
4.74485e-15
2.43871e-14
9.21789e-14
2.60256e-13
5.15734e-13
1.09161e-12
1.37093e-12
4.65509e-15
1.30894e-14
1.41491e-14
1.46219e-14
1.57691e-14
1.54056e-14
1.2052e-14
7.6821e-15
3.83975e-15
1.45659e-15
4.28326e-16
3.40192e-16
2.06931e-15
1.29222e-14
6.05939e-14
2.01493e-13
4.64591e-13
8.86984e-13
1.26642e-12
2.87576e-15
5.19175e-15
6.97352e-15
7.79473e-15
7.97142e-15
7.22984e-15
5.36757e-15
3.23903e-15
1.5554e-15
5.61955e-16
1.55885e-16
9.99348e-17
6.30417e-16
4.60889e-15
2.63972e-14
1.0947e-13
3.22692e-13
6.92883e-13
1.08359e-12
1.56926e-15
2.42519e-15
3.20676e-15
3.55942e-15
3.50936e-15
3.02618e-15
2.15745e-15
1.25518e-15
5.83686e-16
2.03853e-16
5.43607e-17
2.56232e-17
1.4645e-16
1.18332e-15
7.89757e-15
4.05883e-14
1.52584e-13
4.06076e-13
7.39881e-13
7.10903e-16
1.02161e-15
1.29233e-15
1.41419e-15
1.35945e-15
1.14092e-15
7.86103e-16
4.46748e-16
2.01476e-16
6.85994e-17
1.7726e-17
6.11811e-18
2.75892e-17
2.38925e-16
1.7847e-15
1.06292e-14
4.82123e-14
1.58833e-13
3.39815e-13
2.61026e-16
3.63801e-16
4.56472e-16
4.96e-16
4.67321e-16
3.88173e-16
2.60044e-16
1.45423e-16
6.37098e-17
2.12408e-17
5.33157e-18
1.42098e-18
4.26702e-18
3.79495e-17
3.09113e-16
2.06485e-15
1.08039e-14
4.20151e-14
9.98998e-14
)
;

boundaryField
{
    leftWall
    {
        type            zeroGradient;
    }
    rightWall
    {
        type            zeroGradient;
    }
    lowerWall
    {
        type            zeroGradient;
    }
    atmosphere
    {
        type            inletOutlet;
        inletValue      nonuniform 0();
        value           nonuniform 0();
    }
    defaultFaces
    {
        type            empty;
    }
    procBoundary1to0
    {
        type            processor;
        value           nonuniform List<scalar> 
26
(
5.77217e-11
7.88699e-09
2.68952e-06
3.13698e-05
0.00201778
0.0199641
0.0898061
0.186051
0.343565
0.392675
0.343165
0.226365
0.0939401
0.0188905
0.00118841
1.05935e-05
6.36597e-09
6.36597e-09
7.03576e-11
6.77529e-12
9.81113e-13
1.75382e-13
4.69126e-14
1.68287e-14
2.59378e-15
3.23119e-16
)
;
    }
    procBoundary1to3
    {
        type            processor;
        value           nonuniform List<scalar> 
23
(
6.78716e-17
6.49504e-17
5.56488e-17
6.48433e-17
7.78667e-17
1.10783e-16
1.41944e-16
1.53246e-16
1.43881e-16
1.19286e-16
7.79561e-17
4.31579e-17
1.83652e-17
6.00852e-18
1.46378e-18
3.26003e-19
5.72818e-19
4.89918e-18
4.23924e-17
3.08944e-16
1.79742e-15
7.8773e-15
1.98684e-14
)
;
    }
}


// ************************************************************************* //
