/*--------------------------------*- C++ -*----------------------------------*\
| =========                 |                                                 |
| \\      /  F ield         | OpenFOAM: The Open Source CFD Toolbox           |
|  \\    /   O peration     | Version:  2.4.0                                 |
|   \\  /    A nd           | Web:      www.OpenFOAM.org                      |
|    \\/     M anipulation  |                                                 |
\*---------------------------------------------------------------------------*/
FoamFile
{
    version     2.0;
    format      ascii;
    class       volScalarField;
    location    "0.25";
    object      alpha.oil;
}
// * * * * * * * * * * * * * * * * * * * * * * * * * * * * * * * * * * * * * //

dimensions      [0 0 0 0 0 0 0];

internalField   nonuniform List<scalar> 
559
(
0.000227556
0.000277494
0.000327118
0.000365192
0.000418612
0.000597289
0.00176063
0.00511468
0.999912
0.999798
0.999727
0.999734
0.999803
0.999804
0.999791
0.999863
0.999855
0.999902
0.999958
0.999939
0.999182
0.988408
0.991924
0.996282
0.976873
0.847648
0.973129
0.999952
0.999959
0.999973
0.999983
0.999983
0.999979
0.999989
0.999997
1
1
1
0.999962
0.999626
0.999635
0.999577
0.999086
0.977992
0.847914
0.933189
0.999973
0.999973
0.999973
0.999971
0.999973
0.999961
0.999954
0.999973
0.999994
1
1
1
1
1
0.999999
0.999955
0.985654
0.927679
0.951138
0.99997
0.997463
0.959842
0.998116
0.999927
0.999941
0.999933
0.99995
0.999983
0.999998
1
1
1
1
1
0.999996
0.996368
0.98422
0.983492
0.998899
0.863803
0.203955
0.871511
0.998748
0.999825
0.999917
0.999935
0.999975
0.999996
1
1
1
1
1
0.999999
0.999724
0.998196
0.997117
0.988682
0.363759
0.00590735
0.222631
0.964779
0.999295
0.999893
0.999921
0.99997
0.999991
0.999997
0.999999
1
1
1
1
0.999995
0.999902
0.999694
0.99012
0.133053
0.000715359
0.0289552
0.74366
0.997731
0.999853
0.999907
0.999966
0.999977
0.999985
0.999996
1
1
1
1
1
0.999999
0.999982
0.992433
0.11716
0.000733546
0.00375271
0.612666
0.995522
0.999747
0.999891
0.999957
0.999948
0.99997
0.999992
0.999999
1
1
1
1
1
1
0.0642064
0.238758
0.49806
0.739998
0.902217
0.981155
0.998926
0.999991
0.210495
0.0390348
0.0228371
0.358773
0.261971
0.314327
0.441766
0.388825
0.411404
0.443961
0.517732
0.596812
0.672735
0.616842
0.622636
0.643366
0.877771
0.837724
0.795252
0.765817
0.97567
0.962191
0.937936
0.906638
0.99849
0.996942
0.992526
0.982776
0.999985
0.999955
0.999812
0.999184
1
1
1
0.999994
0.999912
0.999862
0.999731
0.998943
0.928951
0.898159
0.878576
0.807173
0.0529289
0.0123976
0.000904999
3.37386e-05
0.000140278
3.30437e-05
8.69452e-07
4.24224e-08
5.34311e-07
5.45768e-07
2.33815e-07
8.26136e-08
1.40754e-07
1.44072e-07
9.47039e-08
5.96369e-08
5.671e-08
5.07262e-08
3.85635e-08
2.62734e-08
1.76471e-08
1.72122e-08
1.35765e-08
1.03197e-08
0.857537
0.0308871
0.000716713
0.0649008
0.782116
0.994675
0.999206
0.999719
0.999611
0.996983
0.982836
0.951913
0.881447
0.835957
0.78244
0.869825
0.987806
0.999637
0.999997
0.155283
0.00830201
0.00552317
0.337726
0.924297
0.994348
0.997858
0.998161
0.979984
0.864637
0.607291
0.321468
0.094604
0.0144086
0.0277346
0.102461
0.633518
0.987478
0.999957
0.39769
0.190712
0.332547
0.818729
0.974213
0.987251
0.993705
0.972893
0.723614
0.250583
0.0296289
0.00130709
2.67351e-05
1.1672e-05
4.46363e-05
0.000707789
0.0959159
0.926039
0.999446
0.681975
0.748575
0.854014
0.923916
0.955058
0.979149
0.97875
0.778182
0.211479
0.0123381
0.00014473
3.8741e-06
4.7794e-06
4.62207e-06
5.71874e-06
4.3695e-06
0.00246438
0.688579
0.991631
0.778165
0.819732
0.867174
0.911821
0.948202
0.972457
0.889136
0.346585
0.026444
0.000279055
4.53823e-06
3.74144e-06
3.02962e-06
2.94498e-06
3.31406e-06
4.30912e-06
1.25041e-05
0.327432
0.972455
0.882682
0.888171
0.909561
0.939845
0.960053
0.933497
0.546935
0.0780769
0.00161869
4.88054e-06
2.89046e-06
2.39736e-06
2.02392e-06
2.0506e-06
2.70967e-06
4.11436e-06
4.2296e-06
0.171508
0.979908
0.965606
0.964078
0.969125
0.975569
0.96719
0.690935
0.137693
0.00496128
2.04182e-05
2.54765e-06
1.99985e-06
1.59251e-06
1.43245e-06
1.62588e-06
2.30933e-06
3.69591e-06
4.43275e-06
0.155591
0.985831
0.996497
0.995203
0.995266
0.986007
0.766311
0.18495
0.00607925
1.13972e-05
1.96224e-06
1.68823e-06
1.32652e-06
1.04541e-06
1.00776e-06
1.30089e-06
2.00635e-06
3.29242e-06
4.39319e-06
0.10445
0.985831
0.999935
0.998918
0.972702
0.686922
0.124658
0.00249696
2.75897e-06
1.47337e-06
1.37992e-06
1.12554e-06
8.43591e-07
6.62824e-07
6.97581e-07
1.05801e-06
1.84038e-06
3.17495e-06
4.40457e-06
0.0308079
0.956369
0.989926
0.873159
0.354018
0.023142
8.20408e-05
1.03698e-06
9.40488e-07
9.89238e-07
9.00312e-07
7.02468e-07
5.08008e-07
4.01727e-07
4.72925e-07
8.67871e-07
1.75155e-06
3.31208e-06
4.66814e-06
0.00326228
0.795649
0.367155
0.0254753
8.74952e-05
1.64817e-05
3.94056e-07
4.79448e-07
6.10481e-07
6.24467e-07
5.44895e-07
4.09096e-07
2.88482e-07
2.29784e-07
3.00546e-07
6.66362e-07
1.57396e-06
3.23049e-06
4.88607e-06
9.9312e-05
0.371074
6.63848e-06
3.12356e-05
9.86437e-07
4.4053e-08
1.90202e-07
2.95782e-07
3.6262e-07
3.61161e-07
3.04202e-07
2.23229e-07
1.54304e-07
1.22033e-07
1.68809e-07
4.40604e-07
1.25952e-06
2.89748e-06
4.59873e-06
4.97287e-06
0.0610941
3.59529e-08
3.84892e-08
3.23215e-08
3.90284e-08
1.02728e-07
1.61428e-07
1.92968e-07
1.90089e-07
1.58104e-07
1.14262e-07
7.75989e-08
5.98249e-08
8.08564e-08
2.37821e-07
8.62267e-07
2.36807e-06
3.85025e-06
4.86701e-05
0.00271114
3.21045e-08
1.4186e-08
1.55279e-08
2.65814e-08
5.06085e-08
7.67808e-08
9.22223e-08
9.1502e-08
7.66665e-08
5.48457e-08
3.66879e-08
2.7294e-08
3.29963e-08
9.29119e-08
4.04993e-07
1.70736e-06
5.85554e-06
4.40375e-05
3.35515e-05
2.79878e-08
8.17489e-09
7.36537e-09
1.24675e-08
2.16242e-08
3.2466e-08
3.98095e-08
4.04106e-08
3.43011e-08
2.45482e-08
1.6341e-08
1.18079e-08
1.25339e-08
2.92142e-08
1.22019e-07
5.64523e-07
2.48986e-06
7.29812e-06
3.59031e-06
1.90439e-08
4.89713e-09
2.98051e-09
4.75097e-09
8.06591e-09
1.23392e-08
1.55849e-08
1.63458e-08
1.40559e-08
1.01175e-08
6.73088e-09
4.7733e-09
4.56405e-09
8.49434e-09
3.17014e-08
1.42741e-07
5.82711e-07
1.77856e-06
1.94173e-06
7.8893e-09
2.3152e-09
1.0638e-09
1.55432e-09
2.65988e-09
4.23442e-09
5.58446e-09
6.2652e-09
5.1683e-09
3.63497e-09
2.51993e-09
1.77051e-09
1.56309e-09
2.30803e-09
7.13527e-09
3.12516e-08
1.31225e-07
4.31492e-07
6.6587e-07
)
;

boundaryField
{
    leftWall
    {
        type            zeroGradient;
    }
    rightWall
    {
        type            zeroGradient;
    }
    lowerWall
    {
        type            zeroGradient;
    }
    atmosphere
    {
        type            inletOutlet;
        inletValue      nonuniform 0();
        value           nonuniform 0();
    }
    defaultFaces
    {
        type            empty;
    }
    procBoundary1to0
    {
        type            processor;
        value           nonuniform List<scalar> 
26
(
0.000100448
0.000108337
0.000121602
0.000168952
0.00150764
0.0117791
0.0477184
0.111734
0.252408
0.438477
0.605896
0.762583
0.904323
0.980957
0.998806
0.999989
1
1
0.99998
0.974813
0.255315
1.59824e-05
2.71726e-07
1.01144e-07
5.55409e-08
3.34595e-08
)
;
    }
    procBoundary1to3
    {
        type            processor;
        value           nonuniform List<scalar> 
23
(
9.20061e-09
6.57731e-09
5.7905e-09
4.16079e-09
3.26649e-09
8.06099e-10
3.23108e-10
4.41475e-10
7.83108e-10
1.30805e-09
1.80117e-09
2.12093e-09
1.85595e-09
1.1756e-09
8.00579e-10
5.94849e-10
4.96677e-10
6.02323e-10
1.43947e-09
5.75227e-09
2.45645e-08
8.6646e-08
1.54772e-07
)
;
    }
}


// ************************************************************************* //
