/*--------------------------------*- C++ -*----------------------------------*\
| =========                 |                                                 |
| \\      /  F ield         | OpenFOAM: The Open Source CFD Toolbox           |
|  \\    /   O peration     | Version:  2.4.0                                 |
|   \\  /    A nd           | Web:      www.OpenFOAM.org                      |
|    \\/     M anipulation  |                                                 |
\*---------------------------------------------------------------------------*/
FoamFile
{
    version     2.0;
    format      ascii;
    class       volScalarField;
    location    "0.25";
    object      alpha.mercury;
}
// * * * * * * * * * * * * * * * * * * * * * * * * * * * * * * * * * * * * * //

dimensions      [0 0 0 0 0 0 0];

internalField   nonuniform List<scalar> 
559
(
0.999772
0.999722
0.999672
0.999633
0.999568
0.999254
0.997129
0.990809
2.69548e-09
1.12438e-07
6.67407e-07
1.81936e-06
2.6079e-06
2.65026e-06
8.98137e-07
3.09561e-07
2.71117e-08
1.09089e-08
3.63076e-09
9.25767e-10
3.09039e-10
1.49867e-10
6.80082e-11
2.75404e-11
1.89486e-11
1.03385e-11
3.90349e-12
1.00594e-08
5.15958e-07
3.94445e-06
1.00983e-05
1.45728e-05
1.87025e-05
1.12247e-05
3.72132e-06
5.29677e-07
1.80121e-07
4.71618e-08
1.55331e-08
4.39807e-09
1.39399e-09
5.77086e-10
2.59787e-10
8.21145e-11
1.98624e-11
7.58484e-12
1.87861e-07
1.5876e-06
5.09892e-06
1.1035e-05
2.26389e-05
3.67496e-05
4.61858e-05
2.72402e-05
5.63239e-06
4.51155e-07
8.05332e-08
4.41987e-08
1.78681e-08
6.29875e-09
2.12519e-09
7.57943e-10
2.28065e-10
3.87751e-11
1.44315e-11
1.10545e-07
8.53903e-07
2.44312e-06
5.53372e-06
1.10296e-05
3.35337e-05
6.56069e-05
5.06068e-05
1.66279e-05
1.59941e-06
1.00663e-07
3.80126e-08
2.39854e-08
9.66071e-09
4.71251e-09
2.27837e-09
7.52126e-10
1.24002e-10
1.48481e-11
3.95763e-08
1.73524e-07
2.64072e-07
1.21241e-06
3.52238e-06
2.97297e-05
7.99423e-05
6.49336e-05
2.46806e-05
3.58389e-06
3.50275e-07
9.56989e-08
4.24778e-08
2.45995e-08
8.21955e-09
2.09165e-09
7.21918e-10
2.04363e-10
2.26573e-11
1.2967e-08
9.02921e-09
1.66401e-09
2.29432e-08
5.09197e-07
3.00354e-05
0.000101152
7.94255e-05
3.02406e-05
8.52888e-06
3.37885e-06
1.04031e-06
2.49105e-07
1.1101e-07
3.39775e-08
3.68531e-09
5.95081e-10
2.10989e-10
3.11727e-11
3.25175e-09
3.37406e-10
6.40702e-12
2.10946e-12
1.16273e-08
3.88527e-05
0.00013742
9.25633e-05
3.34688e-05
2.34174e-05
1.47317e-05
4.56241e-06
6.31603e-07
2.46124e-07
5.82566e-08
9.86205e-09
7.9823e-10
1.98074e-10
3.39659e-11
7.82633e-12
7.77172e-12
6.2663e-12
1.18226e-13
-1.31592e-12
0.000134249
0.00024166
0.000108672
4.33581e-05
5.16348e-05
3.06687e-05
7.96801e-06
9.22269e-07
2.73146e-07
5.46137e-08
7.9898e-09
1.55525e-09
2.92648e-10
3.73367e-11
0.892093
0.643891
0.341555
0.124448
0.0320333
0.00524772
0.000361066
4.12647e-06
0.763025
0.0434787
0.000204374
0.000117019
0.714412
0.521764
0.176254
0.0249122
0.549068
0.534994
0.451394
0.303321
0.269346
0.360645
0.371137
0.3535
0.0829654
0.141868
0.197359
0.232896
0.014817
0.0309436
0.0584057
0.0924015
0.0010715
0.00266259
0.00717176
0.0170996
1.27239e-05
4.32254e-05
0.000186059
0.000815218
2.55909e-08
6.26534e-08
3.61538e-07
5.89226e-06
4.81835e-12
5.43069e-12
1.15849e-09
2.56297e-08
1.95886e-19
1.70209e-19
2.73789e-17
3.08517e-16
1.26319e-18
5.57719e-17
1.93918e-15
5.97566e-15
4.19301e-17
1.3212e-16
5.32796e-16
4.43785e-16
2.30661e-17
5.52636e-17
1.1456e-16
3.17602e-16
2.05919e-17
3.52162e-17
6.27032e-17
1.24827e-16
1.06975e-17
1.66038e-17
2.54359e-17
4.03406e-17
4.03318e-18
5.86937e-18
8.37754e-18
1.19367e-17
5.41941e-06
5.01881e-10
2.46075e-09
5.82951e-06
0.000599844
0.00143933
0.000785091
0.000275219
0.000193936
0.000127344
3.99833e-05
4.86043e-06
2.17003e-07
5.32304e-09
2.60724e-09
8.41164e-10
4.13833e-10
1.70203e-10
3.77336e-11
0.00118799
1.02683e-05
5.60824e-06
0.000828184
0.0062012
0.00489561
0.00213311
0.00104283
0.000646147
0.000227599
2.95607e-05
9.14065e-07
5.69098e-09
7.57136e-12
3.26788e-12
7.69024e-12
2.86439e-11
5.18344e-11
3.06438e-11
0.112427
0.0188578
0.0122485
0.0216278
0.0205052
0.0126187
0.00588112
0.00338857
0.00138071
0.000203045
5.99726e-06
2.25456e-08
9.09991e-12
1.26876e-12
8.50197e-13
1.13723e-12
1.32706e-12
1.53185e-11
1.84231e-11
0.278002
0.167738
0.109806
0.0733178
0.0448352
0.02072
0.0123693
0.00677721
0.0014962
6.20349e-05
3.2748e-07
1.42852e-09
4.96444e-11
2.35048e-12
3.44081e-13
8.51673e-13
1.1101e-12
4.70133e-12
9.30817e-12
0.221279
0.179751
0.132722
0.0881539
0.0517299
0.0255486
0.0169227
0.00751849
0.000830185
1.12341e-05
6.8495e-08
1.01299e-11
8.663e-14
1.4586e-13
1.48133e-13
6.23672e-13
1.00274e-12
3.87845e-12
7.79971e-12
0.117192
0.111812
0.0904343
0.0601358
0.0381458
0.0256197
0.0166328
0.00392099
0.000196106
7.46019e-07
1.79657e-10
6.47312e-14
5.33636e-14
8.0384e-14
1.49104e-13
4.86168e-13
8.65499e-13
3.38332e-12
6.78968e-12
0.0343728
0.0359198
0.0308746
0.023371
0.0149753
0.0120515
0.0044665
0.000573108
1.50864e-05
1.32858e-07
5.23935e-14
3.53072e-14
4.44323e-14
8.9265e-14
1.76229e-13
3.87103e-13
7.14183e-13
2.98073e-12
5.73204e-12
0.00350217
0.0047809
0.00439329
0.00292629
0.00267787
0.00138082
0.000253537
3.00036e-05
1.12829e-06
1.10039e-10
2.7133e-14
2.13017e-14
3.92051e-14
9.61545e-14
2.06629e-13
3.85048e-13
6.32749e-13
2.71039e-12
4.62927e-12
5.93857e-05
9.02262e-05
0.000123621
0.000106078
5.31299e-05
1.08151e-05
6.15922e-07
1.43041e-08
1.65642e-10
2.35878e-14
1.39194e-14
1.35136e-14
3.44221e-14
9.86962e-14
2.27158e-13
4.40415e-13
6.2882e-13
2.41111e-12
3.56826e-12
5.08001e-08
1.11285e-07
2.28884e-07
6.21867e-08
1.88252e-09
7.12559e-10
2.08197e-09
4.98496e-10
6.59796e-12
1.23097e-14
6.86947e-15
8.50766e-15
2.877e-14
9.53235e-14
2.3871e-13
4.89419e-13
6.81266e-13
1.98478e-12
2.71651e-12
1.15357e-15
6.10609e-15
2.34833e-13
3.90878e-12
8.61698e-11
2.30429e-10
3.50414e-10
3.95303e-11
3.37971e-13
5.99473e-15
3.19775e-15
4.92441e-15
2.11685e-14
8.2692e-14
2.36423e-13
5.24623e-13
7.83126e-13
1.66124e-12
2.15177e-12
1.51923e-14
5.45759e-14
4.53001e-13
3.75195e-12
2.07375e-11
4.45429e-11
5.48103e-11
3.48882e-12
2.21544e-14
2.74609e-15
1.38068e-15
2.38943e-15
1.25546e-14
5.95177e-14
2.07753e-13
5.27844e-13
8.87993e-13
1.36572e-12
1.60505e-12
2.75747e-15
2.62146e-14
1.71625e-13
8.9697e-13
3.37066e-12
6.80453e-12
7.27445e-12
3.01614e-13
3.27063e-15
1.18964e-15
5.48759e-16
9.07557e-16
5.51154e-15
3.187e-14
1.39866e-13
4.32321e-13
8.88228e-13
1.22378e-12
2.59212e-12
1.18452e-15
6.95551e-15
3.44075e-14
1.39991e-13
4.30297e-13
8.21883e-13
8.2969e-13
2.45229e-14
1.03547e-15
4.8802e-16
2.04487e-16
2.70986e-16
1.7276e-15
1.16591e-14
6.28566e-14
2.47408e-13
6.88774e-13
1.36579e-12
2.32956e-12
2.78125e-16
1.1384e-15
4.60689e-15
1.60218e-14
4.48224e-14
8.36092e-14
8.33079e-14
2.25967e-15
3.90943e-16
1.88386e-16
7.32371e-17
7.01878e-17
4.19973e-16
3.10359e-15
1.94371e-14
9.5055e-14
3.42803e-13
8.80067e-13
1.63792e-12
6.63735e-17
1.80971e-16
5.33309e-16
1.56287e-15
4.05097e-15
7.57508e-15
7.60739e-15
3.35501e-16
1.42175e-16
6.76061e-17
2.47824e-17
1.6755e-17
8.41067e-17
6.55295e-16
4.55978e-15
2.57458e-14
1.12051e-13
3.58212e-13
7.67628e-13
1.70517e-17
3.50726e-17
7.48063e-17
1.65989e-16
3.65197e-16
6.65915e-16
6.8003e-16
8.31388e-17
4.77946e-17
2.23876e-17
7.82608e-18
3.87275e-18
1.41395e-17
1.10084e-16
8.25332e-16
5.19134e-15
2.59349e-14
9.75376e-14
2.29749e-13
)
;

boundaryField
{
    leftWall
    {
        type            zeroGradient;
    }
    rightWall
    {
        type            zeroGradient;
    }
    lowerWall
    {
        type            zeroGradient;
    }
    atmosphere
    {
        type            inletOutlet;
        inletValue      nonuniform 0();
        value           nonuniform 0();
    }
    defaultFaces
    {
        type            empty;
    }
    procBoundary1to0
    {
        type            processor;
        value           nonuniform List<scalar> 
26
(
0.999899
0.999891
0.999875
0.999799
0.996474
0.968256
0.862475
0.702214
0.404026
0.168847
0.0509381
0.0110521
0.00173674
0.000152304
5.25635e-06
3.73382e-08
1.28239e-08
1.28239e-08
3.96126e-12
1.72441e-19
1.90691e-18
1.00036e-17
7.08019e-18
8.92962e-18
4.58936e-18
1.80912e-18
)
;
    }
    procBoundary1to3
    {
        type            processor;
        value           nonuniform List<scalar> 
23
(
1.04233e-18
1.51299e-18
2.18017e-18
3.09622e-18
4.32729e-18
8.25015e-18
1.49959e-17
2.55343e-17
4.37172e-17
6.96645e-17
7.13326e-17
2.40878e-17
1.46973e-17
6.79558e-18
2.27974e-18
8.93497e-19
2.12417e-18
1.52622e-17
1.19227e-16
8.1065e-16
4.47155e-15
1.88284e-14
4.65724e-14
)
;
    }
}


// ************************************************************************* //
