/*--------------------------------*- C++ -*----------------------------------*\
| =========                 |                                                 |
| \\      /  F ield         | OpenFOAM: The Open Source CFD Toolbox           |
|  \\    /   O peration     | Version:  2.4.0                                 |
|   \\  /    A nd           | Web:      www.OpenFOAM.org                      |
|    \\/     M anipulation  |                                                 |
\*---------------------------------------------------------------------------*/
FoamFile
{
    version     2.0;
    format      ascii;
    class       volScalarField;
    location    "0.25";
    object      p;
}
// * * * * * * * * * * * * * * * * * * * * * * * * * * * * * * * * * * * * * //

dimensions      [1 -1 -2 0 0 0 0];

internalField   nonuniform List<scalar> 
559
(
12817.8
11925.4
10929.8
9738.08
8349.89
6720.25
4924.66
3032.67
762.451
17.4994
-307.559
-199.806
113.04
436.997
654.243
845.604
917.956
924.438
908.907
899.766
920.321
993.01
1118.08
1293.97
1502.15
1644.7
1749.13
565.114
-144.298
-406.695
-314.84
26.9136
372.283
614.107
793.815
873.647
881.956
866.836
858.764
875.634
946.805
1072.94
1251.71
1452.81
1603.2
1711.44
229.599
-349.421
-545.164
-434.157
-92.581
276.253
549.05
725.571
813.793
825.889
812.599
805.519
825.107
896.451
1018.93
1198.09
1408.55
1579.09
1711.56
-111.353
-542.895
-700.159
-500.829
-194.336
167.768
458.652
642.682
740.53
758.661
747.418
737.404
754.32
822.336
943.329
1124.7
1341.05
1540.59
1694.23
-431.262
-724.034
-731.509
-665.244
-266.005
67.1276
354.929
550.165
655.494
681.537
673.031
658.774
673.404
733.208
849.642
1034.03
1263.79
1485.14
1663.68
-644.852
-742.664
-736.479
-733.928
-490.619
-27.0466
248.736
452.966
563.703
596.597
588.338
571.45
579.17
626.495
737.147
919.484
1165.61
1409.71
1618.67
-698.675
-742.258
-735.686
-742.134
-648.808
-139.764
150.553
356.088
468.418
505.162
492.918
473.791
474.207
501.475
599.436
776.146
1030.73
1320.85
1546.06
-690.645
-741.455
-736.157
-741.469
-684.924
-248.345
67.2327
264.319
372.945
404.994
382.187
354.658
352.014
372.842
430.705
596.96
885.301
1206.71
1451.78
406.493
905.046
741.818
530.405
429.103
400.737
382.092
327.505
-702.984
-696.141
-691.799
-706.273
6.54271
-373.961
-527.353
-600.097
295.625
16.0048
-181.886
-383.158
322.667
147.242
-39.5498
-210.856
337.806
261.063
155.644
31.2427
361.68
320.991
265.563
200.116
351.358
320.698
286.876
250.083
303.197
283.711
262.232
235.285
226.726
211.614
194.002
175.213
162.498
143.244
125.835
106.663
20.2993
7.98381
5.97582
8.31879
2.87909
2.92592
2.98316
2.85285
2.65348
3.05873
3.2928
3.2456
3.20147
3.15569
3.11274
3.02782
2.91346
2.99831
3.02428
3.02568
2.95635
2.93752
2.91706
2.89829
2.81381
2.8141
2.80855
2.7985
-729.932
-738.143
-736.467
-740.937
-690.306
-360.644
-46.9985
129.006
221.613
233.913
175.997
111.316
76.3031
39.7209
49.6362
161.022
626.679
950.32
1271.22
-721.733
-737.316
-735.678
-736.195
-698.099
-427.698
-164.111
-8.62985
40.6647
38.4034
23.4699
5.34847
1.09031
0.778399
1.98639
9.30691
119.486
545.707
855.26
-660.291
-732.03
-734.691
-726.01
-649.575
-416.52
-198.231
-48.8386
0.512432
2.88226
1.86068
2.04894
2.81504
3.34961
2.96348
2.49216
8.24046
123.493
430.602
-497.341
-692.072
-707.485
-633.784
-511.651
-320.831
-143.414
-23.6682
1.90837
2.47815
2.43149
2.42786
2.1851
1.81606
1.74336
2.56562
0.199263
20.0404
157.901
-174.333
-362.748
-420.28
-393.215
-298.256
-176.59
-45.4681
-0.93037
2.86199
2.43326
2.27869
2.1339
2.05777
2.10961
1.90016
2.31135
1.38409
0.545848
51.9354
74.079
-66.9978
-143.237
-158.236
-114.278
-45.5706
-2.18053
2.67625
2.80674
2.56301
2.3622
2.18983
2.11315
1.8322
1.73317
1.99333
2.0217
1.74675
37.1706
180.627
95.76
29.9219
-5.13917
-3.12167
1.31296
2.66977
2.90687
2.81084
2.55892
2.33429
2.12071
2.05877
1.67217
1.82953
1.79084
1.7944
3.73775
56.7127
184.259
105.855
54.4562
38.667
9.90794
3.52378
3.06765
2.95879
2.75478
2.51602
2.28702
2.05705
1.9282
1.39689
1.64954
1.26987
0.958438
1.12831
47.7699
142.78
91.3528
42.9011
8.96812
4.03712
3.20166
3.10566
2.8952
2.69526
2.47222
2.23675
1.99149
1.75835
1.17533
1.51433
0.396681
0.833523
-1.12601
14.6745
57.9595
13.7846
4.58064
3.39627
3.23571
3.19652
3.02591
2.83901
2.64357
2.43015
2.19666
1.92792
1.58558
1.05127
1.20507
-0.713091
0.260453
-2.00065
-0.179625
4.92733
3.21713
2.88845
3.28722
3.257
3.10413
2.94059
2.77991
2.60099
2.40473
2.18028
1.90751
1.54125
1.05782
0.732575
-1.83473
-0.874562
-3.17971
-5.18265
2.69699
3.17035
3.35686
3.167
3.1195
3.00007
2.86852
2.725
2.56921
2.39598
2.19542
1.94969
1.6281
1.20386
0.487196
-1.39391
-1.37148
-4.70609
-4.59521
3.26632
3.15279
3.10487
3.05832
2.99478
2.90453
2.79685
2.67827
2.54763
2.40367
2.23905
2.04308
1.79718
1.4647
0.86066
-0.103251
-0.500365
-3.61557
5.01526
2.93659
3.00272
2.98824
2.95047
2.8941
2.82012
2.73352
2.6378
2.53414
2.42255
2.30031
2.16373
2.0053
1.80756
1.51639
1.13476
0.841796
0.28457
5.2002
2.99908
2.94085
2.89878
2.85632
2.80583
2.74512
2.67638
2.60198
2.52458
2.44529
2.36546
2.2877
2.21529
2.15511
2.12059
2.16367
2.46338
3.39013
5.37783
2.87128
2.844
2.80851
2.76961
2.72546
2.67607
2.62311
2.56798
2.51438
2.46463
2.4227
2.39528
2.39211
2.43146
2.54679
2.80118
3.32225
4.38526
5.34773
2.77919
2.75104
2.71956
2.68613
2.64925
2.60991
2.57102
2.53257
2.49946
2.47457
2.46324
2.47381
2.51794
2.61505
2.79519
3.10037
3.58557
4.34249
4.85454
)
;

boundaryField
{
    leftWall
    {
        type            fixedFluxPressure;
        gradient        nonuniform 0();
        value           nonuniform 0();
    }
    rightWall
    {
        type            fixedFluxPressure;
        gradient        uniform 0;
        value           nonuniform List<scalar> 
25
(
1749.13
1711.44
1711.56
1694.23
1663.68
1618.67
1546.06
1451.78
1271.22
855.26
430.602
157.901
51.9354
37.1706
56.7127
47.7699
14.6745
-0.179625
-5.18265
-4.59521
5.01526
5.2002
5.37783
5.34773
4.85454
)
;
    }
    lowerWall
    {
        type            fixedFluxPressure;
        gradient        nonuniform List<scalar> 
40
(
132464
0
0
0
0
0
0
0
0
8479.38
11.7928
10.0525
33.2192
0
0
0
0
0
0
0
0
4902.59
4896.39
4879.76
4887.01
4895.87
4894.98
4892.13
4898.01
4894.61
4899
4903.44
4902.49
4759.35
3392.7
3898.82
4440.86
2932.11
588.135
2173.18
)
;
        value           nonuniform List<scalar> 
40
(
13215.2
12817.8
11925.4
10929.8
9738.08
8349.89
6720.25
4924.66
3032.67
-648.877
-696.066
-691.735
-706.061
762.451
565.114
229.599
-111.353
-431.262
-644.852
-698.675
-690.645
777.159
32.1882
-292.92
-185.145
127.727
451.682
668.919
860.297
932.64
939.134
923.617
914.473
934.599
1003.19
1129.78
1307.29
1510.95
1646.47
1755.65
)
;
    }
    atmosphere
    {
        type            totalPressure;
        U               U.air;
        phi             phi.air;
        rho             rho;
        psi             none;
        gamma           1;
        p0              nonuniform 0();
        value           nonuniform 0();
    }
    defaultFaces
    {
        type            empty;
    }
    procBoundary1to0
    {
        type            processor;
        value           nonuniform List<scalar> 
26
(
11553.6
10729.6
9522.51
8199.24
6664.87
4934.1
3405.36
2646.34
1746.41
1225.25
876.59
610.404
475.848
429.463
386.347
330.76
248.578
248.578
181.074
46.8839
3.9272
2.54954
3.26647
2.76564
2.99522
2.80503
)
;
    }
    procBoundary1to3
    {
        type            processor;
        value           nonuniform List<scalar> 
23
(
2.73369
2.72386
2.7143
2.70431
2.68739
2.6607
2.63327
2.60468
2.57433
2.54447
2.51732
2.49291
2.47656
2.47111
2.48229
2.51816
2.5893
2.71107
2.90315
3.18599
3.56948
4.05845
4.34308
)
;
    }
}


// ************************************************************************* //
