/*--------------------------------*- C++ -*----------------------------------*\
| =========                 |                                                 |
| \\      /  F ield         | OpenFOAM: The Open Source CFD Toolbox           |
|  \\    /   O peration     | Version:  2.4.0                                 |
|   \\  /    A nd           | Web:      www.OpenFOAM.org                      |
|    \\/     M anipulation  |                                                 |
\*---------------------------------------------------------------------------*/
FoamFile
{
    version     2.0;
    format      ascii;
    class       surfaceScalarField;
    location    "0.25";
    object      phi;
}
// * * * * * * * * * * * * * * * * * * * * * * * * * * * * * * * * * * * * * //

dimensions      [0 3 -1 0 0 0 0];

internalField   nonuniform List<scalar> 
1061
(
1.9511e-05
4.0935e-05
6.44284e-05
8.97562e-05
0.000117421
0.000141115
0.000164739
0.000185728
-0.000114714
0.000114714
-0.00016763
5.29155e-05
-0.000181662
1.40321e-05
-0.00015522
-2.64421e-05
-0.000114435
-4.07846e-05
-7.36015e-05
-4.08338e-05
-3.86747e-05
-3.49268e-05
1.60383e-06
-4.02785e-05
3.41568e-05
-3.25529e-05
6.0911e-05
-2.67543e-05
8.09094e-05
-1.99984e-05
9.43523e-05
-1.34429e-05
9.86429e-05
-4.29055e-06
9.51163e-05
3.52661e-06
8.43654e-05
1.07509e-05
6.55965e-05
1.87688e-05
3.52495e-05
3.0347e-05
1.04884e-05
2.47611e-05
1.04884e-05
-0.000104794
0.000219509
-0.000155499
0.00010362
-0.000155902
1.44356e-05
-0.000142944
-3.94006e-05
-0.000110467
-7.32608e-05
-5.91599e-05
-9.21413e-05
-1.88109e-05
-7.52758e-05
1.7538e-05
-7.66275e-05
4.81758e-05
-6.31906e-05
7.38844e-05
-5.24629e-05
9.35673e-05
-3.96813e-05
0.000106753
-2.66288e-05
0.000110295
-7.83242e-06
0.000107936
5.8857e-06
9.50905e-05
2.35963e-05
7.78462e-05
3.60132e-05
4.93621e-05
5.88311e-05
1.87482e-05
5.5375e-05
2.92367e-05
-9.01398e-05
0.000309649
-0.000118786
0.000132266
-0.000115868
1.15181e-05
-0.000112056
-4.32128e-05
-9.01767e-05
-9.514e-05
-4.53897e-05
-0.000136928
-4.61638e-06
-0.000116049
2.88919e-05
-0.000110136
5.9397e-05
-9.36958e-05
8.3057e-05
-7.61229e-05
0.000100971
-5.75951e-05
0.000113739
-3.93971e-05
0.000118635
-1.27279e-05
0.000119029
5.4913e-06
0.000106331
3.62944e-05
8.96446e-05
5.26995e-05
6.33348e-05
8.51409e-05
3.20306e-05
8.66791e-05
6.12673e-05
-5.93382e-05
0.000368987
-5.95445e-05
0.000132472
-7.3263e-05
2.52367e-05
-7.61043e-05
-4.03715e-05
-6.06543e-05
-0.00011059
-2.83783e-05
-0.000169204
7.45092e-06
-0.000151878
3.95174e-05
-0.000142202
6.82259e-05
-0.000122404
9.06064e-05
-9.85034e-05
0.000107859
-7.4848e-05
0.000120717
-5.22552e-05
0.000127366
-1.93763e-05
0.000126637
6.22056e-06
0.000117323
4.56084e-05
0.000102051
6.79708e-05
7.55258e-05
0.000111666
4.08948e-05
0.00012131
0.000102162
-3.56645e-05
0.000404651
-3.09188e-05
0.000127726
-5.03539e-05
4.46718e-05
-4.24952e-05
-4.82303e-05
-3.28973e-05
-0.000120188
-1.29902e-05
-0.000189111
2.07287e-05
-0.000185597
4.83834e-05
-0.000169857
7.43471e-05
-0.000148368
9.51356e-05
-0.000119292
0.000111343
-9.10557e-05
0.000123971
-6.48827e-05
0.000131918
-2.7323e-05
0.000132185
5.95349e-06
0.000126199
5.15943e-05
0.00010967
8.44991e-05
8.34219e-05
0.000137915
4.36585e-05
0.000161074
0.000145821
-1.2381e-05
0.000417032
-9.612e-05
0.000211465
-8.11815e-05
2.9733e-05
-6.89172e-05
-6.04947e-05
-9.30307e-06
-0.000179802
2.52421e-06
-0.000200939
3.08296e-05
-0.000213903
5.70733e-05
-0.000196101
8.05442e-05
-0.000171839
0.000100999
-0.000139747
0.00011688
-0.000106936
0.000129692
-7.76948e-05
0.000138577
-3.62086e-05
0.000139522
5.00874e-06
0.000136048
5.50685e-05
0.000117423
0.000103124
8.7541e-05
0.000167797
4.80081e-05
0.000200607
0.000193829
3.23531e-06
0.000413797
-4.28134e-05
0.000257514
-6.83509e-05
5.52703e-05
-4.70333e-05
-8.18124e-05
3.2219e-06
-0.000230057
2.30644e-05
-0.000220781
4.24326e-05
-0.000233271
6.50555e-05
-0.000218724
8.60913e-05
-0.000192875
0.000105619
-0.000159274
0.0001207
-0.000122018
0.000133741
-9.07359e-05
0.000143173
-4.56407e-05
0.000145748
2.43427e-06
0.000143785
5.70312e-05
0.000126828
0.000120081
9.05491e-05
0.000204076
4.57153e-05
0.00024544
0.000239544
8.50215e-06
0.000405295
3.43803e-05
0.000231635
2.40359e-05
6.56145e-05
1.69908e-05
-7.47675e-05
1.19685e-05
-0.000225035
3.77397e-05
-0.000246552
5.30921e-05
-0.000248623
7.35864e-05
-0.000239218
9.32414e-05
-0.00021253
0.000112185
-0.000178218
0.000127273
-0.000137106
0.000137074
-0.000100536
0.000147325
-5.58917e-05
0.00015623
-6.47143e-06
0.00015603
5.72317e-05
0.000138883
0.000137228
0.000105288
0.000237671
5.39479e-05
0.00029678
0.000293492
0.00017338
8.38456e-05
0.00018029
9.6182e-05
0.000202723
0.000128076
0.000208823
0.000177793
0.000186149
0.000205547
0.000139319
0.000191294
9.23299e-05
0.000158915
0.000143392
1.84497e-06
8.20007e-05
-5.00828e-05
5.19278e-05
-4.7505e-05
-2.57782e-06
9.81877e-05
-0.000145693
9.76801e-05
8.05026e-05
7.62448e-05
7.33631e-05
5.93284e-06
6.77341e-05
7.42219e-05
2.98986e-05
0.000128311
8.02668e-05
0.000128146
7.35285e-05
0.000127851
6.80287e-05
6.4294e-05
0.000137779
0.000171355
8.6705e-05
0.000170637
7.42466e-05
0.000172828
6.58378e-05
5.77314e-05
0.00017939
0.000211211
8.10408e-05
0.000212136
7.33216e-05
0.000213746
6.42279e-05
5.42705e-05
0.000217207
0.000212091
6.02433e-05
0.000226397
5.90152e-05
0.000237244
5.33808e-05
4.59229e-05
0.000245592
0.000181118
3.80401e-05
0.000201543
3.85902e-05
0.000219805
3.51183e-05
3.11044e-05
0.000234624
0.000158481
2.29512e-05
0.000174858
2.22125e-05
0.00019025
1.97267e-05
1.58258e-05
0.000205529
0.000152284
9.21669e-06
0.000164756
9.74057e-06
0.000175561
8.92162e-06
4.83223e-06
0.000186554
0.000144517
-2.25853e-06
0.000155691
-1.43348e-06
0.000167828
-3.21559e-06
-9.63256e-06
0.000182293
0.0001413
-8.09507e-06
0.000138169
1.6978e-06
0.000136296
-1.34312e-06
-9.52871e-06
0.000136193
8.53887e-05
3.20802e-05
-1.77425e-06
8.88608e-05
-5.60749e-05
5.29576e-05
2.74511e-06
-6.83487e-05
-8.27732e-05
3.55583e-05
-6.48803e-05
7.09679e-05
-2.81575e-05
1.62349e-05
-1.14179e-05
-1.39945e-05
-4.35372e-05
3.23417e-05
-1.50372e-05
4.24679e-05
-1.64922e-05
1.76899e-05
1.28012e-05
-4.07113e-05
-8.84097e-05
1.67421e-05
-6.50645e-05
1.91228e-05
-6.18883e-05
1.45136e-05
1.34096e-05
-6.24966e-05
-7.81664e-05
1.39709e-05
-7.2988e-05
1.39443e-05
-7.13841e-05
1.29098e-05
1.1998e-05
-6.99725e-05
-8.263e-05
-7.72779e-05
-7.34908e-05
-7.09645e-05
-6.62849e-05
0.000325887
0.000121363
4.39877e-05
0.000200782
-1.38047e-05
0.000140664
-1.46496e-05
0.000108902
-0.000193274
0.000125929
-0.000263579
0.000149745
-0.00027244
0.000180252
-0.000269725
0.000214491
-0.000246769
0.000251993
-0.00021572
0.000283633
-0.000168745
0.000296724
-0.000113628
0.000320353
-7.95204e-05
0.000329181
-1.52992e-05
0.000325309
6.11037e-05
0.000258587
0.00020395
0.000218071
0.000278187
0.000126522
0.000388328
0.000420014
0.000181921
0.000173865
0.000211344
1.45642e-05
0.000151801
4.57382e-05
0.000173335
-3.61834e-05
0.000166535
-0.000186474
0.000169402
-0.000266446
0.000183575
-0.000286613
0.00020337
-0.000289519
0.000227658
-0.000271057
0.000245753
-0.000233816
0.000280723
-0.000203715
0.000303269
-0.000136174
0.00030023
-7.64811e-05
0.000243
4.19305e-05
0.000207149
9.69547e-05
0.000231826
0.000179273
0.000134642
0.000375371
9.39417e-05
0.000429029
0.000513956
0.000200234
0.00011141
0.000157607
5.71914e-05
0.000180117
2.32285e-05
0.000208169
-6.42361e-05
0.000206363
-0.000184667
0.000201356
-0.000261439
0.000201594
-0.000286851
0.000200718
-0.000288643
0.000221151
-0.00029149
0.000264443
-0.000277108
0.000216713
-0.000155985
0.000132598
-5.20595e-05
8.47303e-05
-2.86134e-05
0.000122687
3.97363e-06
0.000159478
6.01637e-05
0.000145011
0.00019374
5.49838e-05
0.000465397
5.72377e-05
0.000426775
0.000571194
0.000189919
0.000100882
0.00019334
5.37705e-05
0.000217228
-6.59503e-07
0.000248214
-9.5222e-05
0.000246267
-0.00018272
0.000228267
-0.000243439
0.000208536
-0.00026712
0.00019254
-0.000272647
0.000184207
-0.000283157
0.00012567
-0.000218571
8.09235e-05
-0.000111238
9.11819e-05
-6.23179e-05
0.000113582
-5.10136e-05
7.29038e-05
4.46519e-05
8.70103e-05
4.60572e-05
5.6733e-05
0.000224018
9.64326e-05
0.000425698
4.34835e-05
0.000479724
0.000614677
0.000224823
9.32661e-05
0.000239507
3.90862e-05
0.000265505
-2.66571e-05
0.000276001
-0.000105719
0.00026377
-0.000170489
0.000237823
-0.000217492
0.000199231
-0.000228529
0.000189496
-0.000262912
0.000102169
-0.00019583
3.42105e-05
-0.000150612
1.24783e-06
-7.82752e-05
-1.70762e-05
-4.39938e-05
-2.37271e-05
-4.43628e-05
2.80948e-05
-7.17009e-06
6.78461e-05
6.3057e-06
3.38185e-05
0.000258045
6.208e-05
0.000397436
2.65081e-05
0.000515296
0.000641185
0.000258803
8.00551e-05
0.000276124
2.17652e-05
0.000290135
-4.06678e-05
0.000284258
-9.98421e-05
0.000262092
-0.000148323
0.000228994
-0.000184393
0.000227754
-0.000227289
0.000140489
-0.000175646
5.88575e-05
-0.000114198
-8.2835e-06
-8.34709e-05
-2.4699e-05
-6.18597e-05
-1.34966e-05
-5.51962e-05
-1.20539e-05
-4.58055e-05
8.57692e-06
-2.7801e-05
8.09064e-06
6.79186e-06
1.51974e-05
0.000250938
3.52617e-05
0.000377372
3.34416e-06
0.000547213
0.000644529
0.000262113
5.25657e-05
0.000281492
2.38653e-06
0.000279971
-3.91467e-05
0.000264149
-8.40202e-05
0.000245317
-0.000129492
0.000232569
-0.000171645
0.000166945
-0.000161665
8.60411e-05
-9.47421e-05
1.45877e-05
-4.27445e-05
-1.3017e-05
-5.58661e-05
-2.52508e-05
-4.96259e-05
-2.89001e-05
-5.1547e-05
-2.48994e-05
-4.98063e-05
-3.27385e-06
-4.94267e-05
5.06728e-06
-1.5494e-06
5.47137e-05
0.000201292
6.60878e-05
0.000365998
-1.91248e-05
0.000632426
0.000625405
0.000237459
2.06351e-05
0.000248819
-8.97343e-06
0.00025239
-4.2717e-05
0.000249562
-8.11927e-05
0.000237793
-0.000117722
0.000159266
-9.31185e-05
6.71528e-05
-6.95514e-05
3.81248e-06
-3.14016e-05
-1.32797e-05
-2.56522e-05
-3.05407e-05
-3.86051e-05
-3.62454e-05
-4.39212e-05
-3.58435e-05
-5.19489e-05
-2.90361e-05
-5.66138e-05
-1.11362e-05
-6.73267e-05
1.33695e-06
-1.40227e-05
8.57364e-05
0.000116892
9.72238e-05
0.00035451
-2.43303e-05
0.00075398
0.000601074
0.000208942
-1.75266e-06
0.000230141
-3.01723e-05
0.00023275
-4.53262e-05
0.000212689
-6.11313e-05
0.000142466
-4.7499e-05
5.24416e-05
-3.09412e-06
-2.49047e-06
-1.46191e-05
-2.07733e-05
-1.31185e-05
-2.91935e-05
-1.72319e-05
-3.77621e-05
-3.00364e-05
-4.28848e-05
-3.87986e-05
-4.42941e-05
-5.05397e-05
-3.7159e-05
-6.37489e-05
-2.46396e-05
-7.98463e-05
-6.6386e-06
-3.20238e-05
7.97185e-05
3.05348e-05
5.08113e-05
0.000383417
1.26074e-05
0.000792184
0.000613682
0.000197707
-1.71668e-05
0.000184062
-1.65268e-05
0.00017528
-3.6544e-05
8.2413e-05
3.17354e-05
1.69087e-05
1.80055e-05
-3.09566e-06
1.69104e-05
-2.15253e-05
3.81068e-06
-3.32323e-05
-1.41139e-06
-3.92525e-05
-1.12117e-05
-4.60325e-05
-2.32564e-05
-5.1327e-05
-3.35041e-05
-5.46909e-05
-4.71759e-05
-5.24232e-05
-6.60168e-05
-4.6908e-05
-8.53616e-05
-2.06397e-05
-5.82923e-05
6.11262e-05
-5.12312e-05
0.000109676
0.000334867
0.000121447
0.000780414
0.000735128
0.000155925
-3.68988e-05
6.27667e-05
7.66313e-05
-2.04261e-05
4.6649e-05
-9.71808e-06
2.10275e-05
-2.21895e-05
3.0477e-05
-2.8703e-05
2.3424e-05
-3.68429e-05
1.19506e-05
-4.20545e-05
3.80029e-06
-4.69383e-05
-6.32775e-06
-5.40279e-05
-1.61669e-05
-6.13912e-05
-2.61409e-05
-6.91063e-05
-3.94608e-05
-7.75284e-05
-5.75948e-05
-8.44199e-05
-7.84701e-05
-5.57536e-05
-8.69586e-05
1.58416e-06
-0.000108569
9.87733e-05
0.000237678
0.000195518
0.00068367
0.000930646
-8.52228e-05
-2.00246e-05
-3.21803e-05
2.35889e-05
-2.45529e-05
3.90217e-05
-3.81239e-05
3.45986e-05
-3.77904e-05
3.01437e-05
-4.04827e-05
2.61164e-05
-4.44881e-05
1.59561e-05
-4.85518e-05
7.86404e-06
-5.4359e-05
-5.205e-07
-6.22046e-05
-8.32138e-06
-7.14188e-05
-1.69268e-05
-8.31527e-05
-2.7727e-05
-9.90365e-05
-4.1711e-05
-0.000117188
-6.03183e-05
-0.000118724
-8.54227e-05
-0.000136719
-9.05742e-05
-5.25641e-05
0.000153523
0.000119009
0.000512097
0.00104966
-3.13031e-05
-2.71595e-06
-4.61184e-05
3.84043e-05
-4.7916e-05
4.08194e-05
-4.91202e-05
3.58029e-05
-4.89313e-05
2.99548e-05
-4.81168e-05
2.53019e-05
-5.04422e-05
1.82815e-05
-5.43193e-05
1.17412e-05
-6.07643e-05
5.92439e-06
-6.88393e-05
-2.46378e-07
-7.95687e-05
-6.19744e-06
-9.39429e-05
-1.33529e-05
-0.000113904
-2.17499e-05
-0.000141343
-3.28796e-05
-0.000178609
-4.81566e-05
-0.000230563
-3.86204e-05
-0.00017491
9.78703e-05
-5.65802e-05
0.000393767
0.000993075
-7.12396e-05
2.78124e-05
-6.39443e-05
3.1109e-05
-5.84696e-05
3.53447e-05
-5.47815e-05
3.21148e-05
-5.34795e-05
2.86529e-05
-5.30826e-05
2.4905e-05
-5.49689e-05
2.01678e-05
-5.91057e-05
1.5878e-05
-6.52587e-05
1.20773e-05
-7.35449e-05
8.03983e-06
-8.47377e-05
4.9953e-06
-9.99715e-05
1.88085e-06
-0.000121337
-3.84738e-07
-0.000152471
-1.74522e-06
-0.000200246
-3.81811e-07
-0.000257679
1.8813e-05
-0.000263745
0.000103936
-0.000234701
0.000364723
0.000758374
-6.44159e-05
2.97317e-05
-6.47361e-05
3.14292e-05
-6.05728e-05
3.11814e-05
-5.77508e-05
2.92929e-05
-5.62789e-05
2.7181e-05
-5.64585e-05
2.50845e-05
-5.82461e-05
2.19554e-05
-6.22868e-05
1.99187e-05
-6.79203e-05
1.77107e-05
-7.59528e-05
1.60722e-05
-8.66133e-05
1.56557e-05
-0.000101041
1.63088e-05
-0.000120751
1.93248e-05
-0.00014856
2.60643e-05
-0.000189005
4.00627e-05
-0.000241147
7.09548e-05
-0.000281114
0.000143903
-0.000240535
0.000324143
0.000517839
-6.74527e-05
2.7212e-05
-6.36279e-05
2.76044e-05
-6.09007e-05
2.84543e-05
-5.92176e-05
2.76097e-05
-5.80407e-05
2.60041e-05
-5.84515e-05
2.54953e-05
-6.01742e-05
2.3678e-05
-6.3814e-05
2.35585e-05
-6.88996e-05
2.27963e-05
-7.61404e-05
2.3313e-05
-8.55619e-05
2.50772e-05
-9.79668e-05
2.87136e-05
-0.000114089
3.54468e-05
-0.000135056
4.70316e-05
-0.000161789
6.67954e-05
-0.000191673
0.000100838
-0.000210161
0.000162392
-0.000162462
0.000276444
0.000355377
-6.66416e-05
-6.32203e-05
-6.12142e-05
-5.94106e-05
-5.88153e-05
-5.93168e-05
-6.0841e-05
-6.39946e-05
-6.83445e-05
-7.44765e-05
-8.22392e-05
-9.2048e-05
-0.000103983
-0.000117967
-0.000132941
-0.000144981
-0.000141976
-9.41521e-05
)
;

boundaryField
{
    leftWall
    {
        type            calculated;
        value           nonuniform 0();
    }
    rightWall
    {
        type            calculated;
        value           uniform 0;
    }
    lowerWall
    {
        type            calculated;
        value           nonuniform List<scalar> 
40
(
-8.6854e-24
0
0
0
0
0
0
0
0
-5.29396e-23
-1.32349e-23
1.8198e-23
7.94093e-23
0
0
0
0
0
0
0
0
2.66249e-22
4.9424e-22
-1.10015e-22
3.39144e-23
-1.6709e-22
-3.02335e-22
1.40621e-22
5.33531e-23
3.76367e-23
-1.54062e-22
1.26765e-22
-6.969e-23
6.61744e-24
-1.05879e-22
-1.32349e-22
9.26442e-23
-5.29396e-23
1.05879e-22
2.11758e-22
)
;
    }
    atmosphere
    {
        type            calculated;
        value           nonuniform 0();
    }
    defaultFaces
    {
        type            empty;
        value           nonuniform 0();
    }
    procBoundary1to0
    {
        type            processor;
        value           nonuniform List<scalar> 
26
(
-1.9511e-05
-2.1424e-05
-2.34934e-05
-2.53279e-05
-2.76651e-05
-2.36935e-05
-2.36247e-05
-2.09882e-05
-7.14983e-05
-0.000103092
-0.000150508
-0.000183893
-0.000182874
-0.000144463
-0.000111926
-0.000107148
5.60859e-05
-0.000138549
-0.000133042
-0.000135464
-0.000125564
7.92951e-05
4.67539e-05
0.000104009
8.09376e-05
8.80948e-05
)
;
    }
    procBoundary1to3
    {
        type            processor;
        value           nonuniform List<scalar> 
23
(
8.50616e-06
8.59234e-06
9.1227e-06
9.47168e-06
2.2889e-05
2.41831e-05
2.64481e-05
2.58062e-05
2.54088e-05
2.59969e-05
2.52022e-05
2.67121e-05
2.71461e-05
2.9445e-05
3.28399e-05
3.85224e-05
4.7382e-05
6.1015e-05
8.177e-05
0.000112878
0.000159387
0.00022862
0.000261225
)
;
    }
}


// ************************************************************************* //
