/*--------------------------------*- C++ -*----------------------------------*\
| =========                 |                                                 |
| \\      /  F ield         | OpenFOAM: The Open Source CFD Toolbox           |
|  \\    /   O peration     | Version:  2.4.0                                 |
|   \\  /    A nd           | Web:      www.OpenFOAM.org                      |
|    \\/     M anipulation  |                                                 |
\*---------------------------------------------------------------------------*/
FoamFile
{
    version     2.0;
    format      ascii;
    class       surfaceScalarField;
    location    "0.25";
    object      phi.oil;
}
// * * * * * * * * * * * * * * * * * * * * * * * * * * * * * * * * * * * * * //

dimensions      [0 3 -1 0 0 0 0];

internalField   nonuniform List<scalar> 
1061
(
3.52927e-05
5.94498e-05
8.6523e-05
0.000114719
0.000148009
0.00018039
0.000209696
0.000224735
-0.00011472
0.000114712
-0.000167636
5.29103e-05
-0.000181658
1.40254e-05
-0.000155213
-2.64478e-05
-0.00011443
-4.07869e-05
-7.35977e-05
-4.08356e-05
-3.86718e-05
-3.49283e-05
1.60474e-06
-4.02796e-05
3.41568e-05
-3.25541e-05
6.09109e-05
-2.67549e-05
8.09092e-05
-1.99985e-05
9.43549e-05
-1.34435e-05
9.87691e-05
-4.32451e-06
9.5442e-05
3.11414e-06
8.46044e-05
1.05108e-05
6.62032e-05
1.8654e-05
3.90182e-05
2.90306e-05
1.35466e-05
1.40901e-05
6.63868e-06
-0.000104795
0.000219506
-0.000155498
0.000103619
-0.000155902
1.44354e-05
-0.000142944
-3.94004e-05
-0.000110468
-7.32602e-05
-5.91601e-05
-9.21402e-05
-1.8811e-05
-7.52749e-05
1.7538e-05
-7.66273e-05
4.81757e-05
-6.31906e-05
7.38844e-05
-5.24629e-05
9.35673e-05
-3.96812e-05
0.000106754
-2.66289e-05
0.000110299
-7.83817e-06
0.000107943
5.8806e-06
9.51122e-05
2.35899e-05
7.83338e-05
3.59934e-05
5.30886e-05
5.79038e-05
2.25984e-05
5.12037e-05
2.90606e-05
-9.01397e-05
0.000309647
-0.000118785
0.000132113
-0.000115868
8.86531e-06
-0.000112056
-4.32667e-05
-9.01773e-05
-9.51399e-05
-4.53906e-05
-0.000136927
-4.61689e-06
-0.000116046
2.88919e-05
-0.000110134
5.93971e-05
-9.36956e-05
8.3057e-05
-7.61229e-05
0.000100971
-5.75951e-05
0.000113739
-3.93971e-05
0.000118635
-1.27279e-05
0.000119029
5.4913e-06
0.000106331
3.62944e-05
8.99563e-05
5.26994e-05
6.51379e-05
8.44657e-05
3.44185e-05
8.4419e-05
6.00137e-05
-5.93967e-05
0.0003689
-6.00617e-05
0.000118745
-7.25968e-05
-6.97247e-05
-7.60631e-05
-4.90373e-05
-6.06544e-05
-0.000110622
-2.83796e-05
-0.000169205
7.44969e-06
-0.000151874
3.95173e-05
-0.000142199
6.8226e-05
-0.000122404
9.06064e-05
-9.85034e-05
0.000107859
-7.4848e-05
0.000120717
-5.22552e-05
0.000127366
-1.93763e-05
0.000126637
6.22056e-06
0.000117323
4.56084e-05
0.000102123
6.79708e-05
7.59301e-05
0.000111522
4.15379e-05
0.000120746
0.000101619
-3.96058e-05
0.000403556
-3.09781e-05
0.000100397
-2.62307e-05
-0.000154147
-3.87166e-05
-0.000151063
-3.28684e-05
-0.000122215
-1.29913e-05
-0.000189133
2.07267e-05
-0.000185593
4.8383e-05
-0.000169853
7.43473e-05
-0.000148367
9.51357e-05
-0.000119292
0.000111343
-9.10557e-05
0.000123971
-6.48827e-05
0.000131918
-2.7323e-05
0.000132185
5.95349e-06
0.000126199
5.15943e-05
0.000109672
8.44991e-05
8.34613e-05
0.00013791
4.37596e-05
0.00016101
0.000145723
-4.41538e-05
0.000416475
-8.20959e-06
0.000194243
1.86121e-05
-0.000159945
7.90194e-06
-0.000214043
-8.54542e-06
-0.000201019
2.53145e-06
-0.000201061
3.08267e-05
-0.000213901
5.70728e-05
-0.000196098
8.05444e-05
-0.000171838
0.000100999
-0.000139746
0.00011688
-0.000106936
0.000129692
-7.76948e-05
0.000138577
-3.62085e-05
0.000139522
5.00873e-06
0.000136048
5.50685e-05
0.000117423
0.000103124
8.75413e-05
0.000167797
4.80116e-05
0.000200606
0.000193823
-5.3534e-05
0.000413865
5.78142e-06
0.000288889
5.85134e-05
5.66357e-05
4.40943e-05
-5.19661e-05
1.56239e-05
-0.000245689
2.31e-05
-0.00022103
4.24284e-05
-0.000233277
6.50547e-05
-0.000218723
8.60912e-05
-0.000192874
0.000105619
-0.000159272
0.0001207
-0.000122017
0.000133741
-9.07357e-05
0.000143173
-4.56407e-05
0.000145748
2.43427e-06
0.000143785
5.70312e-05
0.000126828
0.000120081
9.0549e-05
0.000204076
4.57153e-05
0.00024544
0.000239543
-5.96005e-05
0.000403409
-5.00099e-05
0.000327017
3.92878e-05
0.000287915
9.56846e-05
0.000103513
3.62478e-05
-0.000226718
3.78083e-05
-0.000246845
5.30858e-05
-0.000248658
7.35852e-05
-0.000239222
9.32408e-05
-0.000212531
0.000112186
-0.000178304
0.000127273
-0.000137747
0.000137074
-0.000102501
0.000147324
-6.19591e-05
0.00015623
-1.81245e-05
0.00015603
3.94004e-05
0.000138883
0.000129561
0.000105288
0.000237314
5.39479e-05
0.000296775
0.000293491
0.000159159
0.000114058
0.000182274
0.000125067
0.000210452
0.000148154
0.000213719
0.000190205
0.000187109
0.000210396
0.000139405
0.000191887
9.23431e-05
0.000158925
0.000143392
-1.38012e-05
7.62807e-05
-0.000160512
9.58081e-05
-0.000195094
0.000129815
0.000149859
-0.000182782
0.000116264
7.65985e-05
4.97616e-05
6.88296e-05
-8.26467e-05
7.75412e-05
0.000106855
-0.000157232
0.00014689
7.98173e-05
0.000141651
7.09488e-05
0.000131054
6.49415e-05
6.32301e-05
0.000113904
0.000186529
8.73502e-05
0.000185491
7.2494e-05
0.000185717
6.26543e-05
5.39538e-05
0.000190596
0.000219093
8.1367e-05
0.000222842
7.27864e-05
0.000225369
6.25881e-05
5.16519e-05
0.000227908
0.000213512
6.02014e-05
0.000229418
5.88275e-05
0.000242353
5.27732e-05
4.47486e-05
0.000252105
0.000181163
3.80402e-05
0.000201732
3.85762e-05
0.000220394
3.50415e-05
3.08449e-05
0.00023578
0.000158481
2.29512e-05
0.000174861
2.22125e-05
0.000190263
1.97264e-05
1.5819e-05
0.000205574
0.000152284
9.21659e-06
0.000164756
9.74035e-06
0.000175561
8.92087e-06
4.82396e-06
0.000186555
0.000144516
-3.75748e-06
0.00015569
-4.06463e-06
0.000167816
-6.34051e-06
-1.43982e-05
0.00018216
0.000139582
-4.62349e-05
0.000137749
-4.73308e-05
0.000137277
-5.05733e-05
-4.22245e-05
0.000135146
8.35907e-05
-6.86245e-05
8.39694e-05
-5.43213e-05
7.94367e-05
-3.77444e-05
-2.11904e-05
5.3613e-05
4.58712e-05
-3.00528e-05
-7.23789e-06
4.50793e-06
-3.05776e-05
9.21369e-06
-1.00563e-05
-1.38197e-05
-4.16979e-05
2.8619e-05
-1.5657e-05
4.04418e-05
-1.53068e-05
1.7612e-05
1.28688e-05
-3.98316e-05
-8.72971e-05
1.70684e-05
-6.45004e-05
1.95285e-05
-6.16193e-05
1.43545e-05
1.32174e-05
-6.2373e-05
-7.82406e-05
1.39299e-05
-7.3006e-05
1.39441e-05
-7.13622e-05
1.29005e-05
1.19819e-05
-6.99626e-05
-8.26345e-05
-7.72597e-05
-7.34726e-05
-7.09452e-05
-0.000151323
0.000365556
-0.000117527
0.000325987
6.29836e-05
0.000304978
0.000207841
3.93889e-05
0.000127294
-0.000194633
0.000125999
-0.000264263
0.000149705
-0.00027267
0.000180235
-0.000269825
0.000214495
-0.000247992
0.000251775
-0.000225081
0.00028292
-0.000204183
0.000295722
-0.000196063
0.00031835
-0.000201424
0.000329968
-0.000187141
0.000331923
-0.000111799
0.0002672
1.33456e-05
0.000218546
0.000229832
0.00012653
0.000387539
0.000420013
-0.000149218
0.000260435
-7.00513e-05
0.000202257
0.000116926
0.000163467
0.000210362
-2.42216e-05
0.00017071
-0.00018768
0.000169182
-0.000268189
0.000183448
-0.000287378
0.000203576
-0.000290275
0.000227555
-0.000282443
0.000242873
-0.000278916
0.000261572
-0.000281388
0.000264274
-0.000281701
0.000255763
-0.000254734
0.00025459
-0.00019589
0.000302177
-0.000151679
0.000313914
-7.46477e-05
0.000168091
0.000204948
9.44299e-05
0.000423017
0.000513931
0.00011962
0.000134248
0.0001485
9.58264e-05
0.000192548
5.11277e-05
0.000214236
-6.16552e-05
0.000206086
-0.000189552
0.000200821
-0.000264576
0.000202301
-0.000288543
0.000211429
-0.00028701
0.000221877
-0.000281326
0.000234994
-0.000290872
0.000236465
-0.000292133
0.000209164
-0.00020224
0.000159998
-0.000153479
0.000166245
-5.78179e-05
0.000245433
-6.84231e-05
0.000308303
-3.03463e-05
0.000203454
0.000165581
6.03896e-05
0.000412324
0.000570643
0.000194592
9.06478e-05
0.000195754
4.68541e-05
0.000218819
-7.7554e-06
0.000248529
-0.000103918
0.000245664
-0.000189556
0.000227852
-0.000247397
0.000219063
-0.000266686
0.000225303
-0.000249721
0.000225366
-0.00024226
0.000223921
-0.00019838
0.000147217
-0.00016541
0.000100997
-8.62501e-05
9.59063e-05
-5.8558e-05
7.80275e-05
3.30033e-05
0.000122547
2.10118e-05
0.000210603
0.0001472
0.000221939
0.000155939
6.14396e-05
0.0004477
0.000613403
0.000232002
8.45649e-05
0.000243625
2.88698e-05
0.000268027
-3.63904e-05
0.000276642
-0.000114116
0.000263275
-0.00017668
0.000240455
-0.000219849
0.0002369
-0.00021468
0.0002306
-0.000213173
0.000191228
-0.000201034
9.2497e-05
-0.000102475
4.59786e-06
-6.92771e-05
-2.1848e-05
-4.1034e-05
-2.25667e-05
-4.36227e-05
2.68337e-05
-1.52227e-05
7.32861e-05
2.1896e-06
0.000155137
0.000228385
0.000159322
0.000328775
7.54964e-05
0.00051106
0.000640919
0.000265037
7.55772e-05
0.000280819
1.57427e-05
0.000292807
-4.66571e-05
0.000285011
-0.000104671
0.00026246
-0.000151002
0.000248002
-0.000175197
0.000236034
-0.000194021
0.000184615
-0.000185431
9.1841e-05
-0.00014589
-5.99422e-06
-9.54587e-05
-3.35157e-05
-6.21372e-05
-2.01737e-05
-5.72489e-05
-1.9914e-05
-4.73621e-05
8.67177e-06
-3.5445e-05
1.22322e-05
4.84553e-06
4.12552e-05
0.000226991
7.48058e-05
0.000395211
8.37241e-05
0.000565355
0.000644745
0.000264028
5.10461e-05
0.000283092
3.65326e-07
0.000280718
-4.09305e-05
0.000264232
-8.52375e-05
0.000247987
-0.000128591
0.000230134
-0.000164909
0.000196697
-0.000183248
0.000154292
-0.000138939
6.25994e-05
-7.1539e-05
-2.08297e-05
-5.81999e-05
-3.23044e-05
-5.05822e-05
-3.36128e-05
-5.19862e-05
-3.24854e-05
-5.29103e-05
-2.10444e-06
-5.68086e-05
-5.21635e-07
-6.49876e-06
4.93634e-05
0.000168084
8.3028e-05
0.000383576
9.55981e-05
0.000593985
0.000625319
0.000237591
2.04837e-05
0.000248904
-9.22006e-06
0.000252367
-4.31022e-05
0.000244698
-9.00119e-05
0.000218816
-0.000148491
0.000156667
-0.000168851
8.9843e-05
-0.000118733
3.65804e-05
-7.275e-05
-2.0682e-05
-2.77371e-05
-3.66259e-05
-3.91844e-05
-4.14794e-05
-4.43227e-05
-4.00105e-05
-5.2321e-05
-3.66815e-05
-5.88725e-05
-1.15566e-05
-7.1254e-05
-1.13331e-05
-2.03368e-05
7.4504e-05
7.73968e-05
0.000105792
0.000360652
0.000124198
0.000648496
0.000600332
0.000208931
-1.99206e-06
0.000229653
-3.52994e-05
0.000226177
-8.84169e-05
0.00019115
-0.000144599
0.000139446
-0.000149445
7.5531e-05
-0.000117746
8.5115e-06
-4.45647e-05
-2.64536e-05
-1.55597e-05
-3.42638e-05
-1.86971e-05
-4.17094e-05
-3.09026e-05
-4.63889e-05
-3.9004e-05
-4.7937e-05
-5.07234e-05
-4.38665e-05
-6.53809e-05
-2.73816e-05
-8.095e-05
-2.68097e-05
-4.18208e-05
7.48343e-05
-7.90206e-06
0.000121881
0.000329233
0.000160545
0.000792922
0.000612106
0.000195515
-6.93367e-05
0.000179738
-0.000124394
0.000149565
-0.000154089
0.000103169
-0.000143705
5.23377e-05
-9.42162e-05
-2.84988e-06
6.45206e-06
-2.53653e-05
1.21375e-06
-3.69064e-05
-2.8491e-06
-4.2338e-05
-1.21143e-05
-4.82371e-05
-2.35502e-05
-5.35461e-05
-3.35652e-05
-5.78699e-05
-4.71367e-05
-5.72624e-05
-6.61984e-05
-5.43311e-05
-8.43002e-05
-5.57722e-05
-6.69647e-05
4.50145e-05
-5.71993e-05
0.000127102
0.00028678
0.00021409
0.00098384
0.000709535
0.000119339
-0.000101955
8.24656e-05
-0.000138859
6.11992e-05
-0.000105583
3.47938e-05
-6.39139e-05
-2.26116e-05
2.67e-05
-3.0389e-05
2.15434e-05
-3.90361e-05
1.05556e-05
-4.4176e-05
2.52866e-06
-4.84117e-05
-7.00865e-06
-5.49748e-05
-1.65942e-05
-6.25995e-05
-2.62926e-05
-7.1273e-05
-3.95418e-05
-7.98665e-05
-5.74713e-05
-9.23228e-05
-7.70387e-05
-9.38016e-05
-8.45307e-05
-2.84259e-05
-5.43424e-05
0.000130957
0.000312116
0.000299922
0.00109882
0.000980213
2.83139e-05
-2.89933e-05
2.834e-05
-7.68246e-05
-1.03454e-05
3.67557e-06
-3.78667e-05
3.43786e-05
-3.81704e-05
2.90527e-05
-4.13812e-05
2.50362e-05
-4.56466e-05
1.47463e-05
-4.95467e-05
7.01392e-06
-5.48956e-05
-1.01425e-06
-6.24963e-05
-8.71495e-06
-7.19336e-05
-1.72134e-05
-8.44e-05
-2.79851e-05
-9.97757e-05
-4.19497e-05
-0.000120329
-5.9361e-05
-0.000138708
-7.32024e-05
-0.000121982
-1.55403e-05
1.11747e-05
0.000348663
0.000364884
0.0014472
0.00149696
-3.13531e-05
-3.29535e-06
-4.60527e-05
3.81125e-05
-4.79132e-05
4.06668e-05
-4.88603e-05
3.56241e-05
-4.89799e-05
2.9543e-05
-4.84782e-05
2.46974e-05
-5.09543e-05
1.75875e-05
-5.47143e-05
1.1117e-05
-6.09061e-05
5.42691e-06
-6.88718e-05
-5.87336e-07
-7.9723e-05
-6.49264e-06
-9.45883e-05
-1.36423e-05
-0.000114582
-2.21712e-05
-0.000139145
-3.31285e-05
-0.000178619
-3.76682e-05
-0.000182593
3.35656e-05
0.000299986
0.000371208
0.000710624
0.00183525
0.00166862
-7.10317e-05
2.78858e-05
-6.39028e-05
3.10487e-05
-5.8387e-05
3.52683e-05
-5.47004e-05
3.20038e-05
-5.3496e-05
2.84634e-05
-5.32098e-05
2.46027e-05
-5.51654e-05
1.98051e-05
-5.92521e-05
1.54988e-05
-6.52711e-05
1.17537e-05
-7.35252e-05
7.77278e-06
-8.47637e-05
4.76874e-06
-0.000100223
1.66703e-06
-0.000122207
-6.71987e-07
-0.00015076
-2.30431e-06
-0.000182899
2.66101e-06
-0.000167311
6.46553e-05
0.000136534
0.000323647
0.000485803
0.00115979
0.00140462
-6.43272e-05
2.95344e-05
-6.4708e-05
3.13603e-05
-6.05302e-05
3.11196e-05
-5.77175e-05
2.92109e-05
-5.62791e-05
2.70736e-05
-5.64936e-05
2.49334e-05
-5.83098e-05
2.17707e-05
-6.23358e-05
1.97097e-05
-6.79111e-05
1.75199e-05
-7.59431e-05
1.5898e-05
-8.66172e-05
1.55055e-05
-0.000101122
1.61649e-05
-0.000121137
1.91714e-05
-0.000149175
2.57887e-05
-0.000181365
3.95168e-05
-0.00019282
7.70075e-05
-0.000137856
0.000206953
-6.65979e-05
0.00054791
0.000633334
-6.74267e-05
2.71609e-05
-6.36039e-05
2.75541e-05
-6.08707e-05
2.83965e-05
-5.91929e-05
2.7544e-05
-5.80304e-05
2.59284e-05
-5.84534e-05
2.54016e-05
-6.01902e-05
2.35688e-05
-6.38267e-05
2.34393e-05
-6.88969e-05
2.26753e-05
-7.61416e-05
2.32e-05
-8.55752e-05
2.49716e-05
-9.80025e-05
2.8618e-05
-0.000114205
3.53505e-05
-0.000135444
4.69279e-05
-0.000161228
6.65922e-05
-0.000179761
9.98957e-05
-0.000174555
0.000161938
-0.000130902
0.000303281
0.000363562
-6.66248e-05
-6.31946e-05
-6.11889e-05
-5.93896e-05
-5.88018e-05
-5.93094e-05
-6.08424e-05
-6.39981e-05
-6.83455e-05
-7.44881e-05
-8.2256e-05
-9.20799e-05
-0.00010403
-0.000118073
-0.00013313
-0.000143561
-0.000132451
-9.02875e-05
)
;

boundaryField
{
    leftWall
    {
        type            fixedValue;
        value           nonuniform 0();
    }
    rightWall
    {
        type            fixedValue;
        value           uniform 0;
    }
    lowerWall
    {
        type            fixedValue;
        value           uniform 0;
    }
    atmosphere
    {
        type            calculated;
        value           nonuniform 0();
    }
    defaultFaces
    {
        type            empty;
        value           nonuniform 0();
    }
    procBoundary1to0
    {
        type            processor;
        value           nonuniform List<scalar> 
26
(
-1.4719e-05
-1.62808e-05
-1.76156e-05
-1.90027e-05
-1.88417e-05
-1.39529e-05
-1.31876e-05
-1.50989e-05
-9.09382e-05
-0.000117196
-0.00015993
-0.000188656
-0.000184201
-0.000144475
-0.000111925
-0.000107148
5.6086e-05
-0.000138549
-0.000133042
-0.000134199
-8.68873e-05
-5.21316e-05
4.67384e-05
0.000103063
8.10221e-05
8.81074e-05
)
;
    }
    procBoundary1to3
    {
        type            processor;
        value           nonuniform List<scalar> 
23
(
8.51287e-06
8.60133e-06
9.11801e-06
9.46304e-06
2.28545e-05
2.41383e-05
2.63975e-05
2.57513e-05
2.53469e-05
2.59277e-05
2.51261e-05
2.66278e-05
2.70644e-05
2.93629e-05
3.27644e-05
3.84486e-05
4.73186e-05
6.09553e-05
8.17255e-05
0.000112844
0.000158549
0.00022398
0.000251696
)
;
    }
}


// ************************************************************************* //
