/*--------------------------------*- C++ -*----------------------------------*\
| =========                 |                                                 |
| \\      /  F ield         | OpenFOAM: The Open Source CFD Toolbox           |
|  \\    /   O peration     | Version:  2.4.0                                 |
|   \\  /    A nd           | Web:      www.OpenFOAM.org                      |
|    \\/     M anipulation  |                                                 |
\*---------------------------------------------------------------------------*/
FoamFile
{
    version     2.0;
    format      ascii;
    class       surfaceScalarField;
    location    "0.25";
    object      phi.air;
}
// * * * * * * * * * * * * * * * * * * * * * * * * * * * * * * * * * * * * * //

dimensions      [0 3 -1 0 0 0 0];

internalField   nonuniform List<scalar> 
1061
(
1.95117e-05
4.09377e-05
6.44325e-05
8.97637e-05
0.000117435
0.000141172
0.000164978
0.000184643
-7.66831e-05
0.00014931
-0.000139901
9.35456e-05
-0.000194363
5.8764e-05
-0.000182069
1.56664e-05
-0.000138175
-1.63612e-05
-9.19757e-05
-2.02103e-05
-5.51057e-05
-1.93067e-05
-4.86761e-06
-2.4714e-05
3.34254e-05
-1.5734e-05
6.1951e-05
-1.35748e-05
8.14133e-05
-1.24429e-05
8.81194e-05
-1.81206e-06
7.83913e-05
5.25128e-05
6.23042e-05
7.20879e-05
4.40463e-05
6.69693e-05
2.10023e-05
6.81775e-05
-3.93431e-06
8.73525e-05
-2.05794e-05
8.41908e-05
8.88175e-05
-8.84931e-05
0.000258152
-0.000150499
0.000120172
-0.000156894
2.28384e-05
-0.000144646
-3.35246e-05
-0.000111674
-6.98104e-05
-5.96703e-05
-9.02653e-05
-1.89411e-05
-7.49958e-05
1.74893e-05
-7.64924e-05
4.81526e-05
-6.30632e-05
7.38839e-05
-5.22867e-05
9.36782e-05
-3.93494e-05
0.000103933
-1.88706e-05
9.96836e-05
2.2841e-05
9.0539e-05
3.36935e-05
6.25601e-05
5.3443e-05
3.57818e-05
7.71663e-05
1.02785e-05
0.000108908
-1.25791e-05
8.83778e-05
3.2102e-05
-8.29625e-05
0.000329149
-0.000117027
0.000250324
-0.000116929
0.000140896
-0.000115435
1.36604e-05
-9.23213e-05
-8.45703e-05
-4.62955e-05
-0.000128578
-4.75536e-06
-0.000115474
2.87886e-05
-0.000110207
5.93626e-05
-9.3395e-05
8.30524e-05
-7.58356e-05
0.000100965
-5.7322e-05
0.000113726
-3.92222e-05
0.000118608
-1.26078e-05
0.000118943
5.66553e-06
0.000103888
3.66609e-05
4.66321e-05
5.69904e-05
2.35267e-05
0.000159562
-4.98992e-06
0.000135722
9.83575e-05
-1.37916e-05
0.000519098
-3.58227e-05
0.000316612
-0.000104277
0.000157399
-0.000118251
8.39031e-05
-6.82755e-05
-6.17736e-05
-3.23131e-05
-0.000147934
7.28195e-06
-0.000150799
3.94474e-05
-0.000142796
6.81667e-05
-0.000122157
9.05997e-05
-9.81821e-05
0.000107857
-7.45336e-05
0.000120696
-5.19221e-05
0.000127307
-1.90326e-05
0.000126549
6.58161e-06
0.000116976
4.59521e-05
6.2488e-05
6.87353e-05
3.42778e-05
0.000185223
1.69999e-06
0.000184903
0.000157588
1.78057e-05
0.000579448
-3.08505e-05
0.000171155
-7.84145e-05
6.79794e-05
-9.69615e-05
7.59756e-05
-7.46166e-05
-1.10501e-05
-2.33101e-05
-0.000134639
2.05167e-05
-0.000184119
4.8379e-05
-0.000170582
7.4267e-05
-0.000148194
9.51254e-05
-0.000118946
0.000111345
-9.06999e-05
0.000123953
-6.4531e-05
0.000131869
-2.69477e-05
0.000132099
6.38634e-06
0.000126051
5.20775e-05
9.4912e-05
8.50373e-05
4.56034e-05
0.000170026
6.15857e-07
0.000227396
0.000206727
5.39762e-05
0.000468786
-0.000116052
0.000217155
-9.40554e-05
3.0363e-05
-0.000181169
-3.83997e-05
-5.07668e-05
-5.54752e-05
-2.59688e-05
-0.000116862
3.05384e-05
-0.000211843
5.71312e-05
-0.000196639
8.04629e-05
-0.000171712
0.000100987
-0.000139411
0.000116883
-0.00010654
0.00012968
-7.72916e-05
0.000138538
-3.57748e-05
0.00013943
5.60864e-06
0.000135872
5.59259e-05
0.000116549
0.000104059
8.03602e-05
0.000170292
3.04102e-05
0.000215502
0.000227118
7.5953e-05
0.000405837
-4.62962e-05
0.000253025
-7.02608e-05
5.52689e-05
-0.000104396
-8.23081e-05
-8.03033e-05
-0.000197115
-1.19827e-05
-0.000146563
4.19625e-05
-0.000230435
6.51832e-05
-0.000218712
8.60583e-05
-0.000192863
0.000105608
-0.000159352
0.000120688
-0.000122032
0.000133731
-9.06706e-05
0.000143146
-4.55599e-05
0.000145626
2.54736e-06
0.000143537
5.7233e-05
0.000126508
0.000120366
8.99547e-05
0.000204403
4.33911e-05
0.000246181
0.000245293
9.33678e-05
0.000440554
3.96661e-05
0.000222249
2.40014e-05
6.5452e-05
-1.80691e-05
-7.90215e-05
-8.77324e-05
-0.000221777
1.24948e-06
-0.000195365
5.28825e-05
-0.000243372
7.36741e-05
-0.000237341
9.32538e-05
-0.000189604
0.000112172
-8.18356e-05
0.000127256
-2.01739e-05
0.000137073
2.53108e-05
0.00014733
9.80785e-05
0.000156229
0.000204006
0.000156005
0.00029569
0.000138818
0.000313726
0.000105172
0.000328853
5.36519e-05
0.000337037
0.00029549
0.00017687
0.000618774
0.000177503
0.000149592
0.00018786
0.000112343
0.000190392
0.000150936
0.000174912
0.000173451
0.000138292
0.000176749
9.19476e-05
0.000157641
0.000143391
-2.33533e-05
9.85045e-06
-4.79002e-05
2.13568e-05
-1.27048e-05
-5.89054e-05
6.73424e-05
-0.000107466
0.000137631
7.61948e-05
0.000119361
6.54164e-05
7.4935e-05
3.0958e-05
2.84241e-05
0.000121336
0.000161672
8.06727e-05
0.000157503
7.07265e-05
0.00017557
6.49754e-05
5.48124e-05
0.000226275
0.00014993
8.41981e-05
0.000158949
7.70378e-05
0.000194152
7.00824e-05
5.12124e-05
0.000228004
0.000177251
7.89985e-05
0.000179577
7.63143e-05
0.000183589
7.07524e-05
6.35371e-05
0.000194782
0.0001889
6.16135e-05
0.000196019
6.29702e-05
0.000203545
6.1298e-05
5.61407e-05
0.000211139
0.000177543
3.82391e-05
0.000193043
4.0029e-05
0.00020449
3.96249e-05
3.98116e-05
0.000214457
0.000158405
2.29422e-05
0.000174303
2.21979e-05
0.000188442
1.97548e-05
1.63753e-05
0.000201698
0.000152294
1.13805e-05
0.000164764
1.29184e-05
0.000175564
1.45201e-05
2.04357e-05
0.000186639
0.000148656
3.83848e-05
0.00016191
4.75365e-05
0.000185921
4.50165e-05
3.47609e-05
0.000217508
0.000159459
2.86872e-05
0.000141512
4.26758e-05
0.000131035
3.7297e-05
1.25978e-05
0.000138374
8.54493e-05
3.48251e-05
-2.34837e-06
8.97562e-05
-5.61386e-05
5.29987e-05
2.74551e-06
-6.83518e-05
-8.27843e-05
3.55629e-05
-6.48813e-05
7.0969e-05
-2.81575e-05
1.62349e-05
-1.14179e-05
-1.39945e-05
-4.35372e-05
3.23417e-05
-1.50372e-05
4.24679e-05
-1.64922e-05
1.76899e-05
1.28012e-05
-4.07113e-05
-8.84097e-05
1.67421e-05
-6.50646e-05
1.91228e-05
-6.18884e-05
1.45137e-05
1.34096e-05
-6.24967e-05
-7.81665e-05
1.39709e-05
-7.2988e-05
1.39443e-05
-7.13842e-05
1.29098e-05
1.1998e-05
-6.99726e-05
-8.26301e-05
-7.7278e-05
-7.3491e-05
-7.09647e-05
1.68174e-06
0.00028532
0.000125197
3.83509e-05
0.000205455
-1.48026e-05
9.12589e-05
-2.83166e-05
-3.98567e-05
-0.000188906
3.29416e-05
-0.000227287
0.000152095
-0.000251658
0.000172243
-0.000201458
0.000207647
-0.000125006
0.000273632
-8.94152e-05
0.000304825
-3.12287e-05
0.000307756
3.08399e-05
0.000332523
3.6681e-05
0.000325841
0.000111809
0.00029388
0.000178836
0.000146204
0.000384273
0.000142885
0.000485221
8.66012e-05
0.000510018
0.000431835
0.00021161
0.000137566
0.000213302
-8.01678e-06
0.000159028
2.05681e-05
0.000109085
-5.61721e-05
4.35853e-05
-0.000211972
0.00013027
-0.000210076
0.000147832
-0.000231934
0.00017615
-0.00025747
0.000228547
-0.000205893
0.000253778
-0.000176949
0.000297328
-0.000167418
0.000313512
-0.000108168
0.000302793
-6.76279e-05
0.00024275
4.36576e-05
0.000200532
0.000100457
0.000184029
0.000193083
-8.41609e-06
0.000473209
1.67141e-05
0.00056204
0.00059365
0.000246801
3.71792e-05
0.000161907
-2.17361e-06
0.000163745
-4.08214e-05
0.000143161
-0.000149499
0.000120651
-0.000203256
0.000196391
-0.000182816
0.000112868
-0.000294305
0.000138265
-0.000308262
0.000220335
-0.000300886
0.000269241
-0.000275039
0.000216402
-0.000153927
0.000132547
-5.19609e-05
8.47286e-05
-2.86113e-05
0.000122685
3.97412e-06
0.000159445
6.01666e-05
0.000136721
0.00019382
-0.000100151
0.000480907
-2.4208e-05
0.000487318
0.000693813
0.000222449
5.97967e-05
0.000191912
-3.96262e-05
0.000182408
-0.000111797
0.000210874
-0.000100407
0.000249499
-0.000101481
0.000154484
-0.000207898
0.000119081
-0.000325681
0.00015922
-0.000305726
0.000178898
-0.000288927
0.000125049
-0.000218703
8.09183e-05
-0.000111233
9.11814e-05
-6.23175e-05
0.000113582
-5.10133e-05
7.29034e-05
4.46516e-05
8.70097e-05
4.6057e-05
5.65426e-05
0.000224017
3.01733e-05
0.000426031
-5.08588e-05
0.000512788
0.000684294
0.000210354
0.000114888
0.000221677
7.31672e-05
0.000248241
3.10584e-05
0.000268905
-3.51199e-05
0.000238016
-0.000139304
0.000167088
-0.00029516
0.000133013
-0.000276517
0.000179378
-0.00027791
0.000100871
-0.000195822
3.42011e-05
-0.000150619
1.2478e-06
-7.82749e-05
-1.70761e-05
-4.39936e-05
-2.3727e-05
-4.43626e-05
2.80946e-05
-7.17003e-06
6.78457e-05
6.30567e-06
3.38173e-05
0.000258044
4.30423e-05
0.000397435
-6.44471e-05
0.000516702
0.000652048
0.000228285
0.000110872
0.00025054
6.48391e-05
0.000270334
9.38644e-06
0.000263044
-6.88365e-05
0.000223668
-0.000228627
0.000164858
-0.000244731
0.000222844
-0.00024804
0.000138294
-0.000175557
5.88084e-05
-0.00011418
-8.28351e-06
-8.34705e-05
-2.46988e-05
-6.18594e-05
-1.34965e-05
-5.51959e-05
-1.20538e-05
-4.58053e-05
8.57687e-06
-2.78008e-05
8.09058e-06
6.79183e-06
1.51972e-05
0.000250937
3.15523e-05
0.00037737
-0.00010572
0.000543664
0.00063205
0.0002377
8.2478e-05
0.000259666
4.10166e-05
0.000274496
-3.69809e-06
0.000259173
-0.000122514
0.000229052
-0.000144484
0.000233585
-0.000178807
0.000164307
-0.000160364
8.5803e-05
-9.46533e-05
1.45854e-05
-4.27441e-05
-1.30169e-05
-5.58659e-05
-2.52506e-05
-4.96257e-05
-2.88999e-05
-5.15467e-05
-2.48993e-05
-4.9806e-05
-3.27384e-06
-4.94264e-05
5.06726e-06
-1.54938e-06
5.47134e-05
0.000201291
6.46584e-05
0.000365996
-0.00017164
0.000638168
0.000631207
0.000231444
2.92246e-05
0.000254624
1.01771e-05
0.000258476
-3.04515e-05
0.000284441
-3.64218e-05
0.000254921
-9.31132e-05
0.000159431
-8.52968e-05
6.70557e-05
-6.94036e-05
3.80921e-06
-3.14015e-05
-1.32797e-05
-2.56521e-05
-3.05406e-05
-3.86049e-05
-3.62453e-05
-4.3921e-05
-3.58434e-05
-5.19487e-05
-2.9036e-05
-5.66136e-05
-1.11361e-05
-6.73264e-05
1.33698e-06
-1.40226e-05
8.5736e-05
0.000116892
9.67512e-05
0.000354508
-0.000202337
0.000761628
0.000625935
0.000232081
4.52029e-05
0.000264298
4.48718e-05
0.000264817
3.95942e-05
0.000227396
-1.5184e-05
0.000142669
-4.07172e-05
5.24122e-05
-2.95029e-06
-2.4905e-06
-1.4619e-05
-2.07733e-05
-1.31185e-05
-2.91934e-05
-1.72318e-05
-3.7762e-05
-3.00363e-05
-4.28846e-05
-3.87985e-05
-4.42939e-05
-5.05395e-05
-3.71589e-05
-6.37487e-05
-2.46395e-05
-7.9846e-05
-6.63852e-06
-3.20236e-05
7.97181e-05
3.05348e-05
4.96991e-05
0.000383415
-0.000131584
0.000792168
0.000624794
0.00022753
9.29539e-05
0.000190926
7.14849e-05
0.000181256
-1.12549e-05
8.21691e-05
3.37907e-05
1.69072e-05
1.80101e-05
-3.09566e-06
1.69104e-05
-2.15252e-05
3.81067e-06
-3.32322e-05
-1.41138e-06
-3.92524e-05
-1.12116e-05
-4.60323e-05
-2.32563e-05
-5.13268e-05
-3.3504e-05
-5.46907e-05
-4.71757e-05
-5.2423e-05
-6.60166e-05
-4.69078e-05
-8.53613e-05
-2.06395e-05
-5.8292e-05
6.1126e-05
-5.1231e-05
0.000109647
0.000334865
5.98242e-05
0.000780068
0.000770954
0.000164861
-2.22702e-05
6.25117e-05
7.9415e-05
-2.04304e-05
4.66558e-05
-9.71846e-06
2.10282e-05
-2.21895e-05
3.0477e-05
-2.8703e-05
2.3424e-05
-3.68428e-05
1.19506e-05
-4.20544e-05
3.80028e-06
-4.69382e-05
-6.32773e-06
-5.40277e-05
-1.61669e-05
-6.1391e-05
-2.61409e-05
-6.91061e-05
-3.94607e-05
-7.75281e-05
-5.75946e-05
-8.44196e-05
-7.84699e-05
-5.57533e-05
-8.69584e-05
1.58428e-06
-0.000108569
9.87711e-05
0.000237676
0.000171725
0.000683645
0.000916978
-8.5225e-05
-2.00246e-05
-3.21813e-05
2.35905e-05
-2.45529e-05
3.90218e-05
-3.81239e-05
3.45986e-05
-3.77904e-05
3.01437e-05
-4.04827e-05
2.61164e-05
-4.4488e-05
1.5956e-05
-4.85517e-05
7.86402e-06
-5.43589e-05
-5.20499e-07
-6.22045e-05
-8.32136e-06
-7.14187e-05
-1.69267e-05
-8.31525e-05
-2.7727e-05
-9.90363e-05
-4.17109e-05
-0.000117188
-6.03182e-05
-0.000118724
-8.54225e-05
-0.000136719
-9.05741e-05
-5.25642e-05
0.000153521
0.00011126
0.000512069
0.00103491
-3.13031e-05
-2.71595e-06
-4.61184e-05
3.84043e-05
-4.7916e-05
4.08194e-05
-4.91202e-05
3.58029e-05
-4.89313e-05
2.99548e-05
-4.81167e-05
2.53019e-05
-5.04421e-05
1.82815e-05
-5.43192e-05
1.17412e-05
-6.07641e-05
5.92438e-06
-6.88392e-05
-2.46378e-07
-7.95685e-05
-6.19743e-06
-9.39427e-05
-1.33529e-05
-0.000113904
-2.17499e-05
-0.000141342
-3.28795e-05
-0.000178608
-4.81565e-05
-0.000230562
-3.86204e-05
-0.000174922
9.78686e-05
-5.76401e-05
0.000393699
0.000992142
-7.12397e-05
2.78125e-05
-6.39443e-05
3.1109e-05
-5.84696e-05
3.53448e-05
-5.47815e-05
3.21148e-05
-5.34795e-05
2.86529e-05
-5.30826e-05
2.4905e-05
-5.49688e-05
2.01678e-05
-5.91056e-05
1.5878e-05
-6.52586e-05
1.20773e-05
-7.35448e-05
8.03982e-06
-8.47376e-05
4.99529e-06
-9.99713e-05
1.88085e-06
-0.000121336
-3.84738e-07
-0.000152471
-1.74521e-06
-0.000200245
-3.81811e-07
-0.000257679
1.88129e-05
-0.000263754
0.000103935
-0.000234728
0.000364701
0.000758359
-6.4416e-05
2.97317e-05
-6.47362e-05
3.14293e-05
-6.05728e-05
3.11814e-05
-5.77509e-05
2.92929e-05
-5.62789e-05
2.7181e-05
-5.64585e-05
2.50846e-05
-5.82461e-05
2.19554e-05
-6.22868e-05
1.99187e-05
-6.79203e-05
1.77107e-05
-7.59527e-05
1.60722e-05
-8.66132e-05
1.56557e-05
-0.000101041
1.63087e-05
-0.000120751
1.93247e-05
-0.00014856
2.60643e-05
-0.000189005
4.00627e-05
-0.000241147
7.09547e-05
-0.000281114
0.000143903
-0.000240535
0.000324141
0.000517837
-6.74528e-05
2.7212e-05
-6.3628e-05
2.76044e-05
-6.09008e-05
2.84543e-05
-5.92177e-05
2.76098e-05
-5.80408e-05
2.60041e-05
-5.84515e-05
2.54953e-05
-6.01742e-05
2.3678e-05
-6.3814e-05
2.35585e-05
-6.88996e-05
2.27963e-05
-7.61404e-05
2.3313e-05
-8.55618e-05
2.50772e-05
-9.79667e-05
2.87136e-05
-0.000114089
3.54467e-05
-0.000135056
4.70315e-05
-0.000161789
6.67953e-05
-0.000191672
0.000100838
-0.000210161
0.000162392
-0.000162461
0.000276443
0.000355377
-6.66417e-05
-6.32204e-05
-6.12143e-05
-5.94107e-05
-5.88153e-05
-5.93169e-05
-6.08411e-05
-6.39946e-05
-6.83445e-05
-7.44764e-05
-8.22391e-05
-9.20479e-05
-0.000103983
-0.000117966
-0.000132941
-0.000144981
-0.000141975
-9.41519e-05
)
;

boundaryField
{
    leftWall
    {
        type            fixedValue;
        value           nonuniform 0();
    }
    rightWall
    {
        type            fixedValue;
        value           uniform 0;
    }
    lowerWall
    {
        type            fixedValue;
        value           uniform 0;
    }
    atmosphere
    {
        type            calculated;
        value           nonuniform 0();
    }
    defaultFaces
    {
        type            empty;
        value           nonuniform 0();
    }
    procBoundary1to0
    {
        type            processor;
        value           nonuniform List<scalar> 
26
(
-1.95111e-05
-2.1424e-05
-2.34932e-05
-2.53274e-05
-2.76312e-05
-2.35876e-05
-2.36173e-05
-2.12606e-05
-6.52906e-05
-8.93453e-05
-0.000132123
-0.000159818
-0.000164855
-0.000141184
-0.000111593
-0.000107152
5.60802e-05
-0.000138561
-0.000134745
-0.000156645
-0.000130732
7.93082e-05
4.67539e-05
0.000104009
8.09377e-05
8.80949e-05
)
;
    }
    procBoundary1to3
    {
        type            processor;
        value           nonuniform List<scalar> 
23
(
8.50617e-06
8.59235e-06
9.12271e-06
9.4717e-06
2.2889e-05
2.41831e-05
2.64481e-05
2.58062e-05
2.54088e-05
2.59969e-05
2.52022e-05
2.67121e-05
2.71461e-05
2.9445e-05
3.28399e-05
3.85224e-05
4.7382e-05
6.1015e-05
8.17699e-05
0.000112878
0.000159387
0.00022862
0.000261225
)
;
    }
}


// ************************************************************************* //
