/*--------------------------------*- C++ -*----------------------------------*\
| =========                 |                                                 |
| \\      /  F ield         | OpenFOAM: The Open Source CFD Toolbox           |
|  \\    /   O peration     | Version:  2.4.0                                 |
|   \\  /    A nd           | Web:      www.OpenFOAM.org                      |
|    \\/     M anipulation  |                                                 |
\*---------------------------------------------------------------------------*/
FoamFile
{
    version     2.0;
    format      ascii;
    class       surfaceScalarField;
    location    "0.25";
    object      phi.mercury;
}
// * * * * * * * * * * * * * * * * * * * * * * * * * * * * * * * * * * * * * //

dimensions      [0 3 -1 0 0 0 0];

internalField   nonuniform List<scalar> 
1061
(
1.9507e-05
4.09294e-05
6.44208e-05
8.97465e-05
0.000117406
0.000141061
0.000164472
0.000184161
-0.000115006
0.000114643
-0.000161071
5.04847e-05
-0.000170217
4.05754e-06
-0.000147092
-3.60042e-05
-0.000110595
-5.4022e-05
-6.82496e-05
-6.02648e-05
-3.83447e-05
-4.27417e-05
3.2532e-07
-4.40188e-05
3.39551e-05
-3.37132e-05
6.08167e-05
-2.75686e-05
8.08737e-05
-2.02278e-05
9.43432e-05
-1.34747e-05
9.87557e-05
-4.30262e-06
9.54172e-05
3.15295e-06
8.45851e-05
1.05354e-05
6.61568e-05
1.86661e-05
3.87656e-05
2.91298e-05
1.33472e-05
1.47739e-05
6.86394e-06
-0.000100433
0.000216103
-0.000123672
9.4074e-05
-0.000134869
-1.53838e-06
-0.000127261
-5.98344e-05
-9.36043e-05
-9.95711e-05
-4.74978e-05
-0.000127184
-1.33664e-05
-0.000104719
1.35338e-05
-8.66271e-05
4.542e-05
-6.09077e-05
7.16591e-05
-5.47286e-05
9.3194e-05
-4.03785e-05
0.000106685
-2.71248e-05
0.000110294
-8.02511e-06
0.000107942
5.81716e-06
9.51108e-05
2.35765e-05
7.82977e-05
3.59933e-05
5.2836e-05
5.79741e-05
2.23497e-05
5.14805e-05
2.90717e-05
-8.30355e-05
0.000304784
-0.00010478
0.000121545
-0.000101165
-5.32877e-06
-8.77098e-05
-5.73236e-05
-6.49789e-05
-0.00011389
-2.29392e-05
-0.000176136
9.27146e-06
-0.000169993
2.78134e-05
-0.000149478
4.02945e-05
-0.000106463
7.69591e-05
-7.65054e-05
0.000100536
-5.81608e-05
0.000113505
-3.96221e-05
0.000118611
-1.28603e-05
0.000119039
5.45117e-06
0.000106342
3.63018e-05
8.99368e-05
5.27115e-05
6.50162e-05
8.45234e-05
3.42667e-05
8.45783e-05
6.0084e-05
-5.35589e-05
0.000364097
-5.60994e-05
0.000108251
-6.49612e-05
-4.25067e-05
-6.2053e-05
-5.08874e-05
-3.47751e-05
-0.000105066
-9.66841e-07
-0.000201313
2.85481e-05
-0.0002099
4.30017e-05
-0.000196054
4.89298e-05
-0.000153963
6.82284e-05
-0.000105642
0.00010702
-7.56768e-05
0.000120594
-5.27977e-05
0.000127336
-1.97194e-05
0.000126651
6.00099e-06
0.000117344
4.55378e-05
0.000102134
6.79555e-05
7.59129e-05
0.00011153
4.14971e-05
0.00012079
0.000101654
-3.79585e-05
0.000402156
-3.13411e-05
9.71397e-05
-2.51735e-05
-0.000105897
-3.25175e-05
-9.90798e-05
-1.25291e-05
-0.000108032
1.99112e-05
-0.000210353
4.77144e-05
-0.000227081
5.59138e-05
-0.000219794
5.90649e-05
-0.000185995
6.97212e-05
-0.000129093
0.000108124
-7.86282e-05
0.000123408
-5.94145e-05
0.000131866
-2.78566e-05
0.000132138
5.60008e-06
0.000126243
5.14366e-05
0.000109686
8.44819e-05
8.34698e-05
0.000137904
4.37573e-05
0.000161013
0.000145729
-4.17438e-05
0.000416507
-2.41326e-05
0.000195046
1.08883e-06
-5.71361e-05
1.90454e-06
-0.000188628
6.84593e-06
-0.000177123
4.03116e-05
-0.000207193
6.31068e-05
-0.000226538
6.70999e-05
-0.000230968
7.19911e-05
-0.000210297
9.21943e-05
-0.000157206
0.000105342
-0.000112529
0.000119853
-7.83888e-05
0.000137484
-3.91074e-05
0.000138384
3.23762e-06
0.000136043
5.43797e-05
0.000117458
0.000103093
8.75509e-05
0.00016779
4.80153e-05
0.000200605
0.000193826
-4.73942e-05
0.000413946
-3.86887e-06
0.00028445
1.55409e-05
5.53625e-05
3.16316e-05
-6.26327e-05
2.18453e-05
-0.00024322
6.50647e-05
-0.000169779
7.84309e-05
-0.00020254
7.79578e-05
-0.000227914
8.91562e-05
-0.000221255
0.000103468
-0.00019648
0.000105377
-0.000159487
0.000104764
-0.000110743
0.000139969
-5.18313e-05
0.000142316
5.09714e-07
0.000143391
5.61462e-05
0.000126905
0.000119873
9.05631e-05
0.000204063
4.57167e-05
0.000245442
0.000239544
-5.14997e-05
0.000210498
-3.28169e-05
0.000310815
2.96427e-05
0.000113351
8.45557e-05
8.95371e-06
5.17574e-05
-2.35616e-05
9.62989e-05
-0.000108141
8.92099e-05
-0.000164667
8.93343e-05
-0.000211337
0.000106366
-0.000207926
0.000109961
-0.000219201
0.000107616
-0.000195566
0.000103076
-0.000125896
0.000140924
-6.1589e-05
0.00015136
-1.38664e-05
0.000155539
4.1709e-05
0.000138984
0.000130409
0.000105328
0.000237322
5.39545e-05
0.00029677
0.00029349
0.000177137
7.04543e-05
0.000176969
8.33935e-05
0.000179496
0.000108247
0.000175356
0.000136465
0.000158077
0.000144444
0.00013407
0.000143247
7.93478e-05
0.000141752
0.000132286
3.49204e-05
8.46656e-05
1.15412e-05
8.2749e-05
-8.50439e-06
8.25883e-05
6.73423e-05
-4.2314e-05
8.3211e-05
8.27553e-05
7.13762e-05
7.79158e-05
3.95675e-05
7.68649e-05
7.19539e-05
-2.10252e-05
0.000112244
8.079e-05
0.000113674
7.66852e-05
0.000115042
7.24486e-05
6.77891e-05
0.000112212
0.000139185
8.26214e-05
0.00014499
7.86487e-05
0.000150375
7.36996e-05
6.6819e-05
0.000155268
0.00015323
7.70775e-05
0.000160964
7.8735e-05
0.000172015
7.50431e-05
6.76393e-05
0.000181496
0.000152738
6.53374e-05
0.000163379
6.98743e-05
0.00017577
7.11301e-05
6.61445e-05
0.000187333
0.000152645
4.15895e-05
0.000162453
5.02324e-05
0.00017222
5.62142e-05
5.98289e-05
0.000183978
0.000141377
1.70359e-05
0.000150267
1.99076e-05
0.000163712
2.33316e-05
3.25046e-05
0.000177606
0.000152522
9.26858e-06
0.000157809
9.90132e-06
0.000125977
9.09908e-06
7.94051e-06
0.000145346
0.000144511
-3.66466e-06
0.000155698
-3.90834e-06
0.000167849
-6.13889e-06
-1.35701e-05
0.000182392
0.00013969
-4.13451e-05
0.000137774
-3.93116e-05
0.000137219
-4.41172e-05
-3.99621e-05
0.000135218
8.41046e-05
-4.12384e-05
4.31078e-05
9.20127e-06
-2.8997e-05
3.45385e-05
2.45167e-06
-6.63319e-05
-7.61681e-05
3.25601e-05
-6.41625e-05
7.01894e-05
-2.81031e-05
1.62139e-05
-1.14399e-05
-1.39394e-05
-4.34877e-05
3.23271e-05
-1.49857e-05
4.24521e-05
-1.64408e-05
1.76716e-05
1.27813e-05
-4.06617e-05
-8.83673e-05
1.67288e-05
-6.50199e-05
1.91081e-05
-6.18447e-05
1.44969e-05
1.33915e-05
-6.24527e-05
-7.81313e-05
1.39583e-05
-7.29521e-05
1.393e-05
-7.13457e-05
1.28944e-05
1.1981e-05
-6.99351e-05
-8.26013e-05
-7.7246e-05
-7.34584e-05
-7.0931e-05
-9.42924e-05
0.000172619
-2.91319e-05
9.85592e-05
9.01724e-05
0.000102907
0.000193356
6.0731e-05
0.000218211
-3.63165e-05
0.000226233
-7.5147e-05
0.000225014
-0.000114562
0.000256766
-0.000158715
0.0002561
-0.000201124
0.000245416
-0.000233622
0.000219655
-0.000244823
0.000205115
-0.000196327
0.000311298
-0.000171622
0.000329967
-0.000160082
0.000331532
-8.77992e-05
0.000266492
3.4588e-05
0.000218517
0.000233926
0.00012654
0.000387609
0.000420012
-8.63173e-05
0.000178522
3.43309e-05
0.000167644
0.000152665
0.000186244
0.000206566
7.8687e-05
0.000223101
-2.93026e-05
0.000235983
-7.20817e-05
0.000272534
-9.95058e-05
0.000286282
-0.000130254
0.000286948
-0.000165658
0.000259531
-0.00021679
0.000201358
-0.000259243
0.000184971
-0.000216657
0.000265642
-0.000218614
0.000250955
-9.91111e-05
0.00028373
-7.3803e-05
0.000305632
-2.4894e-05
0.000165265
0.000222609
9.4388e-05
0.000423531
0.000513933
0.000107404
0.000148979
0.000110943
0.000140795
0.000151414
0.000114811
0.000204481
3.42406e-05
0.000236729
-3.88772e-05
0.00025877
-7.7042e-05
0.00028262
-0.00010021
0.000302697
-0.000109145
0.000302605
-0.000126407
0.000274211
-0.000173749
0.000158788
-0.000155255
0.000141402
-7.36042e-05
8.55031e-05
-2.99755e-05
0.000123145
3.79527e-06
0.000173389
5.88586e-05
0.00027586
0.000157563
0.000185015
0.000233105
6.01238e-05
0.000413273
0.000570681
0.000165906
0.000134117
0.000180018
0.000107601
0.000209182
6.63158e-05
0.000244115
3.73161e-06
0.000264058
-4.81286e-05
0.000272922
-7.81265e-05
0.000288741
-8.92681e-05
0.000309139
-8.43174e-05
0.000317833
-0.000100872
0.000249627
-9.72554e-05
0.000108039
-9.68332e-05
9.16311e-05
-6.529e-05
0.000113539
-5.12248e-05
7.29198e-05
4.4579e-05
8.7099e-05
4.59657e-05
0.000113478
0.000223822
0.000202987
0.000327028
6.02152e-05
0.000450049
0.000613476
0.000196268
0.000135912
0.00021731
9.88687e-05
0.000245198
5.08114e-05
0.000267485
-8.87127e-07
0.000276784
-3.96873e-05
0.000282221
-6.45847e-05
0.000299172
-6.2709e-05
0.000314588
-5.88851e-05
0.000315108
-6.75808e-05
0.00019891
-6.76773e-05
5.18985e-05
-4.95608e-05
-1.70763e-05
-4.41253e-05
-2.37327e-05
-4.44693e-05
2.80997e-05
-7.27268e-06
6.78767e-05
6.20675e-06
3.45305e-05
0.000257909
0.000148958
0.000396877
7.17203e-05
0.000511517
0.000640931
0.000210626
0.000134641
0.000234394
9.72698e-05
0.000257321
5.20854e-05
0.000270089
1.05068e-05
0.000276901
-2.14445e-05
0.000287492
-3.97243e-05
0.000299562
-3.38852e-05
0.000307624
-3.28278e-05
0.000283405
-3.8945e-05
0.000123808
-5.01195e-05
-2.45759e-05
-6.20787e-05
-1.35105e-05
-5.53354e-05
-1.2058e-05
-4.5933e-05
8.58327e-06
-2.79235e-05
8.09829e-06
6.67538e-06
1.52124e-05
0.000250813
6.9004e-05
0.00037734
7.58965e-05
0.00056315
0.000644751
0.00020957
0.000131279
0.000235191
9.96674e-05
0.000253288
5.98698e-05
0.000262362
2.4531e-05
0.000270984
-6.56151e-06
0.000283718
-1.87263e-05
0.00029416
-1.42756e-05
0.000314817
-2.35114e-05
0.000235786
-2.93015e-05
7.2875e-05
-3.05078e-05
-2.52611e-05
-4.97891e-05
-2.89033e-05
-5.16989e-05
-2.48969e-05
-4.99516e-05
-3.2634e-06
-4.95652e-05
5.07166e-06
-1.67972e-06
5.47083e-05
0.000201172
8.05162e-05
0.000365971
8.31783e-05
0.000599264
0.000625381
0.000205667
0.000105488
0.000230121
8.80222e-05
0.000248958
5.0371e-05
0.000263718
6.57917e-08
0.000276591
-4.83611e-05
0.00028091
-7.19243e-05
0.000261942
-5.07623e-05
0.000198916
-1.50002e-05
8.57439e-05
-1.45823e-05
-3.02575e-05
-3.88389e-05
-3.62463e-05
-4.40889e-05
-3.58406e-05
-5.21113e-05
-2.90268e-05
-5.67733e-05
-1.11198e-05
-6.74837e-05
1.36238e-06
-1.41707e-05
8.57681e-05
0.000116723
0.000104356
0.000354391
0.000105506
0.000668367
0.000600428
0.000207253
4.93259e-05
0.000228444
2.74861e-05
0.000239547
-6.93421e-06
0.000241223
-2.97768e-05
0.000207982
-5.45924e-05
0.000134266
-8.45581e-05
4.20021e-05
-4.73194e-05
-1.72539e-05
-1.57203e-05
-2.91565e-05
-1.74319e-05
-3.77579e-05
-3.02069e-05
-4.28815e-05
-3.89675e-05
-4.4289e-05
-5.07101e-05
-3.71472e-05
-6.3922e-05
-2.46159e-05
-8.00247e-05
-6.61282e-06
-3.22129e-05
7.97921e-05
3.03192e-05
0.00010078
0.000383117
0.000137357
0.000792744
0.000612157
0.000195046
-6.23372e-05
0.000181261
-0.000106034
0.00015597
-0.000120098
9.42008e-05
-7.58317e-05
1.84796e-05
1.40532e-05
-3.79371e-06
1.66425e-05
-2.11478e-05
3.00584e-06
-3.31415e-05
-1.62549e-06
-3.92404e-05
-1.13741e-05
-4.60268e-05
-2.34205e-05
-5.13249e-05
-3.36716e-05
-5.46883e-05
-4.735e-05
-5.24162e-05
-6.62014e-05
-4.68928e-05
-8.55635e-05
-2.0623e-05
-5.85149e-05
6.11518e-05
-5.14576e-05
0.000115979
0.000334676
0.000200101
0.000850096
0.000710727
0.000124939
-9.54988e-05
7.56746e-05
-6.65638e-05
-1.79402e-05
4.24003e-05
-9.50655e-06
2.06182e-05
-2.22007e-05
3.03628e-05
-2.86885e-05
2.32601e-05
-3.67545e-05
1.17854e-05
-4.20347e-05
3.64953e-06
-4.69282e-05
-6.47851e-06
-5.40249e-05
-1.63218e-05
-6.13946e-05
-2.63024e-05
-6.91129e-05
-3.96311e-05
-7.75357e-05
-5.77822e-05
-8.44202e-05
-7.86817e-05
-5.57456e-05
-8.72033e-05
1.65099e-06
-0.000108803
0.000100962
0.000237593
0.000283879
0.000708122
0.000972399
-8.4143e-05
-2.00947e-05
-3.16648e-05
2.27683e-05
-2.44941e-05
3.89307e-05
-3.80725e-05
3.45003e-05
-3.77469e-05
3.00324e-05
-4.04504e-05
2.59966e-05
-4.44589e-05
1.58246e-05
-4.85358e-05
7.73112e-06
-5.43523e-05
-6.58302e-07
-6.22071e-05
-8.46446e-06
-7.14296e-05
-1.70764e-05
-8.3172e-05
-2.7886e-05
-9.90627e-05
-4.18852e-05
-0.000117217
-6.05144e-05
-0.000118746
-8.56644e-05
-0.000136601
-9.08435e-05
-5.17487e-05
0.000153474
0.000312629
0.000565502
0.00136854
-3.12456e-05
-2.77253e-06
-4.60646e-05
3.83368e-05
-4.78653e-05
4.07411e-05
-4.90745e-05
3.57148e-05
-4.88928e-05
2.98574e-05
-4.80872e-05
2.51958e-05
-5.04209e-05
1.8168e-05
-5.43078e-05
1.16222e-05
-6.0762e-05
5.80065e-06
-6.88472e-05
-3.75292e-07
-7.95873e-05
-6.33097e-06
-9.39743e-05
-1.34935e-05
-0.00011395
-2.18977e-05
-0.00014141
-3.30386e-05
-0.00017869
-4.83478e-05
-0.000230584
-3.88386e-05
-0.000146853
9.84984e-05
0.000266633
0.000498344
0.00129587
-7.11913e-05
2.77601e-05
-6.38983e-05
3.10473e-05
-5.84264e-05
3.52746e-05
-5.47433e-05
3.20359e-05
-5.34478e-05
2.85664e-05
-5.30585e-05
2.48111e-05
-5.49529e-05
2.00678e-05
-5.9098e-05
1.57733e-05
-6.52607e-05
1.19679e-05
-7.35567e-05
7.92804e-06
-8.47622e-05
4.8791e-06
-0.000100009
1.76413e-06
-0.000121392
-5.05444e-07
-0.000152546
-1.86353e-06
-0.000200356
-5.0848e-07
-0.000257612
1.86943e-05
-0.000245231
0.000104497
-0.00019033
0.000402681
0.000784425
-6.4375e-05
2.96831e-05
-6.46965e-05
3.13743e-05
-6.05368e-05
3.11182e-05
-5.77189e-05
2.92234e-05
-5.62531e-05
2.71046e-05
-5.64394e-05
2.50026e-05
-5.8234e-05
2.18686e-05
-6.22831e-05
1.98274e-05
-6.79243e-05
1.76175e-05
-7.59683e-05
1.59754e-05
-8.66382e-05
1.55602e-05
-0.000101082
1.62107e-05
-0.000120805
1.92331e-05
-0.000148638
2.59762e-05
-0.000189116
3.99906e-05
-0.000241298
7.09085e-05
-0.000280775
0.000143942
-0.000240067
0.000325109
0.00051832
-6.74166e-05
2.71692e-05
-6.35948e-05
2.75542e-05
-6.087e-05
2.83988e-05
-5.91913e-05
2.75479e-05
-5.80196e-05
2.59375e-05
-5.84363e-05
2.54238e-05
-6.01658e-05
2.36023e-05
-6.38118e-05
2.34801e-05
-6.89066e-05
2.27147e-05
-7.61548e-05
2.32324e-05
-8.55889e-05
2.49944e-05
-9.80022e-05
2.86362e-05
-0.00011414
3.53704e-05
-0.00013512
4.69688e-05
-0.000161875
6.67464e-05
-0.000191779
0.000100823
-0.000210292
0.000162419
-0.000162638
0.000276523
0.000355507
-6.66114e-05
-6.31915e-05
-6.11889e-05
-5.93885e-05
-5.87981e-05
-5.93049e-05
-6.08345e-05
-6.39951e-05
-6.83508e-05
-7.44927e-05
-8.22618e-05
-9.20828e-05
-0.000104024
-0.00011802
-0.000133001
-0.000145047
-0.00014203
-9.42073e-05
)
;

boundaryField
{
    leftWall
    {
        type            fixedValue;
        value           nonuniform 0();
    }
    rightWall
    {
        type            fixedValue;
        value           uniform 0;
    }
    lowerWall
    {
        type            fixedValue;
        value           uniform 0;
    }
    atmosphere
    {
        type            calculated;
        value           nonuniform 0();
    }
    defaultFaces
    {
        type            empty;
        value           nonuniform 0();
    }
    procBoundary1to0
    {
        type            processor;
        value           nonuniform List<scalar> 
26
(
-1.95118e-05
-2.1425e-05
-2.34947e-05
-2.53296e-05
-2.76858e-05
-2.38596e-05
-2.43717e-05
-2.20528e-05
-6.37432e-05
-8.59329e-05
-0.000118479
-0.000135395
-0.00013031
-0.000118965
-9.15215e-05
-7.20015e-05
4.08931e-05
-0.000138646
-0.000133037
-0.000134284
-9.32977e-05
7.16646e-05
4.67092e-05
0.000103972
8.09063e-05
8.80672e-05
)
;
    }
    procBoundary1to3
    {
        type            processor;
        value           nonuniform List<scalar> 
23
(
8.49406e-06
8.57952e-06
9.10879e-06
9.45701e-06
2.285e-05
2.41397e-05
2.63982e-05
2.57521e-05
2.53499e-05
2.59341e-05
2.51362e-05
2.66428e-05
2.7077e-05
2.93738e-05
3.27727e-05
3.84548e-05
4.73244e-05
6.09628e-05
8.17367e-05
0.000112866
0.00015941
0.000228662
0.000261294
)
;
    }
}


// ************************************************************************* //
