/*--------------------------------*- C++ -*----------------------------------*\
| =========                 |                                                 |
| \\      /  F ield         | OpenFOAM: The Open Source CFD Toolbox           |
|  \\    /   O peration     | Version:  2.4.0                                 |
|   \\  /    A nd           | Web:      www.OpenFOAM.org                      |
|    \\/     M anipulation  |                                                 |
\*---------------------------------------------------------------------------*/
FoamFile
{
    version     2.0;
    format      ascii;
    class       volScalarField;
    location    "0.25";
    object      rho;
}
// * * * * * * * * * * * * * * * * * * * * * * * * * * * * * * * * * * * * * //

dimensions      [1 -3 0 0 0 0 0];

internalField   nonuniform List<scalar> 
559
(
13526
13525.4
13524.7
13524.2
13523.4
13519.4
13492.2
13411.3
499.956
499.9
499.873
499.892
499.937
499.938
499.908
499.936
499.928
499.951
499.979
499.97
499.592
494.216
495.97
498.145
488.46
423.976
486.591
499.976
499.986
500.04
500.128
500.188
500.243
500.146
500.049
500.007
500.002
500.001
499.981
499.813
499.818
499.789
499.544
489.018
424.109
466.662
499.989
500.008
500.056
500.135
500.293
500.478
500.602
500.355
500.073
500.006
500.001
500.001
500
500
500
499.977
492.841
463.912
475.618
499.987
498.746
479.994
499.135
500.113
500.424
500.854
500.659
500.217
500.021
500.001
500
500
500
500
499.998
498.188
492.126
491.762
499.451
432.04
102.777
435.9
499.423
500.315
501.04
500.846
500.322
500.047
500.005
500.001
500.001
500
500
500
499.862
499.1
498.561
494.352
182.516
3.9478
112.093
482.431
500.055
501.315
501.035
500.394
500.111
500.044
500.014
500.003
500.001
500
500
499.998
499.951
499.847
495.07
67.3935
1.35697
15.4486
372.086
499.393
501.786
501.206
500.436
500.305
500.192
500.06
500.008
500.003
500.001
500
500
499.999
499.991
496.224
59.463
1.36605
2.87261
306.72
499.582
503.143
501.416
500.565
500.673
500.4
500.104
500.012
500.004
500.001
500
500
500
500
12144.9
8947.94
5030.32
2189.22
950.236
575.171
505.061
500.056
10440.7
608.77
15.1605
181.611
9817.59
7218.7
2605.88
532.037
7673.51
7472.21
6367.62
4402.24
4038.27
5210.03
5338.35
5104.89
1600.59
2358.6
3075.08
3535.03
697.807
906.596
1262.8
1704.38
514.18
534.889
593.592
722.853
500.167
500.564
502.425
510.622
500
500.001
500.005
500.077
499.956
499.931
499.866
499.473
464.547
449.181
439.409
403.779
27.4115
7.18641
1.45159
1.01684
1.07
1.01649
1.00043
1.00002
1.00027
1.00027
1.00012
1.00004
1.00007
1.00007
1.00005
1.00003
1.00003
1.00002
1.00002
1.00001
1.00001
1.00001
1.00001
1
428.984
16.4127
1.35768
33.4644
399.391
516.814
510.225
503.583
502.43
500.217
491.976
476.07
440.845
418.142
391.438
435.043
493.915
499.819
499.998
94.5575
5.28162
3.83194
180.729
546.114
563.408
527.788
513.19
498.753
435.533
304.438
161.425
48.2075
8.18989
14.8395
52.1282
317.125
493.751
499.979
1720.37
351.275
332.64
702.127
764.527
664.344
576.419
532.314
380.762
128.788
15.866
1.65254
1.01334
1.00583
1.02228
1.35319
48.862
463.093
499.723
4102.22
2643.72
1912.61
1453.88
1084.1
769.896
656.729
480.995
126.769
7.99592
1.07665
1.00196
1.00239
1.00231
1.00286
1.00218
2.22973
344.601
495.824
3382.93
2841.75
2229.19
1648.55
1173.96
831.877
673.609
275.656
25.4263
1.29123
1.0032
1.00187
1.00152
1.00148
1.00166
1.00216
1.00624
164.388
486.255
2026.96
1956.81
1678.27
1283.5
996.103
813.398
498.929
93.0036
4.46065
1.01253
1.00145
1.0012
1.00102
1.00103
1.00136
1.00206
1.00211
86.5825
489.974
947.854
968
902.265
803.972
686.214
508.809
130.132
11.2287
1.21428
1.00307
1.001
1.0008
1.00072
1.00082
1.00116
1.00185
1.00222
78.6399
492.93
545.63
562.282
557.07
532.605
419.615
111.97
7.4634
1.41158
1.01625
1.00085
1.00067
1.00053
1.00051
1.00065
1.00101
1.00165
1.0022
53.1208
492.93
500.771
500.68
488.051
345.209
63.9231
2.39229
1.00971
1.00093
1.00069
1.00057
1.00043
1.00033
1.00035
1.00053
1.00092
1.00159
1.0022
16.3732
478.228
494.974
436.708
177.658
12.5487
1.04096
1.00053
1.0005
1.0005
1.00045
1.00035
1.00026
1.0002
1.00024
1.00044
1.00088
1.00166
1.00233
2.62788
398.029
184.21
13.7122
1.04366
1.00822
1.0002
1.00024
1.00031
1.00031
1.00027
1.00021
1.00015
1.00012
1.00015
1.00034
1.00079
1.00162
1.00244
1.04956
186.166
1.00331
1.01559
1.00049
1.00002
1.0001
1.00015
1.00018
1.00018
1.00015
1.00011
1.00008
1.00006
1.00009
1.00022
1.00063
1.00145
1.0023
1.00249
31.486
1.00002
1.00002
1.00002
1.00002
1.00005
1.00008
1.0001
1.0001
1.00008
1.00006
1.00004
1.00003
1.00004
1.00012
1.00043
1.00118
1.00193
1.02429
2.35286
1.00001
1.00001
1.00001
1.00001
1.00003
1.00004
1.00005
1.00005
1.00004
1.00003
1.00002
1.00002
1.00002
1.00005
1.0002
1.00085
1.00293
1.02198
1.01675
1.00001
1
1
1.00001
1.00001
1.00002
1.00002
1.00002
1.00002
1.00001
1.00001
1.00001
1.00001
1.00002
1.00006
1.00028
1.00124
1.00364
1.0018
1.00001
1
1
1
1
1.00001
1.00001
1.00001
1.00001
1.00001
1
1
1
1.00001
1.00002
1.00007
1.00029
1.00089
1.00097
1
0.999999
0.999999
0.999999
1
1
1
1
1
1
1
1
1
1
1
1.00002
1.00007
1.00022
1.00033
)
;

boundaryField
{
    leftWall
    {
        type            calculated;
        value           nonuniform 0();
    }
    rightWall
    {
        type            calculated;
        value           nonuniform List<scalar> 
25
(
486.591
466.662
475.618
491.762
498.561
499.847
499.991
500
499.998
499.979
499.723
495.824
486.255
489.974
492.93
492.93
478.228
398.029
186.166
31.486
2.35286
1.01675
1.0018
1.00097
1.00033
)
;
    }
    lowerWall
    {
        type            calculated;
        value           nonuniform List<scalar> 
40
(
13526
13526
13525.4
13524.7
13524.2
13523.4
13519.4
13492.2
13411.3
10440.7
608.77
15.1605
181.611
499.956
499.976
499.989
499.987
499.451
494.352
495.07
496.224
499.956
499.9
499.873
499.892
499.937
499.938
499.908
499.936
499.928
499.951
499.979
499.97
499.592
494.216
495.97
498.145
488.46
423.976
486.591
)
;
    }
    atmosphere
    {
        type            calculated;
        value           nonuniform 0();
    }
    defaultFaces
    {
        type            empty;
    }
    procBoundary1to0
    {
        type            processor;
        value           nonuniform List<scalar> 
26
(
13527.7
13527.6
13527.4
13526.4
13484.1
13125.4
11782.1
9742.17
5935.84
2896.24
1335.26
757.18
569.598
511.43
500.663
500.006
500
500
499.99
487.432
128.402
1.00798
1.00014
1.00005
1.00003
1.00002
)
;
    }
    procBoundary1to3
    {
        type            processor;
        value           nonuniform List<scalar> 
23
(
1
1
1
1
1
0.999998
0.999998
0.999998
0.999998
0.999999
0.999999
1
1
1
1
1
1
1
1
1
1.00001
1.00004
1.00008
)
;
    }
}


// ************************************************************************* //
