/*--------------------------------*- C++ -*----------------------------------*\
| =========                 |                                                 |
| \\      /  F ield         | OpenFOAM: The Open Source CFD Toolbox           |
|  \\    /   O peration     | Version:  2.4.0                                 |
|   \\  /    A nd           | Web:      www.OpenFOAM.org                      |
|    \\/     M anipulation  |                                                 |
\*---------------------------------------------------------------------------*/
FoamFile
{
    version     2.0;
    format      ascii;
    class       volVectorField;
    location    "0.25";
    object      U;
}
// * * * * * * * * * * * * * * * * * * * * * * * * * * * * * * * * * * * * * //

dimensions      [0 1 -1 0 0 0 0];

internalField   nonuniform List<vector> 
559
(
(0.09725 0.027139 0)
(0.119751 0.18209 0)
(0.168943 0.270516 0)
(0.126268 0.432812 0)
(0.202318 0.546024 0)
(0.14102 0.694347 0)
(0.200022 0.7979 0)
(0.144258 0.942648 0)
(-1.1514 0.346192 0)
(-1.78497 0.134037 0)
(-2.04128 0.0421084 0)
(-1.98266 -0.114183 0)
(-1.37454 -0.12613 0)
(-1.10585 -0.0795729 0)
(-0.666201 -0.101035 0)
(-0.164141 -0.120062 0)
(0.189607 -0.103056 0)
(0.546776 -0.0916423 0)
(0.800351 -0.0833155 0)
(1.00479 -0.0683668 0)
(1.12263 -0.0596417 0)
(1.10752 -0.0478279 0)
(1.0477 -0.0451665 0)
(0.904375 -0.00631141 0)
(0.669763 -0.0300922 0)
(0.103565 -0.0930712 0)
(0.165734 -0.0805939 0)
(-1.06132 0.703442 0)
(-1.64971 0.321948 0)
(-1.83709 0.0742016 0)
(-1.65899 -0.188863 0)
(-1.41252 -0.306111 0)
(-0.984737 -0.340357 0)
(-0.43239 -0.220713 0)
(0.020251 -0.283526 0)
(0.361228 -0.218454 0)
(0.686727 -0.171457 0)
(0.952052 -0.11559 0)
(1.1422 -0.0653294 0)
(1.24085 0.0110075 0)
(1.2477 0.0736347 0)
(1.18308 0.138888 0)
(1.02439 0.182081 0)
(0.820691 0.289837 0)
(0.277558 0.269342 0)
(0.202914 0.144844 0)
(-1.04626 1.27857 0)
(-1.29919 0.643836 0)
(-1.33311 0.0664654 0)
(-1.27929 -0.222317 0)
(-1.12827 -0.467724 0)
(-0.817436 -0.597512 0)
(-0.254771 -0.505264 0)
(0.145708 -0.475526 0)
(0.499078 -0.408788 0)
(0.799421 -0.342758 0)
(1.04649 -0.264652 0)
(1.21082 -0.183795 0)
(1.33285 -0.0758321 0)
(1.35349 -0.00652598 0)
(1.31332 0.105864 0)
(1.14919 0.18502 0)
(0.959674 0.320441 0)
(0.508281 0.326878 0)
(0.296262 0.196849 0)
(-0.909541 1.57569 0)
(-0.640045 0.569085 0)
(-0.718648 0.0195726 0)
(-0.870613 -0.117434 0)
(-0.778575 -0.414882 0)
(-0.526464 -0.74952 0)
(-0.124191 -0.662361 0)
(0.276749 -0.615431 0)
(0.606769 -0.516431 0)
(0.889945 -0.410933 0)
(1.12666 -0.308459 0)
(1.28318 -0.212686 0)
(1.42405 -0.0600219 0)
(1.4401 0.0538094 0)
(1.41151 0.234724 0)
(1.28365 0.314556 0)
(1.09488 0.492954 0)
(0.675426 0.503118 0)
(0.334705 0.405926 0)
(-0.709075 1.87207 0)
(-0.294355 0.589502 0)
(-0.5775 0.183273 0)
(-0.452264 -0.352569 0)
(-0.387469 -0.522316 0)
(-0.347267 -0.870904 0)
(0.0593015 -0.857583 0)
(0.392959 -0.794941 0)
(0.68814 -0.691734 0)
(0.949003 -0.556246 0)
(1.17201 -0.422601 0)
(1.31246 -0.302892 0)
(1.47766 -0.122065 0)
(1.48222 0.00942111 0)
(1.49873 0.219754 0)
(1.36382 0.369633 0)
(1.19013 0.632775 0)
(0.759767 0.676478 0)
(0.322184 0.600612 0)
(-0.709074 2.07719 0)
(-0.00704395 0.710283 0)
(-2.21899 0.631799 0)
(-0.870288 -0.258028 0)
(-0.0442951 -0.806957 0)
(-0.143532 -0.926458 0)
(0.179222 -0.973146 0)
(0.511473 -0.889491 0)
(0.766625 -0.774898 0)
(1.01535 -0.620022 0)
(1.23692 -0.46501 0)
(1.37465 -0.326709 0)
(1.55005 -0.147086 0)
(1.5557 0.0467112 0)
(1.6077 0.281231 0)
(1.452 0.456422 0)
(1.27457 0.707381 0)
(0.791421 0.903289 0)
(0.402423 0.800762 0)
(-0.728592 2.06559 0)
(0.323937 1.1581 0)
(-0.845286 -0.0956833 0)
(-1.72294 0.0542891 0)
(0.0848144 -1.03115 0)
(0.128001 -1.07884 0)
(0.334056 -1.1158 0)
(0.613719 -1.03762 0)
(0.842582 -0.916573 0)
(1.07379 -0.74834 0)
(1.27534 -0.576334 0)
(1.43523 -0.401881 0)
(1.58716 -0.19084 0)
(1.61895 -0.00379477 0)
(1.67234 0.269055 0)
(1.5491 0.571962 0)
(1.37462 0.90466 0)
(0.790723 1.06596 0)
(0.344535 1.04385 0)
(-0.736836 2.01 0)
(0.542778 1.40302 0)
(1.06733 0.443342 0)
(-1.09489 -0.580956 0)
(0.254588 -1.0341 0)
(0.336864 -1.12816 0)
(0.457685 -1.16166 0)
(0.700786 -1.10218 0)
(0.92525 -0.977121 0)
(1.13679 -0.817414 0)
(1.3334 -0.62595 0)
(1.50713 -0.453315 0)
(1.61735 -0.217083 0)
(1.68646 0.0386717 0)
(1.79965 0.302834 0)
(1.70705 0.639054 0)
(1.50081 1.12136 0)
(0.97126 1.28409 0)
(0.35422 1.27906 0)
(0.297956 1.06632 0)
(0.477532 0.980431 0)
(0.727245 1.03988 0)
(1.01051 1.15373 0)
(1.08142 1.13014 0)
(0.930884 0.930215 0)
(0.750114 0.593729 0)
(0.68707 0.379736 0)
(0.435442 0.993887 0)
(-0.407641 0.31341 0)
(0.246568 -1.67926 0)
(-0.634966 1.4737 0)
(0.493349 0.941671 0)
(0.533866 0.808666 0)
(0.316482 0.605481 0)
(-0.282525 1.07473 0)
(0.663156 0.91599 0)
(0.683177 0.854304 0)
(0.681531 0.78972 0)
(0.670475 0.726424 0)
(0.934503 0.989941 0)
(0.897345 0.866853 0)
(0.906073 0.791749 0)
(0.934733 0.70535 0)
(1.13955 1.00315 0)
(1.15066 0.865107 0)
(1.13537 0.758155 0)
(1.14114 0.664569 0)
(1.08988 0.858851 0)
(1.19043 0.794294 0)
(1.24665 0.690975 0)
(1.29195 0.586154 0)
(0.904434 0.49968 0)
(1.02874 0.524139 0)
(1.1291 0.483041 0)
(1.21984 0.425717 0)
(0.807996 0.341586 0)
(0.897219 0.339798 0)
(0.976643 0.302431 0)
(1.05364 0.266934 0)
(0.790239 0.153524 0)
(0.846335 0.143236 0)
(0.9148 0.124025 0)
(0.967968 0.0793621 0)
(0.734251 0.0852573 0)
(0.811072 0.10335 0)
(0.887503 0.0977217 0)
(0.905308 0.0349649 0)
(0.719633 -0.169376 0)
(0.766694 -0.189595 0)
(0.757142 -0.236901 0)
(0.738814 -0.340593 0)
(0.604008 0.443149 0)
(0.340038 1.34462 0)
(-0.34799 1.41524 0)
(-0.327049 0.687904 0)
(-0.45557 0.634791 0)
(-0.303838 0.992496 0)
(-0.357903 0.0380006 0)
(-0.0116311 -0.546085 0)
(-0.319907 0.326011 0)
(-0.122135 0.591712 0)
(-0.0437428 0.264223 0)
(-0.158988 0.217972 0)
(-0.526128 0.289401 0)
(-0.392361 0.303775 0)
(-0.327436 0.171299 0)
(-0.343257 0.119935 0)
(-0.432065 0.152159 0)
(-0.397289 0.16891 0)
(-0.384055 0.162987 0)
(-0.381667 0.156329 0)
(-0.459789 0.130516 0)
(-0.426537 0.128232 0)
(-0.40648 0.127026 0)
(-0.389154 0.126432 0)
(-0.849773 1.90368 0)
(0.670404 0.56435 0)
(1.14606 0.171274 0)
(0.381848 -0.0575965 0)
(0.722134 -0.975347 0)
(0.635436 -1.25797 0)
(0.693077 -1.28966 0)
(0.857805 -1.28766 0)
(1.0465 -1.18139 0)
(1.22122 -1.0318 0)
(1.40795 -0.885678 0)
(1.54599 -0.723366 0)
(1.68261 -0.535396 0)
(1.74071 -0.333744 0)
(1.72959 0.00689492 0)
(1.56619 0.495886 0)
(1.36862 1.12676 0)
(1.03537 1.63773 0)
(0.453662 1.67264 0)
(0.340385 1.3084 0)
(2.13437 -0.326298 0)
(0.827844 -0.258108 0)
(0.906127 -0.207839 0)
(1.02644 -0.916207 0)
(0.920422 -1.29993 0)
(0.939498 -1.39053 0)
(1.01026 -1.38723 0)
(1.14021 -1.3098 0)
(1.26403 -1.19677 0)
(1.43033 -0.940307 0)
(1.50202 -0.688838 0)
(1.4617 -0.0660843 0)
(1.55422 1.5539 0)
(0.988829 1.71583 0)
(0.79101 1.40461 0)
(0.97778 1.39792 0)
(0.731536 2.01848 0)
(0.36732 2.24313 0)
(0.859226 0.434632 0)
(1.07083 0.0573602 0)
(0.866966 0.10151 0)
(1.08472 -0.245772 0)
(1.20068 -0.914693 0)
(1.13511 -1.28412 0)
(1.07982 -1.40526 0)
(1.0902 -1.41313 0)
(1.08945 -1.34124 0)
(1.21234 -1.06361 0)
(1.29648 -0.172501 0)
(0.990446 0.354915 0)
(0.574565 -0.0989379 0)
(0.444409 -0.775254 0)
(0.729891 -0.275774 0)
(0.743549 1.13005 0)
(-0.000721601 1.93672 0)
(0.471062 2.13863 0)
(0.227455 2.6975 0)
(1.00688 0.549061 0)
(1.0495 0.346974 0)
(1.07954 0.106294 0)
(1.29171 -0.382775 0)
(1.40628 -0.862373 0)
(1.3083 -1.19056 0)
(1.20971 -1.31678 0)
(1.08414 -1.35616 0)
(0.864493 -1.37996 0)
(0.662728 -1.02906 0)
(0.57373 -0.862427 0)
(0.363405 -0.690068 0)
(0.629873 -0.301047 0)
(0.495165 0.682149 0)
(0.186706 0.651589 0)
(1.00768 1.01498 0)
(-0.769562 2.8255 0)
(0.34922 2.22928 0)
(0.250168 2.97386 0)
(1.18561 0.496288 0)
(1.23476 0.24275 0)
(1.3638 -0.0775486 0)
(1.50559 -0.476773 0)
(1.50469 -0.842157 0)
(1.38565 -1.09702 0)
(1.24769 -1.18755 0)
(0.975715 -1.23181 0)
(0.52474 -1.30978 0)
(0.344339 -1.00225 0)
(0.0650857 -0.347061 0)
(-0.0544131 -0.0295851 0)
(-0.116631 -0.166537 0)
(-0.114147 -0.0987235 0)
(0.355919 -0.0759896 0)
(0.510414 1.20741 0)
(-0.241069 1.99361 0)
(0.149528 2.47658 0)
(0.3477 3.14381 0)
(1.33717 0.428938 0)
(1.42455 0.160318 0)
(1.53652 -0.150977 0)
(1.59464 -0.511533 0)
(1.50881 -0.763748 0)
(1.37791 -0.938656 0)
(1.16798 -1.03736 0)
(0.875803 -1.17566 0)
(0.510045 -0.744035 0)
(0.0626623 -0.43911 0)
(-0.140637 -0.350207 0)
(-0.129644 -0.33268 0)
(0.0183871 -0.214839 0)
(-0.183542 -0.00451756 0)
(0.275036 0.106993 0)
(-0.158404 1.33142 0)
(0.289665 1.76653 0)
(-0.198276 2.72147 0)
(0.443231 3.20728 0)
(1.32727 0.320495 0)
(1.47243 0.0560454 0)
(1.52181 -0.236759 0)
(1.48322 -0.465476 0)
(1.41521 -0.676068 0)
(1.2806 -0.885678 0)
(1.06452 -1.05936 0)
(0.768578 -0.688711 0)
(0.148923 -0.307559 0)
(-0.0112594 -0.369631 0)
(-0.114161 -0.267137 0)
(-0.169354 -0.240456 0)
(-0.0824265 -0.248769 0)
(-0.257148 -0.228246 0)
(0.246104 -0.0109787 0)
(-0.208874 1.1561 0)
(0.735314 1.79259 0)
(-0.458753 2.94911 0)
(0.531107 3.17877 0)
(1.20138 0.158776 0)
(1.30969 -0.0401484 0)
(1.36192 -0.187315 0)
(1.36107 -0.386658 0)
(1.34749 -0.637407 0)
(1.23652 -0.797727 0)
(0.717551 -0.588984 0)
(0.0741128 -0.224293 0)
(-0.0372617 -0.137807 0)
(-0.119807 -0.193858 0)
(-0.190748 -0.224638 0)
(-0.194332 -0.257128 0)
(-0.128397 -0.258133 0)
(-0.274392 -0.286329 0)
(0.21776 -0.0145519 0)
(-0.217833 0.775137 0)
(1.22505 1.7493 0)
(-0.773101 3.30868 0)
(0.753757 3.04825 0)
(1.06419 0.0453635 0)
(1.15823 -0.0331535 0)
(1.29869 -0.244879 0)
(1.24033 -0.489925 0)
(1.04752 -0.429369 0)
(0.57355 -0.0728252 0)
(0.0683182 -0.13307 0)
(-0.100282 -0.107967 0)
(-0.129704 -0.103336 0)
(-0.179458 -0.174109 0)
(-0.217268 -0.204341 0)
(-0.228188 -0.254538 0)
(-0.202183 -0.303332 0)
(-0.301371 -0.367717 0)
(0.157226 -0.110095 0)
(-0.297316 0.36521 0)
(1.40133 1.8094 0)
(-1.20328 3.8641 0)
(1.02526 3.02663 0)
(1.0819 -0.0702766 0)
(1.08435 -0.31837 0)
(0.909913 -0.350925 0)
(0.821747 0.425266 0)
(0.149338 0.0674732 0)
(0.0409196 0.0561326 0)
(-0.081862 -0.0255787 0)
(-0.154682 -0.0185256 0)
(-0.198945 -0.0658946 0)
(-0.224374 -0.125253 0)
(-0.256994 -0.177689 0)
(-0.278714 -0.240281 0)
(-0.292079 -0.321851 0)
(-0.339278 -0.408035 0)
(0.0151639 -0.23511 0)
(-0.394947 -0.10008 0)
(1.3146 1.76007 0)
(-0.484759 3.86071 0)
(1.27293 3.31699 0)
(0.689679 -0.275774 0)
(0.799096 0.957936 0)
(-0.0887243 0.512256 0)
(-0.059334 0.0044342 0)
(-0.071239 0.163265 0)
(-0.161919 0.102147 0)
(-0.163972 0.0565734 0)
(-0.222168 0.00411901 0)
(-0.236079 -0.0432259 0)
(-0.266196 -0.0986425 0)
(-0.306508 -0.145439 0)
(-0.343801 -0.212541 0)
(-0.388765 -0.303423 0)
(-0.421608 -0.407665 0)
(-0.288805 -0.384931 0)
(-0.589339 -0.438885 0)
(0.742491 1.43762 0)
(0.0904198 3.58146 0)
(1.79423 4.26929 0)
(-0.552857 0.190181 0)
(-0.228092 0.0461973 0)
(-0.14477 0.0867674 0)
(-0.167298 0.177298 0)
(-0.205335 0.128348 0)
(-0.216219 0.127723 0)
(-0.226181 0.0668864 0)
(-0.252078 0.0301944 0)
(-0.272724 -0.0184484 0)
(-0.310284 -0.058981 0)
(-0.355282 -0.105324 0)
(-0.408724 -0.163726 0)
(-0.477642 -0.241263 0)
(-0.546227 -0.342221 0)
(-0.651362 -0.440655 0)
(-0.888273 -0.483682 0)
(-0.157871 0.970929 0)
(-0.737121 2.93312 0)
(2.36743 5.25665 0)
(-0.17219 -0.278348 0)
(-0.203041 0.163478 0)
(-0.260626 0.209553 0)
(-0.262539 0.175344 0)
(-0.262886 0.151929 0)
(-0.264317 0.124671 0)
(-0.260124 0.0841674 0)
(-0.281636 0.0465914 0)
(-0.306839 0.0131909 0)
(-0.345669 -0.0208723 0)
(-0.395487 -0.0561276 0)
(-0.460413 -0.0992294 0)
(-0.548249 -0.153209 0)
(-0.663174 -0.225708 0)
(-0.863743 -0.325232 0)
(-1.16393 -0.313339 0)
(-1.0421 0.577096 0)
(-1.57498 2.29143 0)
(1.53524 4.86603 0)
(-0.334929 0.222943 0)
(-0.370279 0.175067 0)
(-0.332659 0.186845 0)
(-0.301815 0.16439 0)
(-0.289755 0.144221 0)
(-0.28845 0.121233 0)
(-0.284173 0.0935524 0)
(-0.309374 0.0663737 0)
(-0.33025 0.0441003 0)
(-0.372027 0.0189414 0)
(-0.422039 -0.00231311 0)
(-0.492016 -0.0267266 0)
(-0.587505 -0.0513979 0)
(-0.722355 -0.0795507 0)
(-0.933245 -0.109725 0)
(-1.26686 -0.0488464 0)
(-1.54564 0.473451 0)
(-1.64955 1.92663 0)
(-0.21174 4.43276 0)
(-0.346382 0.105709 0)
(-0.35187 0.151853 0)
(-0.335101 0.164515 0)
(-0.31549 0.148581 0)
(-0.305166 0.1356 0)
(-0.304057 0.121413 0)
(-0.302303 0.102082 0)
(-0.328174 0.0867407 0)
(-0.344705 0.0725626 0)
(-0.387229 0.0587711 0)
(-0.433613 0.0509338 0)
(-0.501581 0.0455272 0)
(-0.591495 0.0485936 0)
(-0.716679 0.064053 0)
(-0.89625 0.105142 0)
(-1.1646 0.224145 0)
(-1.49446 0.577032 0)
(-1.43406 1.55804 0)
(-0.875998 2.98755 0)
(-0.369675 0.146596 0)
(-0.353868 0.145849 0)
(-0.333443 0.142359 0)
(-0.3227 0.138414 0)
(-0.313499 0.12918 0)
(-0.314121 0.122734 0)
(-0.313534 0.110619 0)
(-0.337467 0.105867 0)
(-0.351557 0.0982971 0)
(-0.390997 0.0960727 0)
(-0.431725 0.0995973 0)
(-0.491719 0.110549 0)
(-0.567235 0.135052 0)
(-0.666546 0.180934 0)
(-0.793376 0.264792 0)
(-0.954471 0.422296 0)
(-1.13003 0.73903 0)
(-0.995024 1.38505 0)
(-0.653511 1.96659 0)
(-0.364345 0.125824 0)
(-0.347168 0.123129 0)
(-0.337529 0.133141 0)
(-0.321609 0.130302 0)
(-0.316672 0.124572 0)
(-0.318993 0.125144 0)
(-0.317841 0.118987 0)
(-0.33982 0.121816 0)
(-0.350756 0.121544 0)
(-0.3854 0.128415 0)
(-0.418806 0.141218 0)
(-0.467681 0.164188 0)
(-0.525298 0.202483 0)
(-0.59538 0.264235 0)
(-0.67324 0.362902 0)
(-0.750219 0.519537 0)
(-0.802151 0.774509 0)
(-0.631535 1.19804 0)
(-0.345479 1.43376 0)
)
;

boundaryField
{
    leftWall
    {
        type            calculated;
        value           nonuniform 0();
    }
    rightWall
    {
        type            calculated;
        value           uniform (0 0 0);
    }
    lowerWall
    {
        type            calculated;
        value           uniform (0 0 0);
    }
    atmosphere
    {
        type            calculated;
        value           nonuniform 0();
    }
    defaultFaces
    {
        type            empty;
    }
    procBoundary1to0
    {
        type            processor;
        value           nonuniform List<vector> 
26
(
(0.375682 0.0912896 0)
(0.39287 0.142572 0)
(0.398665 0.271655 0)
(0.487474 0.404722 0)
(0.46769 0.511097 0)
(0.44129 0.595303 0)
(0.38136 0.709266 0)
(0.347384 0.728697 0)
(0.496638 0.765063 0)
(0.746577 0.958191 0)
(0.980449 1.1964 0)
(1.0171 1.22861 0)
(0.882704 1.10437 0)
(0.607738 0.74415 0)
(0.473848 0.53202 0)
(0.474399 0.325609 0)
(0.656296 0.196624 0)
(0.656296 0.196624 0)
(0.6533 0.110359 0)
(0.67286 -0.161688 0)
(0.472724 -0.218415 0)
(-0.541266 -0.0561673 0)
(-0.0498027 -0.387842 0)
(-0.547316 0.224781 0)
(-0.446725 0.0150515 0)
(-0.477936 0.107894 0)
)
;
    }
    procBoundary1to3
    {
        type            processor;
        value           nonuniform List<vector> 
23
(
(-0.423704 0.0768039 0)
(-0.402833 0.0757155 0)
(-0.39218 0.0859899 0)
(-0.379747 0.0912519 0)
(-0.356708 0.0995571 0)
(-0.344637 0.112532 0)
(-0.336054 0.125244 0)
(-0.317095 0.121957 0)
(-0.313137 0.122426 0)
(-0.318753 0.127188 0)
(-0.316262 0.125385 0)
(-0.335665 0.136352 0)
(-0.344279 0.140437 0)
(-0.372237 0.155149 0)
(-0.398191 0.174363 0)
(-0.434884 0.205009 0)
(-0.474966 0.250235 0)
(-0.518842 0.316807 0)
(-0.558783 0.4134 0)
(-0.582178 0.55023 0)
(-0.569197 0.739496 0)
(-0.411251 0.99844 0)
(-0.186422 1.10645 0)
)
;
    }
}


// ************************************************************************* //
