/*--------------------------------*- C++ -*----------------------------------*\
| =========                 |                                                 |
| \\      /  F ield         | OpenFOAM: The Open Source CFD Toolbox           |
|  \\    /   O peration     | Version:  2.4.0                                 |
|   \\  /    A nd           | Web:      www.OpenFOAM.org                      |
|    \\/     M anipulation  |                                                 |
\*---------------------------------------------------------------------------*/
FoamFile
{
    version     2.0;
    format      ascii;
    class       volVectorField;
    location    "0.25";
    object      U.air;
}
// * * * * * * * * * * * * * * * * * * * * * * * * * * * * * * * * * * * * * //

dimensions      [0 1 -1 0 0 0 0];

internalField   nonuniform List<vector> 
559
(
(0.0972502 0.0271404 0)
(0.119751 0.182098 0)
(0.168941 0.270534 0)
(0.126264 0.432841 0)
(0.202309 0.546073 0)
(0.140989 0.694472 0)
(0.19984 0.798766 0)
(0.144231 0.944013 0)
(-0.934343 0.445937 0)
(-1.40574 0.256999 0)
(-1.95055 0.205594 0)
(-2.20776 0.029871 0)
(-1.66168 -0.0395318 0)
(-1.34639 0.00036282 0)
(-0.86526 -0.0271095 0)
(-0.294674 -0.0526819 0)
(0.148215 -0.0198431 0)
(0.549477 -0.023869 0)
(0.809704 -0.0440055 0)
(0.982345 -0.016157 0)
(0.975704 0.192951 0)
(0.802161 0.199465 0)
(0.631408 0.168335 0)
(0.418187 0.18964 0)
(0.181686 0.158892 0)
(-0.271271 0.0661468 0)
(-0.0262681 0.176343 0)
(-0.968089 0.881623 0)
(-1.5282 0.460888 0)
(-1.81441 0.201465 0)
(-1.67438 -0.0736732 0)
(-1.42914 -0.239566 0)
(-0.994456 -0.287286 0)
(-0.436003 -0.183444 0)
(0.0192317 -0.246698 0)
(0.360817 -0.178768 0)
(0.686576 -0.139938 0)
(0.95319 -0.0967426 0)
(1.13145 -0.0185346 0)
(1.16751 0.220747 0)
(1.08775 0.306448 0)
(0.901654 0.348335 0)
(0.596217 0.40423 0)
(0.348868 0.549907 0)
(-0.100542 0.492589 0)
(0.00903891 0.335013 0)
(-1.00523 1.41966 0)
(-1.24818 0.968853 0)
(-1.32898 0.397412 0)
(-1.30486 -0.0784843 0)
(-1.16007 -0.434138 0)
(-0.834842 -0.57324 0)
(-0.259768 -0.503982 0)
(0.144371 -0.475318 0)
(0.498347 -0.407723 0)
(0.799222 -0.341628 0)
(1.04642 -0.26319 0)
(1.2107 -0.164942 0)
(1.33263 -0.00394506 0)
(1.35285 0.0593524 0)
(1.29971 0.177848 0)
(0.909306 0.293003 0)
(0.49398 0.623025 0)
(0.0771319 0.528119 0)
(0.0692472 0.288372 0)
(-0.655081 1.98432 0)
(-0.24519 1.33935 0)
(-0.758231 0.759849 0)
(-1.30266 0.342542 0)
(-1.06143 -0.276228 0)
(-0.592611 -0.678518 0)
(-0.145837 -0.659004 0)
(0.276489 -0.617768 0)
(0.606112 -0.515125 0)
(0.889713 -0.409454 0)
(1.12661 -0.307032 0)
(1.28305 -0.21145 0)
(1.42359 -0.0588963 0)
(1.43927 0.0551039 0)
(1.40915 0.236451 0)
(1.07604 0.326867 0)
(0.644039 0.858472 0)
(0.216274 0.780188 0)
(0.101214 0.63487 0)
(-0.370804 2.67498 0)
(0.0231887 1.14087 0)
(-0.650689 0.377965 0)
(-0.956136 0.365315 0)
(-0.962413 -0.128181 0)
(-0.640234 -0.690559 0)
(0.00181773 -0.851504 0)
(0.394196 -0.798528 0)
(0.687699 -0.690751 0)
(0.948723 -0.554622 0)
(1.17197 -0.420977 0)
(1.31237 -0.301229 0)
(1.47728 -0.120318 0)
(1.48146 0.0113497 0)
(1.49742 0.221761 0)
(1.28384 0.372801 0)
(0.902512 0.892012 0)
(0.298693 1.00174 0)
(0.0687014 0.893155 0)
(-0.198217 2.61873 0)
(0.192367 0.778559 0)
(-2.23356 0.640718 0)
(-1.16647 -0.0571297 0)
(-1.19014 -0.209452 0)
(-0.546785 -0.589236 0)
(0.0221519 -0.964658 0)
(0.514128 -0.893085 0)
(0.766483 -0.77434 0)
(1.01506 -0.618333 0)
(1.23691 -0.463183 0)
(1.37461 -0.324877 0)
(1.54977 -0.145124 0)
(1.55496 0.049219 0)
(1.60617 0.284488 0)
(1.44619 0.459995 0)
(1.23049 0.792085 0)
(0.652909 1.10383 0)
(0.301476 1.03536 0)
(-0.222339 2.17583 0)
(0.449456 1.13766 0)
(-0.846355 -0.0952702 0)
(-1.79262 0.0862417 0)
(-0.62297 -0.680306 0)
(-0.612467 -0.693463 0)
(0.143187 -1.10467 0)
(0.616706 -1.03924 0)
(0.84273 -0.916649 0)
(1.07376 -0.748233 0)
(1.27545 -0.575588 0)
(1.43525 -0.400783 0)
(1.58698 -0.189653 0)
(1.6181 -0.00213539 0)
(1.67024 0.27153 0)
(1.54586 0.574808 0)
(1.36946 0.911553 0)
(0.774422 1.10504 0)
(0.331561 1.14037 0)
(-0.152666 2.1283 0)
(0.691175 1.37364 0)
(1.06845 0.442748 0)
(-1.1041 -0.585158 0)
(-0.362355 -0.954328 0)
(-0.555839 -0.825239 0)
(0.265618 -1.1462 0)
(0.704744 -1.09815 0)
(0.925319 -0.924763 0)
(1.13696 -0.598431 0)
(1.33341 -0.353578 0)
(1.50716 -0.152956 0)
(1.61743 0.161306 0)
(1.68651 0.566782 0)
(1.79956 0.915756 0)
(1.70653 1.08556 0)
(1.49981 1.35172 0)
(0.968894 1.38576 0)
(0.352536 1.29828 0)
(1.74997 1.05427 0)
(0.591045 0.978535 0)
(0.632465 0.979905 0)
(0.836223 1.02753 0)
(0.93288 1.02709 0)
(0.897308 0.909981 0)
(0.751192 0.597635 0)
(0.687121 0.37966 0)
(1.72567 0.696268 0)
(-0.419796 0.25834 0)
(0.278073 -1.76105 0)
(-0.430887 1.28554 0)
(0.764375 0.49906 0)
(0.717775 0.488064 0)
(0.639369 0.143442 0)
(0.100337 0.733506 0)
(0.720561 0.894247 0)
(0.855615 0.787081 0)
(0.872408 0.552096 0)
(1.08247 0.372977 0)
(0.805012 0.950517 0)
(0.819899 0.852826 0)
(0.929797 0.790641 0)
(1.12707 0.620652 0)
(0.951402 0.948725 0)
(0.961493 0.873476 0)
(0.974481 0.795643 0)
(1.00717 0.667266 0)
(0.99682 0.849947 0)
(1.04715 0.816722 0)
(1.06726 0.756937 0)
(1.10768 0.679928 0)
(0.896732 0.518702 0)
(1.00449 0.56113 0)
(1.07069 0.554692 0)
(1.12242 0.535597 0)
(0.808047 0.341573 0)
(0.897122 0.341219 0)
(0.974617 0.311427 0)
(1.0451 0.30049 0)
(0.790297 0.165489 0)
(0.846386 0.160581 0)
(0.914834 0.154596 0)
(0.968294 0.16355 0)
(0.749986 0.329648 0)
(0.838681 0.406352 0)
(0.95325 0.415149 0)
(1.04753 0.405408 0)
(0.825733 0.251256 0)
(0.825087 0.145887 0)
(0.753681 0.0703176 0)
(0.740606 -0.0506454 0)
(0.61318 0.510542 0)
(0.338691 1.37103 0)
(-0.348695 1.41723 0)
(-0.327072 0.687941 0)
(-0.455681 0.634977 0)
(-0.303852 0.992536 0)
(-0.357903 0.0380007 0)
(-0.0116311 -0.546085 0)
(-0.319907 0.32601 0)
(-0.122135 0.591712 0)
(-0.0437428 0.264223 0)
(-0.158988 0.217972 0)
(-0.526128 0.289401 0)
(-0.392362 0.303776 0)
(-0.327436 0.1713 0)
(-0.343257 0.119935 0)
(-0.432066 0.152159 0)
(-0.397289 0.16891 0)
(-0.384056 0.162987 0)
(-0.381667 0.156329 0)
(-0.45979 0.130516 0)
(-0.426538 0.128233 0)
(-0.406481 0.127026 0)
(-0.389154 0.126432 0)
(-0.608781 1.96704 0)
(0.712027 0.527223 0)
(1.14727 0.170139 0)
(0.325967 -0.0922662 0)
(0.142846 -0.954809 0)
(-0.0504749 -1.05539 0)
(0.488302 -1.237 0)
(0.839034 -1.13732 0)
(1.01333 -0.849189 0)
(1.2659 -0.479266 0)
(1.52159 -0.2134 0)
(1.63192 0.0508697 0)
(1.74496 0.219514 0)
(1.76387 0.345248 0)
(1.63989 0.716076 0)
(1.19468 1.47027 0)
(0.84949 1.96981 0)
(0.728197 2.03947 0)
(0.348101 1.70635 0)
(0.56331 1.22427 0)
(2.15885 -0.341424 0)
(0.832126 -0.26631 0)
(0.795708 -0.281783 0)
(0.503489 -0.966176 0)
(0.516555 -1.03641 0)
(0.759577 -1.2247 0)
(0.839704 -1.12529 0)
(1.06921 -0.874943 0)
(1.29456 -0.716007 0)
(1.49763 -0.567714 0)
(1.54743 -0.45221 0)
(1.47304 0.0523227 0)
(1.5575 1.59383 0)
(0.976528 1.78622 0)
(0.683891 1.58605 0)
(0.448104 2.05343 0)
(0.0615586 2.65147 0)
(0.164928 2.46521 0)
(1.14817 0.197476 0)
(1.16646 -0.0484579 0)
(0.854213 -0.0201742 0)
(0.88786 -0.497387 0)
(0.797846 -0.989958 0)
(0.926187 -0.951899 0)
(0.91986 -1.17575 0)
(0.694872 -1.39547 0)
(0.934253 -1.23041 0)
(1.20595 -0.958681 0)
(1.29804 -0.135065 0)
(0.990072 0.35722 0)
(0.57455 -0.098908 0)
(0.444405 -0.775249 0)
(0.729876 -0.275749 0)
(0.742783 1.13117 0)
(-0.161619 2.05679 0)
(-0.338599 2.62355 0)
(0.002582 3.20845 0)
(1.21285 0.245106 0)
(1.12349 -0.0374944 0)
(0.997867 -0.321915 0)
(1.09472 -0.505676 0)
(1.30909 -0.611165 0)
(1.19012 -0.900418 0)
(0.784265 -1.47928 0)
(0.743634 -1.50267 0)
(0.77596 -1.39794 0)
(0.656113 -1.025 0)
(0.573633 -0.862344 0)
(0.363403 -0.690065 0)
(0.62987 -0.301045 0)
(0.495163 0.682145 0)
(0.186704 0.651587 0)
(1.00767 1.01498 0)
(-0.775826 2.83052 0)
(0.0214599 2.43751 0)
(-0.0470909 3.4677 0)
(1.08864 0.448727 0)
(1.15479 0.126759 0)
(1.26868 -0.108039 0)
(1.43153 -0.308026 0)
(1.42014 -0.580128 0)
(1.18129 -1.04992 0)
(0.864007 -1.48345 0)
(0.837957 -1.31484 0)
(0.506563 -1.31898 0)
(0.344169 -1.00237 0)
(0.065085 -0.34706 0)
(-0.0544127 -0.0295848 0)
(-0.11663 -0.166536 0)
(-0.114146 -0.0987229 0)
(0.355917 -0.0759892 0)
(0.510412 1.20741 0)
(-0.241086 1.99361 0)
(-0.0100651 2.51615 0)
(0.0151224 3.34314 0)
(1.16708 0.536378 0)
(1.27718 0.318617 0)
(1.41837 0.0723614 0)
(1.47946 -0.28254 0)
(1.37203 -0.737281 0)
(1.11034 -1.31081 0)
(1.0228 -1.16799 0)
(0.849426 -1.20284 0)
(0.509267 -0.743799 0)
(0.0626609 -0.439108 0)
(-0.140636 -0.350205 0)
(-0.129643 -0.332678 0)
(0.018387 -0.214838 0)
(-0.183541 -0.00451742 0)
(0.275034 0.106992 0)
(-0.158404 1.33141 0)
(0.289663 1.76652 0)
(-0.326549 2.70638 0)
(0.076442 3.20421 0)
(1.20644 0.463109 0)
(1.34163 0.252397 0)
(1.45473 -0.00730675 0)
(1.46271 -0.318447 0)
(1.3954 -0.943144 0)
(1.25922 -1.04791 0)
(1.05621 -1.09289 0)
(0.766876 -0.688042 0)
(0.14889 -0.307554 0)
(-0.0112593 -0.369629 0)
(-0.11416 -0.267136 0)
(-0.169353 -0.240455 0)
(-0.082426 -0.248768 0)
(-0.257147 -0.228245 0)
(0.246103 -0.0109786 0)
(-0.208873 1.1561 0)
(0.73531 1.79258 0)
(-0.622573 2.94588 0)
(0.0134733 3.16062 0)
(1.17565 0.248637 0)
(1.31038 0.0940074 0)
(1.42172 -0.0717987 0)
(1.52513 -0.377411 0)
(1.49887 -0.626643 0)
(1.28157 -0.804572 0)
(0.717455 -0.587032 0)
(0.0740717 -0.224291 0)
(-0.0372623 -0.137807 0)
(-0.119807 -0.193857 0)
(-0.190748 -0.224637 0)
(-0.194331 -0.257127 0)
(-0.128396 -0.258131 0)
(-0.27439 -0.286328 0)
(0.217759 -0.0145517 0)
(-0.217831 0.775133 0)
(1.22504 1.74929 0)
(-0.917779 3.32603 0)
(0.211044 3.13297 0)
(1.12922 0.155757 0)
(1.31933 0.186638 0)
(1.50357 0.0536928 0)
(1.36811 -0.339641 0)
(1.07755 -0.380122 0)
(0.573448 -0.0706695 0)
(0.0683174 -0.133068 0)
(-0.100282 -0.107967 0)
(-0.129704 -0.103336 0)
(-0.179457 -0.174108 0)
(-0.217267 -0.20434 0)
(-0.228187 -0.254537 0)
(-0.202182 -0.303331 0)
(-0.301369 -0.367716 0)
(0.157226 -0.110094 0)
(-0.297314 0.365208 0)
(1.40132 1.80939 0)
(-1.25949 3.86917 0)
(0.778885 3.16664 0)
(1.26413 0.395826 0)
(1.21523 -0.0308674 0)
(0.939606 -0.195671 0)
(0.825424 0.454303 0)
(0.149307 0.0675414 0)
(0.0409195 0.0561326 0)
(-0.0818618 -0.0255787 0)
(-0.154682 -0.0185255 0)
(-0.198944 -0.0658944 0)
(-0.224373 -0.125252 0)
(-0.256993 -0.177689 0)
(-0.278713 -0.24028 0)
(-0.292078 -0.321849 0)
(-0.339277 -0.408033 0)
(0.0151641 -0.235109 0)
(-0.394945 -0.100079 0)
(1.3146 1.76007 0)
(-0.488974 3.85691 0)
(1.1978 3.42405 0)
(0.705285 -0.0863716 0)
(0.805754 1.00317 0)
(-0.0887584 0.512365 0)
(-0.0593406 0.0044426 0)
(-0.071239 0.163265 0)
(-0.161918 0.102147 0)
(-0.163972 0.0565733 0)
(-0.222168 0.004119 0)
(-0.236078 -0.0432258 0)
(-0.266195 -0.0986422 0)
(-0.306507 -0.145439 0)
(-0.3438 -0.212541 0)
(-0.388764 -0.303422 0)
(-0.421607 -0.407664 0)
(-0.288804 -0.38493 0)
(-0.589336 -0.438884 0)
(0.742488 1.43762 0)
(0.090332 3.58115 0)
(1.78275 4.26637 0)
(-0.55286 0.190184 0)
(-0.228107 0.0462169 0)
(-0.14477 0.0867676 0)
(-0.167298 0.177298 0)
(-0.205335 0.128348 0)
(-0.216219 0.127723 0)
(-0.22618 0.0668863 0)
(-0.252078 0.0301944 0)
(-0.272724 -0.0184484 0)
(-0.310283 -0.0589809 0)
(-0.355281 -0.105323 0)
(-0.408723 -0.163725 0)
(-0.477641 -0.241262 0)
(-0.546226 -0.34222 0)
(-0.65136 -0.440654 0)
(-0.888269 -0.483681 0)
(-0.15787 0.970921 0)
(-0.737122 2.93309 0)
(2.32972 5.16205 0)
(-0.17219 -0.278349 0)
(-0.203041 0.163478 0)
(-0.260627 0.209553 0)
(-0.262539 0.175344 0)
(-0.262886 0.151929 0)
(-0.264317 0.124671 0)
(-0.260124 0.0841673 0)
(-0.281635 0.0465913 0)
(-0.306838 0.0131909 0)
(-0.345668 -0.0208723 0)
(-0.395486 -0.0561274 0)
(-0.460412 -0.0992292 0)
(-0.548248 -0.153209 0)
(-0.663173 -0.225708 0)
(-0.86374 -0.325231 0)
(-1.16393 -0.313339 0)
(-1.04209 0.577089 0)
(-1.57522 2.29106 0)
(1.52694 4.85017 0)
(-0.334929 0.222943 0)
(-0.370279 0.175067 0)
(-0.33266 0.186845 0)
(-0.301816 0.164391 0)
(-0.289755 0.144221 0)
(-0.28845 0.121233 0)
(-0.284173 0.0935523 0)
(-0.309374 0.0663736 0)
(-0.33025 0.0441002 0)
(-0.372027 0.0189414 0)
(-0.422038 -0.00231311 0)
(-0.492015 -0.0267265 0)
(-0.587504 -0.0513978 0)
(-0.722354 -0.0795505 0)
(-0.933243 -0.109725 0)
(-1.26686 -0.0488469 0)
(-1.54564 0.473441 0)
(-1.6497 1.92634 0)
(-0.211862 4.43255 0)
(-0.346382 0.105709 0)
(-0.35187 0.151853 0)
(-0.335101 0.164515 0)
(-0.31549 0.148581 0)
(-0.305166 0.1356 0)
(-0.304057 0.121413 0)
(-0.302303 0.102082 0)
(-0.328174 0.0867407 0)
(-0.344705 0.0725625 0)
(-0.387229 0.0587711 0)
(-0.433612 0.0509337 0)
(-0.50158 0.0455272 0)
(-0.591495 0.0485936 0)
(-0.716678 0.0640529 0)
(-0.896249 0.105141 0)
(-1.1646 0.224144 0)
(-1.49446 0.577029 0)
(-1.43406 1.55802 0)
(-0.875998 2.98754 0)
(-0.369675 0.146596 0)
(-0.353868 0.14585 0)
(-0.333443 0.142359 0)
(-0.3227 0.138414 0)
(-0.313499 0.12918 0)
(-0.314121 0.122734 0)
(-0.313534 0.110619 0)
(-0.337467 0.105867 0)
(-0.351557 0.098297 0)
(-0.390997 0.0960726 0)
(-0.431725 0.0995973 0)
(-0.491719 0.110549 0)
(-0.567235 0.135052 0)
(-0.666546 0.180934 0)
(-0.793375 0.264791 0)
(-0.95447 0.422295 0)
(-1.13003 0.739029 0)
(-0.995022 1.38505 0)
(-0.653509 1.96659 0)
(-0.364346 0.125824 0)
(-0.347168 0.12313 0)
(-0.337529 0.133141 0)
(-0.321609 0.130302 0)
(-0.316672 0.124573 0)
(-0.318993 0.125144 0)
(-0.317841 0.118987 0)
(-0.33982 0.121816 0)
(-0.350757 0.121544 0)
(-0.3854 0.128415 0)
(-0.418806 0.141218 0)
(-0.467681 0.164188 0)
(-0.525298 0.202483 0)
(-0.595379 0.264234 0)
(-0.673239 0.362902 0)
(-0.750218 0.519536 0)
(-0.80215 0.774508 0)
(-0.631534 1.19804 0)
(-0.345479 1.43376 0)
)
;

boundaryField
{
    leftWall
    {
        type            fixedValue;
        value           nonuniform 0();
    }
    rightWall
    {
        type            fixedValue;
        value           uniform (0 0 0);
    }
    lowerWall
    {
        type            fixedValue;
        value           uniform (0 0 0);
    }
    atmosphere
    {
        type            fluxCorrectedVelocity;
        value           nonuniform 0();
    }
    defaultFaces
    {
        type            empty;
    }
    procBoundary1to0
    {
        type            processor;
        value           nonuniform List<vector> 
26
(
(0.375683 0.0912901 0)
(0.39287 0.142577 0)
(0.398665 0.271664 0)
(0.487472 0.40474 0)
(0.467152 0.512101 0)
(0.440948 0.595878 0)
(0.389026 0.698925 0)
(0.364365 0.698956 0)
(0.459849 0.676897 0)
(0.645775 0.76692 0)
(0.833727 0.922088 0)
(0.910017 1.02381 0)
(0.855193 1.02417 0)
(0.611863 0.733288 0)
(0.474826 0.531728 0)
(0.474446 0.325545 0)
(0.656352 0.200414 0)
(0.656352 0.200414 0)
(0.658086 0.284798 0)
(0.762642 0.360612 0)
(0.484311 -0.0616279 0)
(-0.541275 -0.0561602 0)
(-0.0498027 -0.387842 0)
(-0.547316 0.224781 0)
(-0.446725 0.0150515 0)
(-0.477937 0.107894 0)
)
;
    }
    procBoundary1to3
    {
        type            processor;
        value           nonuniform List<vector> 
23
(
(-0.423704 0.076804 0)
(-0.402833 0.0757157 0)
(-0.39218 0.0859901 0)
(-0.379748 0.0912521 0)
(-0.356708 0.0995573 0)
(-0.344638 0.112532 0)
(-0.336054 0.125244 0)
(-0.317095 0.121957 0)
(-0.313138 0.122426 0)
(-0.318754 0.127188 0)
(-0.316263 0.125385 0)
(-0.335666 0.136352 0)
(-0.344279 0.140437 0)
(-0.372237 0.155149 0)
(-0.398191 0.174363 0)
(-0.434884 0.205009 0)
(-0.474965 0.250235 0)
(-0.518842 0.316807 0)
(-0.558783 0.413399 0)
(-0.582177 0.55023 0)
(-0.569196 0.739495 0)
(-0.411251 0.998439 0)
(-0.186422 1.10645 0)
)
;
    }
}


// ************************************************************************* //
