/*--------------------------------*- C++ -*----------------------------------*\
| =========                 |                                                 |
| \\      /  F ield         | OpenFOAM: The Open Source CFD Toolbox           |
|  \\    /   O peration     | Version:  2.4.0                                 |
|   \\  /    A nd           | Web:      www.OpenFOAM.org                      |
|    \\/     M anipulation  |                                                 |
\*---------------------------------------------------------------------------*/
FoamFile
{
    version     2.0;
    format      ascii;
    class       volVectorField;
    location    "0.25";
    object      U.mercury;
}
// * * * * * * * * * * * * * * * * * * * * * * * * * * * * * * * * * * * * * //

dimensions      [0 1 -1 0 0 0 0];

internalField   nonuniform List<vector> 
559
(
(0.0972555 0.0271215 0)
(0.119758 0.182064 0)
(0.168953 0.27048 0)
(0.126279 0.432765 0)
(0.202338 0.545962 0)
(0.141056 0.694218 0)
(0.200175 0.797219 0)
(0.144352 0.940331 0)
(-1.1525 0.345883 0)
(-1.79745 0.128333 0)
(-2.04512 0.0254306 0)
(-1.93699 -0.139132 0)
(-1.32768 -0.167832 0)
(-1.05893 -0.132121 0)
(-0.635337 -0.123688 0)
(-0.152266 -0.132609 0)
(0.190413 -0.104796 0)
(0.546757 -0.0922924 0)
(0.800239 -0.0835149 0)
(1.00468 -0.0684339 0)
(1.12266 -0.0598573 0)
(1.11082 -0.0505532 0)
(1.05081 -0.0467935 0)
(0.906026 -0.00699381 0)
(0.680455 -0.0342397 0)
(0.166647 -0.119872 0)
(0.170719 -0.0872672 0)
(-1.06397 0.701035 0)
(-1.67249 0.298605 0)
(-1.82043 0.00863349 0)
(-1.55083 -0.27816 0)
(-1.23385 -0.422648 0)
(-0.819724 -0.49573 0)
(-0.311601 -0.350563 0)
(0.070305 -0.352175 0)
(0.367796 -0.234402 0)
(0.686475 -0.17574 0)
(0.951849 -0.116633 0)
(1.14215 -0.065729 0)
(1.24084 0.0107981 0)
(1.24772 0.0735075 0)
(1.18316 0.138786 0)
(1.02473 0.181887 0)
(0.830508 0.28442 0)
(0.341004 0.231887 0)
(0.21598 0.132027 0)
(-1.05895 1.2576 0)
(-1.31231 0.58045 0)
(-1.31043 -0.0212074 0)
(-1.1547 -0.319368 0)
(-0.904359 -0.600399 0)
(-0.545299 -0.798018 0)
(-0.0277606 -0.740026 0)
(0.266293 -0.646873 0)
(0.527657 -0.477231 0)
(0.801399 -0.354302 0)
(1.04624 -0.266659 0)
(1.21066 -0.18484 0)
(1.33289 -0.0763166 0)
(1.35355 -0.00669236 0)
(1.31334 0.105791 0)
(1.14919 0.184993 0)
(0.965937 0.316363 0)
(0.539625 0.312251 0)
(0.307271 0.192411 0)
(-0.912643 1.56287 0)
(-0.669159 0.541919 0)
(-0.708315 -0.0509606 0)
(-0.791954 -0.178295 0)
(-0.637083 -0.477949 0)
(-0.245417 -0.926299 0)
(0.209777 -0.969614 0)
(0.4597 -0.879294 0)
(0.656745 -0.658959 0)
(0.892211 -0.446683 0)
(1.12681 -0.312119 0)
(1.28312 -0.214033 0)
(1.42412 -0.0609056 0)
(1.44023 0.0533615 0)
(1.41162 0.234514 0)
(1.28371 0.314495 0)
(1.0964 0.491704 0)
(0.682244 0.499003 0)
(0.338391 0.402314 0)
(-0.712021 1.868 0)
(-0.351499 0.502501 0)
(-0.322969 -0.499745 0)
(-0.35861 -0.484742 0)
(-0.32485 -0.582689 0)
(-0.0767012 -1.01014 0)
(0.467419 -1.11516 0)
(0.644191 -1.06589 0)
(0.76648 -0.87009 0)
(0.961562 -0.617176 0)
(1.17694 -0.434646 0)
(1.31441 -0.306678 0)
(1.47813 -0.123993 0)
(1.48249 0.00827513 0)
(1.4989 0.219285 0)
(1.36388 0.369548 0)
(1.19021 0.632692 0)
(0.76055 0.67593 0)
(0.322868 0.599818 0)
(-0.714797 2.07153 0)
(-0.327336 0.600414 0)
(-0.917519 -0.166055 0)
(0.0556768 -0.887453 0)
(0.0102156 -0.845712 0)
(0.179081 -1.01261 0)
(0.663057 -1.12637 0)
(0.814061 -1.11678 0)
(0.867727 -0.973123 0)
(1.0473 -0.728972 0)
(1.25585 -0.526139 0)
(1.387 -0.3521 0)
(1.5531 -0.155518 0)
(1.55634 0.042524 0)
(1.6081 0.279309 0)
(1.45225 0.456194 0)
(1.27457 0.707351 0)
(0.791446 0.903257 0)
(0.40245 0.800705 0)
(-0.733286 2.06473 0)
(-0.381996 1.27298 0)
(-0.540964 -0.213271 0)
(-0.0288018 -0.722912 0)
(0.31117 -1.14486 0)
(0.551993 -1.04822 0)
(0.881564 -1.10096 0)
(0.957687 -1.15264 0)
(0.976078 -1.09363 0)
(1.13227 -0.937785 0)
(1.30884 -0.728059 0)
(1.45417 -0.477907 0)
(1.59195 -0.213958 0)
(1.62025 -0.0124652 0)
(1.67335 0.265208 0)
(1.54948 0.571223 0)
(1.37461 0.904588 0)
(0.790677 1.06596 0)
(0.34453 1.04386 0)
(-0.741043 2.00768 0)
(-0.414188 1.59233 0)
(0.739272 0.613431 0)
(-0.0315724 -0.0986552 0)
(0.638574 -1.07456 0)
(1.11315 -0.733034 0)
(1.05399 -0.923164 0)
(1.0734 -1.08555 0)
(1.12057 -1.10398 0)
(1.26592 -1.09196 0)
(1.36989 -0.906636 0)
(1.51333 -0.587503 0)
(1.62284 -0.255217 0)
(1.68701 0.0259121 0)
(1.80056 0.298037 0)
(1.708 0.63792 0)
(1.50104 1.12114 0)
(0.971254 1.28409 0)
(0.354207 1.27905 0)
(0.278483 1.05269 0)
(0.410685 0.978439 0)
(0.575418 0.954136 0)
(0.713627 0.944077 0)
(0.743328 0.898095 0)
(0.754138 0.830847 0)
(0.765145 0.707063 0)
(0.703867 0.425072 0)
(0.381939 1.00622 0)
(0.0332845 0.897777 0)
(0.0839065 0.984006 0)
(-0.205422 1.0258 0)
(0.440234 0.962712 0)
(0.44155 0.909926 0)
(0.338794 0.847462 0)
(0.0841767 0.785928 0)
(0.579889 0.93113 0)
(0.604274 0.891319 0)
(0.593423 0.849756 0)
(0.622808 0.784404 0)
(0.730609 0.932634 0)
(0.754658 0.890747 0)
(0.780932 0.84658 0)
(0.816298 0.780053 0)
(0.799194 0.90563 0)
(0.839938 0.883276 0)
(0.888736 0.83716 0)
(0.945444 0.770557 0)
(0.803562 0.830259 0)
(0.85628 0.845866 0)
(0.899165 0.818535 0)
(0.970091 0.752128 0)
(0.811246 0.71538 0)
(0.867963 0.7666 0)
(0.899622 0.764443 0)
(0.952013 0.728162 0)
(0.810225 0.43328 0)
(0.880826 0.531045 0)
(0.910906 0.596772 0)
(0.955233 0.6556 0)
(0.790316 0.151227 0)
(0.846424 0.143227 0)
(0.914832 0.139169 0)
(0.969843 0.188355 0)
(0.734224 0.0850532 0)
(0.811039 0.103022 0)
(0.887522 0.0969281 0)
(0.906002 0.0341013 0)
(0.712049 -0.199485 0)
(0.760476 -0.22534 0)
(0.757591 -0.276846 0)
(0.738413 -0.405806 0)
(0.474765 -0.50671 0)
(0.406056 0.0519625 0)
(-0.147702 0.850906 0)
(-0.312781 0.665156 0)
(-0.397443 0.538039 0)
(-0.294528 0.966389 0)
(-0.357603 0.0377593 0)
(-0.0113365 -0.54634 0)
(-0.31965 0.325834 0)
(-0.121865 0.59152 0)
(-0.0434678 0.263995 0)
(-0.158717 0.217732 0)
(-0.525917 0.289238 0)
(-0.392126 0.303599 0)
(-0.3272 0.171102 0)
(-0.343021 0.11972 0)
(-0.431887 0.152013 0)
(-0.397098 0.168743 0)
(-0.383855 0.162802 0)
(-0.381464 0.156128 0)
(-0.459638 0.130374 0)
(-0.426375 0.128076 0)
(-0.406307 0.126858 0)
(-0.388977 0.126251 0)
(-0.704144 1.70615 0)
(-0.292599 1.42082 0)
(0.754801 0.530124 0)
(1.03338 0.110245 0)
(1.18018 -0.241854 0)
(1.23256 -0.410506 0)
(1.27252 -0.673616 0)
(1.30512 -0.968428 0)
(1.40361 -1.16791 0)
(1.44532 -1.22418 0)
(1.46034 -1.15042 0)
(1.54432 -0.877534 0)
(1.67703 -0.644462 0)
(1.73659 -0.458257 0)
(1.75304 -0.176653 0)
(1.61789 0.360785 0)
(1.37448 1.11731 0)
(1.03551 1.63756 0)
(0.453669 1.67263 0)
(-0.577083 0.936996 0)
(-0.294622 0.906417 0)
(0.67851 1.13674 0)
(0.984392 0.497697 0)
(1.22214 -0.135784 0)
(1.26459 -0.345637 0)
(1.3766 -0.500675 0)
(1.52299 -0.739978 0)
(1.64963 -0.960441 0)
(1.62611 -1.16978 0)
(1.53715 -1.23702 0)
(1.45214 -1.17164 0)
(1.37113 -1.01645 0)
(1.41155 -0.181211 0)
(1.30108 -0.0714093 0)
(1.58928 0.052354 0)
(1.26305 1.04513 0)
(0.739272 2.01121 0)
(0.367375 2.24312 0)
(0.572129 0.721167 0)
(0.560308 0.720946 0)
(0.649334 0.676877 0)
(0.997753 0.281727 0)
(1.2535 -0.139433 0)
(1.37914 -0.372573 0)
(1.4979 -0.516679 0)
(1.65189 -0.612452 0)
(1.75017 -0.732271 0)
(1.73786 -0.924805 0)
(1.59116 -1.046 0)
(1.12954 -0.208279 0)
(0.582602 -0.117457 0)
(0.445202 -0.775908 0)
(0.734965 -0.285163 0)
(0.976928 0.787582 0)
(1.28455 0.977758 0)
(0.53072 2.10294 0)
(0.227605 2.69724 0)
(0.871943 0.67855 0)
(0.929303 0.580496 0)
(1.03903 0.400489 0)
(1.25181 0.0594471 0)
(1.41799 -0.225964 0)
(1.48827 -0.380747 0)
(1.54084 -0.477371 0)
(1.66421 -0.491237 0)
(1.78836 -0.54061 0)
(1.84797 -0.597645 0)
(1.29111 -0.704861 0)
(0.384104 -0.69371 0)
(0.629314 -0.302357 0)
(0.495039 0.681627 0)
(0.187134 0.650746 0)
(1.00805 1.01348 0)
(0.29625 1.97126 0)
(0.487976 2.14122 0)
(0.252442 2.96996 0)
(1.01941 0.663247 0)
(1.10727 0.4943 0)
(1.25097 0.263858 0)
(1.41143 -0.0182937 0)
(1.50592 -0.223081 0)
(1.5337 -0.353658 0)
(1.57641 -0.400336 0)
(1.68566 -0.355717 0)
(1.82077 -0.373499 0)
(1.78716 -0.431367 0)
(0.530413 -0.370658 0)
(-0.0543361 -0.0304369 0)
(-0.116713 -0.167005 0)
(-0.11415 -0.0991323 0)
(0.355976 -0.0763855 0)
(0.510585 1.20675 0)
(-0.227436 1.98603 0)
(0.449102 2.40241 0)
(0.356497 3.13845 0)
(1.06701 0.646712 0)
(1.19331 0.467064 0)
(1.33545 0.243142 0)
(1.45379 0.0125646 0)
(1.4974 -0.149154 0)
(1.53189 -0.261914 0)
(1.57207 -0.228016 0)
(1.67895 -0.192355 0)
(1.75946 -0.243399 0)
(1.09486 -0.332103 0)
(-0.139156 -0.352816 0)
(-0.129743 -0.333313 0)
(0.0183385 -0.215407 0)
(-0.183541 -0.00507014 0)
(0.275075 0.106468 0)
(-0.158505 1.3308 0)
(0.289944 1.7659 0)
(0.346279 2.78568 0)
(0.450339 3.20735 0)
(1.06202 0.634027 0)
(1.19545 0.472735 0)
(1.32951 0.268315 0)
(1.41863 0.0945938 0)
(1.44676 -0.0495745 0)
(1.50542 -0.118395 0)
(1.56408 -0.0853909 0)
(1.65473 -0.113943 0)
(1.59378 -0.163874 0)
(0.736984 -0.283802 0)
(-0.11422 -0.267931 0)
(-0.169387 -0.241163 0)
(-0.08243 -0.249432 0)
(-0.257113 -0.228879 0)
(0.246155 -0.0115751 0)
(-0.208868 1.15551 0)
(0.734969 1.7926 0)
(0.318863 2.96457 0)
(0.538011 3.17918 0)
(1.05981 0.617225 0)
(1.19197 0.477674 0)
(1.32211 0.301615 0)
(1.38821 0.14926 0)
(1.4839 -0.00842541 0)
(1.51087 -0.0489001 0)
(1.47748 -0.0504096 0)
(1.3045 -0.112191 0)
(0.719503 -0.152664 0)
(-0.116948 -0.197327 0)
(-0.190753 -0.225442 0)
(-0.194325 -0.257892 0)
(-0.128365 -0.258874 0)
(-0.274321 -0.287046 0)
(0.217876 -0.0152283 0)
(-0.217672 0.774439 0)
(1.22516 1.74897 0)
(0.283024 3.18172 0)
(0.760909 3.04747 0)
(1.08149 0.391746 0)
(1.17963 0.321052 0)
(1.32657 0.12457 0)
(1.3286 -0.160085 0)
(1.1937 -0.507058 0)
(0.982098 -0.660792 0)
(0.430822 -0.485201 0)
(-0.103929 -0.116937 0)
(-0.12972 -0.106996 0)
(-0.179418 -0.174958 0)
(-0.217248 -0.205158 0)
(-0.228166 -0.255345 0)
(-0.202138 -0.304139 0)
(-0.301272 -0.36853 0)
(0.15736 -0.110914 0)
(-0.29711 0.364246 0)
(1.40177 1.80834 0)
(0.109265 3.74471 0)
(1.03586 3.02075 0)
(1.08105 -0.0721201 0)
(1.07098 -0.345604 0)
(0.884291 -0.586746 0)
(0.727585 -0.431555 0)
(0.168749 0.0270511 0)
(0.0406806 0.0527191 0)
(-0.0829062 -0.0293039 0)
(-0.154861 -0.0203472 0)
(-0.198859 -0.0667228 0)
(-0.224326 -0.126065 0)
(-0.256973 -0.178506 0)
(-0.278701 -0.241118 0)
(-0.292053 -0.322718 0)
(-0.339213 -0.408957 0)
(0.015252 -0.236111 0)
(-0.394876 -0.10117 0)
(1.31454 1.75864 0)
(0.0670038 4.35774 0)
(1.2912 3.29055 0)
(0.664983 -0.575604 0)
(0.617945 -0.273587 0)
(-0.0702465 0.453072 0)
(-0.0562188 -0.00051017 0)
(-0.0709567 0.162468 0)
(-0.161765 0.10136 0)
(-0.163964 0.0556203 0)
(-0.222057 0.00332248 0)
(-0.235999 -0.0439854 0)
(-0.266161 -0.0994168 0)
(-0.306509 -0.146238 0)
(-0.343825 -0.213377 0)
(-0.388806 -0.30433 0)
(-0.421622 -0.408681 0)
(-0.288778 -0.386065 0)
(-0.589178 -0.439981 0)
(0.742952 1.4369 0)
(0.173032 3.85116 0)
(1.81189 4.27195 0)
(-0.550756 0.188586 0)
(-0.221144 0.0368829 0)
(-0.144429 0.086281 0)
(-0.167 0.176795 0)
(-0.205068 0.127778 0)
(-0.216013 0.127083 0)
(-0.226037 0.0661982 0)
(-0.251968 0.0295138 0)
(-0.272664 -0.019149 0)
(-0.310273 -0.0597044 0)
(-0.355318 -0.106079 0)
(-0.408803 -0.164525 0)
(-0.477763 -0.242139 0)
(-0.546357 -0.343207 0)
(-0.651508 -0.441844 0)
(-0.888156 -0.484886 0)
(-0.156775 0.970711 0)
(-0.725753 2.94802 0)
(2.84192 6.44329 0)
(-0.171889 -0.278622 0)
(-0.202741 0.163123 0)
(-0.260346 0.209147 0)
(-0.262281 0.174891 0)
(-0.26266 0.151426 0)
(-0.264134 0.124121 0)
(-0.25999 0.0835797 0)
(-0.281549 0.04598 0)
(-0.306801 0.0125559 0)
(-0.345684 -0.0215327 0)
(-0.395558 -0.0568151 0)
(-0.460547 -0.0999569 0)
(-0.548455 -0.153991 0)
(-0.663443 -0.226565 0)
(-0.864196 -0.326289 0)
(-1.16437 -0.314549 0)
(-1.04166 0.577651 0)
(-1.19026 2.87417 0)
(3.06257 7.78155 0)
(-0.334665 0.222678 0)
(-0.370024 0.174753 0)
(-0.332421 0.186484 0)
(-0.301597 0.163985 0)
(-0.289567 0.143774 0)
(-0.2883 0.120748 0)
(-0.284066 0.0930344 0)
(-0.309311 0.0658305 0)
(-0.330235 0.0435343 0)
(-0.372064 0.018357 0)
(-0.422136 -0.00291942 0)
(-0.492181 -0.0273513 0)
(-0.587755 -0.052049 0)
(-0.7227 -0.0802255 0)
(-0.933756 -0.11049 0)
(-1.26766 -0.0495857 0)
(-1.54314 0.479737 0)
(-1.41274 2.34822 0)
(0.00148019 4.77188 0)
(-0.346154 0.105465 0)
(-0.351654 0.15157 0)
(-0.334899 0.164191 0)
(-0.315308 0.148221 0)
(-0.305011 0.135205 0)
(-0.303936 0.120986 0)
(-0.30222 0.101629 0)
(-0.328132 0.0862648 0)
(-0.344706 0.0720708 0)
(-0.387281 0.0582646 0)
(-0.433721 0.0504198 0)
(-0.501756 0.045006 0)
(-0.591749 0.0480785 0)
(-0.717031 0.0635536 0)
(-0.896752 0.104666 0)
(-1.16536 0.223728 0)
(-1.49529 0.577447 0)
(-1.42767 1.57266 0)
(-0.876649 2.99313 0)
(-0.369477 0.146373 0)
(-0.353682 0.145594 0)
(-0.333271 0.14207 0)
(-0.322547 0.138095 0)
(-0.313371 0.128833 0)
(-0.314024 0.122362 0)
(-0.31347 0.110224 0)
(-0.337439 0.105455 0)
(-0.35157 0.0978729 0)
(-0.391055 0.095642 0)
(-0.431836 0.0991645 0)
(-0.491887 0.110124 0)
(-0.567469 0.134644 0)
(-0.666858 0.180568 0)
(-0.793779 0.264498 0)
(-0.954981 0.422151 0)
(-1.13067 0.739153 0)
(-0.995738 1.38557 0)
(-0.654453 1.96719 0)
(-0.364174 0.125625 0)
(-0.347009 0.122902 0)
(-0.337384 0.132885 0)
(-0.321482 0.130021 0)
(-0.316566 0.124268 0)
(-0.318915 0.124818 0)
(-0.317791 0.118643 0)
(-0.339803 0.121458 0)
(-0.350775 0.121178 0)
(-0.385461 0.128046 0)
(-0.41891 0.140854 0)
(-0.467836 0.163836 0)
(-0.525501 0.202158 0)
(-0.595634 0.263955 0)
(-0.673546 0.362701 0)
(-0.750559 0.519467 0)
(-0.802478 0.774638 0)
(-0.631807 1.19839 0)
(-0.345658 1.43429 0)
)
;

boundaryField
{
    leftWall
    {
        type            fixedValue;
        value           nonuniform 0();
    }
    rightWall
    {
        type            fixedValue;
        value           uniform (0 0 0);
    }
    lowerWall
    {
        type            fixedValue;
        value           uniform (0 0 0);
    }
    atmosphere
    {
        type            fluxCorrectedVelocity;
        value           nonuniform 0();
    }
    defaultFaces
    {
        type            empty;
    }
    procBoundary1to0
    {
        type            processor;
        value           nonuniform List<vector> 
26
(
(0.375686 0.0912855 0)
(0.392874 0.142567 0)
(0.39867 0.271647 0)
(0.487484 0.404703 0)
(0.468112 0.510342 0)
(0.445856 0.588185 0)
(0.402006 0.681312 0)
(0.380613 0.670579 0)
(0.434318 0.616812 0)
(0.573231 0.636315 0)
(0.678611 0.638454 0)
(0.686434 0.593273 0)
(0.6703 0.553832 0)
(0.643839 0.528728 0)
(0.51379 0.504023 0)
(0.475782 0.324362 0)
(0.65623 0.194526 0)
(0.65623 0.194526 0)
(0.653287 0.110211 0)
(0.670709 -0.174241 0)
(0.442292 -0.63034 0)
(-0.536698 -0.0596524 0)
(-0.0495793 -0.388001 0)
(-0.547127 0.22464 0)
(-0.446563 0.0149226 0)
(-0.477797 0.107772 0)
)
;
    }
    procBoundary1to3
    {
        type            processor;
        value           nonuniform List<vector> 
23
(
(-0.423576 0.0766814 0)
(-0.40269 0.0755832 0)
(-0.392028 0.0858467 0)
(-0.379593 0.0910979 0)
(-0.356561 0.0993845 0)
(-0.344503 0.112336 0)
(-0.335934 0.125023 0)
(-0.316989 0.121714 0)
(-0.313051 0.122163 0)
(-0.31869 0.126908 0)
(-0.316225 0.125089 0)
(-0.335655 0.136045 0)
(-0.344301 0.140127 0)
(-0.372293 0.154837 0)
(-0.398287 0.174063 0)
(-0.435017 0.204721 0)
(-0.475136 0.249982 0)
(-0.519045 0.316593 0)
(-0.559006 0.413257 0)
(-0.582399 0.550175 0)
(-0.569403 0.73956 0)
(-0.411403 0.9986 0)
(-0.186454 1.10671 0)
)
;
    }
}


// ************************************************************************* //
