/*--------------------------------*- C++ -*----------------------------------*\
| =========                 |                                                 |
| \\      /  F ield         | OpenFOAM: The Open Source CFD Toolbox           |
|  \\    /   O peration     | Version:  2.4.0                                 |
|   \\  /    A nd           | Web:      www.OpenFOAM.org                      |
|    \\/     M anipulation  |                                                 |
\*---------------------------------------------------------------------------*/
FoamFile
{
    version     2.0;
    format      ascii;
    class       volVectorField;
    location    "0.25";
    object      U.oil;
}
// * * * * * * * * * * * * * * * * * * * * * * * * * * * * * * * * * * * * * //

dimensions      [0 1 -1 0 0 0 0];

internalField   nonuniform List<vector> 
559
(
(0.0734777 0.104159 0)
(0.0952643 0.274297 0)
(0.139505 0.380521 0)
(0.0946683 0.560323 0)
(0.15532 0.693926 0)
(0.0883395 0.886372 0)
(0.143039 1.04212 0)
(0.131017 1.19786 0)
(-1.15141 0.346182 0)
(-1.78505 0.134011 0)
(-2.0413 0.0420634 0)
(-1.9826 -0.114221 0)
(-1.37448 -0.126146 0)
(-1.10581 -0.0795882 0)
(-0.666158 -0.101051 0)
(-0.164123 -0.120071 0)
(0.189613 -0.103068 0)
(0.546775 -0.0916489 0)
(0.800349 -0.0833171 0)
(1.00479 -0.0683699 0)
(1.12275 -0.0598489 0)
(1.11109 -0.0507286 0)
(1.05108 -0.0469052 0)
(0.906188 -0.0070433 0)
(0.681317 -0.0345669 0)
(0.170937 -0.121689 0)
(0.171036 -0.0876897 0)
(-1.06132 0.703431 0)
(-1.64971 0.321941 0)
(-1.83708 0.0741984 0)
(-1.65898 -0.188863 0)
(-1.41252 -0.306109 0)
(-0.984739 -0.340354 0)
(-0.432391 -0.220711 0)
(0.0202508 -0.283526 0)
(0.361228 -0.218454 0)
(0.686727 -0.171457 0)
(0.952051 -0.11559 0)
(1.1422 -0.0653312 0)
(1.24088 0.0109288 0)
(1.24776 0.0735494 0)
(1.1832 0.138799 0)
(1.02478 0.181877 0)
(0.831308 0.283984 0)
(0.345376 0.229298 0)
(0.216794 0.131227 0)
(-1.04626 1.27856 0)
(-1.29919 0.643824 0)
(-1.3331 0.0664575 0)
(-1.27928 -0.222319 0)
(-1.12827 -0.46772 0)
(-0.817445 -0.597504 0)
(-0.254782 -0.505253 0)
(0.145705 -0.475521 0)
(0.499078 -0.408788 0)
(0.799421 -0.342758 0)
(1.04649 -0.264652 0)
(1.21082 -0.183795 0)
(1.33285 -0.0758321 0)
(1.35349 -0.00652601 0)
(1.31332 0.105864 0)
(1.1492 0.185015 0)
(0.966452 0.316036 0)
(0.541893 0.311188 0)
(0.307924 0.192146 0)
(-0.909546 1.57567 0)
(-0.641048 0.567121 0)
(-0.716988 -0.0114011 0)
(-0.869796 -0.1183 0)
(-0.778557 -0.414889 0)
(-0.526471 -0.749515 0)
(-0.124212 -0.66234 0)
(0.27674 -0.615417 0)
(0.606768 -0.516428 0)
(0.889945 -0.410933 0)
(1.12666 -0.308459 0)
(1.28318 -0.212686 0)
(1.42405 -0.0600219 0)
(1.4401 0.0538094 0)
(1.41151 0.234724 0)
(1.28365 0.314556 0)
(1.09652 0.491621 0)
(0.682787 0.498675 0)
(0.338624 0.402081 0)
(-0.709446 1.87118 0)
(-0.344422 0.502561 0)
(-0.291826 -0.576629 0)
(-0.377973 -0.458409 0)
(-0.386748 -0.522808 0)
(-0.347232 -0.870925 0)
(0.059269 -0.857562 0)
(0.392943 -0.794923 0)
(0.688138 -0.69173 0)
(0.949002 -0.556246 0)
(1.17201 -0.422601 0)
(1.31246 -0.302892 0)
(1.47766 -0.122065 0)
(1.48222 0.0094211 0)
(1.49873 0.219754 0)
(1.36382 0.369633 0)
(1.19021 0.632703 0)
(0.7606 0.675889 0)
(0.322916 0.599764 0)
(-0.714921 2.07098 0)
(-0.355832 0.590851 0)
(0.234004 -0.869707 0)
(0.163934 -0.95951 0)
(-0.00246066 -0.82877 0)
(-0.143268 -0.926682 0)
(0.179174 -0.97313 0)
(0.511449 -0.889472 0)
(0.766622 -0.774892 0)
(1.01535 -0.620021 0)
(1.23692 -0.46501 0)
(1.37465 -0.326709 0)
(1.55005 -0.147086 0)
(1.5557 0.0467112 0)
(1.60769 0.281231 0)
(1.452 0.456422 0)
(1.27457 0.70738 0)
(0.791434 0.903268 0)
(0.402453 0.800688 0)
(-0.733643 2.06448 0)
(-0.49394 1.29124 0)
(0.658072 -0.671781 0)
(0.614172 -1.0173 0)
(0.328791 -1.15208 0)
(0.129641 -1.07971 0)
(0.333983 -1.1158 0)
(0.613687 -1.03761 0)
(0.842577 -0.916567 0)
(1.07378 -0.748335 0)
(1.27534 -0.576332 0)
(1.43522 -0.40188 0)
(1.58716 -0.19084 0)
(1.61895 -0.00379477 0)
(1.67234 0.269055 0)
(1.5491 0.571962 0)
(1.37462 0.904659 0)
(0.790722 1.06596 0)
(0.344534 1.04385 0)
(-0.74129 2.00909 0)
(-0.575486 1.62429 0)
(-0.472255 1.24777 0)
(1.35328 0.535779 0)
(0.644628 -1.08452 0)
(0.340655 -1.12953 0)
(0.457543 -1.16172 0)
(0.700746 -1.10218 0)
(0.925241 -0.977115 0)
(1.13679 -0.8174 0)
(1.3334 -0.625941 0)
(1.50713 -0.453313 0)
(1.61735 -0.217083 0)
(1.68646 0.0386715 0)
(1.79965 0.302834 0)
(1.70705 0.639054 0)
(1.50081 1.12136 0)
(0.971259 1.28409 0)
(0.354219 1.27906 0)
(0.465971 1.1763 0)
(0.597518 0.986648 0)
(0.797352 1.09486 0)
(1.0562 1.20265 0)
(1.0962 1.14527 0)
(0.931381 0.931316 0)
(0.750045 0.593628 0)
(0.68707 0.379736 0)
(0.537638 0.967352 0)
(-0.614604 0.954959 0)
(-1.09985 1.79654 0)
(-0.999775 1.81006 0)
(0.6253 0.890905 0)
(0.592037 0.804847 0)
(0.0284367 0.908328 0)
(-0.883292 1.6077 0)
(0.763622 0.895865 0)
(0.771929 0.811492 0)
(0.747335 0.750652 0)
(0.625829 0.756025 0)
(1.0085 1.01107 0)
(0.976738 0.851697 0)
(0.979518 0.758815 0)
(0.999049 0.66456 0)
(1.17141 1.01352 0)
(1.20203 0.861195 0)
(1.19571 0.737947 0)
(1.2006 0.632155 0)
(1.09378 0.858758 0)
(1.20085 0.792067 0)
(1.26817 0.682527 0)
(1.32479 0.569054 0)
(0.904481 0.499365 0)
(1.02911 0.523415 0)
(1.13073 0.480949 0)
(1.2245 0.420434 0)
(0.807996 0.341585 0)
(0.89722 0.33979 0)
(0.976655 0.302377 0)
(1.05372 0.266617 0)
(0.790239 0.153524 0)
(0.846335 0.143236 0)
(0.9148 0.124025 0)
(0.967968 0.0793614 0)
(0.734249 0.0852357 0)
(0.811067 0.103308 0)
(0.887485 0.0976361 0)
(0.905157 0.0345726 0)
(0.711517 -0.201547 0)
(0.760072 -0.227634 0)
(0.75762 -0.27936 0)
(0.738385 -0.409859 0)
(0.439864 -0.762754 0)
(0.447344 -0.759346 0)
(0.430714 -0.780502 0)
(0.34716 -0.399891 0)
(0.340564 -0.694127 0)
(0.127055 -0.246524 0)
(-0.300751 -0.0123328 0)
(-0.011688 -0.548061 0)
(-0.30396 0.297752 0)
(-0.121953 0.557427 0)
(-0.0470833 0.259625 0)
(-0.160556 0.216715 0)
(-0.522026 0.286314 0)
(-0.386113 0.30498 0)
(-0.326445 0.169682 0)
(-0.343154 0.119278 0)
(-0.432534 0.151801 0)
(-0.397426 0.16814 0)
(-0.384085 0.162139 0)
(-0.381609 0.155642 0)
(-0.45995 0.130084 0)
(-0.426395 0.127748 0)
(-0.406347 0.126608 0)
(-0.389018 0.126083 0)
(-0.889803 1.89313 0)
(-0.635773 1.72905 0)
(-0.559733 1.75091 0)
(1.18688 0.441922 0)
(0.882718 -0.981611 0)
(0.637252 -1.25998 0)
(0.692623 -1.29014 0)
(0.857682 -1.28775 0)
(1.04643 -1.18146 0)
(1.22107 -1.03338 0)
(1.40596 -0.89738 0)
(1.54165 -0.762473 0)
(1.67422 -0.63693 0)
(1.73616 -0.466986 0)
(1.75453 -0.190296 0)
(1.62179 0.350061 0)
(1.37503 1.11635 0)
(1.03548 1.63758 0)
(0.453662 1.67264 0)
(-0.863597 1.76822 0)
(-0.789574 1.47942 0)
(0.0558701 1.21768 0)
(1.12218 -0.0647459 0)
(1.06445 -0.917684 0)
(0.919034 -1.30483 0)
(0.938565 -1.39244 0)
(1.00986 -1.38812 0)
(1.14128 -1.31862 0)
(1.25916 -1.27192 0)
(1.38681 -1.18121 0)
(1.40618 -1.18829 0)
(1.35314 -1.19928 0)
(1.32968 -1.17761 0)
(1.42 -0.751944 0)
(1.72934 -0.184799 0)
(1.28419 1.01871 0)
(0.740032 2.01045 0)
(0.367328 2.24312 0)
(0.584461 0.645742 0)
(0.724935 0.430317 0)
(0.900096 0.320067 0)
(1.1254 -0.210644 0)
(1.20175 -0.930602 0)
(1.13202 -1.29582 0)
(1.07741 -1.41062 0)
(1.09788 -1.41635 0)
(1.14717 -1.38452 0)
(1.231 -1.37745 0)
(1.24537 -1.39837 0)
(1.27404 -1.40671 0)
(1.06981 -1.20773 0)
(0.708422 -0.937615 0)
(1.01807 -0.812671 0)
(1.82248 -0.450502 0)
(1.51587 0.804968 0)
(0.535729 2.09989 0)
(0.22758 2.69721 0)
(1.04984 0.514058 0)
(1.06816 0.337615 0)
(1.08821 0.0866029 0)
(1.29546 -0.4175 0)
(1.40574 -0.892277 0)
(1.30451 -1.20773 0)
(1.20939 -1.32591 0)
(1.17318 -1.3232 0)
(1.18743 -1.31896 0)
(1.18617 -1.35576 0)
(1.22879 -1.41471 0)
(0.522486 -0.869343 0)
(0.55603 -0.378222 0)
(0.405147 0.487734 0)
(0.370127 0.315478 0)
(1.14451 0.388093 0)
(1.76683 0.792759 0)
(0.497454 2.1351 0)
(0.252677 2.96969 0)
(1.23293 0.448811 0)
(1.26276 0.187655 0)
(1.38108 -0.1298 0)
(1.51469 -0.521103 0)
(1.50463 -0.87595 0)
(1.38218 -1.11665 0)
(1.28197 -1.17127 0)
(1.21704 -1.09606 0)
(1.15265 -1.00071 0)
(0.891488 -0.582249 0)
(0.140393 -0.311883 0)
(-0.0944397 -0.0632315 0)
(-0.12809 -0.186066 0)
(-0.115074 -0.101542 0)
(0.380991 -0.0633716 0)
(0.444113 1.04388 0)
(1.19644 1.26603 0)
(0.477344 2.39528 0)
(0.357121 3.13815 0)
(1.37305 0.400003 0)
(1.45366 0.121699 0)
(1.55651 -0.190164 0)
(1.60365 -0.545072 0)
(1.50952 -0.788218 0)
(1.38541 -0.94093 0)
(1.27154 -0.957733 0)
(1.14559 -0.905352 0)
(0.837879 -0.949342 0)
(0.123334 -0.57453 0)
(-0.195437 -0.340112 0)
(-0.162787 -0.33286 0)
(-0.0239967 -0.219843 0)
(-0.218677 -0.0585592 0)
(0.284978 0.0789403 0)
(-0.134086 1.20581 0)
(0.546465 1.87282 0)
(0.421372 2.79427 0)
(0.450751 3.20734 0)
(1.33671 0.309332 0)
(1.48275 0.0405199 0)
(1.52793 -0.25285 0)
(1.48479 -0.479053 0)
(1.41509 -0.680843 0)
(1.28588 -0.82932 0)
(1.10011 -0.882091 0)
(1.00726 -0.889074 0)
(0.683143 -0.609143 0)
(-0.0556699 -0.373771 0)
(-0.158495 -0.273563 0)
(-0.196189 -0.251219 0)
(-0.119682 -0.266285 0)
(-0.275074 -0.266114 0)
(0.235437 -0.0206114 0)
(-0.243529 1.00381 0)
(0.707011 1.93055 0)
(0.430333 2.96658 0)
(0.538547 3.17902 0)
(1.20188 0.157165 0)
(1.31025 -0.0426382 0)
(1.36208 -0.189513 0)
(1.35914 -0.388352 0)
(1.30138 -0.64285 0)
(1.03631 -0.7732 0)
(0.70139 -0.930484 0)
(0.42749 -0.632279 0)
(-0.0774118 -0.152032 0)
(-0.16021 -0.199405 0)
(-0.223008 -0.230354 0)
(-0.216927 -0.265116 0)
(-0.164251 -0.276102 0)
(-0.288001 -0.31648 0)
(0.17712 -0.0481726 0)
(-0.297027 0.594797 0)
(1.05775 1.83048 0)
(0.467391 3.15974 0)
(0.761556 3.04702 0)
(1.06419 0.0453423 0)
(1.15807 -0.0334039 0)
(1.29296 -0.253267 0)
(1.18209 -0.558447 0)
(0.83661 -0.77512 0)
(0.612293 -0.931443 0)
(0.220448 -0.406777 0)
(-0.132127 -0.117981 0)
(-0.160998 -0.110438 0)
(-0.207237 -0.178592 0)
(-0.239751 -0.208439 0)
(-0.246701 -0.260047 0)
(-0.232293 -0.31733 0)
(-0.312735 -0.382052 0)
(0.0735742 -0.156389 0)
(-0.387376 0.146246 0)
(1.23143 1.66983 0)
(0.565305 3.70414 0)
(1.03649 3.02023 0)
(1.08004 -0.0750202 0)
(1.06534 -0.360135 0)
(0.855731 -0.63422 0)
(0.666519 -0.800449 0)
(0.51757 -0.764054 0)
(0.0714126 -0.0255257 0)
(-0.10075 -0.034543 0)
(-0.175638 -0.0253291 0)
(-0.219466 -0.0705591 0)
(-0.24201 -0.127906 0)
(-0.27163 -0.17961 0)
(-0.292921 -0.242965 0)
(-0.314679 -0.328834 0)
(-0.358947 -0.409485 0)
(-0.128509 -0.287493 0)
(-0.545875 -0.233714 0)
(1.10143 1.43759 0)
(0.803851 5.01532 0)
(1.29222 3.28947 0)
(0.662779 -0.602236 0)
(0.544388 -0.772581 0)
(0.300337 -0.730119 0)
(0.338714 -0.505076 0)
(-0.0611421 0.134064 0)
(-0.169766 0.0951266 0)
(-0.175406 0.0501573 0)
(-0.234453 -0.000582576 0)
(-0.247911 -0.0459192 0)
(-0.276255 -0.0998231 0)
(-0.315027 -0.14593 0)
(-0.352567 -0.213039 0)
(-0.403583 -0.304109 0)
(-0.454882 -0.403096 0)
(-0.453005 -0.400374 0)
(-0.728253 -0.311167 0)
(0.462679 1.36583 0)
(0.970693 6.55649 0)
(1.81369 4.27418 0)
(0.0129647 -0.232776 0)
(0.235836 -0.582822 0)
(-0.0370914 -0.112232 0)
(-0.168097 0.17341 0)
(-0.206846 0.124454 0)
(-0.220593 0.123322 0)
(-0.232113 0.063048 0)
(-0.258573 0.0274084 0)
(-0.278759 -0.019942 0)
(-0.315364 -0.0594985 0)
(-0.359553 -0.105338 0)
(-0.41317 -0.163499 0)
(-0.485985 -0.240318 0)
(-0.577409 -0.335012 0)
(-0.760895 -0.394909 0)
(-0.947612 -0.147195 0)
(-0.115266 1.66322 0)
(0.11071 5.29291 0)
(2.94674 6.7101 0)
(-0.172167 -0.280026 0)
(-0.203074 0.159785 0)
(-0.260553 0.207018 0)
(-0.262635 0.17435 0)
(-0.263682 0.149796 0)
(-0.266165 0.122186 0)
(-0.262765 0.0818698 0)
(-0.284549 0.0449375 0)
(-0.309543 0.0122656 0)
(-0.347904 -0.0212571 0)
(-0.397327 -0.0562184 0)
(-0.462315 -0.0991333 0)
(-0.55223 -0.152539 0)
(-0.681862 -0.219558 0)
(-0.922648 -0.259695 0)
(-1.18948 0.0261704 0)
(-0.669187 1.75487 0)
(3.42414 9.82163 0)
(4.58627 10.6906 0)
(-0.334863 0.222121 0)
(-0.370013 0.174485 0)
(-0.332485 0.186234 0)
(-0.301768 0.163634 0)
(-0.29001 0.143073 0)
(-0.289112 0.119854 0)
(-0.285167 0.0922264 0)
(-0.310497 0.0653202 0)
(-0.331298 0.0434018 0)
(-0.372887 0.0185106 0)
(-0.422742 -0.00260426 0)
(-0.492738 -0.0269147 0)
(-0.588963 -0.0512693 0)
(-0.729712 -0.0763523 0)
(-0.965225 -0.059671 0)
(-1.22747 0.342762 0)
(-0.815799 1.94775 0)
(1.97921 8.27428 0)
(3.47403 10.1793 0)
(-0.34636 0.105372 0)
(-0.351718 0.151481 0)
(-0.334942 0.164089 0)
(-0.315387 0.148047 0)
(-0.305174 0.134908 0)
(-0.304218 0.120598 0)
(-0.302599 0.101259 0)
(-0.328537 0.0860124 0)
(-0.345053 0.0719812 0)
(-0.387531 0.0583053 0)
(-0.433884 0.0505377 0)
(-0.50188 0.0451772 0)
(-0.591982 0.0483807 0)
(-0.718386 0.0648233 0)
(-0.905796 0.117382 0)
(-1.17565 0.352423 0)
(-1.20093 1.29662 0)
(-0.348449 3.55176 0)
(-0.208169 3.92147 0)
(-0.369574 0.146091 0)
(-0.353706 0.14553 0)
(-0.333287 0.142025 0)
(-0.322574 0.138022 0)
(-0.313424 0.128716 0)
(-0.31411 0.122204 0)
(-0.313584 0.110064 0)
(-0.337558 0.105332 0)
(-0.351665 0.0978133 0)
(-0.391114 0.0956374 0)
(-0.431866 0.0991921 0)
(-0.491899 0.110171 0)
(-0.567487 0.134725 0)
(-0.66701 0.180845 0)
(-0.794864 0.266563 0)
(-0.959805 0.439499 0)
(-1.10758 0.858837 0)
(-0.84715 1.86738 0)
(-0.537568 2.22847 0)
(-0.364211 0.125504 0)
(-0.34702 0.12287 0)
(-0.337389 0.132867 0)
(-0.32149 0.129995 0)
(-0.316581 0.124226 0)
(-0.318938 0.124759 0)
(-0.317822 0.118578 0)
(-0.339835 0.121403 0)
(-0.350795 0.121143 0)
(-0.38547 0.128032 0)
(-0.418911 0.140854 0)
(-0.467831 0.163843 0)
(-0.525494 0.202171 0)
(-0.595636 0.263994 0)
(-0.673626 0.362944 0)
(-0.751021 0.52129 0)
(-0.80268 0.786822 0)
(-0.63244 1.26308 0)
(-0.353036 1.49583 0)
)
;

boundaryField
{
    leftWall
    {
        type            fixedValue;
        value           nonuniform 0();
    }
    rightWall
    {
        type            fixedValue;
        value           uniform (0 0 0);
    }
    lowerWall
    {
        type            fixedValue;
        value           uniform (0 0 0);
    }
    atmosphere
    {
        type            fluxCorrectedVelocity;
        value           nonuniform 0();
    }
    defaultFaces
    {
        type            empty;
    }
    procBoundary1to0
    {
        type            processor;
        value           nonuniform List<vector> 
26
(
(0.339146 0.132104 0)
(0.35478 0.193116 0)
(0.356434 0.334713 0)
(0.434913 0.509102 0)
(0.342144 0.72657 0)
(0.296895 0.817609 0)
(0.246409 0.892985 0)
(0.266527 0.875229 0)
(0.544108 0.885894 0)
(0.781213 1.06394 0)
(1.01198 1.29565 0)
(1.03439 1.28394 0)
(0.886405 1.12479 0)
(0.606912 0.745965 0)
(0.473757 0.532038 0)
(0.474399 0.325609 0)
(0.656296 0.196624 0)
(0.656296 0.196624 0)
(0.6533 0.110355 0)
(0.67054 -0.175184 0)
(0.438926 -0.675719 0)
(0.0396667 -0.502167 0)
(-0.0576153 -0.381028 0)
(-0.546032 0.222562 0)
(-0.447119 0.0151404 0)
(-0.478011 0.107128 0)
)
;
    }
    procBoundary1to3
    {
        type            processor;
        value           nonuniform List<vector> 
23
(
(-0.423622 0.0765645 0)
(-0.402715 0.0754688 0)
(-0.392052 0.0857509 0)
(-0.37961 0.0910257 0)
(-0.356576 0.0993298 0)
(-0.344507 0.112322 0)
(-0.335935 0.125017 0)
(-0.316991 0.121706 0)
(-0.313055 0.12215 0)
(-0.318695 0.126887 0)
(-0.316233 0.125065 0)
(-0.335662 0.136021 0)
(-0.344305 0.140111 0)
(-0.372293 0.154828 0)
(-0.398286 0.174058 0)
(-0.435014 0.204719 0)
(-0.475131 0.249982 0)
(-0.519041 0.316595 0)
(-0.559009 0.413272 0)
(-0.582463 0.550298 0)
(-0.56981 0.740465 0)
(-0.41397 1.00483 0)
(-0.191354 1.11748 0)
)
;
    }
}


// ************************************************************************* //
