/*--------------------------------*- C++ -*----------------------------------*\
| =========                 |                                                 |
| \\      /  F ield         | OpenFOAM: The Open Source CFD Toolbox           |
|  \\    /   O peration     | Version:  2.4.0                                 |
|   \\  /    A nd           | Web:      www.OpenFOAM.org                      |
|    \\/     M anipulation  |                                                 |
\*---------------------------------------------------------------------------*/
FoamFile
{
    version     2.0;
    format      ascii;
    class       volVectorField;
    location    "0.25";
    object      U.water;
}
// * * * * * * * * * * * * * * * * * * * * * * * * * * * * * * * * * * * * * //

dimensions      [0 1 -1 0 0 0 0];

internalField   nonuniform List<vector> 
559
(
(0.0972513 0.0271368 0)
(0.119749 0.182155 0)
(0.168066 0.271541 0)
(0.122473 0.438058 0)
(0.179002 0.57355 0)
(0.1078 0.792914 0)
(0.152572 1.02324 0)
(0.138072 1.18571 0)
(-1.15142 0.346201 0)
(-1.78509 0.134016 0)
(-2.04134 0.0420641 0)
(-1.98267 -0.114206 0)
(-1.37467 -0.126122 0)
(-1.10607 -0.0795774 0)
(-0.666449 -0.10105 0)
(-0.164408 -0.120077 0)
(0.189361 -0.103077 0)
(0.546571 -0.0916592 0)
(0.800193 -0.0833264 0)
(1.00467 -0.0683762 0)
(1.12266 -0.0598404 0)
(1.11081 -0.0505473 0)
(1.05081 -0.046791 0)
(0.906025 -0.00699268 0)
(0.680454 -0.0342392 0)
(0.166647 -0.119872 0)
(0.170719 -0.0872671 0)
(-1.0613 0.703413 0)
(-1.64973 0.321947 0)
(-1.83711 0.0742147 0)
(-1.65903 -0.188857 0)
(-1.41249 -0.306197 0)
(-0.984703 -0.34059 0)
(-0.432583 -0.220811 0)
(0.0199692 -0.283551 0)
(0.360975 -0.218483 0)
(0.686523 -0.171489 0)
(0.951896 -0.115617 0)
(1.14209 -0.0653518 0)
(1.2408 0.0109196 0)
(1.2477 0.0735458 0)
(1.18315 0.138801 0)
(1.02472 0.181892 0)
(0.830505 0.284422 0)
(0.341004 0.231888 0)
(0.21598 0.132027 0)
(-1.04622 1.27856 0)
(-1.2992 0.643822 0)
(-1.33313 0.0664656 0)
(-1.2793 -0.222295 0)
(-1.1279 -0.467946 0)
(-0.816355 -0.598428 0)
(-0.253771 -0.506604 0)
(0.145688 -0.475951 0)
(0.498826 -0.408851 0)
(0.799218 -0.342811 0)
(1.04634 -0.264699 0)
(1.21072 -0.18383 0)
(1.33278 -0.0758551 0)
(1.35343 -0.00654014 0)
(1.31328 0.105856 0)
(1.14916 0.185016 0)
(0.96593 0.316371 0)
(0.539624 0.312251 0)
(0.307271 0.192411 0)
(-0.909669 1.57569 0)
(-0.640942 0.567326 0)
(-0.717127 -0.00900291 0)
(-0.86993 -0.118155 0)
(-0.778628 -0.414798 0)
(-0.52549 -0.750212 0)
(-0.121219 -0.665387 0)
(0.277568 -0.61711 0)
(0.606555 -0.51665 0)
(0.889744 -0.411012 0)
(1.12651 -0.308526 0)
(1.28308 -0.212737 0)
(1.42398 -0.0600572 0)
(1.44006 0.053788 0)
(1.41148 0.234718 0)
(1.28362 0.314561 0)
(1.09637 0.491727 0)
(0.682238 0.499005 0)
(0.338391 0.402314 0)
(-0.709466 1.8712 0)
(-0.341095 0.508425 0)
(-0.322548 -0.494818 0)
(-0.383368 -0.450759 0)
(-0.386965 -0.522616 0)
(-0.346546 -0.871303 0)
(0.0638621 -0.860684 0)
(0.394773 -0.797324 0)
(0.688019 -0.692188 0)
(0.948804 -0.556361 0)
(1.17187 -0.422691 0)
(1.31237 -0.302959 0)
(1.4776 -0.122111 0)
(1.48218 0.00939799 0)
(1.4987 0.219749 0)
(1.36379 0.369637 0)
(1.19019 0.63272 0)
(0.760541 0.675936 0)
(0.322868 0.599818 0)
(-0.714347 2.07153 0)
(-0.32721 0.600659 0)
(-0.917343 -0.165365 0)
(0.0558938 -0.886325 0)
(-0.00654311 -0.826662 0)
(-0.14233 -0.926834 0)
(0.18604 -0.975454 0)
(0.514226 -0.891927 0)
(0.766624 -0.775587 0)
(1.01516 -0.620207 0)
(1.2368 -0.465133 0)
(1.37457 -0.326793 0)
(1.55 -0.147146 0)
(1.55567 0.0466815 0)
(1.60767 0.281228 0)
(1.45198 0.456427 0)
(1.27455 0.707379 0)
(0.791438 0.903265 0)
(0.402449 0.800705 0)
(-0.733263 2.06468 0)
(-0.381981 1.27298 0)
(-0.540968 -0.213255 0)
(-0.028786 -0.722833 0)
(0.3115 -1.14361 0)
(0.131717 -1.07928 0)
(0.34429 -1.11556 0)
(0.617195 -1.03906 0)
(0.842699 -0.917298 0)
(1.0737 -0.748875 0)
(1.27526 -0.576613 0)
(1.43516 -0.401993 0)
(1.58712 -0.190906 0)
(1.61893 -0.00382876 0)
(1.67232 0.269048 0)
(1.54905 0.571971 0)
(1.37457 0.904659 0)
(0.790669 1.06597 0)
(0.344529 1.04386 0)
(-0.741032 2.00921 0)
(-0.414188 1.59233 0)
(0.739288 0.61349 0)
(-0.0320124 -0.0964188 0)
(0.616584 -1.08101 0)
(0.35902 -1.11974 0)
(0.476118 -1.15418 0)
(0.705199 -1.10216 0)
(0.925762 -0.977886 0)
(1.1374 -0.819325 0)
(1.33343 -0.627086 0)
(1.50709 -0.453472 0)
(1.61733 -0.217149 0)
(1.68644 0.0386479 0)
(1.79961 0.302853 0)
(1.70701 0.639064 0)
(1.5008 1.12136 0)
(0.97121 1.2841 0)
(0.354205 1.27905 0)
(0.44863 1.18303 0)
(0.600197 0.978714 0)
(0.832868 1.05176 0)
(1.03368 1.07915 0)
(1.04324 1.03563 0)
(0.963239 0.889138 0)
(0.83901 0.677057 0)
(0.695574 0.389106 0)
(0.531205 1.02264 0)
(0.157417 0.919524 0)
(-0.627104 0.807464 0)
(-0.945696 1.75805 0)
(0.622659 0.908065 0)
(0.609077 0.864643 0)
(0.312593 0.85052 0)
(-0.348532 1.15113 0)
(0.774233 0.915194 0)
(0.788999 0.837363 0)
(0.766356 0.806461 0)
(0.674783 0.771528 0)
(1.02324 1.01098 0)
(1.00833 0.899475 0)
(1.02542 0.818099 0)
(0.964187 0.762033 0)
(1.14648 0.977386 0)
(1.20176 0.89939 0)
(1.22902 0.822901 0)
(1.17722 0.773728 0)
(1.13571 0.912974 0)
(1.23679 0.873953 0)
(1.27886 0.820644 0)
(1.25464 0.760962 0)
(1.02654 0.69086 0)
(1.15642 0.717295 0)
(1.21828 0.674812 0)
(1.21544 0.592035 0)
(0.814772 0.347724 0)
(0.906305 0.34842 0)
(0.984845 0.314362 0)
(1.05135 0.29163 0)
(0.790241 0.153235 0)
(0.846334 0.142941 0)
(0.914788 0.123736 0)
(0.967943 0.079134 0)
(0.734224 0.0851265 0)
(0.811039 0.103202 0)
(0.887461 0.097543 0)
(0.905138 0.0345042 0)
(0.712049 -0.199485 0)
(0.760476 -0.22534 0)
(0.757591 -0.276843 0)
(0.738413 -0.40574 0)
(0.474765 -0.50671 0)
(0.406056 0.0519625 0)
(-0.147702 0.850906 0)
(-0.312781 0.665156 0)
(-0.397443 0.538039 0)
(-0.294528 0.966389 0)
(-0.357603 0.0377593 0)
(-0.0113365 -0.54634 0)
(-0.31965 0.325834 0)
(-0.121865 0.59152 0)
(-0.0434678 0.263995 0)
(-0.158717 0.217732 0)
(-0.525917 0.289238 0)
(-0.392126 0.303599 0)
(-0.3272 0.171102 0)
(-0.343021 0.11972 0)
(-0.431887 0.152013 0)
(-0.397098 0.168743 0)
(-0.383855 0.162802 0)
(-0.381464 0.156128 0)
(-0.459638 0.130374 0)
(-0.426375 0.128076 0)
(-0.406307 0.126858 0)
(-0.388977 0.126251 0)
(-0.887392 1.89365 0)
(-0.29205 1.42269 0)
(0.756466 0.530772 0)
(1.02355 0.340201 0)
(0.899781 -0.925873 0)
(0.70631 -1.161 0)
(0.736938 -1.24267 0)
(0.872046 -1.27748 0)
(1.05344 -1.18146 0)
(1.22389 -1.03598 0)
(1.40632 -0.897658 0)
(1.54199 -0.759488 0)
(1.67484 -0.629656 0)
(1.73649 -0.457815 0)
(1.75283 -0.176844 0)
(1.61777 0.360777 0)
(1.37443 1.11733 0)
(1.0355 1.63758 0)
(0.453667 1.67264 0)
(-0.712428 1.55758 0)
(0.460056 0.704536 0)
(0.468662 0.439187 0)
(1.09397 0.00287973 0)
(1.10139 -0.731698 0)
(0.993505 -1.09716 0)
(1.00072 -1.26513 0)
(1.05637 -1.32919 0)
(1.17307 -1.29602 0)
(1.26878 -1.26538 0)
(1.39009 -1.16484 0)
(1.41475 -1.14368 0)
(1.37071 -1.01569 0)
(1.41155 -0.181192 0)
(1.30108 -0.0714031 0)
(1.58928 0.0523548 0)
(1.26305 1.04514 0)
(0.739268 2.01122 0)
(0.367374 2.24313 0)
(0.592601 0.691594 0)
(0.646196 0.577985 0)
(0.794191 0.464922 0)
(1.07601 -0.0221488 0)
(1.22102 -0.631975 0)
(1.21146 -0.997626 0)
(1.17617 -1.20008 0)
(1.19924 -1.26897 0)
(1.22559 -1.29802 0)
(1.26203 -1.32551 0)
(1.26055 -1.0514 0)
(1.06802 -0.128507 0)
(0.582549 -0.117392 0)
(0.445201 -0.775915 0)
(0.734966 -0.28516 0)
(0.976927 0.787584 0)
(1.28455 0.977758 0)
(0.530719 2.10294 0)
(0.227604 2.69725 0)
(0.941174 0.637364 0)
(0.980332 0.493151 0)
(1.06007 0.26652 0)
(1.272 -0.16378 0)
(1.41127 -0.573743 0)
(1.37453 -0.891279 0)
(1.31528 -1.05435 0)
(1.30906 -1.09166 0)
(1.32867 -1.12192 0)
(1.08381 -1.12257 0)
(0.610664 -0.892357 0)
(0.363312 -0.69061 0)
(0.629676 -0.301407 0)
(0.495026 0.681675 0)
(0.187133 0.650747 0)
(1.00805 1.01348 0)
(0.296249 1.97126 0)
(0.487976 2.14122 0)
(0.252442 2.96996 0)
(1.12614 0.613751 0)
(1.16467 0.385455 0)
(1.30149 0.110739 0)
(1.45631 -0.238174 0)
(1.50502 -0.550834 0)
(1.4437 -0.805985 0)
(1.38994 -0.887823 0)
(1.39496 -0.810544 0)
(1.3371 -0.775979 0)
(0.533917 -0.917862 0)
(0.0650972 -0.347683 0)
(-0.0545991 -0.0301247 0)
(-0.116713 -0.166999 0)
(-0.114151 -0.0991333 0)
(0.355976 -0.0763856 0)
(0.510585 1.20675 0)
(-0.22744 1.98603 0)
(0.449102 2.40241 0)
(0.356497 3.13845 0)
(1.22443 0.57554 0)
(1.30185 0.325139 0)
(1.43171 0.0540144 0)
(1.52648 -0.258763 0)
(1.50386 -0.499261 0)
(1.44489 -0.664606 0)
(1.39907 -0.646348 0)
(1.39722 -0.564051 0)
(1.07068 -0.553551 0)
(0.0739265 -0.438885 0)
(-0.14079 -0.350923 0)
(-0.129743 -0.333311 0)
(0.0183385 -0.215407 0)
(-0.183541 -0.00507007 0)
(0.275075 0.106468 0)
(-0.158506 1.3308 0)
(0.289947 1.7659 0)
(0.346279 2.78568 0)
(0.450339 3.20735 0)
(1.23338 0.451883 0)
(1.35862 0.227423 0)
(1.44541 -0.0366736 0)
(1.45965 -0.26251 0)
(1.42534 -0.475072 0)
(1.36248 -0.58161 0)
(1.30255 -0.538266 0)
(1.26467 -0.440392 0)
(0.357223 -0.288844 0)
(-0.0101838 -0.37036 0)
(-0.114223 -0.267911 0)
(-0.169387 -0.241163 0)
(-0.08243 -0.249432 0)
(-0.257113 -0.228879 0)
(0.246155 -0.011575 0)
(-0.208868 1.15551 0)
(0.734968 1.7926 0)
(0.318863 2.96457 0)
(0.538011 3.17918 0)
(1.18012 0.228411 0)
(1.28802 0.0546209 0)
(1.35493 -0.103266 0)
(1.36334 -0.309818 0)
(1.33231 -0.537247 0)
(1.15992 -0.59543 0)
(0.996344 -0.502138 0)
(0.318589 -0.203468 0)
(-0.0277199 -0.138883 0)
(-0.119798 -0.194709 0)
(-0.190753 -0.225442 0)
(-0.194325 -0.257892 0)
(-0.128365 -0.258874 0)
(-0.274321 -0.287046 0)
(0.217876 -0.0152282 0)
(-0.217672 0.77444 0)
(1.22516 1.74898 0)
(0.283024 3.18172 0)
(0.760909 3.04747 0)
(1.06426 0.0477931 0)
(1.15824 -0.0296154 0)
(1.29371 -0.247219 0)
(1.18743 -0.548386 0)
(0.872094 -0.723065 0)
(0.597576 -0.370006 0)
(0.070423 -0.135827 0)
(-0.100129 -0.108835 0)
(-0.12962 -0.104192 0)
(-0.179418 -0.174945 0)
(-0.217248 -0.205158 0)
(-0.228166 -0.255345 0)
(-0.202138 -0.304139 0)
(-0.301272 -0.36853 0)
(0.15736 -0.110914 0)
(-0.297109 0.364247 0)
(1.40177 1.80834 0)
(0.109265 3.74471 0)
(1.03586 3.02075 0)
(1.08015 -0.0747747 0)
(1.06647 -0.357696 0)
(0.86023 -0.610707 0)
(0.71404 -0.425926 0)
(0.163017 0.0367892 0)
(0.0412298 0.0553697 0)
(-0.0816341 -0.0263658 0)
(-0.15453 -0.0193298 0)
(-0.198855 -0.066704 0)
(-0.224326 -0.126065 0)
(-0.256973 -0.178506 0)
(-0.278701 -0.241118 0)
(-0.292053 -0.322718 0)
(-0.339213 -0.408957 0)
(0.0152528 -0.236111 0)
(-0.394875 -0.101168 0)
(1.31454 1.75864 0)
(0.0670024 4.35774 0)
(1.2912 3.29055 0)
(0.66498 -0.575489 0)
(0.617928 -0.273358 0)
(-0.0701992 0.453823 0)
(-0.0562017 0.000335599 0)
(-0.0709194 0.162646 0)
(-0.161652 0.101473 0)
(-0.163772 0.055859 0)
(-0.222032 0.00337871 0)
(-0.235999 -0.0439846 0)
(-0.266161 -0.0994168 0)
(-0.306509 -0.146238 0)
(-0.343825 -0.213377 0)
(-0.388806 -0.30433 0)
(-0.421622 -0.408681 0)
(-0.288777 -0.386065 0)
(-0.589176 -0.439981 0)
(0.742954 1.4369 0)
(0.173035 3.85116 0)
(1.81189 4.27196 0)
(-0.550756 0.188586 0)
(-0.221144 0.036883 0)
(-0.144429 0.0862807 0)
(-0.166998 0.176797 0)
(-0.205064 0.127793 0)
(-0.215995 0.127117 0)
(-0.226012 0.0662398 0)
(-0.251966 0.0295183 0)
(-0.272664 -0.0191489 0)
(-0.310273 -0.0597044 0)
(-0.355318 -0.106079 0)
(-0.408803 -0.164525 0)
(-0.477763 -0.242139 0)
(-0.546357 -0.343207 0)
(-0.651507 -0.441844 0)
(-0.888154 -0.484888 0)
(-0.15677 0.970709 0)
(-0.725744 2.94802 0)
(2.84192 6.44329 0)
(-0.171889 -0.278622 0)
(-0.202741 0.163123 0)
(-0.260346 0.209147 0)
(-0.262281 0.174892 0)
(-0.262659 0.151429 0)
(-0.264132 0.124127 0)
(-0.259987 0.0835863 0)
(-0.281548 0.0459803 0)
(-0.306801 0.0125559 0)
(-0.345684 -0.0215327 0)
(-0.395558 -0.0568151 0)
(-0.460547 -0.0999569 0)
(-0.548455 -0.153991 0)
(-0.663443 -0.226565 0)
(-0.864196 -0.326289 0)
(-1.16437 -0.314552 0)
(-1.04166 0.577645 0)
(-1.19026 2.87418 0)
(3.06257 7.78155 0)
(-0.334665 0.222678 0)
(-0.370024 0.174753 0)
(-0.332421 0.186484 0)
(-0.301597 0.163985 0)
(-0.289567 0.143775 0)
(-0.2883 0.120748 0)
(-0.284066 0.0930353 0)
(-0.309311 0.0658306 0)
(-0.330235 0.0435343 0)
(-0.372064 0.018357 0)
(-0.422136 -0.00291942 0)
(-0.492181 -0.0273513 0)
(-0.587755 -0.052049 0)
(-0.7227 -0.0802255 0)
(-0.933755 -0.11049 0)
(-1.26766 -0.0495872 0)
(-1.54314 0.479731 0)
(-1.41274 2.34822 0)
(0.00144708 4.77186 0)
(-0.346154 0.105465 0)
(-0.351654 0.15157 0)
(-0.334899 0.164191 0)
(-0.315308 0.148221 0)
(-0.305011 0.135205 0)
(-0.303936 0.120986 0)
(-0.30222 0.101629 0)
(-0.328132 0.0862648 0)
(-0.344706 0.0720708 0)
(-0.387281 0.0582646 0)
(-0.433721 0.0504198 0)
(-0.501756 0.045006 0)
(-0.591749 0.0480785 0)
(-0.717031 0.0635536 0)
(-0.896752 0.104666 0)
(-1.16536 0.223728 0)
(-1.49529 0.577444 0)
(-1.42767 1.57265 0)
(-0.87666 2.99312 0)
(-0.369477 0.146373 0)
(-0.353682 0.145594 0)
(-0.333271 0.14207 0)
(-0.322547 0.138095 0)
(-0.313371 0.128833 0)
(-0.314024 0.122362 0)
(-0.31347 0.110224 0)
(-0.337439 0.105455 0)
(-0.35157 0.0978729 0)
(-0.391055 0.095642 0)
(-0.431836 0.0991645 0)
(-0.491887 0.110124 0)
(-0.567469 0.134644 0)
(-0.666858 0.180568 0)
(-0.793779 0.264498 0)
(-0.954981 0.422151 0)
(-1.13067 0.739153 0)
(-0.995739 1.38556 0)
(-0.654453 1.96718 0)
(-0.364174 0.125625 0)
(-0.347009 0.122902 0)
(-0.337384 0.132885 0)
(-0.321482 0.130021 0)
(-0.316566 0.124268 0)
(-0.318915 0.124818 0)
(-0.317791 0.118643 0)
(-0.339803 0.121458 0)
(-0.350775 0.121178 0)
(-0.385461 0.128046 0)
(-0.41891 0.140854 0)
(-0.467836 0.163836 0)
(-0.525501 0.202158 0)
(-0.595634 0.263955 0)
(-0.673546 0.362701 0)
(-0.750559 0.519467 0)
(-0.802478 0.774638 0)
(-0.631807 1.19839 0)
(-0.345657 1.43429 0)
)
;

boundaryField
{
    leftWall
    {
        type            fixedValue;
        value           nonuniform 0();
    }
    rightWall
    {
        type            fixedValue;
        value           uniform (0 0 0);
    }
    lowerWall
    {
        type            fixedValue;
        value           uniform (0 0 0);
    }
    atmosphere
    {
        type            fluxCorrectedVelocity;
        value           nonuniform 0();
    }
    defaultFaces
    {
        type            empty;
    }
    procBoundary1to0
    {
        type            processor;
        value           nonuniform List<vector> 
26
(
(0.375683 0.0912947 0)
(0.392838 0.144101 0)
(0.395083 0.280333 0)
(0.461538 0.4595 0)
(0.35339 0.722952 0)
(0.305038 0.809335 0)
(0.254788 0.880107 0)
(0.270532 0.860051 0)
(0.53505 0.850633 0)
(0.782439 0.978516 0)
(0.969573 1.10398 0)
(0.97501 1.07323 0)
(0.851003 0.918043 0)
(0.650339 0.651628 0)
(0.550668 0.517474 0)
(0.480984 0.335417 0)
(0.6563 0.196236 0)
(0.6563 0.196236 0)
(0.653287 0.110249 0)
(0.670709 -0.174241 0)
(0.442292 -0.63034 0)
(-0.536698 -0.0596524 0)
(-0.0495793 -0.388001 0)
(-0.547127 0.22464 0)
(-0.446563 0.0149226 0)
(-0.477797 0.107772 0)
)
;
    }
    procBoundary1to3
    {
        type            processor;
        value           nonuniform List<vector> 
23
(
(-0.423576 0.0766814 0)
(-0.40269 0.0755832 0)
(-0.392028 0.0858467 0)
(-0.379593 0.0910979 0)
(-0.356561 0.0993845 0)
(-0.344503 0.112336 0)
(-0.335934 0.125023 0)
(-0.316989 0.121714 0)
(-0.313051 0.122163 0)
(-0.31869 0.126908 0)
(-0.316225 0.125089 0)
(-0.335655 0.136045 0)
(-0.344301 0.140127 0)
(-0.372293 0.154837 0)
(-0.398287 0.174063 0)
(-0.435017 0.204721 0)
(-0.475136 0.249982 0)
(-0.519045 0.316593 0)
(-0.559006 0.413257 0)
(-0.582399 0.550175 0)
(-0.569403 0.73956 0)
(-0.411403 0.9986 0)
(-0.186454 1.10671 0)
)
;
    }
}


// ************************************************************************* //
