/*--------------------------------*- C++ -*----------------------------------*\
| =========                 |                                                 |
| \\      /  F ield         | OpenFOAM: The Open Source CFD Toolbox           |
|  \\    /   O peration     | Version:  2.4.0                                 |
|   \\  /    A nd           | Web:      www.OpenFOAM.org                      |
|    \\/     M anipulation  |                                                 |
\*---------------------------------------------------------------------------*/
FoamFile
{
    version     2.0;
    format      ascii;
    class       volScalarField;
    location    "0.35";
    object      alpha.oil;
}
// * * * * * * * * * * * * * * * * * * * * * * * * * * * * * * * * * * * * * //

dimensions      [0 0 0 0 0 0 0];

internalField   nonuniform List<scalar> 
575
(
3.2641e-09
2.79843e-09
2.09242e-09
1.80541e-09
1.47937e-09
1.1089e-09
8.88372e-10
6.8224e-10
7.92516e-10
5.49576e-10
3.86919e-10
2.73237e-10
4.44071e-10
3.11527e-10
2.09965e-10
1.35261e-10
1.78165e-10
1.30198e-10
9.19781e-11
6.28847e-11
5.55878e-11
4.1842e-11
3.03175e-11
2.10497e-11
1.43334e-11
1.12168e-11
8.39517e-12
5.96379e-12
3.03343e-12
2.51165e-12
1.97455e-12
1.45894e-12
5.35873e-13
4.70778e-13
3.9076e-13
3.01735e-13
7.98224e-14
7.40578e-14
6.53691e-14
5.3106e-14
1.01326e-14
9.86808e-15
9.29772e-15
8.00324e-15
1.09895e-15
1.12391e-15
1.13637e-15
1.04501e-15
1.01795e-16
1.10404e-16
1.20583e-16
1.19509e-16
8.06354e-18
9.42528e-18
1.12178e-17
1.20956e-17
5.49176e-19
7.04355e-19
9.22803e-19
1.09299e-18
3.24183e-20
4.63981e-20
6.76486e-20
8.88941e-20
1.67243e-21
2.70941e-21
4.44504e-21
6.54773e-21
7.59166e-23
1.40877e-22
2.62988e-22
4.3917e-22
3.04445e-24
6.53317e-24
1.40365e-23
2.69058e-23
1.07829e-25
2.69833e-25
6.75397e-25
1.50747e-24
3.35597e-27
9.86057e-27
2.91334e-26
7.70423e-26
9.06845e-29
3.1459e-28
1.11316e-27
3.56804e-27
2.11124e-30
8.62987e-30
3.68952e-29
1.47368e-28
3.94901e-32
1.92843e-31
1.00977e-30
5.32921e-30
6.13401e-34
3.47252e-33
1.83118e-32
1.32476e-31
1.35211e-09
9.47668e-10
1.13888e-09
1.5202e-09
1.99725e-09
2.26583e-09
2.31531e-09
1.87723e-09
1.51441e-09
2.46881e-09
8.51401e-09
3.3299e-08
1.33606e-07
4.31e-07
1.13302e-06
2.68217e-06
3.94852e-06
0.00409213
0.816255
5.41938e-10
2.52381e-10
2.75416e-10
3.91021e-10
5.27004e-10
6.33358e-10
6.85286e-10
6.22009e-10
6.21742e-10
1.55305e-09
6.49531e-09
2.71898e-08
1.12988e-07
3.74364e-07
1.03649e-06
2.48219e-06
1.16423e-05
0.00237565
0.621484
1.86318e-10
5.72864e-11
6.49976e-11
9.78756e-11
1.41143e-10
1.72711e-10
1.91467e-10
1.99013e-10
2.94027e-10
1.06218e-09
4.94527e-09
2.15552e-08
9.42016e-08
3.22239e-07
9.58633e-07
2.87361e-06
7.95015e-05
0.00257453
0.600086
9.65562e-11
1.77674e-11
1.18178e-11
1.90139e-11
3.10517e-11
4.40823e-11
5.28655e-11
6.47083e-11
1.57417e-10
7.08942e-10
3.47422e-09
1.50515e-08
7.13632e-08
2.5233e-07
8.87546e-07
5.22885e-06
0.000423921
0.0045135
0.721763
4.22255e-11
7.14132e-12
2.85997e-12
4.19216e-12
6.90177e-12
1.01647e-11
1.34373e-11
2.22959e-11
7.7179e-11
4.16073e-10
2.05323e-09
9.17614e-09
4.0448e-08
1.03495e-07
4.08475e-07
7.32883e-06
0.00156398
0.0245456
0.894901
1.42503e-11
2.62865e-12
7.27401e-13
9.14999e-13
1.54015e-12
2.3523e-12
3.36046e-12
6.88565e-12
2.9241e-11
1.62262e-10
8.64656e-10
4.54161e-09
2.19529e-08
5.19035e-08
2.22869e-07
3.96168e-06
0.00371694
0.152339
0.976762
4.09328e-12
8.46875e-13
1.92218e-13
1.89266e-13
3.19617e-13
5.12334e-13
8.22891e-13
2.17543e-12
1.0985e-11
6.24067e-11
3.61607e-10
2.29279e-09
1.24714e-08
3.80928e-08
1.18203e-07
7.65867e-07
0.00274236
0.34267
0.985829
1.02589e-12
2.37799e-13
5.06867e-14
3.71036e-14
6.05293e-14
9.87227e-14
1.47542e-13
3.21577e-13
1.91344e-12
1.58786e-11
1.25695e-10
1.07066e-09
7.90447e-09
3.56557e-08
1.4838e-07
4.39631e-07
0.000510089
0.328606
0.985829
2.18565e-13
5.85875e-14
1.2679e-14
7.05846e-15
1.07604e-14
1.85867e-14
3.28994e-14
1.21606e-13
1.10057e-12
1.08796e-11
1.03696e-10
9.92502e-10
8.17903e-09
3.95404e-08
1.41288e-07
6.4614e-07
1.46868e-05
0.190476
0.983877
3.99369e-14
1.25991e-14
2.9133e-15
1.31929e-15
1.80697e-15
3.38161e-15
8.69865e-15
6.86329e-14
8.95375e-13
1.07413e-11
1.18923e-10
1.23514e-09
1.05825e-08
5.68878e-08
3.50372e-07
6.52421e-07
1.1889e-06
0.0529498
0.948125
6.29179e-15
2.36758e-15
6.06755e-16
2.41981e-16
2.93506e-16
7.11089e-16
4.90984e-15
7.68048e-14
1.1958e-12
1.56128e-11
1.73358e-10
1.71587e-09
1.38911e-08
9.63893e-08
3.33656e-07
1.0049e-06
1.18263e-06
0.00791893
0.845111
8.6624e-16
3.90903e-16
1.14023e-16
4.30957e-17
4.83579e-17
2.1448e-16
3.32314e-15
6.54433e-14
1.12518e-12
1.60052e-11
1.8712e-10
1.86221e-09
1.55998e-08
9.2204e-08
4.32806e-07
1.01935e-06
1.33643e-06
0.000671541
0.699965
1.05411e-16
5.72076e-17
1.93387e-17
7.30529e-18
6.91888e-18
3.18858e-17
6.67723e-16
1.81694e-14
4.27701e-13
8.23062e-12
1.24436e-10
1.48176e-09
1.37866e-08
1.02003e-07
4.7148e-07
1.29367e-06
1.69196e-06
2.60888e-05
0.516792
1.14617e-17
7.48965e-18
2.96991e-18
1.1711e-18
9.31039e-19
3.13872e-18
7.44127e-17
3.09878e-15
1.12038e-13
3.2321e-12
7.12095e-11
1.14046e-09
1.26006e-08
1.11395e-07
5.28981e-07
1.43635e-06
2.01929e-06
1.92034e-06
0.262856
1.12398e-18
8.84893e-19
4.15111e-19
1.76599e-19
1.30131e-19
6.10339e-19
2.28224e-17
1.17365e-15
5.14959e-14
1.79509e-12
4.75249e-11
9.12168e-10
1.20854e-08
1.13347e-07
5.51018e-07
1.46293e-06
2.31022e-06
1.9038e-06
0.0645088
1.00243e-19
9.51565e-20
5.31207e-20
2.49722e-20
1.86519e-20
1.32046e-19
4.43012e-18
1.87074e-16
8.44955e-15
3.64335e-13
1.27636e-11
3.21101e-10
5.34042e-09
6.06156e-08
3.9802e-07
1.67774e-06
2.27058e-06
0.000132616
0.00624261
8.18738e-21
9.38462e-21
6.26288e-21
3.30957e-21
2.80756e-21
4.55497e-20
2.17306e-18
9.67641e-17
3.85681e-15
1.39822e-13
4.43076e-12
1.10403e-10
1.90083e-09
1.99271e-08
1.50749e-07
3.65528e-06
3.60326e-05
0.000229827
0.000264703
6.16022e-22
8.54654e-22
6.84194e-22
4.10567e-22
3.28173e-22
5.40609e-21
3.30405e-19
1.87602e-17
9.08321e-16
3.63349e-14
1.14491e-12
2.67427e-11
4.43591e-10
5.40359e-09
5.37605e-08
2.91085e-06
4.05401e-05
8.0076e-05
1.33806e-05
4.28856e-23
7.22917e-23
6.96321e-23
4.79089e-23
3.50221e-23
3.46627e-22
2.24706e-20
1.41127e-18
7.47542e-17
3.2577e-15
1.13681e-13
3.06068e-12
6.05304e-11
8.34018e-10
9.01159e-09
1.68011e-07
2.52365e-06
6.21904e-06
1.70626e-06
2.77065e-24
5.70708e-24
6.63013e-24
5.27393e-24
3.79873e-24
1.80378e-23
1.13235e-21
7.97059e-20
4.6987e-18
2.24545e-16
8.49755e-15
2.48467e-13
5.48835e-12
8.84196e-11
1.04603e-09
9.36092e-09
6.73453e-08
2.56314e-07
5.57223e-07
1.66184e-25
4.21665e-25
5.92809e-25
5.48423e-25
4.1469e-25
9.06797e-25
4.24813e-23
3.40445e-21
2.33768e-19
1.30357e-17
5.75806e-16
1.9369e-14
4.85021e-13
8.84845e-12
1.16623e-10
1.11519e-09
8.32383e-09
2.85663e-08
1.19438e-07
9.24156e-27
2.9221e-26
4.98666e-26
5.38415e-26
4.4357e-26
5.87074e-26
1.32728e-24
1.15873e-22
9.49285e-21
6.2391e-19
3.17628e-17
1.23153e-15
3.56619e-14
7.56071e-13
1.15862e-11
1.28447e-10
1.00489e-09
4.66164e-09
1.68816e-08
4.72275e-28
1.8976e-27
3.95898e-27
5.01193e-27
4.58117e-27
4.79063e-27
3.63227e-26
2.73861e-24
2.74271e-22
2.17249e-20
1.31796e-18
6.04676e-17
2.06622e-15
5.16792e-14
9.32086e-13
1.2039e-11
1.0814e-10
5.57325e-10
1.79438e-09
2.23849e-29
1.16195e-28
2.95193e-28
4.3618e-28
4.46841e-28
4.38772e-28
1.64966e-27
5.89775e-26
6.45106e-24
6.10903e-22
4.42606e-20
2.41519e-18
9.78626e-17
2.89622e-15
6.15464e-14
9.26273e-13
9.61421e-12
5.71889e-11
1.60734e-10
8.29788e-31
6.38922e-30
2.06417e-29
3.59385e-29
4.1467e-29
3.8938e-29
1.00994e-28
1.0671e-27
8.59419e-26
1.04886e-23
9.7755e-22
6.73863e-20
3.40303e-18
1.24149e-16
3.21353e-15
5.7863e-14
7.02372e-13
4.78522e-12
1.11271e-11
)
;

boundaryField
{
    leftWall
    {
        type            zeroGradient;
    }
    rightWall
    {
        type            zeroGradient;
    }
    lowerWall
    {
        type            zeroGradient;
    }
    atmosphere
    {
        type            inletOutlet;
        inletValue      uniform 0;
        value           nonuniform List<scalar> 
23
(
0
0
0
0
0
0
0
0
0
0
1.00994e-28
1.0671e-27
8.59419e-26
1.04886e-23
9.7755e-22
6.73863e-20
3.40303e-18
1.24149e-16
3.21353e-15
5.7863e-14
7.02372e-13
4.78522e-12
1.11271e-11
)
;
    }
    defaultFaces
    {
        type            empty;
    }
    procBoundary3to1
    {
        type            processor;
        value           nonuniform List<scalar> 
23
(
8.35874e-09
4.90437e-09
4.20593e-09
3.61576e-09
3.38032e-09
3.24501e-09
4.59506e-09
6.13534e-09
7.4006e-09
7.74381e-09
6.98036e-09
5.32053e-09
4.22272e-09
4.48914e-09
1.0882e-08
3.80519e-08
1.48472e-07
4.77705e-07
1.20696e-06
2.76477e-06
3.76858e-06
0.0373854
0.917254
)
;
    }
    procBoundary3to2
    {
        type            processor;
        value           nonuniform List<scalar> 
25
(
5.19242e-09
3.58518e-09
2.86203e-09
1.77607e-09
8.59926e-10
2.26962e-10
2.31618e-11
7.36529e-12
1.3054e-12
1.74681e-13
1.94166e-14
1.76406e-15
1.31905e-16
8.24898e-18
4.39523e-19
2.02912e-20
8.22334e-22
2.95094e-23
9.41455e-25
2.66555e-26
6.64488e-28
1.43115e-29
2.61591e-31
3.52504e-33
3.54775e-35
)
;
    }
}


// ************************************************************************* //
