/*--------------------------------*- C++ -*----------------------------------*\
| =========                 |                                                 |
| \\      /  F ield         | OpenFOAM: The Open Source CFD Toolbox           |
|  \\    /   O peration     | Version:  2.4.0                                 |
|   \\  /    A nd           | Web:      www.OpenFOAM.org                      |
|    \\/     M anipulation  |                                                 |
\*---------------------------------------------------------------------------*/
FoamFile
{
    version     2.0;
    format      ascii;
    class       volScalarField;
    location    "0.35";
    object      alpha.mercury;
}
// * * * * * * * * * * * * * * * * * * * * * * * * * * * * * * * * * * * * * //

dimensions      [0 0 0 0 0 0 0];

internalField   nonuniform List<scalar> 
575
(
1.80395e-17
2.96185e-17
4.82237e-17
7.64745e-17
2.37335e-18
3.40086e-18
4.77646e-18
6.48356e-18
3.25417e-19
4.64116e-19
6.41496e-19
8.51202e-19
5.11454e-20
7.45652e-20
1.04798e-19
1.42016e-19
6.81306e-21
1.05624e-20
1.57793e-20
2.26903e-20
8.47386e-22
1.41836e-21
2.27767e-21
3.48237e-21
9.71801e-23
1.75363e-22
3.00847e-22
4.86166e-22
1.02236e-23
1.96622e-23
3.57183e-23
6.10114e-23
9.56573e-25
1.97355e-24
3.82733e-24
6.95738e-24
8.01766e-26
1.7804e-25
3.70634e-25
7.20694e-25
6.01488e-27
1.44857e-26
3.26009e-26
6.8393e-26
4.0599e-28
1.06669e-27
2.613e-27
5.94972e-27
2.4706e-29
7.12526e-29
1.91104e-28
4.75073e-28
1.3548e-30
4.31475e-30
1.27492e-29
3.48191e-29
6.68371e-32
2.36536e-31
7.74813e-31
2.33944e-30
2.95523e-33
1.17049e-32
4.28063e-32
1.43902e-31
1.1639e-34
5.20143e-34
2.14102e-33
8.07768e-33
4.04727e-36
2.06106e-35
9.6407e-35
4.12072e-34
1.22635e-37
7.20068e-37
3.87228e-36
1.89652e-35
3.1751e-39
2.18302e-38
1.36982e-37
7.796e-37
6.81186e-41
5.59679e-40
4.1782e-39
2.81407e-38
1.15392e-42
1.16809e-41
1.06778e-40
8.74309e-40
1.41764e-44
1.84029e-43
2.13652e-42
2.19825e-41
1.04378e-46
1.96844e-45
3.25393e-44
4.64985e-43
2.26656e-49
6.34537e-48
1.61699e-46
3.63722e-45
1.1594e-16
2.31045e-16
3.66311e-16
3.99056e-16
5.54858e-16
3.445e-16
1.09825e-16
2.86803e-17
5.42932e-17
2.28505e-16
1.08863e-15
4.71545e-15
2.0672e-14
7.70842e-14
2.40501e-13
5.49703e-13
6.94074e-13
1.91562e-12
1.20926e-11
8.41809e-18
1.32315e-17
1.77023e-17
2.07964e-17
2.16146e-17
1.81592e-17
1.16321e-17
1.02866e-17
3.48757e-17
1.78108e-16
8.85873e-16
4.02219e-15
1.83422e-14
7.18845e-14
2.32736e-13
5.45442e-13
7.01357e-13
1.88053e-12
1.05007e-11
1.09076e-18
1.71397e-18
2.40124e-18
3.02973e-18
3.3299e-18
2.98499e-18
2.671e-18
5.14943e-18
2.48947e-17
1.37197e-16
7.10929e-16
3.38608e-15
1.63043e-14
6.77042e-14
2.23813e-13
5.34157e-13
7.69471e-13
2.02532e-12
1.00342e-11
1.86917e-19
3.07161e-19
4.48138e-19
5.78573e-19
6.57682e-19
6.64176e-19
8.73969e-19
3.05651e-18
1.80488e-17
1.05653e-16
5.6935e-16
2.87336e-15
1.46177e-14
6.37789e-14
2.12717e-13
5.18299e-13
8.58124e-13
2.18376e-12
9.63437e-12
3.152e-20
5.60118e-20
8.59582e-20
1.15255e-19
1.38854e-19
1.65381e-19
3.63863e-19
1.99205e-18
1.31547e-17
8.18469e-17
4.56661e-16
2.47745e-15
1.32895e-14
5.88907e-14
1.99365e-13
4.9316e-13
8.79455e-13
2.25009e-12
9.08981e-12
5.0713e-21
9.59668e-21
1.55363e-20
2.20747e-20
2.91923e-20
4.64559e-20
1.85391e-19
1.33644e-18
9.66483e-18
6.39449e-17
3.70679e-16
2.22878e-15
1.23939e-14
5.51405e-14
1.87086e-13
4.51868e-13
8.03194e-13
2.20677e-12
8.43231e-12
7.4023e-22
1.49677e-21
2.60186e-21
4.00434e-21
6.14396e-21
1.58709e-20
1.0588e-19
8.99964e-19
7.11692e-18
5.02942e-17
3.12625e-16
2.06003e-15
1.17595e-14
5.30347e-14
1.79139e-13
4.17008e-13
6.84589e-13
2.05364e-12
7.62745e-12
9.78848e-23
2.14207e-22
4.04877e-22
6.90661e-22
1.37665e-21
6.58912e-21
6.20794e-20
5.99182e-19
5.20299e-18
3.95803e-17
2.7476e-16
1.88672e-15
1.1133e-14
5.1337e-14
1.74562e-13
4.01127e-13
6.2032e-13
1.77984e-12
6.64755e-12
1.18163e-23
2.82198e-23
5.86349e-23
1.15587e-22
3.58222e-22
3.03838e-21
3.57524e-20
3.90906e-19
3.76688e-18
3.13025e-17
2.40051e-16
1.73219e-15
1.05937e-14
5.03156e-14
1.7296e-13
3.97053e-13
6.07036e-13
1.49042e-12
5.50444e-12
1.30785e-24
3.43997e-24
7.95863e-24
1.96568e-23
1.10398e-22
1.4234e-21
1.99524e-20
2.49877e-19
2.71837e-18
2.52004e-17
2.10636e-16
1.6058e-15
1.02417e-14
5.03838e-14
1.76498e-13
4.07333e-13
6.23362e-13
1.23891e-12
4.24309e-12
1.33466e-25
3.88849e-25
1.0236e-24
3.59203e-24
3.69761e-23
6.36866e-22
1.05589e-20
1.53866e-19
1.92818e-18
2.03856e-17
1.85202e-16
1.49978e-15
1.00364e-14
5.13548e-14
1.85113e-13
4.36771e-13
6.69828e-13
1.07301e-12
3.08258e-12
1.25671e-26
4.08446e-26
1.2663e-25
7.13502e-25
1.20307e-23
2.60003e-22
5.14105e-21
8.87298e-20
1.30893e-18
1.61511e-17
1.63504e-16
1.40707e-15
9.92993e-15
5.30155e-14
1.98211e-13
4.86774e-13
7.61734e-13
1.00457e-12
2.26478e-12
1.09257e-27
3.99158e-27
1.52034e-26
1.43191e-25
3.47387e-24
9.21741e-23
2.19688e-21
4.56058e-20
8.06962e-19
1.18855e-17
1.4175e-16
1.32695e-15
9.84467e-15
5.48793e-14
2.12959e-13
5.4393e-13
9.05461e-13
1.01761e-12
1.83673e-12
8.77409e-29
3.62897e-28
1.74812e-27
2.6035e-26
8.31998e-25
2.68973e-23
7.76817e-22
1.95515e-20
4.19475e-19
7.47252e-18
1.07067e-16
1.18683e-15
9.7386e-15
5.62768e-14
2.23483e-13
5.87654e-13
1.05302e-12
1.07414e-12
1.65826e-12
6.50081e-30
3.05586e-29
1.84401e-28
3.90067e-27
1.55566e-25
6.06378e-24
2.10964e-22
6.40536e-21
1.6591e-19
3.5666e-18
6.14955e-17
8.14654e-16
7.86397e-15
5.19323e-14
2.21176e-13
5.99608e-13
1.08983e-12
1.17647e-12
1.64575e-12
4.43886e-31
2.37052e-30
1.70048e-29
4.54481e-28
2.17818e-26
1.00687e-24
4.14939e-23
1.49183e-21
4.57573e-20
1.16484e-18
2.37953e-17
3.74134e-16
4.29563e-15
3.36947e-14
1.68684e-13
5.21171e-13
1.03105e-12
1.33172e-12
1.67327e-12
2.78729e-32
1.68717e-31
1.33422e-30
4.00412e-29
2.235e-27
1.2029e-25
5.75125e-24
2.39012e-22
8.44424e-21
2.47206e-19
5.8177e-18
1.06124e-16
1.43583e-15
1.3668e-14
8.58683e-14
3.35792e-13
8.1364e-13
1.32597e-12
1.63783e-12
1.60432e-33
1.10169e-32
8.98191e-32
2.66642e-30
1.68235e-28
1.03998e-26
5.68342e-25
2.68254e-23
1.07015e-21
3.52444e-20
9.32649e-19
1.92383e-17
2.99119e-16
3.3724e-15
2.6387e-14
1.36488e-13
4.57243e-13
9.86078e-13
1.36802e-12
8.42243e-35
6.61199e-34
5.39835e-33
1.36412e-31
9.34466e-30
6.59501e-28
4.10034e-26
2.18864e-24
9.8285e-23
3.63093e-21
1.07749e-19
2.50534e-18
4.44517e-17
5.86567e-16
5.60077e-15
3.77121e-14
1.69525e-13
4.85861e-13
7.964e-13
4.0029e-36
3.64387e-35
3.05305e-34
5.67361e-33
3.88883e-31
3.13254e-29
2.23032e-27
1.35734e-25
6.92325e-24
2.90083e-22
9.78517e-21
2.60704e-19
5.38608e-18
8.34335e-17
9.46003e-16
7.64323e-15
4.25854e-14
1.55306e-13
2.90955e-13
1.69937e-37
1.82591e-36
1.6624e-35
2.12257e-34
1.18698e-32
1.08376e-30
8.98017e-29
6.35676e-27
3.77016e-25
1.84128e-23
7.24431e-22
2.22059e-20
5.22016e-19
9.24658e-18
1.21058e-16
1.14509e-15
7.60167e-15
3.35483e-14
6.92968e-14
6.36495e-39
8.25489e-38
8.67661e-37
8.92421e-36
2.99279e-34
2.92725e-32
2.85661e-30
2.39329e-28
1.68791e-26
9.63002e-25
4.32525e-23
1.50932e-21
4.03496e-20
8.13972e-19
1.21823e-17
1.32483e-16
1.01682e-15
5.19875e-15
1.16234e-14
1.98667e-40
3.1915e-39
4.04653e-38
4.16546e-37
6.32707e-36
4.96306e-34
5.94485e-32
6.29258e-30
5.46847e-28
3.71825e-26
1.96484e-24
7.99033e-23
2.47153e-21
5.73827e-20
9.8469e-19
1.22401e-17
1.06871e-16
6.15245e-16
1.47118e-15
5.67711e-42
1.17816e-40
1.83902e-39
2.18129e-38
2.32188e-37
8.37251e-36
1.07671e-33
1.40798e-31
1.45708e-29
1.17461e-27
7.31884e-26
3.48854e-24
1.25675e-22
3.37565e-21
6.65354e-20
9.42244e-19
9.26957e-18
5.90381e-17
1.49362e-16
6.9496e-44
2.25835e-42
5.18455e-41
8.39656e-40
9.7594e-39
1.09948e-37
8.17206e-36
1.55885e-33
2.21094e-31
2.32382e-29
1.83423e-27
1.08655e-25
4.79198e-24
1.55387e-22
3.64336e-21
6.03447e-20
6.79812e-19
4.81391e-18
1.28003e-17
)
;

boundaryField
{
    leftWall
    {
        type            zeroGradient;
    }
    rightWall
    {
        type            zeroGradient;
    }
    lowerWall
    {
        type            zeroGradient;
    }
    atmosphere
    {
        type            inletOutlet;
        inletValue      uniform 0;
        value           nonuniform List<scalar> 
23
(
0
0
0
0
0
0
0
0
0
0
8.17206e-36
1.55885e-33
2.21094e-31
2.32382e-29
1.83423e-27
1.08655e-25
4.79198e-24
1.55387e-22
3.64336e-21
6.03447e-20
6.79812e-19
4.81391e-18
1.28003e-17
)
;
    }
    defaultFaces
    {
        type            empty;
    }
    procBoundary3to1
    {
        type            processor;
        value           nonuniform List<scalar> 
23
(
3.31504e-16
5.63746e-16
9.44141e-16
1.54415e-15
2.49041e-15
5.79147e-15
1.21621e-14
1.79796e-14
1.85659e-14
9.65147e-15
2.07952e-15
3.88959e-16
3.62275e-16
3.51702e-16
1.31444e-15
5.41245e-15
2.30378e-14
8.29579e-14
2.46815e-13
5.75445e-13
7.90831e-13
2.19032e-12
5.63569e-11
)
;
    }
    procBoundary3to2
    {
        type            processor;
        value           nonuniform List<scalar> 
25
(
7.50368e-18
1.17394e-18
1.59261e-19
2.42925e-20
2.96604e-21
3.29052e-22
3.33878e-23
3.16516e-24
2.67553e-25
2.02705e-26
1.36866e-27
8.2784e-29
4.49327e-30
2.18692e-31
9.52526e-33
3.69526e-34
1.2677e-35
3.80536e-37
9.84224e-39
2.14269e-40
3.78702e-42
5.12061e-44
4.80588e-46
2.38116e-48
3.6129e-51
)
;
    }
}


// ************************************************************************* //
