/*--------------------------------*- C++ -*----------------------------------*\
| =========                 |                                                 |
| \\      /  F ield         | OpenFOAM: The Open Source CFD Toolbox           |
|  \\    /   O peration     | Version:  2.4.0                                 |
|   \\  /    A nd           | Web:      www.OpenFOAM.org                      |
|    \\/     M anipulation  |                                                 |
\*---------------------------------------------------------------------------*/
FoamFile
{
    version     2.0;
    format      ascii;
    class       volScalarField;
    location    "0.35";
    object      p;
}
// * * * * * * * * * * * * * * * * * * * * * * * * * * * * * * * * * * * * * //

dimensions      [1 -1 -2 0 0 0 0];

internalField   nonuniform List<scalar> 
575
(
2.69519
2.69058
2.68751
2.68624
2.59645
2.59075
2.58626
2.58281
2.49112
2.48529
2.48054
2.47661
2.38042
2.37435
2.36904
2.36449
2.26783
2.26147
2.2556
2.25023
2.15205
2.14542
2.13899
2.13308
2.03538
2.02841
2.02149
2.01487
1.91769
1.9104
1.90303
1.89575
1.79968
1.79204
1.78424
1.77638
1.68178
1.67383
1.66566
1.6573
1.56439
1.55619
1.54774
1.53899
1.44785
1.43952
1.43088
1.42187
1.33245
1.32409
1.31539
1.30628
1.21837
1.21013
1.20151
1.19247
1.10576
1.09777
1.0894
1.08059
0.994669
0.987074
0.979097
0.970695
0.885088
0.87802
0.870591
0.862759
0.776946
0.770526
0.763772
0.756656
0.670112
0.664443
0.65848
0.652195
0.564433
0.559598
0.554508
0.549149
0.459718
0.455778
0.451632
0.447263
0.355774
0.352774
0.349607
0.346272
0.252407
0.250363
0.248208
0.245932
0.149302
0.148309
0.147227
0.146052
0.0465405
0.046538
0.0464843
0.0463756
2.68543
2.68826
2.69896
2.71349
2.73134
2.75181
2.77367
2.79628
2.82411
2.82975
2.87504
2.85052
2.90864
2.85972
2.91095
2.84249
2.92574
2.64333
3.80458
2.57866
2.57786
2.58343
2.59316
2.60563
2.61996
2.63533
2.65209
2.67381
2.67305
2.71729
2.67946
2.75097
2.66464
2.74215
2.58573
2.66802
2.36774
2.95058
2.47107
2.46746
2.46765
2.47139
2.47795
2.48629
2.49594
2.50725
2.52317
2.51815
2.56031
2.51399
2.59829
2.47788
2.60203
2.35212
2.4514
2.159
2.58791
2.35766
2.35113
2.34766
2.34671
2.34795
2.35084
2.3552
2.36136
2.37182
2.36445
2.40395
2.35679
2.44775
2.32608
2.4865
2.18749
2.40494
1.99368
2.54162
2.24187
2.23247
2.22521
2.21992
2.21619
2.21363
2.21279
2.21384
2.21859
2.21024
2.24915
2.21121
2.30384
2.21618
2.37465
2.17972
2.39216
1.9674
2.71448
2.12383
2.1117
2.10082
2.09135
2.08278
2.07496
2.0685
2.06381
2.06243
2.05277
2.08944
2.04868
2.17004
2.08267
2.29657
2.24493
2.38665
2.29912
3.96645
2.00414
1.98954
1.97535
1.96182
1.94831
1.93498
1.92238
1.91089
1.90217
1.89051
1.91995
1.88093
2.0103
1.93989
2.21487
2.23539
2.42098
2.77993
11.0649
1.88372
1.86673
1.84935
1.83178
1.81344
1.79434
1.77486
1.75539
1.73734
1.72085
1.73148
1.70454
1.80845
1.75977
2.06116
2.08959
2.44676
2.9628
20.5149
1.76315
1.74396
1.7236
1.70212
1.67897
1.65388
1.627
1.59837
1.56917
1.54085
1.52987
1.50574
1.5525
1.5288
1.81632
1.75239
2.3026
1.51988
16.4939
1.64303
1.62185
1.59879
1.5737
1.54595
1.51488
1.48032
1.44165
1.39927
1.35332
1.31809
1.27348
1.26123
1.23829
1.47618
1.34049
2.22484
1.19277
5.82389
1.5239
1.50101
1.47566
1.44742
1.4155
1.37888
1.33683
1.28799
1.23167
1.16732
1.09832
1.01458
0.93059
0.850982
0.91564
0.724853
1.71778
0.284905
2.93513
1.40621
1.38203
1.35491
1.32416
1.28881
1.24752
1.19888
1.14068
1.07067
0.986218
0.883635
0.751957
0.583356
0.371032
0.145469
-0.203877
0.0898492
-1.2436
-0.984471
1.29034
1.2654
1.23716
1.20474
1.167
1.12238
1.06886
1.00345
0.922225
0.819376
0.686088
0.510761
0.25782
-0.104841
-0.662692
-1.49957
-2.1943
-3.58729
-3.75755
1.17657
1.15147
1.12282
1.0897
1.05088
1.00463
0.948638
0.879468
0.792096
0.67858
0.525979
0.313379
-0.00103467
-0.465713
-1.28305
-2.66554
-4.70819
-6.53665
-5.37655
1.06505
1.0404
1.01213
0.979335
0.940803
0.894846
0.839133
0.770265
0.683138
0.569656
0.416443
0.200191
-0.123099
-0.626683
-1.49352
-3.11846
-5.78954
-8.11596
-3.02529
0.955859
0.932224
0.905104
0.873645
0.836758
0.792945
0.74017
0.675515
0.594686
0.491035
0.353855
0.164916
-0.108693
-0.529307
-1.24416
-2.54789
-4.56591
-6.65613
0.392485
0.848922
0.826849
0.801565
0.772335
0.738281
0.698215
0.650599
0.593317
0.523407
0.436607
0.326495
0.182959
-0.0104768
-0.283483
-0.712885
-1.4515
-2.47438
-2.73285
1.27363
0.744079
0.724031
0.701152
0.674872
0.644558
0.609408
0.568463
0.520533
0.464169
0.397629
0.318765
0.225345
0.115224
-0.0133824
-0.166373
-0.351601
-0.389461
0.541222
2.19375
0.641097
0.623436
0.603389
0.580561
0.554566
0.524981
0.49141
0.453541
0.411284
0.36497
0.315567
0.266556
0.224693
0.20242
0.22307
0.330338
0.703412
1.74608
2.48561
0.53969
0.524675
0.507739
0.488645
0.467229
0.443389
0.417195
0.389001
0.359686
0.331236
0.305693
0.289613
0.292594
0.331987
0.434707
0.64188
1.03406
1.74851
2.12636
0.439555
0.427349
0.413663
0.398395
0.381543
0.363245
0.343879
0.324197
0.305432
0.289537
0.2817
0.287032
0.315205
0.380841
0.50392
0.708311
1.01591
1.45521
1.65848
0.340385
0.33107
0.320674
0.309185
0.296703
0.283491
0.270082
0.257486
0.246581
0.240303
0.242473
0.258243
0.295191
0.36332
0.474157
0.637652
0.852067
1.11266
1.23035
0.241903
0.235494
0.228342
0.220487
0.212063
0.203332
0.194775
0.187133
0.182004
0.181204
0.187716
0.205477
0.239586
0.295877
0.379827
0.493721
0.629928
0.777267
0.845317
0.143921
0.140418
0.136441
0.132045
0.127344
0.122533
0.117917
0.114187
0.112399
0.113766
0.120136
0.133877
0.157764
0.194551
0.246131
0.31186
0.385431
0.459035
0.493583
0.0460979
0.0454226
0.0445159
0.0434132
0.0421697
0.0409113
0.0399216
0.0389862
0.038845
0.0399497
0.0429325
0.048559
0.0576307
0.0707951
0.0882111
0.109087
0.13101
0.151534
0.160938
)
;

boundaryField
{
    leftWall
    {
        type            fixedFluxPressure;
        gradient        nonuniform 0();
        value           nonuniform 0();
    }
    rightWall
    {
        type            fixedFluxPressure;
        gradient        uniform 0;
        value           nonuniform List<scalar> 
25
(
3.80458
2.95058
2.58791
2.54162
2.71448
3.96645
11.0649
20.5149
16.4939
5.82389
2.93513
-0.984471
-3.75755
-5.37655
-3.02529
0.392485
1.27363
2.19375
2.48561
2.12636
1.65848
1.23035
0.845317
0.493583
0.160938
)
;
    }
    lowerWall
    {
        type            fixedFluxPressure;
        gradient        nonuniform 0();
        value           nonuniform 0();
    }
    atmosphere
    {
        type            totalPressure;
        U               U.air;
        phi             phi.air;
        rho             rho;
        psi             none;
        gamma           1;
        p0              uniform 0;
        value           nonuniform List<scalar> 
23
(
-0.00464594
-0.00418766
-0.00377457
-0.00339778
-0.00282762
-0.00215142
-0.00157238
-0.00108464
-0.000699298
-0.000470577
0
0
0
0
0
0
0
0
0
0
0
0
0
)
;
    }
    defaultFaces
    {
        type            empty;
    }
    procBoundary3to1
    {
        type            processor;
        value           nonuniform List<scalar> 
23
(
2.8195
2.81126
2.80282
2.79514
2.78471
2.78396
2.79805
2.82425
2.85332
2.88185
2.91099
2.94019
2.97435
2.98828
3.03407
3.02537
3.06982
3.05829
3.07236
3.08607
3.07448
2.90005
3.75853
)
;
    }
    procBoundary3to2
    {
        type            processor;
        value           nonuniform List<scalar> 
25
(
2.70424
2.60737
2.50146
2.3908
2.27811
2.16262
2.04634
1.92912
1.81151
1.69398
1.57685
1.46044
1.345
1.2307
1.11767
1.00596
0.895582
0.786466
0.678518
0.571596
0.465554
0.360206
0.255405
0.150744
0.0464694
)
;
    }
}


// ************************************************************************* //
