/*--------------------------------*- C++ -*----------------------------------*\
| =========                 |                                                 |
| \\      /  F ield         | OpenFOAM: The Open Source CFD Toolbox           |
|  \\    /   O peration     | Version:  2.4.0                                 |
|   \\  /    A nd           | Web:      www.OpenFOAM.org                      |
|    \\/     M anipulation  |                                                 |
\*---------------------------------------------------------------------------*/
FoamFile
{
    version     2.0;
    format      ascii;
    class       surfaceScalarField;
    location    "0.35";
    object      phi;
}
// * * * * * * * * * * * * * * * * * * * * * * * * * * * * * * * * * * * * * //

dimensions      [0 3 -1 0 0 0 0];

internalField   nonuniform List<scalar> 
1102
(
-4.09603e-05
-1.00515e-05
-4.038e-05
-9.46765e-06
-3.99577e-05
-8.44262e-06
-7.46351e-06
-3.9947e-05
-4.17298e-05
-1.04543e-05
-4.12472e-05
-9.95026e-06
-4.06902e-05
-8.99961e-06
-8.07448e-06
-4.00793e-05
-3.62126e-05
-1.07536e-05
-3.60498e-05
-1.01131e-05
-3.57931e-05
-9.25623e-06
-8.67988e-06
-3.51877e-05
-3.41336e-05
-1.12384e-05
-3.37608e-05
-1.0486e-05
-3.31626e-05
-9.85446e-06
-9.37836e-06
-3.24641e-05
-3.034e-05
-1.15506e-05
-3.00186e-05
-1.08074e-05
-2.96646e-05
-1.02085e-05
-9.74095e-06
-2.9302e-05
-2.77841e-05
-1.16707e-05
-2.75837e-05
-1.10079e-05
-2.74381e-05
-1.0354e-05
-9.87956e-06
-2.72995e-05
-2.55652e-05
-1.15753e-05
-2.55331e-05
-1.104e-05
-2.54737e-05
-1.04135e-05
-9.97861e-06
-2.53746e-05
-2.38059e-05
-1.14552e-05
-2.37828e-05
-1.1063e-05
-2.36192e-05
-1.05771e-05
-1.01553e-05
-2.34424e-05
-2.20521e-05
-1.13643e-05
-2.20783e-05
-1.10368e-05
-2.19916e-05
-1.06639e-05
-1.02604e-05
-2.18865e-05
-2.05176e-05
-1.12727e-05
-2.05462e-05
-1.10082e-05
-2.0521e-05
-1.0689e-05
-1.03724e-05
-2.0409e-05
-1.90937e-05
-1.11777e-05
-1.91644e-05
-1.09375e-05
-1.91749e-05
-1.06784e-05
-1.04042e-05
-1.91431e-05
-1.78184e-05
-1.1065e-05
-1.79145e-05
-1.08414e-05
-1.79798e-05
-1.06132e-05
-1.03796e-05
-1.80044e-05
-1.66489e-05
-1.09296e-05
-1.67808e-05
-1.07095e-05
-1.68951e-05
-1.04988e-05
-1.0293e-05
-1.69817e-05
-1.55571e-05
-1.07663e-05
-1.57214e-05
-1.05452e-05
-1.58812e-05
-1.03391e-05
-1.01455e-05
-1.60287e-05
-1.4515e-05
-1.05725e-05
-1.47122e-05
-1.0348e-05
-1.49131e-05
-1.01382e-05
-9.94505e-06
-1.51136e-05
-1.34872e-05
-1.03493e-05
-1.37163e-05
-1.01189e-05
-1.39542e-05
-9.90026e-06
-9.69716e-06
-1.42021e-05
-1.24493e-05
-1.01015e-05
-1.27049e-05
-9.86329e-06
-1.2974e-05
-9.6312e-06
-9.41506e-06
-1.32561e-05
-1.13761e-05
-9.8369e-06
-1.1653e-05
-9.58639e-06
-1.19446e-05
-9.33957e-06
-9.1046e-06
-1.22551e-05
-1.02539e-05
-9.56195e-06
-1.05416e-05
-9.29872e-06
-1.08456e-05
-9.03551e-06
-8.77814e-06
-1.11721e-05
-9.06503e-06
-9.28612e-06
-9.35622e-06
-9.00754e-06
-9.66508e-06
-8.72664e-06
-8.44703e-06
-9.99618e-06
-7.80363e-06
-9.01687e-06
-8.08923e-06
-8.72192e-06
-8.39341e-06
-8.42245e-06
-8.12235e-06
-8.71809e-06
-6.4626e-06
-8.75899e-06
-6.73821e-06
-8.4463e-06
-7.03132e-06
-8.12934e-06
-7.80948e-06
-7.34418e-06
-5.0509e-06
-8.50357e-06
-5.31355e-06
-8.18366e-06
-5.58549e-06
-7.85739e-06
-7.52704e-06
-5.86794e-06
-3.39852e-06
-8.31698e-06
-3.64446e-06
-7.93771e-06
-3.93089e-06
-7.57095e-06
-7.20933e-06
-4.24859e-06
-2.33163e-06
-2.32641e-06
-2.36547e-06
-2.44114e-06
-3.98621e-05
-1.43938e-05
-3.8614e-05
-1.05538e-05
-3.53409e-05
-7.10626e-06
-3.26127e-05
-3.68894e-06
-2.969e-05
1.17723e-07
-2.60918e-05
1.93417e-06
-2.28068e-05
4.25145e-06
-1.96883e-05
7.07849e-06
-1.61207e-05
8.55586e-06
-1.24441e-05
9.4306e-06
-9.14474e-06
1.26113e-05
-4.22807e-06
9.69729e-06
-2.61921e-06
1.46201e-05
5.1911e-06
7.92792e-06
8.38204e-06
2.10052e-05
3.64998e-05
0.000112671
6.18035e-05
0.000236384
2.21751e-05
0.000354937
0.000372039
-3.81913e-05
-1.62817e-05
-3.59299e-05
-1.28153e-05
-3.29897e-05
-1.00465e-05
-3.02884e-05
-6.39022e-06
-2.73469e-05
-2.82374e-06
-2.41328e-05
-1.27997e-06
-2.12278e-05
1.34649e-06
-1.79894e-05
3.84003e-06
-1.46738e-05
5.24026e-06
-1.13107e-05
6.06752e-06
-8.28628e-06
9.58689e-06
-4.06758e-06
5.47859e-06
-2.56678e-06
1.31193e-05
3.77142e-06
1.58971e-06
7.26779e-06
1.75089e-05
3.37836e-05
8.61553e-05
5.86874e-05
0.00021148
2.36348e-05
0.00038999
0.000395674
-3.35027e-05
-1.79667e-05
-3.19138e-05
-1.44042e-05
-3.03966e-05
-1.15636e-05
-2.8059e-05
-8.72786e-06
-2.50047e-05
-5.87802e-06
-2.22995e-05
-3.98517e-06
-1.9672e-05
-1.28103e-06
-1.62548e-05
4.22812e-07
-1.33255e-05
2.31096e-06
-1.01849e-05
2.92691e-06
-7.45574e-06
6.85775e-06
-4.21526e-06
2.23812e-06
-2.96149e-06
1.18655e-05
1.02247e-06
-2.39425e-06
5.22788e-07
1.80085e-05
1.86737e-05
6.80043e-05
2.69545e-05
0.000203199
7.69131e-06
0.000409253
0.000403365
-3.11213e-05
-1.93095e-05
-2.96598e-05
-1.58657e-05
-2.80454e-05
-1.3178e-05
-2.56892e-05
-1.1084e-05
-2.30138e-05
-8.55343e-06
-2.07312e-05
-6.26778e-06
-1.78209e-05
-4.19132e-06
-1.47507e-05
-2.64737e-06
-1.18847e-05
-5.55032e-07
-8.96824e-06
1.04188e-08
-6.41424e-06
4.30374e-06
-4.33719e-06
1.61068e-07
-3.27653e-06
1.08049e-05
-3.51264e-06
-2.15814e-06
-4.83585e-06
1.93318e-05
5.21518e-07
6.26469e-05
-4.29423e-06
0.000208015
1.4376e-07
0.000404815
0.000403509
-2.84192e-05
-2.01923e-05
-2.73981e-05
-1.68868e-05
-2.57295e-05
-1.48465e-05
-2.35268e-05
-1.32866e-05
-2.14574e-05
-1.06228e-05
-1.90787e-05
-8.64643e-06
-1.60599e-05
-7.21011e-06
-1.33702e-05
-5.33709e-06
-1.02847e-05
-3.64053e-06
-7.50682e-06
-2.76751e-06
-4.92097e-06
1.71789e-06
-3.22477e-06
-1.53513e-06
-2.68047e-06
1.02606e-05
-5.5354e-06
6.96799e-07
-8.27692e-06
2.20733e-05
-2.02386e-05
7.46086e-05
-1.64051e-05
0.000204182
1.98915e-06
0.000386421
0.000405498
-2.66261e-05
-2.08657e-05
-2.53943e-05
-1.81186e-05
-2.36666e-05
-1.65742e-05
-2.1799e-05
-1.51543e-05
-1.99049e-05
-1.25169e-05
-1.74607e-05
-1.10906e-05
-1.46628e-05
-1.0008e-05
-1.18971e-05
-8.10277e-06
-8.66232e-06
-6.87533e-06
-5.71779e-06
-5.71205e-06
-2.68728e-06
-1.31262e-06
-4.83895e-08
-4.17402e-06
-2.00416e-07
1.04126e-05
-1.03474e-06
1.53113e-06
-6.80951e-06
2.78481e-05
-2.40513e-05
9.18504e-05
-1.8578e-05
0.000198708
1.85659e-06
0.000365986
0.000407355
-2.46758e-05
-2.15645e-05
-2.33999e-05
-1.93945e-05
-2.19796e-05
-1.79944e-05
-2.05041e-05
-1.66297e-05
-1.85164e-05
-1.45046e-05
-1.61398e-05
-1.34673e-05
-1.35507e-05
-1.25971e-05
-1.05143e-05
-1.11392e-05
-7.11849e-06
-1.02711e-05
-3.77993e-06
-9.05061e-06
-3.99399e-08
-5.05261e-06
3.17582e-06
-7.38978e-06
6.57258e-06
7.01583e-06
6.92251e-06
1.18121e-06
2.72084e-06
3.20497e-05
-8.56696e-06
0.000103138
-8.68726e-06
0.000198829
-1.09657e-06
0.000358396
0.000406258
-2.28474e-05
-2.21595e-05
-2.18263e-05
-2.04156e-05
-2.0632e-05
-1.91887e-05
-1.9308e-05
-1.79538e-05
-1.73965e-05
-1.6416e-05
-1.51501e-05
-1.57137e-05
-1.26663e-05
-1.5081e-05
-9.46923e-06
-1.43362e-05
-5.81726e-06
-1.39231e-05
-1.76157e-06
-1.31063e-05
3.8214e-06
-1.06356e-05
7.74012e-06
-1.13085e-05
1.5173e-05
-4.17006e-07
1.94706e-05
-3.11646e-06
2.24751e-05
2.90453e-05
3.04801e-05
9.51333e-05
2.42656e-05
0.000205043
-6.09745e-06
0.000388759
0.000400161
-2.13203e-05
-2.27257e-05
-2.04896e-05
-2.12463e-05
-1.95027e-05
-2.01756e-05
-1.83246e-05
-1.91318e-05
-1.66458e-05
-1.80949e-05
-1.45948e-05
-1.77647e-05
-1.21585e-05
-1.75173e-05
-8.95568e-06
-1.7539e-05
-5.06251e-06
-1.78162e-05
-1.9878e-07
-1.797e-05
6.54174e-06
-1.73761e-05
1.27463e-05
-1.75131e-05
2.39085e-05
-1.15791e-05
3.32825e-05
-1.24905e-05
4.52292e-05
1.70986e-05
6.56105e-05
7.47519e-05
5.58566e-05
0.000214797
-8.72531e-06
0.000453341
0.000391436
-1.99925e-05
-2.31422e-05
-1.93952e-05
-2.18437e-05
-1.86242e-05
-2.09465e-05
-1.76387e-05
-2.01173e-05
-1.62278e-05
-1.95058e-05
-1.44508e-05
-1.95417e-05
-1.21802e-05
-1.9788e-05
-9.13676e-06
-2.05824e-05
-5.14908e-06
-2.18039e-05
2.48852e-07
-2.33679e-05
7.74738e-06
-2.48746e-05
1.69628e-05
-2.67285e-05
3.14039e-05
-2.60202e-05
4.61697e-05
-2.72563e-05
6.8296e-05
-5.02773e-06
9.5608e-05
4.74399e-05
7.25079e-05
0.000237897
4.89664e-06
0.000520952
0.000396332
-1.88933e-05
-2.3392e-05
-1.84952e-05
-2.22418e-05
-1.79661e-05
-2.14756e-05
-1.72179e-05
-2.08654e-05
-1.61365e-05
-2.05872e-05
-1.47318e-05
-2.09464e-05
-1.28157e-05
-2.1704e-05
-1.01669e-05
-2.32313e-05
-6.46068e-06
-2.55101e-05
-1.15763e-06
-2.8671e-05
6.62907e-06
-3.26613e-05
1.77461e-05
-3.78456e-05
3.49936e-05
-4.32677e-05
5.74053e-05
-4.9668e-05
9.31954e-05
-4.08178e-05
0.000133151
7.48471e-06
0.000137086
0.000233962
3.86575e-05
0.00061938
0.00043499
-1.79391e-05
-2.34573e-05
-1.77601e-05
-2.24208e-05
-1.74867e-05
-2.1749e-05
-1.70369e-05
-2.13152e-05
-1.63491e-05
-2.12751e-05
-1.5419e-05
-2.18765e-05
-1.40625e-05
-2.30605e-05
-1.2099e-05
-2.51948e-05
-9.16732e-06
-2.84418e-05
-4.65443e-06
-3.31839e-05
2.56894e-06
-3.98846e-05
1.34225e-05
-4.86991e-05
3.14904e-05
-6.13356e-05
6.00809e-05
-7.82585e-05
0.000108
-8.87369e-05
0.000160043
-4.45587e-05
0.000218621
0.000175385
0.000107331
0.000730669
0.000542321
-1.70949e-05
-2.33441e-05
-1.71389e-05
-2.23767e-05
-1.71342e-05
-2.17536e-05
-1.70265e-05
-2.1423e-05
-1.67947e-05
-2.15069e-05
-1.64297e-05
-2.22415e-05
-1.58152e-05
-2.3675e-05
-1.48327e-05
-2.61773e-05
-1.31976e-05
-3.00769e-05
-1.04168e-05
-3.59646e-05
-5.60297e-06
-4.46985e-05
3.13125e-06
-5.74333e-05
1.80015e-05
-7.62058e-05
4.35246e-05
-0.000103782
9.02589e-05
-0.000135471
0.000156081
-0.00011038
0.000225265
0.000106201
0.000170776
0.000785158
0.000713097
-1.632e-05
-2.30528e-05
-1.65871e-05
-2.21096e-05
-1.6857e-05
-2.14838e-05
-1.71099e-05
-2.11701e-05
-1.7358e-05
-2.12588e-05
-1.76246e-05
-2.19749e-05
-1.78704e-05
-2.34292e-05
-1.80706e-05
-2.59771e-05
-1.81345e-05
-3.0013e-05
-1.7867e-05
-3.62322e-05
-1.68621e-05
-4.57034e-05
-1.41123e-05
-6.01831e-05
-7.439e-06
-8.28792e-05
6.69692e-06
-0.000117917
3.40347e-05
-0.000162809
8.62638e-05
-0.00016261
0.000164386
2.8079e-05
0.000194706
0.000754838
0.000907802
-1.55699e-05
-2.25965e-05
-1.60441e-05
-2.16354e-05
-1.65805e-05
-2.09474e-05
-1.71936e-05
-2.0557e-05
-1.79192e-05
-2.05333e-05
-1.88219e-05
-2.10722e-05
-1.99456e-05
-2.23055e-05
-2.13837e-05
-2.45389e-05
-2.32428e-05
-2.81538e-05
-2.56918e-05
-3.37831e-05
-2.89922e-05
-4.2403e-05
-3.35082e-05
-5.56671e-05
-3.99144e-05
-7.6473e-05
-4.8927e-05
-0.000108905
-5.82181e-05
-0.000153518
-5.03168e-05
-0.000170511
-2.31701e-05
9.32189e-07
0.00010744
0.000624228
0.00101524
-1.48012e-05
-2.19975e-05
-1.54636e-05
-2.0973e-05
-1.62402e-05
-2.01708e-05
-1.71823e-05
-1.96149e-05
-1.83431e-05
-1.93725e-05
-1.98279e-05
-1.95874e-05
-2.17555e-05
-2.03779e-05
-2.43163e-05
-2.19781e-05
-2.78011e-05
-2.4669e-05
-3.2662e-05
-2.89223e-05
-3.96528e-05
-3.54123e-05
-5.01392e-05
-4.51807e-05
-6.6775e-05
-5.98372e-05
-9.36401e-05
-8.20397e-05
-0.000134175
-0.000112983
-0.000179444
-0.000125242
-0.000189226
1.07145e-05
-6.05293e-05
0.000495531
0.000954713
-1.39742e-05
-2.12793e-05
-1.47904e-05
-2.01569e-05
-1.57747e-05
-1.91865e-05
-1.69813e-05
-1.84084e-05
-1.85003e-05
-1.78534e-05
-2.04605e-05
-1.76272e-05
-2.30317e-05
-1.78067e-05
-2.64841e-05
-1.85257e-05
-3.12002e-05
-1.99529e-05
-3.77919e-05
-2.23306e-05
-4.72694e-05
-2.59348e-05
-6.13525e-05
-3.10976e-05
-8.3031e-05
-3.81587e-05
-0.000117831
-4.72401e-05
-0.00017343
-5.7384e-05
-0.000246687
-5.19846e-05
-0.000284142
4.81692e-05
-0.000202369
0.000413758
0.000752344
-1.30571e-05
-2.04773e-05
-1.39886e-05
-1.92254e-05
-1.512e-05
-1.80552e-05
-1.65218e-05
-1.70065e-05
-1.82918e-05
-1.60834e-05
-2.05783e-05
-1.53408e-05
-2.35861e-05
-1.47989e-05
-2.76072e-05
-1.45046e-05
-3.30425e-05
-1.45176e-05
-4.05399e-05
-1.48332e-05
-5.10783e-05
-1.53965e-05
-6.61766e-05
-1.59993e-05
-8.83911e-05
-1.59443e-05
-0.000121857
-1.37743e-05
-0.000172721
-6.52036e-06
-0.000243997
1.92913e-05
-0.000301844
0.000106017
-0.000232055
0.000343969
0.000520289
-1.20243e-05
-1.96251e-05
-1.30267e-05
-1.8223e-05
-1.42435e-05
-1.68383e-05
-1.5754e-05
-1.5496e-05
-1.76583e-05
-1.41792e-05
-2.01093e-05
-1.28897e-05
-2.33051e-05
-1.16032e-05
-2.75222e-05
-1.02875e-05
-3.31695e-05
-8.87023e-06
-4.0796e-05
-7.20684e-06
-5.11723e-05
-5.02013e-06
-6.53682e-05
-1.80346e-06
-8.49762e-05
3.66372e-06
-0.000112005
1.32545e-05
-0.000149339
3.08135e-05
-0.000195138
6.50906e-05
-0.000226841
0.00013772
-0.000165482
0.000282609
0.000354808
-1.08633e-05
-1.8758e-05
-1.18931e-05
-1.71933e-05
-1.31295e-05
-1.56018e-05
-1.4662e-05
-1.39635e-05
-1.65856e-05
-1.22556e-05
-1.90381e-05
-1.04372e-05
-2.21998e-05
-8.44148e-06
-2.63229e-05
-6.16435e-06
-3.17354e-05
-3.45773e-06
-3.88529e-05
-8.93317e-08
-4.82255e-05
4.35242e-06
-6.05267e-05
1.04977e-05
-7.63699e-05
1.95069e-05
-9.63031e-05
3.31877e-05
-0.000120032
5.45421e-05
-0.000143319
8.83775e-05
-0.00014865
0.000143051
-9.49824e-05
0.000228942
0.000259826
-9.56837e-06
-1.79077e-05
-1.05693e-05
-1.61924e-05
-1.17719e-05
-1.43992e-05
-1.32327e-05
-1.25028e-05
-1.50473e-05
-1.0441e-05
-1.73244e-05
-8.16009e-06
-2.02301e-05
-5.53577e-06
-2.39734e-05
-2.42112e-06
-2.88016e-05
1.37048e-06
-3.49982e-05
6.10724e-06
-4.28704e-05
1.22246e-05
-5.2719e-05
2.03463e-05
-6.46258e-05
3.14137e-05
-7.81984e-05
4.67602e-05
-9.18459e-05
6.81897e-05
-0.000101227
9.77585e-05
-9.5485e-05
0.000137309
-5.48994e-05
0.000188356
0.000204926
-8.16111e-06
-1.70907e-05
-9.11199e-06
-1.52415e-05
-1.02357e-05
-1.32755e-05
-1.1592e-05
-1.11465e-05
-1.32434e-05
-8.78958e-06
-1.52824e-05
-6.12113e-06
-1.78344e-05
-2.98379e-06
-2.10635e-05
8.08056e-07
-2.5125e-05
5.4319e-06
-3.0196e-05
1.11783e-05
-3.64227e-05
1.84512e-05
-4.38481e-05
2.77718e-05
-5.22484e-05
3.9814e-05
-6.08716e-05
5.53834e-05
-6.79884e-05
7.53065e-05
-7.02767e-05
0.000100047
-6.18769e-05
0.000128909
-3.40012e-05
0.00016048
0.000170925
-6.58706e-06
-1.63716e-05
-7.39232e-06
-1.44362e-05
-8.31756e-06
-1.23503e-05
-9.40179e-06
-1.00622e-05
-1.07018e-05
-7.48953e-06
-1.23171e-05
-4.50586e-06
-1.42927e-05
-1.00818e-06
-1.67908e-05
3.3061e-06
-1.98819e-05
8.52298e-06
-2.36716e-05
1.4968e-05
-2.82025e-05
2.29821e-05
-3.33942e-05
3.29634e-05
-3.89231e-05
4.53429e-05
-4.40496e-05
6.05099e-05
-4.73998e-05
7.86567e-05
-4.67961e-05
9.94431e-05
-3.93158e-05
0.000121429
-2.12998e-05
0.000142464
0.000149625
-5.08615e-06
-1.5534e-05
-5.98083e-06
-1.35415e-05
-6.9075e-06
-1.14236e-05
-7.87713e-06
-9.0926e-06
-8.95421e-06
-6.41245e-06
-1.01716e-05
-3.28842e-06
-1.16234e-05
4.43583e-07
-1.33492e-05
5.03183e-06
-1.54602e-05
1.0634e-05
-1.80045e-05
1.75124e-05
-2.09824e-05
2.596e-05
-2.42894e-05
3.62704e-05
-2.76349e-05
4.86884e-05
-3.0445e-05
6.332e-05
-3.17698e-05
7.99815e-05
-3.02962e-05
9.79695e-05
-2.46059e-05
0.000115739
-1.32464e-05
0.000131105
0.000136379
-2.75106e-06
-3.18283e-06
-3.69596e-06
-4.26574e-06
-4.86384e-06
-5.51003e-06
-6.22498e-06
-7.01049e-06
-7.89287e-06
-8.89476e-06
-1.00144e-05
-1.12041e-05
-1.2339e-05
-1.31809e-05
-1.33547e-05
-1.23737e-05
-9.81352e-06
-5.2608e-06
)
;

boundaryField
{
    leftWall
    {
        type            calculated;
        value           nonuniform 0();
    }
    rightWall
    {
        type            calculated;
        value           uniform 0;
    }
    lowerWall
    {
        type            calculated;
        value           nonuniform 0();
    }
    atmosphere
    {
        type            calculated;
        value           nonuniform List<scalar> 
23
(
-8.3718e-06
-7.94293e-06
-7.53189e-06
-7.13366e-06
-1.52241e-05
-1.31098e-05
-1.09105e-05
-8.52282e-06
-5.81435e-06
-2.64223e-06
1.15854e-06
5.81733e-06
1.15164e-05
1.85143e-05
2.70796e-05
3.74601e-05
4.98233e-05
6.41619e-05
8.01553e-05
9.69884e-05
0.000113179
0.000126552
0.000131118
)
;
    }
    defaultFaces
    {
        type            empty;
        value           nonuniform 0();
    }
    procBoundary3to1
    {
        type            processor;
        value           nonuniform List<scalar> 
23
(
9.83187e-06
8.8873e-06
8.02029e-06
7.4528e-06
1.43089e-05
9.30577e-06
3.83315e-06
9.60752e-07
-3.04048e-06
-5.53232e-06
-7.53653e-06
-1.0197e-05
-1.21235e-05
-1.31071e-05
-1.59107e-05
-1.4614e-05
-1.6229e-05
-1.57382e-05
-2.41962e-05
-0.000140789
-0.000261688
-0.000315309
-0.000349864
)
;
    }
    procBoundary3to2
    {
        type            processor;
        value           nonuniform List<scalar> 
25
(
4.118e-05
4.21325e-05
3.65119e-05
3.46184e-05
3.06522e-05
2.79042e-05
2.54697e-05
2.36857e-05
2.19612e-05
2.0426e-05
1.89987e-05
1.77057e-05
1.65135e-05
1.53939e-05
1.43211e-05
1.32641e-05
1.22015e-05
1.11115e-05
9.97895e-06
8.7892e-06
7.53437e-06
6.20474e-06
4.79547e-06
3.21193e-06
2.38646e-06
)
;
    }
}


// ************************************************************************* //
