/*--------------------------------*- C++ -*----------------------------------*\
| =========                 |                                                 |
| \\      /  F ield         | OpenFOAM: The Open Source CFD Toolbox           |
|  \\    /   O peration     | Version:  2.4.0                                 |
|   \\  /    A nd           | Web:      www.OpenFOAM.org                      |
|    \\/     M anipulation  |                                                 |
\*---------------------------------------------------------------------------*/
FoamFile
{
    version     2.0;
    format      ascii;
    class       surfaceScalarField;
    location    "0.35";
    object      phi.oil;
}
// * * * * * * * * * * * * * * * * * * * * * * * * * * * * * * * * * * * * * //

dimensions      [0 3 -1 0 0 0 0];

internalField   nonuniform List<scalar> 
1102
(
-4.09622e-05
-1.00566e-05
-4.03812e-05
-9.47213e-06
-3.99583e-05
-8.4458e-06
-7.46705e-06
-3.99465e-05
-4.17312e-05
-1.04541e-05
-4.12481e-05
-9.95015e-06
-4.06907e-05
-8.99948e-06
-8.07411e-06
-4.00795e-05
-3.62135e-05
-1.07547e-05
-3.60503e-05
-1.01139e-05
-3.57934e-05
-9.25664e-06
-8.68009e-06
-3.51878e-05
-3.41343e-05
-1.12384e-05
-3.37613e-05
-1.0486e-05
-3.31628e-05
-9.85443e-06
-9.37831e-06
-3.2464e-05
-3.03405e-05
-1.15507e-05
-3.00189e-05
-1.08074e-05
-2.96647e-05
-1.02084e-05
-9.74089e-06
-2.93019e-05
-2.77846e-05
-1.16707e-05
-2.75839e-05
-1.10079e-05
-2.74382e-05
-1.03539e-05
-9.87949e-06
-2.72995e-05
-2.55656e-05
-1.15752e-05
-2.55333e-05
-1.10399e-05
-2.54737e-05
-1.04134e-05
-9.97855e-06
-2.53746e-05
-2.38063e-05
-1.14551e-05
-2.37831e-05
-1.1063e-05
-2.36193e-05
-1.05771e-05
-1.01553e-05
-2.34425e-05
-2.20525e-05
-1.13643e-05
-2.20786e-05
-1.10368e-05
-2.19918e-05
-1.06639e-05
-1.02605e-05
-2.18866e-05
-2.0518e-05
-1.12727e-05
-2.05465e-05
-1.10082e-05
-2.05213e-05
-1.0689e-05
-1.03725e-05
-2.04093e-05
-1.90942e-05
-1.11777e-05
-1.91648e-05
-1.09376e-05
-1.91753e-05
-1.06785e-05
-1.04043e-05
-1.91435e-05
-1.7819e-05
-1.1065e-05
-1.79151e-05
-1.08415e-05
-1.79803e-05
-1.06133e-05
-1.03797e-05
-1.8005e-05
-1.66496e-05
-1.09296e-05
-1.67815e-05
-1.07096e-05
-1.68958e-05
-1.04989e-05
-1.02932e-05
-1.69825e-05
-1.55579e-05
-1.07664e-05
-1.57222e-05
-1.05453e-05
-1.5882e-05
-1.03392e-05
-1.01457e-05
-1.60296e-05
-1.45158e-05
-1.05725e-05
-1.47132e-05
-1.0348e-05
-1.49142e-05
-1.01382e-05
-9.94513e-06
-1.51148e-05
-1.34882e-05
-1.03493e-05
-1.37173e-05
-1.01188e-05
-1.39554e-05
-9.90025e-06
-9.69716e-06
-1.42034e-05
-1.24503e-05
-1.01014e-05
-1.2706e-05
-9.86323e-06
-1.29752e-05
-9.63113e-06
-9.41499e-06
-1.32574e-05
-1.13771e-05
-9.83673e-06
-1.16541e-05
-9.58621e-06
-1.19459e-05
-9.33941e-06
-9.10443e-06
-1.22564e-05
-1.02549e-05
-9.56174e-06
-1.05427e-05
-9.29851e-06
-1.08468e-05
-9.03526e-06
-8.77788e-06
-1.11734e-05
-9.06601e-06
-9.28581e-06
-9.35721e-06
-9.0072e-06
-9.66622e-06
-8.72631e-06
-8.44667e-06
-9.99742e-06
-7.8045e-06
-9.01652e-06
-8.09023e-06
-8.72156e-06
-8.39441e-06
-8.42204e-06
-8.12191e-06
-8.71919e-06
-6.46338e-06
-8.75856e-06
-6.73896e-06
-8.44583e-06
-7.03219e-06
-8.12886e-06
-7.80895e-06
-7.34509e-06
-5.05148e-06
-8.50313e-06
-5.31425e-06
-8.18319e-06
-5.58614e-06
-7.85684e-06
-7.52642e-06
-5.86861e-06
-3.39894e-06
-8.31639e-06
-3.6448e-06
-7.93705e-06
-3.93123e-06
-7.57024e-06
-7.20856e-06
-4.24892e-06
-2.33172e-06
-2.32651e-06
-2.36554e-06
-2.44122e-06
-3.98619e-05
-1.4399e-05
-3.86124e-05
-1.05561e-05
-3.5338e-05
-7.1068e-06
-3.26098e-05
-3.69037e-06
-2.96866e-05
1.15892e-07
-2.60893e-05
1.93326e-06
-2.28051e-05
4.24926e-06
-1.96886e-05
7.07526e-06
-1.61221e-05
8.55256e-06
-1.23368e-05
9.42269e-06
-9.48055e-06
1.25803e-05
-2.02846e-06
9.56795e-06
-5.70222e-06
1.40594e-05
9.70059e-06
5.91335e-06
4.31357e-06
1.64237e-05
3.99855e-05
9.92323e-05
6.8151e-05
0.000201519
4.03719e-05
0.000296106
0.000374539
-3.81915e-05
-1.6281e-05
-3.59292e-05
-1.28151e-05
-3.29886e-05
-1.00466e-05
-3.0287e-05
-6.39049e-06
-2.73454e-05
-2.82411e-06
-2.41314e-05
-1.28092e-06
-2.12266e-05
1.34506e-06
-1.7988e-05
3.83873e-06
-1.46751e-05
5.23826e-06
-1.12293e-05
6.06238e-06
-8.57195e-06
9.56366e-06
-2.09753e-06
5.3795e-06
-5.71886e-06
1.26593e-05
7.87577e-06
-1.34053e-07
2.16995e-06
1.40284e-05
2.29252e-05
7.19875e-05
6.12224e-05
0.000195684
4.44304e-05
0.000360146
0.000394045
-3.35028e-05
-1.79669e-05
-3.19133e-05
-1.44041e-05
-3.0396e-05
-1.15635e-05
-2.80582e-05
-8.72801e-06
-2.50038e-05
-5.87828e-06
-2.22986e-05
-3.98569e-06
-1.96709e-05
-1.28165e-06
-1.62532e-05
4.22223e-07
-1.33255e-05
2.31002e-06
-1.01278e-05
2.9241e-06
-7.67422e-06
6.84225e-06
-2.60185e-06
2.1706e-06
-6.01296e-06
1.14962e-05
3.68936e-06
-3.56892e-06
-5.58054e-06
1.53537e-05
-4.0289e-06
6.5368e-05
3.27567e-05
0.000208726
3.39019e-05
0.00045709
0.000403727
-3.11212e-05
-1.93094e-05
-2.96594e-05
-1.58655e-05
-2.80449e-05
-1.31779e-05
-2.56887e-05
-1.1084e-05
-2.30132e-05
-8.55357e-06
-2.07304e-05
-6.26804e-06
-1.78198e-05
-4.19156e-06
-1.47491e-05
-2.64756e-06
-1.18837e-05
-5.55127e-07
-8.93185e-06
9.45833e-09
-6.55157e-06
4.29608e-06
-3.22176e-06
1.20103e-07
-5.75491e-06
1.0543e-05
-6.59403e-07
-2.89023e-06
-1.05946e-05
1.66478e-05
-9.23764e-06
8.94195e-05
1.00306e-05
0.000228995
1.8357e-05
0.000490278
0.000406481
-2.8419e-05
-2.01922e-05
-2.73977e-05
-1.68866e-05
-2.57291e-05
-1.48464e-05
-2.35264e-05
-1.32867e-05
-2.14569e-05
-1.0623e-05
-1.9078e-05
-8.6466e-06
-1.60588e-05
-7.21025e-06
-1.33685e-05
-5.33706e-06
-1.0283e-05
-3.64019e-06
-7.48623e-06
-2.76699e-06
-4.99052e-06
1.71645e-06
-2.66089e-06
-1.55424e-06
-3.68801e-06
1.0122e-05
-2.22203e-06
3.12521e-07
-1.09366e-05
2.1096e-05
-8.54145e-06
0.000111487
2.9112e-06
0.000259863
1.46396e-05
0.000423069
0.000407144
-2.66259e-05
-2.08656e-05
-2.5394e-05
-1.81185e-05
-2.36663e-05
-1.65741e-05
-2.17987e-05
-1.51544e-05
-1.99044e-05
-1.25172e-05
-1.74599e-05
-1.10909e-05
-1.46615e-05
-1.00082e-05
-1.18952e-05
-8.10279e-06
-8.65985e-06
-6.87497e-06
-5.70788e-06
-5.71122e-06
-2.71113e-06
-1.31193e-06
2.33411e-07
-4.18086e-06
-6.54997e-07
1.03477e-05
9.72813e-07
1.3403e-06
-9.12518e-06
2.70494e-05
-7.21224e-06
0.000103197
-2.47265e-06
0.000286826
1.09693e-05
0.000363546
0.000407664
-2.46757e-05
-2.15645e-05
-2.33997e-05
-1.93945e-05
-2.19794e-05
-1.79946e-05
-2.05039e-05
-1.663e-05
-1.8516e-05
-1.45051e-05
-1.61389e-05
-1.34678e-05
-1.35492e-05
-1.25976e-05
-1.05121e-05
-1.11395e-05
-7.1155e-06
-1.02711e-05
-3.7738e-06
-9.05012e-06
-4.09103e-08
-5.0515e-06
3.32315e-06
-7.39163e-06
6.24609e-06
6.98615e-06
8.50844e-06
9.9297e-07
-1.13264e-06
3.14163e-05
-3.03961e-06
0.000104122
-1.99431e-08
0.00031324
1.27722e-05
0.000359576
0.000406453
-2.28474e-05
-2.21596e-05
-2.18262e-05
-2.04158e-05
-2.06319e-05
-1.9189e-05
-1.93078e-05
-1.79543e-05
-1.73962e-05
-1.64168e-05
-1.51493e-05
-1.57146e-05
-1.26647e-05
-1.50819e-05
-9.46682e-06
-1.43371e-05
-5.81392e-06
-1.39238e-05
-1.75662e-06
-1.31068e-05
3.82853e-06
-1.06362e-05
7.83328e-06
-1.13134e-05
1.49683e-05
-4.78527e-07
2.1769e-05
-3.39669e-06
1.72838e-05
2.81195e-05
9.05746e-06
8.81321e-05
8.06189e-06
0.000303445
2.01731e-05
0.000373724
0.00040007
-2.13204e-05
-2.27258e-05
-2.04897e-05
-2.12467e-05
-1.95028e-05
-2.01761e-05
-1.83247e-05
-1.91326e-05
-1.66455e-05
-1.80959e-05
-1.4594e-05
-1.7766e-05
-1.21569e-05
-1.75188e-05
-8.95318e-06
-1.75407e-05
-5.05897e-06
-1.78181e-05
-1.93663e-07
-1.79721e-05
6.55264e-06
-1.73789e-05
1.28366e-05
-1.75246e-05
2.38934e-05
-1.16947e-05
3.54346e-05
-1.30881e-05
3.39857e-05
1.28259e-05
2.92474e-05
6.80504e-05
1.67279e-05
0.000257744
3.49351e-05
0.000416791
0.000391027
-1.99927e-05
-2.31425e-05
-1.93954e-05
-2.18442e-05
-1.86245e-05
-2.09473e-05
-1.7639e-05
-2.01184e-05
-1.62277e-05
-1.95073e-05
-1.44502e-05
-1.95435e-05
-1.21788e-05
-1.97901e-05
-9.13441e-06
-2.05851e-05
-5.14562e-06
-2.18071e-05
2.54008e-07
-2.33718e-05
7.76211e-06
-2.48803e-05
1.70756e-05
-2.67499e-05
3.16372e-05
-2.61994e-05
4.71077e-05
-2.85534e-05
6.53978e-05
-9.49374e-06
9.34866e-05
3.39673e-05
4.58091e-05
0.000245706
4.82614e-05
0.00049139
0.000396249
-1.88938e-05
-2.33924e-05
-1.84957e-05
-2.22424e-05
-1.79666e-05
-2.14766e-05
-1.72184e-05
-2.08668e-05
-1.61367e-05
-2.0589e-05
-1.47314e-05
-2.09486e-05
-1.28147e-05
-2.17069e-05
-1.01649e-05
-2.3235e-05
-6.45773e-06
-2.55147e-05
-1.15265e-06
-2.86767e-05
6.64756e-06
-3.26694e-05
1.78922e-05
-3.78692e-05
3.54176e-05
-4.34591e-05
5.76313e-05
-5.08179e-05
8.61918e-05
-4.88727e-05
0.000141012
-1.03039e-05
6.97426e-05
0.000203863
6.52312e-05
0.000580397
0.000432658
-1.79398e-05
-2.34578e-05
-1.77609e-05
-2.24215e-05
-1.74876e-05
-2.17501e-05
-1.70378e-05
-2.13167e-05
-1.63497e-05
-2.12771e-05
-1.54193e-05
-2.18791e-05
-1.40621e-05
-2.30639e-05
-1.20979e-05
-2.51993e-05
-9.16523e-06
-2.84475e-05
-4.65063e-06
-3.31912e-05
2.58518e-06
-3.98944e-05
1.35684e-05
-4.87188e-05
3.20624e-05
-6.14609e-05
5.73429e-05
-7.96898e-05
0.000101851
-9.71692e-05
0.000161848
-6.88785e-05
7.47818e-05
0.000125426
8.99264e-05
0.000624394
0.000533658
-1.70958e-05
-2.33446e-05
-1.714e-05
-2.23775e-05
-1.71354e-05
-2.17547e-05
-1.70278e-05
-2.14245e-05
-1.67959e-05
-2.15089e-05
-1.64306e-05
-2.22443e-05
-1.58156e-05
-2.36787e-05
-1.48326e-05
-2.61822e-05
-1.31968e-05
-3.00832e-05
-1.04151e-05
-3.59729e-05
-5.59546e-06
-4.47097e-05
3.20917e-06
-5.74539e-05
1.84665e-05
-7.63178e-05
3.96811e-05
-0.000104975
7.62799e-05
-0.000141989
0.000138799
-0.000130536
8.98064e-05
5.40036e-05
0.000135776
0.000646756
0.00071885
-1.63212e-05
-2.30532e-05
-1.65885e-05
-2.21103e-05
-1.68586e-05
-2.14848e-05
-1.71116e-05
-2.11715e-05
-1.73597e-05
-2.12607e-05
-1.76262e-05
-2.19776e-05
-1.78719e-05
-2.34328e-05
-1.80717e-05
-2.59818e-05
-1.81353e-05
-3.00192e-05
-1.78676e-05
-3.62403e-05
-1.68636e-05
-4.57146e-05
-1.41158e-05
-6.02041e-05
-7.32064e-06
-8.29792e-05
2.11057e-06
-0.000118614
1.26179e-05
-0.000164373
4.01593e-05
-0.000163334
9.71741e-05
3.74436e-05
0.000172115
0.000832457
0.000972982
-1.55713e-05
-2.25968e-05
-1.60457e-05
-2.16358e-05
-1.65824e-05
-2.09482e-05
-1.71958e-05
-2.05581e-05
-1.79215e-05
-2.05349e-05
-1.88243e-05
-2.10744e-05
-1.9948e-05
-2.23085e-05
-2.13859e-05
-2.45429e-05
-2.32452e-05
-2.8159e-05
-2.56949e-05
-3.379e-05
-2.90019e-05
-4.24126e-05
-3.36094e-05
-5.56882e-05
-4.00733e-05
-7.66135e-05
-5.12567e-05
-0.000109157
-7.84537e-05
-0.00015096
-8.41929e-05
-0.000144958
-3.51792e-05
9.54973e-05
0.000276638
0.00105334
0.00127451
-1.48027e-05
-2.19976e-05
-1.54654e-05
-2.09732e-05
-1.62424e-05
-2.01712e-05
-1.71848e-05
-1.96156e-05
-1.8346e-05
-1.93735e-05
-1.98311e-05
-1.95889e-05
-2.17587e-05
-2.03799e-05
-2.43196e-05
-2.19808e-05
-2.78049e-05
-2.46725e-05
-3.26668e-05
-2.89268e-05
-3.96632e-05
-3.54186e-05
-5.02385e-05
-4.51927e-05
-6.74515e-05
-5.99312e-05
-9.2809e-05
-8.26468e-05
-0.00013606
-0.000109133
-0.000198538
-5.21552e-05
0.000147086
0.000352035
0.000501044
0.00170263
0.00144097
-1.39759e-05
-2.12791e-05
-1.47923e-05
-2.01568e-05
-1.57771e-05
-1.91865e-05
-1.69841e-05
-1.84085e-05
-1.85036e-05
-1.78537e-05
-2.04641e-05
-1.76277e-05
-2.30354e-05
-1.78074e-05
-2.64881e-05
-1.85267e-05
-3.12048e-05
-1.99542e-05
-3.7798e-05
-2.23325e-05
-4.72793e-05
-2.59373e-05
-6.14056e-05
-3.1102e-05
-8.35683e-05
-3.8196e-05
-0.000117907
-4.76374e-05
-0.000117336
-5.61052e-05
-0.000100557
5.56964e-05
0.000170923
0.0005516
0.000392572
0.00143911
0.00116467
-1.30588e-05
-2.04769e-05
-1.39906e-05
-1.92249e-05
-1.51224e-05
-1.80547e-05
-1.65248e-05
-1.7006e-05
-1.82953e-05
-1.60829e-05
-2.0582e-05
-1.53402e-05
-2.35901e-05
-1.47982e-05
-2.76115e-05
-1.45038e-05
-3.30475e-05
-1.45167e-05
-4.05464e-05
-1.48323e-05
-5.10873e-05
-1.53953e-05
-6.6198e-05
-1.59978e-05
-8.85764e-05
-1.59486e-05
-0.0001227
-1.38812e-05
-0.000104138
-6.55985e-06
-9.22562e-05
6.71492e-05
5.22397e-05
0.000365651
0.000118496
0.000826713
0.000657392
-1.20259e-05
-1.96244e-05
-1.30286e-05
-1.82222e-05
-1.4246e-05
-1.68373e-05
-1.57569e-05
-1.54949e-05
-1.76616e-05
-1.41778e-05
-2.01131e-05
-1.2888e-05
-2.3309e-05
-1.16011e-05
-2.75264e-05
-1.0285e-05
-3.31745e-05
-8.86736e-06
-4.08022e-05
-7.20336e-06
-5.11804e-05
-5.01587e-06
-6.53792e-05
-1.79779e-06
-8.50105e-05
3.6707e-06
-0.000112328
1.32522e-05
-0.000146168
3.07084e-05
-0.000124706
6.66639e-05
-0.00011356
0.000170446
-8.18717e-05
0.000335902
0.000365171
-1.08648e-05
-1.8757e-05
-1.18949e-05
-1.71921e-05
-1.31318e-05
-1.56004e-05
-1.46647e-05
-1.39618e-05
-1.65887e-05
-1.22534e-05
-1.90415e-05
-1.04345e-05
-2.22034e-05
-8.4382e-06
-2.63268e-05
-6.16044e-06
-3.17399e-05
-3.45309e-06
-3.88585e-05
-8.38312e-08
-4.82324e-05
4.35912e-06
-6.05348e-05
1.05061e-05
-7.63808e-05
1.95176e-05
-9.63391e-05
3.32005e-05
-0.000120299
5.45506e-05
-0.000142318
8.83631e-05
-0.000136875
0.000143344
-8.24683e-05
0.000224867
0.000243779
-9.56971e-06
-1.79064e-05
-1.05709e-05
-1.61909e-05
-1.17739e-05
-1.43974e-05
-1.32351e-05
-1.25005e-05
-1.50501e-05
-1.04381e-05
-1.73274e-05
-8.15655e-06
-2.02332e-05
-5.53145e-06
-2.39766e-05
-2.41599e-06
-2.88053e-05
1.37655e-06
-3.50028e-05
6.11436e-06
-4.28759e-05
1.22332e-05
-5.27252e-05
2.03567e-05
-6.46325e-05
3.14263e-05
-7.8207e-05
4.67754e-05
-9.18685e-05
6.82072e-05
-0.000101287
9.77798e-05
-9.49552e-05
0.000137385
-5.16659e-05
0.000189022
0.000203387
-8.16222e-06
-1.70893e-05
-9.11333e-06
-1.52397e-05
-1.02373e-05
-1.32733e-05
-1.1594e-05
-1.11437e-05
-1.32456e-05
-8.78613e-06
-1.52847e-05
-6.11689e-06
-1.78368e-05
-2.97872e-06
-2.1066e-05
8.14104e-07
-2.51279e-05
5.43888e-06
-3.01995e-05
1.11865e-05
-3.64267e-05
1.84608e-05
-4.38525e-05
2.77832e-05
-5.2253e-05
3.98274e-05
-6.08763e-05
5.53989e-05
-6.7994e-05
7.53241e-05
-7.02838e-05
0.000100067
-6.18199e-05
0.000128939
-3.37197e-05
0.000160604
0.000171319
-6.58786e-06
-1.63699e-05
-7.39331e-06
-1.44341e-05
-8.31874e-06
-1.23476e-05
-9.40319e-06
-1.0059e-05
-1.07034e-05
-7.48562e-06
-1.23187e-05
-4.50118e-06
-1.42943e-05
-1.00261e-06
-1.67925e-05
3.31248e-06
-1.98838e-05
8.53035e-06
-2.36739e-05
1.49764e-05
-2.82051e-05
2.29918e-05
-3.3397e-05
3.29745e-05
-3.89259e-05
4.53557e-05
-4.40525e-05
6.05243e-05
-4.74028e-05
7.86727e-05
-4.67994e-05
9.94607e-05
-3.93136e-05
0.00012145
-2.12839e-05
0.000142492
0.000149681
-5.08663e-06
-1.5532e-05
-5.98142e-06
-1.35391e-05
-6.90822e-06
-1.14207e-05
-7.87794e-06
-9.08912e-06
-8.95512e-06
-6.4083e-06
-1.01726e-05
-3.28352e-06
-1.16244e-05
4.49227e-07
-1.33501e-05
5.03826e-06
-1.54613e-05
1.06412e-05
-1.80058e-05
1.75205e-05
-2.09839e-05
2.59691e-05
-2.42909e-05
3.62807e-05
-2.76365e-05
4.87e-05
-3.04465e-05
6.33329e-05
-3.17716e-05
7.99957e-05
-3.02978e-05
9.79853e-05
-2.46073e-05
0.000115756
-1.32467e-05
0.000131124
0.000136401
-2.75121e-06
-3.18303e-06
-3.6962e-06
-4.26601e-06
-4.86413e-06
-5.51033e-06
-6.22528e-06
-7.0108e-06
-7.89321e-06
-8.89516e-06
-1.00148e-05
-1.12046e-05
-1.23394e-05
-1.31814e-05
-1.33552e-05
-1.23742e-05
-9.81405e-06
-5.26119e-06
)
;

boundaryField
{
    leftWall
    {
        type            fixedValue;
        value           nonuniform 0();
    }
    rightWall
    {
        type            fixedValue;
        value           uniform 0;
    }
    lowerWall
    {
        type            fixedValue;
        value           nonuniform 0();
    }
    atmosphere
    {
        type            calculated;
        value           nonuniform List<scalar> 
23
(
-8.37107e-06
-7.94216e-06
-7.53107e-06
-7.13281e-06
-1.5222e-05
-1.31072e-05
-1.09075e-05
-8.51927e-06
-5.81014e-06
-2.63731e-06
1.16418e-06
5.82368e-06
1.15234e-05
1.85222e-05
2.70885e-05
3.74701e-05
4.98344e-05
6.41742e-05
8.01688e-05
9.70033e-05
0.000113195
0.00012657
0.000131137
)
;
    }
    defaultFaces
    {
        type            empty;
        value           nonuniform 0();
    }
    procBoundary3to1
    {
        type            processor;
        value           nonuniform List<scalar> 
23
(
9.84294e-06
8.89171e-06
8.02328e-06
7.45461e-06
1.43077e-05
9.29985e-06
3.82031e-06
9.54712e-07
-3.04189e-06
-5.53135e-06
-7.53024e-06
-1.01897e-05
-1.21172e-05
-1.30954e-05
-1.58687e-05
-1.4447e-05
-1.55774e-05
-1.34139e-05
-1.93484e-05
-0.000127266
-0.000242658
-0.000273189
-0.000350848
)
;
    }
    procBoundary3to2
    {
        type            processor;
        value           nonuniform List<scalar> 
25
(
4.11819e-05
4.21338e-05
3.65136e-05
3.46205e-05
3.06534e-05
2.7905e-05
2.54704e-05
2.36864e-05
2.19618e-05
2.04266e-05
1.89994e-05
1.77064e-05
1.65143e-05
1.53947e-05
1.4322e-05
1.3265e-05
1.22025e-05
1.11125e-05
9.97985e-06
8.79012e-06
7.53512e-06
6.20545e-06
4.79597e-06
3.2123e-06
2.38666e-06
)
;
    }
}


// ************************************************************************* //
