/*--------------------------------*- C++ -*----------------------------------*\
| =========                 |                                                 |
| \\      /  F ield         | OpenFOAM: The Open Source CFD Toolbox           |
|  \\    /   O peration     | Version:  2.4.0                                 |
|   \\  /    A nd           | Web:      www.OpenFOAM.org                      |
|    \\/     M anipulation  |                                                 |
\*---------------------------------------------------------------------------*/
FoamFile
{
    version     2.0;
    format      ascii;
    class       volVectorField;
    location    "0.35";
    object      U;
}
// * * * * * * * * * * * * * * * * * * * * * * * * * * * * * * * * * * * * * //

dimensions      [0 1 -1 0 0 0 0];

internalField   nonuniform List<vector> 
575
(
(-0.22078 -0.119173 0)
(-0.21936 -0.114092 0)
(-0.216524 -0.102943 0)
(-0.213005 -0.0964059 0)
(-0.225814 -0.10582 0)
(-0.222824 -0.100805 0)
(-0.220559 -0.091233 0)
(-0.217777 -0.0777577 0)
(-0.195068 -0.129446 0)
(-0.195098 -0.122526 0)
(-0.19335 -0.110209 0)
(-0.191153 -0.102105 0)
(-0.183881 -0.120179 0)
(-0.182823 -0.112601 0)
(-0.179853 -0.105197 0)
(-0.173736 -0.100239 0)
(-0.162839 -0.133613 0)
(-0.164011 -0.123971 0)
(-0.16005 -0.117262 0)
(-0.157554 -0.111567 0)
(-0.148496 -0.132974 0)
(-0.149128 -0.125592 0)
(-0.148936 -0.118472 0)
(-0.146173 -0.113394 0)
(-0.135792 -0.133356 0)
(-0.137359 -0.125682 0)
(-0.137995 -0.117785 0)
(-0.136735 -0.112178 0)
(-0.127003 -0.131509 0)
(-0.127119 -0.127018 0)
(-0.12818 -0.12033 0)
(-0.126575 -0.115967 0)
(-0.117458 -0.130411 0)
(-0.118117 -0.126069 0)
(-0.118418 -0.121659 0)
(-0.118598 -0.116225 0)
(-0.10974 -0.129312 0)
(-0.109639 -0.126164 0)
(-0.11016 -0.122004 0)
(-0.110661 -0.118181 0)
(-0.10209 -0.128236 0)
(-0.102315 -0.125339 0)
(-0.102531 -0.122167 0)
(-0.103532 -0.11867 0)
(-0.0953202 -0.127012 0)
(-0.0956296 -0.124405 0)
(-0.0958415 -0.121628 0)
(-0.097091 -0.118767 0)
(-0.0890064 -0.125587 0)
(-0.0895764 -0.123036 0)
(-0.0898619 -0.120557 0)
(-0.091254 -0.118053 0)
(-0.0830849 -0.12388 0)
(-0.0838936 -0.121347 0)
(-0.0843458 -0.11897 0)
(-0.0858189 -0.11668 0)
(-0.0774062 -0.121827 0)
(-0.0784508 -0.119274 0)
(-0.0791254 -0.116899 0)
(-0.0806416 -0.114679 0)
(-0.0718039 -0.119431 0)
(-0.0730534 -0.116826 0)
(-0.0739798 -0.114373 0)
(-0.0755363 -0.112103 0)
(-0.0661618 -0.116735 0)
(-0.0675654 -0.11405 0)
(-0.0687284 -0.11147 0)
(-0.0703181 -0.109064 0)
(-0.0603527 -0.113802 0)
(-0.0618565 -0.111008 0)
(-0.0632214 -0.108265 0)
(-0.0648528 -0.105665 0)
(-0.0543025 -0.110713 0)
(-0.0558477 -0.107781 0)
(-0.0573447 -0.104857 0)
(-0.0590041 -0.10203 0)
(-0.0479198 -0.107567 0)
(-0.0494612 -0.104468 0)
(-0.051033 -0.101349 0)
(-0.0527003 -0.0982781 0)
(-0.0411672 -0.104474 0)
(-0.0426651 -0.101198 0)
(-0.0442407 -0.0978791 0)
(-0.0458833 -0.0945684 0)
(-0.0339989 -0.101308 0)
(-0.0354382 -0.0978455 0)
(-0.0369664 -0.0943426 0)
(-0.0385645 -0.0908128 0)
(-0.0264479 -0.0988154 0)
(-0.027819 -0.0952094 0)
(-0.0292678 -0.0915015 0)
(-0.0307442 -0.0877535 0)
(-0.017613 -0.095165 0)
(-0.0188901 -0.0913469 0)
(-0.0203113 -0.0875549 0)
(-0.02194 -0.0837463 0)
(-0.0126391 -0.0955636 0)
(-0.0124508 -0.090669 0)
(-0.0125613 -0.0859782 0)
(-0.0128558 -0.0814338 0)
(-0.217155 -0.079048 0)
(-0.212819 -0.0548509 0)
(-0.198021 -0.0311344 0)
(-0.17957 -0.0138504 0)
(-0.168641 0.00639947 0)
(-0.149457 0.017963 0)
(-0.129097 0.0285146 0)
(-0.118687 0.0419276 0)
(-0.0835777 0.0501888 0)
(-0.102001 0.0545085 0)
(-0.0167831 0.0693065 0)
(-0.0963951 0.0578425 0)
(0.0623833 0.074728 0)
(-0.09986 0.0553592 0)
(0.169259 0.108099 0)
(-0.0987986 0.606765 0)
(0.546175 1.20216 0)
(-0.00659204 1.59642 0)
(0.0103062 1.7783 0)
(-0.209949 -0.066001 0)
(-0.201678 -0.0529352 0)
(-0.181346 -0.042221 0)
(-0.170998 -0.0241111 0)
(-0.154465 -0.00538285 0)
(-0.137508 0.000744964 0)
(-0.121052 0.0128277 0)
(-0.107329 0.027157 0)
(-0.0773728 0.0330335 0)
(-0.0925735 0.0376295 0)
(-0.0136654 0.0538242 0)
(-0.0912652 0.0356039 0)
(0.0608837 0.0670195 0)
(-0.100082 0.0199731 0)
(0.155905 0.0913998 0)
(-0.100833 0.470366 0)
(0.520381 1.06919 0)
(0.0117928 1.79037 0)
(0.0368361 1.90049 0)
(-0.186639 -0.0879182 0)
(-0.173552 -0.0677822 0)
(-0.167296 -0.0533803 0)
(-0.157448 -0.0381332 0)
(-0.142214 -0.0221421 0)
(-0.124517 -0.0135293 0)
(-0.115734 0.000228452 0)
(-0.0944586 0.0103374 0)
(-0.0727528 0.017981 0)
(-0.0821377 0.0218353 0)
(-0.0123834 0.0400142 0)
(-0.0837919 0.0175586 0)
(0.0537535 0.0605096 0)
(-0.100329 -0.00637694 0)
(0.120686 0.0859159 0)
(-0.126041 0.359201 0)
(0.371793 1.00847 0)
(-0.143765 1.94715 0)
(0.0697167 1.96721 0)
(-0.171098 -0.0900453 0)
(-0.160984 -0.0748031 0)
(-0.155635 -0.0602501 0)
(-0.144981 -0.0474681 0)
(-0.129442 -0.0358719 0)
(-0.116472 -0.0258106 0)
(-0.105219 -0.012956 0)
(-0.0854669 -0.00629578 0)
(-0.0668165 0.00448021 0)
(-0.0716696 0.0069248 0)
(-0.0109563 0.0276167 0)
(-0.0728995 0.00520531 0)
(0.0419284 0.055357 0)
(-0.0933294 -0.0140881 0)
(0.0767663 0.0906817 0)
(-0.156817 0.309783 0)
(0.179606 1.02178 0)
(-0.258789 1.94391 0)
(0.099569 1.98786 0)
(-0.155244 -0.0970235 0)
(-0.149518 -0.0797924 0)
(-0.143414 -0.0685464 0)
(-0.131443 -0.0606024 0)
(-0.119262 -0.047589 0)
(-0.111502 -0.0358946 0)
(-0.0916684 -0.0283927 0)
(-0.0800667 -0.019885 0)
(-0.0590577 -0.0102442 0)
(-0.0610732 -0.00683705 0)
(-0.00738205 0.015382 0)
(-0.0582228 -0.0031619 0)
(0.0361617 0.0531117 0)
(-0.0783421 -0.00202699 0)
(0.0418464 0.102368 0)
(-0.162526 0.336618 0)
(0.004591 1.02105 0)
(-0.243684 1.86125 0)
(0.120818 1.99394 0)
(-0.142939 -0.0997808 0)
(-0.141442 -0.0849399 0)
(-0.131622 -0.0766249 0)
(-0.121028 -0.0695661 0)
(-0.111273 -0.0565282 0)
(-0.102054 -0.0485951 0)
(-0.08379 -0.0425095 0)
(-0.0727855 -0.0328521 0)
(-0.0520558 -0.025959 0)
(-0.0492017 -0.0206218 0)
(-0.00161668 0.0017934 0)
(-0.0372375 -0.0132518 0)
(0.042344 0.0547178 0)
(-0.0522293 0.00730802 0)
(0.0497126 0.1273 0)
(-0.144162 0.420282 0)
(-0.0963221 0.99332 0)
(-0.164424 1.73577 0)
(0.139939 2.00195 0)
(-0.132685 -0.103833 0)
(-0.1305 -0.091899 0)
(-0.121302 -0.0847984 0)
(-0.11276 -0.0778403 0)
(-0.106112 -0.0657617 0)
(-0.0920701 -0.0598786 0)
(-0.079509 -0.055588 0)
(-0.0649094 -0.047031 0)
(-0.0461847 -0.042169 0)
(-0.0364103 -0.0359618 0)
(0.00393304 -0.014618 0)
(-0.00795485 -0.027296 0)
(0.0563105 0.047784 0)
(-0.0111136 0.0102182 0)
(0.113062 0.157299 0)
(-0.100196 0.491336 0)
(0.0139965 0.977597 0)
(-0.15441 1.74043 0)
(0.17215 2.0071 0)
(-0.122714 -0.106123 0)
(-0.120786 -0.0969376 0)
(-0.114012 -0.0906606 0)
(-0.105771 -0.0844342 0)
(-0.100262 -0.0756342 0)
(-0.085444 -0.0713698 0)
(-0.075562 -0.0676032 0)
(-0.0590505 -0.0623971 0)
(-0.0411228 -0.0593309 0)
(-0.0240422 -0.0542075 0)
(0.00935442 -0.0379825 0)
(0.0214604 -0.0443251 0)
(0.080625 0.02052 0)
(0.0461771 0.00151074 0)
(0.209245 0.163008 0)
(-0.0193694 0.502677 0)
(0.400422 0.993651 0)
(-0.227992 1.79972 0)
(0.246607 1.99711 0)
(-0.114861 -0.109365 0)
(-0.112227 -0.101557 0)
(-0.108016 -0.0958799 0)
(-0.100081 -0.0903101 0)
(-0.0953196 -0.0841898 0)
(-0.0822392 -0.0817198 0)
(-0.0726286 -0.0795256 0)
(-0.0562406 -0.0780088 0)
(-0.038037 -0.0777435 0)
(-0.0162223 -0.0762382 0)
(0.0153681 -0.0689436 0)
(0.0466669 -0.0694958 0)
(0.104906 -0.0272392 0)
(0.113154 -0.03253 0)
(0.305313 0.130804 0)
(0.0923667 0.43405 0)
(0.756263 1.04191 0)
(-0.374365 1.96082 0)
(0.397999 1.9557 0)
(-0.107666 -0.111538 0)
(-0.105314 -0.10482 0)
(-0.102912 -0.100139 0)
(-0.0960927 -0.0955473 0)
(-0.0919212 -0.0916088 0)
(-0.0812202 -0.090957 0)
(-0.0719152 -0.0909626 0)
(-0.0568567 -0.0931643 0)
(-0.0387869 -0.0969699 0)
(-0.0149045 -0.101461 0)
(0.0178806 -0.104091 0)
(0.061587 -0.108555 0)
(0.123889 -0.0926597 0)
(0.180679 -0.0935232 0)
(0.381773 0.0477974 0)
(0.225475 0.322093 0)
(1.01707 1.15566 0)
(-0.499303 2.34527 0)
(0.560426 1.94277 0)
(-0.101829 -0.113122 0)
(-0.0996518 -0.107195 0)
(-0.0987163 -0.103149 0)
(-0.0934852 -0.0996977 0)
(-0.0900965 -0.0976142 0)
(-0.0821137 -0.0985922 0)
(-0.0740078 -0.101123 0)
(-0.0613063 -0.106944 0)
(-0.0448326 -0.115665 0)
(-0.0214769 -0.127566 0)
(0.0112308 -0.141587 0)
(0.0605698 -0.15949 0)
(0.131054 -0.172437 0)
(0.234298 -0.189724 0)
(0.428235 -0.108162 0)
(0.432779 0.160601 0)
(1.26379 1.17335 0)
(-0.147086 2.6609 0)
(0.734377 2.04373 0)
(-0.0965575 -0.11384 0)
(-0.095086 -0.108529 0)
(-0.0953031 -0.10506 0)
(-0.09197 -0.102552 0)
(-0.0898713 -0.101834 0)
(-0.0847233 -0.104214 0)
(-0.078929 -0.109042 0)
(-0.0696842 -0.118099 0)
(-0.0567877 -0.131773 0)
(-0.0372348 -0.151417 0)
(-0.00885209 -0.178186 0)
(0.0376112 -0.213587 0)
(0.10935 -0.260123 0)
(0.236963 -0.320332 0)
(0.429041 -0.331288 0)
(0.640991 -0.0893223 0)
(1.26708 0.971399 0)
(0.791882 3.24485 0)
(0.954043 2.36267 0)
(-0.0917926 -0.113697 0)
(-0.0912274 -0.108814 0)
(-0.09252 -0.105698 0)
(-0.0911922 -0.10387 0)
(-0.0908425 -0.104012 0)
(-0.0887254 -0.107286 0)
(-0.0861653 -0.113743 0)
(-0.0815464 -0.125172 0)
(-0.0743659 -0.142772 0)
(-0.0623968 -0.169032 0)
(-0.0429491 -0.207352 0)
(-0.00960864 -0.261294 0)
(0.0453622 -0.340803 0)
(0.157587 -0.454669 0)
(0.32709 -0.570469 0)
(0.625604 -0.409858 0)
(1.02257 0.633775 0)
(1.19796 3.67516 0)
(1.29574 3.13675 0)
(-0.0872695 -0.112672 0)
(-0.0877809 -0.108022 0)
(-0.0901418 -0.105001 0)
(-0.0908127 -0.10343 0)
(-0.0924608 -0.103905 0)
(-0.0934974 -0.107429 0)
(-0.0948033 -0.114533 0)
(-0.0956334 -0.126928 0)
(-0.0959144 -0.146411 0)
(-0.0946645 -0.176195 0)
(-0.090335 -0.22111 0)
(-0.07919 -0.288596 0)
(-0.0567601 -0.392343 0)
(-0.00245846 -0.551197 0)
(0.0837362 -0.74542 0)
(0.296254 -0.709634 0)
(0.5223 0.230645 0)
(1.04992 3.73791 0)
(1.74205 4.23335 0)
(-0.0828182 -0.110842 0)
(-0.0844337 -0.106208 0)
(-0.0878018 -0.103007 0)
(-0.0903969 -0.101269 0)
(-0.0941323 -0.101479 0)
(-0.098257 -0.104545 0)
(-0.103561 -0.11113 0)
(-0.110092 -0.122809 0)
(-0.118434 -0.141516 0)
(-0.129057 -0.170479 0)
(-0.142766 -0.21478 0)
(-0.160645 -0.282827 0)
(-0.184389 -0.389836 0)
(-0.210015 -0.556692 0)
(-0.256058 -0.781373 0)
(-0.338701 -0.825247 0)
(-0.330386 0.0284315 0)
(-0.11401 3.55684 0)
(1.71815 4.94023 0)
(-0.0782645 -0.108247 0)
(-0.0809222 -0.103421 0)
(-0.0852263 -0.0997677 0)
(-0.0895182 -0.0974799 0)
(-0.0952074 -0.0968496 0)
(-0.102122 -0.0986883 0)
(-0.111124 -0.103615 0)
(-0.122858 -0.112917 0)
(-0.138608 -0.128268 0)
(-0.160173 -0.15227 0)
(-0.190418 -0.188917 0)
(-0.234261 -0.244675 0)
(-0.300107 -0.330416 0)
(-0.398413 -0.462053 0)
(-0.568383 -0.643842 0)
(-0.898133 -0.712946 0)
(-1.21456 0.00471421 0)
(-1.33701 2.87336 0)
(1.10273 4.82676 0)
(-0.0734368 -0.105035 0)
(-0.0769874 -0.0998126 0)
(-0.0821028 -0.0954651 0)
(-0.0877737 -0.0922372 0)
(-0.0950731 -0.090293 0)
(-0.104267 -0.0902351 0)
(-0.116264 -0.0925373 0)
(-0.132164 -0.0981133 0)
(-0.153674 -0.108112 0)
(-0.183311 -0.124062 0)
(-0.225212 -0.148196 0)
(-0.286286 -0.183679 0)
(-0.377656 -0.234648 0)
(-0.5173 -0.306626 0)
(-0.749499 -0.399619 0)
(-1.17438 -0.411606 0)
(-1.65785 0.141878 0)
(-1.56714 2.30695 0)
(-0.114993 4.39256 0)
(-0.0682085 -0.101341 0)
(-0.0724485 -0.0955453 0)
(-0.0781478 -0.090327 0)
(-0.0848151 -0.0858624 0)
(-0.0932835 -0.0822555 0)
(-0.10405 -0.0798421 0)
(-0.118111 -0.0788988 0)
(-0.13676 -0.0798751 0)
(-0.161801 -0.0832033 0)
(-0.195983 -0.089488 0)
(-0.243562 -0.0992082 0)
(-0.310985 -0.1123 0)
(-0.40874 -0.127149 0)
(-0.553019 -0.139476 0)
(-0.773285 -0.136763 0)
(-1.13916 -0.0573815 0)
(-1.60247 0.358932 0)
(-1.47684 1.72072 0)
(-0.808863 2.99074 0)
(-0.0624557 -0.0973196 0)
(-0.0671529 -0.0908286 0)
(-0.0731903 -0.0846227 0)
(-0.0804274 -0.0787819 0)
(-0.0895377 -0.0733004 0)
(-0.101134 -0.0683081 0)
(-0.116166 -0.0638225 0)
(-0.135882 -0.059832 0)
(-0.162111 -0.0562085 0)
(-0.197398 -0.0526689 0)
(-0.245227 -0.0482705 0)
(-0.310492 -0.0409282 0)
(-0.400313 -0.0263013 0)
(-0.524197 0.00514483 0)
(-0.695547 0.0717603 0)
(-0.933899 0.218254 0)
(-1.2076 0.587109 0)
(-1.06726 1.42461 0)
(-0.66631 1.95383 0)
(-0.0561211 -0.0931374 0)
(-0.0610387 -0.0858875 0)
(-0.0671502 -0.0786103 0)
(-0.0745274 -0.0713554 0)
(-0.0837529 -0.0639519 0)
(-0.095424 -0.0563397 0)
(-0.110391 -0.048262 0)
(-0.129813 -0.0394096 0)
(-0.155242 -0.0292712 0)
(-0.188669 -0.0168612 0)
(-0.232689 -0.000445919 0)
(-0.290614 0.0230221 0)
(-0.365992 0.0587926 0)
(-0.462111 0.116445 0)
(-0.579628 0.212233 0)
(-0.712208 0.376525 0)
(-0.828539 0.673446 0)
(-0.665182 1.20206 0)
(-0.353961 1.41969 0)
(-0.0491754 -0.0889948 0)
(-0.0540412 -0.0810131 0)
(-0.0599625 -0.0727389 0)
(-0.0670802 -0.0641258 0)
(-0.0758243 -0.0549275 0)
(-0.0867469 -0.0448662 0)
(-0.100577 -0.0335243 0)
(-0.118333 -0.0203448 0)
(-0.141234 -0.0045149 0)
(-0.170711 0.0152749 0)
(-0.208373 0.0410229 0)
(-0.255897 0.0759092 0)
(-0.314397 0.124967 0)
(-0.38323 0.19571 0)
(-0.457338 0.299443 0)
(-0.522786 0.451564 0)
(-0.554501 0.673418 0)
(-0.411186 0.991935 0)
(-0.182078 1.10084 0)
(-0.0416812 -0.0848341 0)
(-0.0463699 -0.0761365 0)
(-0.0519274 -0.0669598 0)
(-0.0585671 -0.0571295 0)
(-0.0666062 -0.0463336 0)
(-0.0764659 -0.0341331 0)
(-0.0887339 -0.0200725 0)
(-0.10419 -0.00331266 0)
(-0.123692 0.0171005 0)
(-0.148145 0.0426342 0)
(-0.17844 0.0752676 0)
(-0.215123 0.117756 0)
(-0.257787 0.173975 0)
(-0.304013 0.249008 0)
(-0.347468 0.34901 0)
(-0.375062 0.479624 0)
(-0.369495 0.642459 0)
(-0.261816 0.835962 0)
(-0.104288 0.900257 0)
(-0.0335105 -0.0813673 0)
(-0.0375755 -0.0720669 0)
(-0.0422004 -0.0621257 0)
(-0.04757 -0.0513005 0)
(-0.053929 -0.0391955 0)
(-0.061715 -0.0253607 0)
(-0.0713097 -0.00912801 0)
(-0.0832682 0.0102936 0)
(-0.0982252 0.0341052 0)
(-0.116662 0.0636665 0)
(-0.138995 0.100738 0)
(-0.165156 0.14752 0)
(-0.194135 0.206649 0)
(-0.223244 0.280949 0)
(-0.247013 0.372779 0)
(-0.25588 0.482291 0)
(-0.239093 0.603943 0)
(-0.165599 0.72803 0)
(-0.0625301 0.770418 0)
(-0.02508 -0.0773002 0)
(-0.0297762 -0.0678883 0)
(-0.0347279 -0.0578159 0)
(-0.0397634 -0.0465827 0)
(-0.0452234 -0.0337455 0)
(-0.0513471 -0.0187454 0)
(-0.058453 -0.000850822 0)
(-0.0669222 0.0206765 0)
(-0.0771721 0.0470128 0)
(-0.0896324 0.0794406 0)
(-0.104452 0.119483 0)
(-0.121387 0.168807 0)
(-0.139451 0.229038 0)
(-0.156433 0.301356 0)
(-0.168335 0.385759 0)
(-0.168931 0.479673 0)
(-0.151938 0.575551 0)
(-0.10373 0.662649 0)
(-0.037877 0.692506 0)
(-0.0138461 -0.0739262 0)
(-0.0158713 -0.0636612 0)
(-0.0184236 -0.0529835 0)
(-0.0213985 -0.0413914 0)
(-0.0245467 -0.0282429 0)
(-0.0278759 -0.0128493 0)
(-0.0315215 0.00559464 0)
(-0.0355305 0.0282014 0)
(-0.0399766 0.0558519 0)
(-0.0450094 0.0897998 0)
(-0.0506977 0.131349 0)
(-0.056932 0.181702 0)
(-0.0632872 0.241681 0)
(-0.0688358 0.311262 0)
(-0.0719614 0.388915 0)
(-0.070292 0.47071 0)
(-0.0613848 0.549462 0)
(-0.0418161 0.614605 0)
(-0.0146572 0.636884 0)
)
;

boundaryField
{
    leftWall
    {
        type            calculated;
        value           nonuniform 0();
    }
    rightWall
    {
        type            calculated;
        value           uniform (0 0 0);
    }
    lowerWall
    {
        type            calculated;
        value           nonuniform 0();
    }
    atmosphere
    {
        type            calculated;
        value           nonuniform List<vector> 
23
(
(-0.0126391 -0.0955706 0)
(-0.0124508 -0.0906747 0)
(-0.0125613 -0.0859823 0)
(-0.0128558 -0.0814363 0)
(-0.0138461 -0.073926 0)
(-0.0158713 -0.063659 0)
(-0.0184236 -0.0529796 0)
(-0.0213985 -0.0413855 0)
(-0.0245467 -0.0282336 0)
(-0.0278759 -0.0128303 0)
(-0.0315215 0.00562567 0)
(-0.0355305 0.0282481 0)
(-0.0399766 0.0559217 0)
(-0.0450094 0.0899023 0)
(-0.0506977 0.131494 0)
(-0.056932 0.181901 0)
(-0.0632872 0.241934 0)
(-0.0688358 0.31156 0)
(-0.0719614 0.389222 0)
(-0.070292 0.470961 0)
(-0.0613848 0.549578 0)
(-0.0418161 0.614517 0)
(-0.0146572 0.636689 0)
)
;
    }
    defaultFaces
    {
        type            empty;
    }
    procBoundary3to1
    {
        type            processor;
        value           nonuniform List<vector> 
23
(
(-0.247271 -0.126864 0)
(-0.248587 -0.108578 0)
(-0.244395 -0.0968341 0)
(-0.241506 -0.086153 0)
(-0.249234 -0.061346 0)
(-0.246502 -0.0308114 0)
(-0.233632 -0.001725 0)
(-0.205306 0.00612774 0)
(-0.182929 0.0242287 0)
(-0.159864 0.0359715 0)
(-0.139494 0.0446927 0)
(-0.129079 0.0574372 0)
(-0.0913301 0.0678536 0)
(-0.111241 0.0730737 0)
(-0.0223092 0.0860573 0)
(-0.0998323 0.0831182 0)
(0.058726 0.0833184 0)
(-0.09591 0.0952329 0)
(0.162252 0.119284 0)
(-0.0992147 0.744211 0)
(0.478733 1.32656 0)
(0.0347326 1.3888 0)
(-0.00335852 1.66889 0)
)
;
    }
    procBoundary3to2
    {
        type            processor;
        value           nonuniform List<vector> 
25
(
(-0.221217 -0.147298 0)
(-0.225565 -0.121607 0)
(-0.19709 -0.142932 0)
(-0.188541 -0.126066 0)
(-0.165248 -0.139037 0)
(-0.150014 -0.135492 0)
(-0.136649 -0.137476 0)
(-0.126814 -0.135697 0)
(-0.11828 -0.135543 0)
(-0.109418 -0.134123 0)
(-0.101932 -0.133074 0)
(-0.0947397 -0.131703 0)
(-0.088172 -0.130149 0)
(-0.0819458 -0.128295 0)
(-0.0759837 -0.126144 0)
(-0.0701291 -0.123715 0)
(-0.0642782 -0.121058 0)
(-0.0583215 -0.118234 0)
(-0.0521792 -0.115319 0)
(-0.0457762 -0.112397 0)
(-0.0390658 -0.109565 0)
(-0.0320038 -0.106662 0)
(-0.0244031 -0.104435 0)
(-0.0164315 -0.10103 0)
(-0.0131244 -0.103096 0)
)
;
    }
}


// ************************************************************************* //
