/*--------------------------------*- C++ -*----------------------------------*\
| =========                 |                                                 |
| \\      /  F ield         | OpenFOAM: The Open Source CFD Toolbox           |
|  \\    /   O peration     | Version:  2.4.0                                 |
|   \\  /    A nd           | Web:      www.OpenFOAM.org                      |
|    \\/     M anipulation  |                                                 |
\*---------------------------------------------------------------------------*/
FoamFile
{
    version     2.0;
    format      ascii;
    class       volVectorField;
    location    "0.35";
    object      U.mercury;
}
// * * * * * * * * * * * * * * * * * * * * * * * * * * * * * * * * * * * * * //

dimensions      [0 1 -1 0 0 0 0];

internalField   nonuniform List<vector> 
575
(
(-0.220785 -0.119174 0)
(-0.219364 -0.114092 0)
(-0.216526 -0.102943 0)
(-0.213006 -0.0964066 0)
(-0.225819 -0.10582 0)
(-0.222828 -0.100805 0)
(-0.220561 -0.0912326 0)
(-0.217777 -0.0777572 0)
(-0.195073 -0.129446 0)
(-0.195101 -0.122525 0)
(-0.193351 -0.110208 0)
(-0.191153 -0.102104 0)
(-0.183885 -0.120178 0)
(-0.182825 -0.1126 0)
(-0.179854 -0.105196 0)
(-0.173736 -0.100238 0)
(-0.162842 -0.133612 0)
(-0.164013 -0.12397 0)
(-0.16005 -0.117261 0)
(-0.157554 -0.111566 0)
(-0.148499 -0.132973 0)
(-0.14913 -0.125591 0)
(-0.148936 -0.118471 0)
(-0.146173 -0.113393 0)
(-0.135795 -0.133355 0)
(-0.137361 -0.125682 0)
(-0.137996 -0.117784 0)
(-0.136735 -0.112177 0)
(-0.127006 -0.131508 0)
(-0.127121 -0.127018 0)
(-0.128181 -0.12033 0)
(-0.126576 -0.115967 0)
(-0.117461 -0.130411 0)
(-0.118119 -0.126069 0)
(-0.118419 -0.121659 0)
(-0.118599 -0.116225 0)
(-0.109743 -0.129312 0)
(-0.109641 -0.126164 0)
(-0.110162 -0.122004 0)
(-0.110662 -0.118182 0)
(-0.102093 -0.128236 0)
(-0.102318 -0.12534 0)
(-0.102534 -0.122167 0)
(-0.103534 -0.118671 0)
(-0.0953238 -0.127013 0)
(-0.0956327 -0.124406 0)
(-0.0958445 -0.121629 0)
(-0.0970942 -0.118768 0)
(-0.0890103 -0.125588 0)
(-0.0895801 -0.123036 0)
(-0.0898656 -0.120558 0)
(-0.0912581 -0.118055 0)
(-0.0830893 -0.123881 0)
(-0.0838977 -0.121348 0)
(-0.0843502 -0.118971 0)
(-0.0858239 -0.116682 0)
(-0.0774108 -0.121827 0)
(-0.0784556 -0.119274 0)
(-0.0791306 -0.116899 0)
(-0.0806474 -0.11468 0)
(-0.071809 -0.11943 0)
(-0.0730586 -0.116826 0)
(-0.0739855 -0.114373 0)
(-0.0755427 -0.112104 0)
(-0.0661669 -0.116735 0)
(-0.0675711 -0.11405 0)
(-0.0687346 -0.111469 0)
(-0.070325 -0.109064 0)
(-0.0603581 -0.1138 0)
(-0.0618621 -0.111006 0)
(-0.0632276 -0.108264 0)
(-0.0648598 -0.105663 0)
(-0.0543076 -0.110711 0)
(-0.0558535 -0.107779 0)
(-0.057351 -0.104855 0)
(-0.0590109 -0.102027 0)
(-0.0479249 -0.107564 0)
(-0.0494665 -0.104465 0)
(-0.0510387 -0.101345 0)
(-0.0527067 -0.0982745 0)
(-0.0411715 -0.10447 0)
(-0.0426701 -0.101194 0)
(-0.0442461 -0.0978748 0)
(-0.0458889 -0.0945637 0)
(-0.0340029 -0.101303 0)
(-0.0354423 -0.0978408 0)
(-0.0369707 -0.0943375 0)
(-0.0385692 -0.0908072 0)
(-0.0264508 -0.0988104 0)
(-0.0278225 -0.095204 0)
(-0.0292714 -0.0914956 0)
(-0.0307477 -0.0877469 0)
(-0.0176151 -0.0951592 0)
(-0.0188922 -0.0913405 0)
(-0.0203132 -0.0875478 0)
(-0.0219418 -0.0837383 0)
(-0.0126399 -0.0955561 0)
(-0.0124513 -0.0906608 0)
(-0.0125617 -0.0859695 0)
(-0.0128562 -0.0814245 0)
(-0.217154 -0.0790489 0)
(-0.212816 -0.0548528 0)
(-0.198016 -0.0311376 0)
(-0.179564 -0.0138551 0)
(-0.168635 0.00639243 0)
(-0.14945 0.0179542 0)
(-0.12909 0.0285035 0)
(-0.11868 0.0419157 0)
(-0.0835714 0.0501755 0)
(-0.101995 0.0544949 0)
(-0.0167787 0.069292 0)
(-0.0963922 0.0578276 0)
(0.0623837 0.0747123 0)
(-0.0998619 0.0553422 0)
(0.169253 0.10808 0)
(-0.0988074 0.606724 0)
(0.546137 1.20208 0)
(0.153852 1.50726 0)
(0.0151386 1.77644 0)
(-0.209948 -0.0660006 0)
(-0.201675 -0.0529353 0)
(-0.181343 -0.042222 0)
(-0.170993 -0.0241134 0)
(-0.154461 -0.00538644 0)
(-0.137503 0.000739622 0)
(-0.121047 0.0128214 0)
(-0.107323 0.0271497 0)
(-0.0773669 0.0330263 0)
(-0.0925679 0.0376222 0)
(-0.0136609 0.0538178 0)
(-0.0912623 0.0355979 0)
(0.060884 0.0670147 0)
(-0.100084 0.0199683 0)
(0.1559 0.0913952 0)
(-0.100843 0.470345 0)
(0.519837 1.06909 0)
(0.136039 1.70511 0)
(0.0428406 1.89229 0)
(-0.186638 -0.0879173 0)
(-0.17355 -0.0677817 0)
(-0.167293 -0.0533804 0)
(-0.157445 -0.0381342 0)
(-0.142211 -0.0221441 0)
(-0.124513 -0.0135324 0)
(-0.115729 0.000224796 0)
(-0.0944528 0.0103335 0)
(-0.0727465 0.0179777 0)
(-0.0821313 0.021833 0)
(-0.0123778 0.0400136 0)
(-0.0837875 0.0175602 0)
(0.0537551 0.0605139 0)
(-0.100329 -0.00636996 0)
(0.120682 0.0859252 0)
(-0.126051 0.359196 0)
(0.36599 1.00859 0)
(-0.0148477 1.95997 0)
(0.075981 1.96359 0)
(-0.171097 -0.0900442 0)
(-0.160982 -0.0748022 0)
(-0.155633 -0.0602497 0)
(-0.144978 -0.0474683 0)
(-0.12944 -0.0358728 0)
(-0.116468 -0.0258122 0)
(-0.105214 -0.0129578 0)
(-0.0854607 -0.00629734 0)
(-0.0668092 0.0044798 0)
(-0.0716614 0.00692634 0)
(-0.0109482 0.0276212 0)
(-0.0728922 0.00521374 0)
(0.0419336 0.0553702 0)
(-0.0933264 -0.0140694 0)
(0.0767664 0.0907053 0)
(-0.156814 0.309842 0)
(0.169088 1.02383 0)
(-0.118175 2.1483 0)
(0.1039 1.98861 0)
(-0.155243 -0.0970223 0)
(-0.149516 -0.0797914 0)
(-0.143412 -0.0685459 0)
(-0.131441 -0.0606025 0)
(-0.119259 -0.0475896 0)
(-0.111498 -0.0358956 0)
(-0.0916634 -0.0283936 0)
(-0.0800597 -0.0198852 0)
(-0.0590486 -0.0102427 0)
(-0.0610623 -0.00683289 0)
(-0.00737023 0.0153901 0)
(-0.0582106 -0.00314858 0)
(0.0361727 0.0531316 0)
(-0.0783324 -0.00199953 0)
(0.0418528 0.102403 0)
(-0.162458 0.337012 0)
(0.00399848 1.05846 0)
(-0.060894 2.16132 0)
(0.122535 1.99556 0)
(-0.142938 -0.0997798 0)
(-0.14144 -0.0849392 0)
(-0.13162 -0.0766247 0)
(-0.121027 -0.0695665 0)
(-0.111271 -0.056529 0)
(-0.10205 -0.0485961 0)
(-0.0837845 -0.0425103 0)
(-0.0727773 -0.0328521 0)
(-0.0520446 -0.025957 0)
(-0.0491875 -0.0206167 0)
(-0.00160037 0.00180269 0)
(-0.0372195 -0.0132367 0)
(0.042362 0.0547399 0)
(-0.052212 0.00733829 0)
(0.0497276 0.127339 0)
(-0.144122 0.420534 0)
(-0.0627791 1.13953 0)
(-0.0437414 1.78726 0)
(0.140589 2.00305 0)
(-0.132684 -0.103833 0)
(-0.130499 -0.0918988 0)
(-0.121301 -0.0847987 0)
(-0.112759 -0.0778413 0)
(-0.10611 -0.0657633 0)
(-0.0920668 -0.0598805 0)
(-0.079503 -0.0555897 0)
(-0.0648998 -0.0470319 0)
(-0.0461712 -0.0421681 0)
(-0.0363927 -0.0359582 0)
(0.00395387 -0.0146104 0)
(-0.0079311 -0.0272832 0)
(0.0563352 0.0478033 0)
(-0.0110885 0.0102448 0)
(0.113087 0.157335 0)
(-0.100175 0.491388 0)
(0.0192104 1.16632 0)
(-0.0422208 1.75051 0)
(0.173351 2.00808 0)
(-0.122714 -0.106123 0)
(-0.120786 -0.096938 0)
(-0.114012 -0.0906619 0)
(-0.10577 -0.0844362 0)
(-0.10026 -0.075637 0)
(-0.0854408 -0.0713731 0)
(-0.0755556 -0.0676066 0)
(-0.0590399 -0.0624 0)
(-0.0411076 -0.0593328 0)
(-0.024022 -0.0542075 0)
(0.00937894 -0.0379798 0)
(0.021489 -0.0443182 0)
(0.0806558 0.0205321 0)
(0.0462097 0.0015299 0)
(0.20928 0.163036 0)
(-0.0193289 0.502715 0)
(0.360154 1.10209 0)
(-0.0430581 1.78817 0)
(0.248816 1.9974 0)
(-0.114861 -0.109366 0)
(-0.112227 -0.101558 0)
(-0.108016 -0.0958822 0)
(-0.100082 -0.0903135 0)
(-0.0953189 -0.0841942 0)
(-0.0822364 -0.0817251 0)
(-0.0726223 -0.0795316 0)
(-0.0562296 -0.078015 0)
(-0.0380208 -0.0777499 0)
(-0.0162006 -0.0762442 0)
(0.0153951 -0.0689487 0)
(0.0466991 -0.0694985 0)
(0.104942 -0.0272383 0)
(0.113193 -0.0325227 0)
(0.305354 0.130817 0)
(0.0924248 0.434065 0)
(0.752817 1.04687 0)
(-0.0603481 1.93448 0)
(0.400731 1.95482 0)
(-0.107668 -0.111539 0)
(-0.105315 -0.104823 0)
(-0.102913 -0.100142 0)
(-0.0960941 -0.0955521 0)
(-0.0919217 -0.0916149 0)
(-0.0812184 -0.0909646 0)
(-0.0719097 -0.0909715 0)
(-0.0568466 -0.0931749 0)
(-0.0387714 -0.0969822 0)
(-0.0148832 -0.101475 0)
(0.0179081 -0.104106 0)
(0.0616209 -0.10857 0)
(0.123928 -0.0926738 0)
(0.180722 -0.0935331 0)
(0.381817 0.0477926 0)
(0.225514 0.322087 0)
(1.01703 1.15564 0)
(-0.130786 2.30993 0)
(0.564388 1.93945 0)
(-0.101831 -0.113124 0)
(-0.0996544 -0.107198 0)
(-0.0987192 -0.103154 0)
(-0.093488 -0.0997037 0)
(-0.0900984 -0.0976221 0)
(-0.0821135 -0.098602 0)
(-0.0740043 -0.101136 0)
(-0.0612984 -0.106959 0)
(-0.0448196 -0.115684 0)
(-0.021458 -0.127589 0)
(0.0112564 -0.141615 0)
(0.0606029 -0.159521 0)
(0.131094 -0.172471 0)
(0.234345 -0.189758 0)
(0.42828 -0.108194 0)
(0.432811 0.160565 0)
(1.26379 1.17333 0)
(-0.0824203 2.73641 0)
(0.743301 2.03509 0)
(-0.0965609 -0.113842 0)
(-0.0950899 -0.108533 0)
(-0.0953075 -0.105065 0)
(-0.0919746 -0.102559 0)
(-0.0898753 -0.101843 0)
(-0.0847256 -0.104225 0)
(-0.0789285 -0.109057 0)
(-0.0696801 -0.118119 0)
(-0.0567791 -0.131798 0)
(-0.0372209 -0.151448 0)
(-0.00883189 -0.178225 0)
(0.0376387 -0.213636 0)
(0.109386 -0.260181 0)
(0.237007 -0.3204 0)
(0.429087 -0.331364 0)
(0.641027 -0.0893951 0)
(1.26706 0.971365 0)
(0.676244 3.26545 0)
(0.959367 2.33959 0)
(-0.0917972 -0.1137 0)
(-0.0912327 -0.108818 0)
(-0.0925261 -0.105703 0)
(-0.0911988 -0.103878 0)
(-0.0908489 -0.104022 0)
(-0.088731 -0.107299 0)
(-0.086169 -0.11376 0)
(-0.0815474 -0.125195 0)
(-0.0743636 -0.142802 0)
(-0.0623907 -0.16907 0)
(-0.0429388 -0.207401 0)
(-0.0095932 -0.261357 0)
(0.0453839 -0.340885 0)
(0.157618 -0.454772 0)
(0.327136 -0.570591 0)
(0.625657 -0.410001 0)
(1.02257 0.633612 0)
(1.1889 3.67666 0)
(1.31618 3.12228 0)
(-0.0872753 -0.112674 0)
(-0.0877877 -0.108025 0)
(-0.0901497 -0.105006 0)
(-0.0908214 -0.103437 0)
(-0.09247 -0.103914 0)
(-0.0935066 -0.107442 0)
(-0.0948117 -0.114551 0)
(-0.0956402 -0.126952 0)
(-0.0959195 -0.146442 0)
(-0.0946681 -0.176235 0)
(-0.0903379 -0.221162 0)
(-0.0791928 -0.288667 0)
(-0.0567617 -0.392438 0)
(-0.00245238 -0.551321 0)
(0.0837602 -0.745575 0)
(0.296282 -0.709834 0)
(0.522328 0.230378 0)
(1.05033 3.7375 0)
(1.79312 4.34673 0)
(-0.082825 -0.110843 0)
(-0.0844417 -0.106211 0)
(-0.0878113 -0.103012 0)
(-0.0904078 -0.101275 0)
(-0.0941444 -0.101487 0)
(-0.0982699 -0.104557 0)
(-0.103574 -0.111146 0)
(-0.110104 -0.12283 0)
(-0.118446 -0.141543 0)
(-0.129071 -0.170515 0)
(-0.142783 -0.214828 0)
(-0.160668 -0.282893 0)
(-0.184417 -0.389925 0)
(-0.210045 -0.556811 0)
(-0.256078 -0.781538 0)
(-0.338718 -0.825457 0)
(-0.330361 0.0283044 0)
(-0.113462 3.55655 0)
(2.20563 5.72787 0)
(-0.078272 -0.108248 0)
(-0.0809312 -0.103423 0)
(-0.0852371 -0.0997706 0)
(-0.0895309 -0.0974842 0)
(-0.0952219 -0.0968559 0)
(-0.102138 -0.0986971 0)
(-0.111141 -0.103627 0)
(-0.122876 -0.112933 0)
(-0.138626 -0.128289 0)
(-0.160195 -0.152297 0)
(-0.190448 -0.188954 0)
(-0.234301 -0.244725 0)
(-0.300158 -0.330482 0)
(-0.398471 -0.46214 0)
(-0.568449 -0.643963 0)
(-0.898222 -0.713103 0)
(-1.21468 0.00478018 0)
(-0.885414 3.54912 0)
(1.98917 6.41019 0)
(-0.0734448 -0.105035 0)
(-0.0769971 -0.099813 0)
(-0.0821145 -0.0954661 0)
(-0.0877877 -0.092239 0)
(-0.0950894 -0.0902961 0)
(-0.104286 -0.0902398 0)
(-0.116284 -0.0925439 0)
(-0.132185 -0.0981222 0)
(-0.153697 -0.108123 0)
(-0.183339 -0.124077 0)
(-0.225249 -0.148217 0)
(-0.286336 -0.183706 0)
(-0.377719 -0.234681 0)
(-0.517376 -0.306665 0)
(-0.749595 -0.399673 0)
(-1.1743 -0.411003 0)
(-1.60538 0.244222 0)
(-0.940915 3.34205 0)
(0.264508 4.99971 0)
(-0.0682167 -0.101339 0)
(-0.0724585 -0.095544 0)
(-0.0781599 -0.0903258 0)
(-0.0848297 -0.0858614 0)
(-0.0933006 -0.0822548 0)
(-0.104069 -0.0798418 0)
(-0.118132 -0.0788988 0)
(-0.136782 -0.0798757 0)
(-0.161826 -0.0832045 0)
(-0.196014 -0.0894903 0)
(-0.243602 -0.0992111 0)
(-0.311037 -0.112303 0)
(-0.408804 -0.127148 0)
(-0.553095 -0.139469 0)
(-0.773378 -0.136749 0)
(-1.13908 -0.056573 0)
(-1.55471 0.450501 0)
(-1.27253 2.10189 0)
(-0.796522 3.01466 0)
(-0.0624637 -0.0973169 0)
(-0.0671626 -0.0908255 0)
(-0.0732022 -0.0846191 0)
(-0.0804417 -0.0787778 0)
(-0.0895546 -0.0732956 0)
(-0.101153 -0.0683025 0)
(-0.116187 -0.0638159 0)
(-0.135903 -0.0598242 0)
(-0.162136 -0.0561995 0)
(-0.197428 -0.0526583 0)
(-0.245265 -0.0482572 0)
(-0.31054 -0.0409099 0)
(-0.400369 -0.0262745 0)
(-0.524261 0.00518446 0)
(-0.695619 0.071819 0)
(-0.93398 0.218342 0)
(-1.20732 0.588409 0)
(-1.06351 1.43333 0)
(-0.666499 1.95412 0)
(-0.0561285 -0.0931333 0)
(-0.0610478 -0.0858826 0)
(-0.0671613 -0.0786044 0)
(-0.0745408 -0.0713483 0)
(-0.0837687 -0.0639431 0)
(-0.0954416 -0.056329 0)
(-0.11041 -0.0482491 0)
(-0.129833 -0.0393942 0)
(-0.155265 -0.029253 0)
(-0.188696 -0.0168394 0)
(-0.232722 -0.000419276 0)
(-0.290655 0.0230564 0)
(-0.366038 0.0588375 0)
(-0.462161 0.116505 0)
(-0.57968 0.212312 0)
(-0.712258 0.376629 0)
(-0.828579 0.67358 0)
(-0.665214 1.20221 0)
(-0.354007 1.41984 0)
(-0.0491819 -0.0889895 0)
(-0.0540492 -0.0810066 0)
(-0.0599722 -0.0727309 0)
(-0.067092 -0.0641158 0)
(-0.075838 -0.0549152 0)
(-0.0867621 -0.0448511 0)
(-0.100594 -0.0335059 0)
(-0.11835 -0.0203229 0)
(-0.141252 -0.00448889 0)
(-0.170733 0.0153056 0)
(-0.2084 0.04106 0)
(-0.255928 0.0759548 0)
(-0.314432 0.125023 0)
(-0.383266 0.19578 0)
(-0.457374 0.299529 0)
(-0.522819 0.451667 0)
(-0.55453 0.673536 0)
(-0.411202 0.992057 0)
(-0.182076 1.10098 0)
(-0.0416866 -0.0848276 0)
(-0.0463765 -0.0761284 0)
(-0.0519354 -0.0669498 0)
(-0.0585766 -0.0571171 0)
(-0.0666172 -0.0463183 0)
(-0.0764779 -0.0341142 0)
(-0.0887465 -0.0200497 0)
(-0.104204 -0.00328554 0)
(-0.123707 0.0171322 0)
(-0.148162 0.0426715 0)
(-0.17846 0.0753117 0)
(-0.215146 0.117808 0)
(-0.257811 0.174038 0)
(-0.304038 0.249082 0)
(-0.347493 0.349096 0)
(-0.375086 0.479723 0)
(-0.369517 0.642566 0)
(-0.26183 0.836076 0)
(-0.10429 0.900376 0)
(-0.0335145 -0.0813595 0)
(-0.0375803 -0.0720573 0)
(-0.0422062 -0.0621139 0)
(-0.0475769 -0.051286 0)
(-0.0539369 -0.0391776 0)
(-0.0617235 -0.0253391 0)
(-0.0713184 -0.00910219 0)
(-0.0832771 0.0103238 0)
(-0.0982349 0.03414 0)
(-0.116673 0.0637067 0)
(-0.139008 0.100785 0)
(-0.16517 0.147575 0)
(-0.19415 0.206713 0)
(-0.223259 0.281021 0)
(-0.247029 0.372861 0)
(-0.255896 0.482381 0)
(-0.239107 0.604042 0)
(-0.165609 0.728135 0)
(-0.062534 0.770526 0)
(-0.0250822 -0.077291 0)
(-0.029779 -0.0678772 0)
(-0.0347314 -0.0578025 0)
(-0.0397675 -0.0465665 0)
(-0.045228 -0.0337259 0)
(-0.051352 -0.0187221 0)
(-0.0584579 -0.000823613 0)
(-0.0669272 0.0207076 0)
(-0.0771775 0.0470481 0)
(-0.0896386 0.0794806 0)
(-0.104459 0.119529 0)
(-0.121395 0.168859 0)
(-0.139459 0.229097 0)
(-0.156441 0.301422 0)
(-0.168344 0.385832 0)
(-0.16894 0.479754 0)
(-0.151946 0.57564 0)
(-0.103738 0.662742 0)
(-0.0378801 0.692604 0)
(-0.0138467 -0.073916 0)
(-0.0158722 -0.0636493 0)
(-0.0184247 -0.0529692 0)
(-0.0213998 -0.0413743 0)
(-0.0245482 -0.0282226 0)
(-0.0278774 -0.0128255 0)
(-0.0315231 0.00562205 0)
(-0.0355321 0.0282324 0)
(-0.0399783 0.0558866 0)
(-0.0450114 0.0898387 0)
(-0.0506999 0.131392 0)
(-0.0569345 0.181752 0)
(-0.0632897 0.241736 0)
(-0.0688383 0.311324 0)
(-0.071964 0.388983 0)
(-0.0702948 0.470784 0)
(-0.0613876 0.549543 0)
(-0.0418185 0.614693 0)
(-0.0146582 0.636978 0)
)
;

boundaryField
{
    leftWall
    {
        type            fixedValue;
        value           nonuniform 0();
    }
    rightWall
    {
        type            fixedValue;
        value           uniform (0 0 0);
    }
    lowerWall
    {
        type            fixedValue;
        value           nonuniform 0();
    }
    atmosphere
    {
        type            fluxCorrectedVelocity;
        value           nonuniform List<vector> 
23
(
(-0.0126399 -0.0955706 0)
(-0.0124513 -0.0906747 0)
(-0.0125617 -0.0859823 0)
(-0.0128562 -0.0814363 0)
(-0.0138467 -0.073926 0)
(-0.0158722 -0.063659 0)
(-0.0184247 -0.0529796 0)
(-0.0213998 -0.0413855 0)
(-0.0245482 -0.0282336 0)
(-0.0278774 -0.0128303 0)
(-0.0315231 0.00562567 0)
(-0.0355321 0.0282481 0)
(-0.0399783 0.0559217 0)
(-0.0450114 0.0899024 0)
(-0.0506999 0.131495 0)
(-0.0569345 0.181901 0)
(-0.0632897 0.241934 0)
(-0.0688383 0.31156 0)
(-0.071964 0.389222 0)
(-0.0702948 0.470961 0)
(-0.0613876 0.549579 0)
(-0.0418185 0.614517 0)
(-0.0146582 0.636689 0)
)
;
    }
    defaultFaces
    {
        type            empty;
    }
    procBoundary3to1
    {
        type            processor;
        value           nonuniform List<vector> 
23
(
(-0.247277 -0.126865 0)
(-0.248591 -0.108579 0)
(-0.244397 -0.096835 0)
(-0.241505 -0.0861542 0)
(-0.249231 -0.0613479 0)
(-0.246497 -0.030815 0)
(-0.233625 -0.00173044 0)
(-0.205298 0.00611999 0)
(-0.182921 0.0242183 0)
(-0.159855 0.0359584 0)
(-0.139486 0.0446771 0)
(-0.129071 0.0574196 0)
(-0.0913225 0.0678344 0)
(-0.111235 0.073053 0)
(-0.0223036 0.0860351 0)
(-0.0998284 0.0830944 0)
(0.0587279 0.083293 0)
(-0.0959109 0.0952048 0)
(0.162248 0.119252 0)
(-0.0992238 0.744153 0)
(0.478683 1.3265 0)
(0.210364 1.30903 0)
(-0.00188148 1.66728 0)
)
;
    }
    procBoundary3to2
    {
        type            processor;
        value           nonuniform List<vector> 
25
(
(-0.221224 -0.147299 0)
(-0.225571 -0.121607 0)
(-0.197095 -0.142931 0)
(-0.188546 -0.126065 0)
(-0.165253 -0.139036 0)
(-0.150018 -0.135492 0)
(-0.136653 -0.137475 0)
(-0.126818 -0.135696 0)
(-0.118283 -0.135543 0)
(-0.109422 -0.134123 0)
(-0.101936 -0.133074 0)
(-0.0947438 -0.131704 0)
(-0.0881763 -0.130149 0)
(-0.0819503 -0.128295 0)
(-0.0759884 -0.126144 0)
(-0.070134 -0.123715 0)
(-0.0642831 -0.121058 0)
(-0.0583264 -0.118233 0)
(-0.0521839 -0.115317 0)
(-0.0457806 -0.112394 0)
(-0.0390697 -0.109561 0)
(-0.0320071 -0.106658 0)
(-0.0244055 -0.104431 0)
(-0.0164333 -0.101024 0)
(-0.0131252 -0.10309 0)
)
;
    }
}


// ************************************************************************* //
