/*--------------------------------*- C++ -*----------------------------------*\
| =========                 |                                                 |
| \\      /  F ield         | OpenFOAM: The Open Source CFD Toolbox           |
|  \\    /   O peration     | Version:  2.4.0                                 |
|   \\  /    A nd           | Web:      www.OpenFOAM.org                      |
|    \\/     M anipulation  |                                                 |
\*---------------------------------------------------------------------------*/
FoamFile
{
    version     2.0;
    format      ascii;
    class       volVectorField;
    location    "0.35";
    object      U.oil;
}
// * * * * * * * * * * * * * * * * * * * * * * * * * * * * * * * * * * * * * //

dimensions      [0 1 -1 0 0 0 0];

internalField   nonuniform List<vector> 
575
(
(-0.22079 -0.119241 0)
(-0.219367 -0.114139 0)
(-0.216527 -0.10298 0)
(-0.213006 -0.0964375 0)
(-0.225822 -0.105846 0)
(-0.22283 -0.100826 0)
(-0.220562 -0.091249 0)
(-0.217778 -0.0777706 0)
(-0.195074 -0.129459 0)
(-0.195102 -0.122535 0)
(-0.193352 -0.110216 0)
(-0.191153 -0.102109 0)
(-0.183886 -0.120185 0)
(-0.182826 -0.112605 0)
(-0.179854 -0.105199 0)
(-0.173736 -0.100241 0)
(-0.162843 -0.133616 0)
(-0.164014 -0.123973 0)
(-0.160051 -0.117263 0)
(-0.157554 -0.111567 0)
(-0.148499 -0.132974 0)
(-0.14913 -0.125592 0)
(-0.148936 -0.118472 0)
(-0.146173 -0.113393 0)
(-0.135795 -0.133355 0)
(-0.137361 -0.125682 0)
(-0.137996 -0.117784 0)
(-0.136735 -0.112177 0)
(-0.127006 -0.131508 0)
(-0.127121 -0.127018 0)
(-0.128181 -0.12033 0)
(-0.126576 -0.115967 0)
(-0.117461 -0.130411 0)
(-0.118119 -0.126069 0)
(-0.118419 -0.121659 0)
(-0.118599 -0.116225 0)
(-0.109743 -0.129312 0)
(-0.109641 -0.126164 0)
(-0.110162 -0.122004 0)
(-0.110662 -0.118182 0)
(-0.102093 -0.128236 0)
(-0.102318 -0.12534 0)
(-0.102534 -0.122167 0)
(-0.103534 -0.118671 0)
(-0.0953238 -0.127013 0)
(-0.0956327 -0.124406 0)
(-0.0958445 -0.121629 0)
(-0.0970942 -0.118768 0)
(-0.0890103 -0.125588 0)
(-0.0895801 -0.123036 0)
(-0.0898656 -0.120558 0)
(-0.0912581 -0.118055 0)
(-0.0830893 -0.123881 0)
(-0.0838977 -0.121348 0)
(-0.0843502 -0.118971 0)
(-0.0858239 -0.116682 0)
(-0.0774108 -0.121827 0)
(-0.0784556 -0.119274 0)
(-0.0791306 -0.116899 0)
(-0.0806474 -0.11468 0)
(-0.071809 -0.11943 0)
(-0.0730586 -0.116826 0)
(-0.0739855 -0.114373 0)
(-0.0755427 -0.112104 0)
(-0.0661669 -0.116735 0)
(-0.0675711 -0.11405 0)
(-0.0687346 -0.111469 0)
(-0.070325 -0.109064 0)
(-0.0603581 -0.1138 0)
(-0.0618621 -0.111006 0)
(-0.0632276 -0.108264 0)
(-0.0648598 -0.105663 0)
(-0.0543076 -0.110711 0)
(-0.0558535 -0.107779 0)
(-0.057351 -0.104855 0)
(-0.0590109 -0.102027 0)
(-0.0479249 -0.107564 0)
(-0.0494665 -0.104465 0)
(-0.0510387 -0.101345 0)
(-0.0527067 -0.0982745 0)
(-0.0411715 -0.10447 0)
(-0.0426701 -0.101194 0)
(-0.0442461 -0.0978748 0)
(-0.0458889 -0.0945637 0)
(-0.0340029 -0.101303 0)
(-0.0354423 -0.0978408 0)
(-0.0369707 -0.0943375 0)
(-0.0385692 -0.0908072 0)
(-0.0264508 -0.0988104 0)
(-0.0278225 -0.095204 0)
(-0.0292714 -0.0914956 0)
(-0.0307477 -0.0877469 0)
(-0.0176151 -0.0951592 0)
(-0.0188922 -0.0913405 0)
(-0.0203132 -0.0875478 0)
(-0.0219418 -0.0837383 0)
(-0.0126399 -0.0955561 0)
(-0.0124513 -0.0906608 0)
(-0.0125617 -0.0859695 0)
(-0.0128562 -0.0814245 0)
(-0.217154 -0.0790746 0)
(-0.212815 -0.0548739 0)
(-0.198014 -0.0311665 0)
(-0.179561 -0.0138956 0)
(-0.16863 0.00633973 0)
(-0.149444 0.0178949 0)
(-0.129084 0.0284445 0)
(-0.118674 0.0418673 0)
(-0.0835684 0.050135 0)
(-0.101983 0.054435 0)
(-0.0167796 0.0690947 0)
(-0.0962745 0.0570091 0)
(0.0623805 0.0717285 0)
(-0.0999014 0.0442869 0)
(0.168199 0.0850842 0)
(-0.102019 0.540863 0)
(0.505874 1.10547 0)
(0.408237 1.36588 0)
(0.0153336 1.77637 0)
(-0.209948 -0.066011 0)
(-0.201675 -0.0529415 0)
(-0.181342 -0.0422294 0)
(-0.170993 -0.0241239 0)
(-0.15446 -0.00540087 0)
(-0.137502 0.000722319 0)
(-0.121045 0.0128027 0)
(-0.107322 0.0271331 0)
(-0.0773662 0.0330104 0)
(-0.0925606 0.0375862 0)
(-0.0136673 0.0536666 0)
(-0.0911674 0.0349454 0)
(0.0607081 0.0645159 0)
(-0.100356 0.0104867 0)
(0.151233 0.0719442 0)
(-0.11433 0.407895 0)
(0.318004 1.03371 0)
(0.426329 1.50591 0)
(0.0431565 1.89186 0)
(-0.186638 -0.0879215 0)
(-0.17355 -0.0677833 0)
(-0.167293 -0.0533822 0)
(-0.157445 -0.0381369 0)
(-0.142211 -0.0221479 0)
(-0.124513 -0.0135372 0)
(-0.115729 0.000219348 0)
(-0.0944524 0.010328 0)
(-0.0727464 0.0179704 0)
(-0.0821269 0.0218093 0)
(-0.0123852 0.0398999 0)
(-0.0837063 0.0170728 0)
(0.0534667 0.0584725 0)
(-0.100266 -0.0136352 0)
(0.113597 0.0707554 0)
(-0.146491 0.307371 0)
(0.0802398 1.01412 0)
(0.28106 1.98945 0)
(0.0763047 1.9634 0)
(-0.171097 -0.0900459 0)
(-0.160982 -0.0748026 0)
(-0.155633 -0.0602501 0)
(-0.144978 -0.0474689 0)
(-0.12944 -0.0358738 0)
(-0.116468 -0.0258135 0)
(-0.105214 -0.0129594 0)
(-0.0854606 -0.0062991 0)
(-0.0668092 0.00447612 0)
(-0.0716589 0.00691073 0)
(-0.0109531 0.0275422 0)
(-0.0728398 0.00488768 0)
(0.0417413 0.0538772 0)
(-0.0924878 -0.0182084 0)
(0.0686216 0.0805057 0)
(-0.147838 0.361547 0)
(0.0208955 1.0525 0)
(0.0858586 2.44477 0)
(0.104083 1.98863 0)
(-0.155243 -0.0970231 0)
(-0.149516 -0.0797916 0)
(-0.143412 -0.068546 0)
(-0.131441 -0.0606026 0)
(-0.119259 -0.0475898 0)
(-0.111498 -0.0358959 0)
(-0.0916634 -0.028394 0)
(-0.0800597 -0.0198858 0)
(-0.0590486 -0.0102446 0)
(-0.0610611 -0.00684219 0)
(-0.00737136 0.0153422 0)
(-0.0581723 -0.00335337 0)
(0.0361796 0.0522818 0)
(-0.0778923 -0.00402247 0)
(0.0404877 0.100028 0)
(-0.121387 0.545159 0)
(0.00161112 1.21335 0)
(0.0287984 2.30846 0)
(0.122593 1.99561 0)
(-0.142938 -0.0997801 0)
(-0.14144 -0.0849393 0)
(-0.13162 -0.0766247 0)
(-0.121027 -0.0695665 0)
(-0.111271 -0.056529 0)
(-0.10205 -0.0485962 0)
(-0.0837845 -0.0425104 0)
(-0.0727773 -0.0328523 0)
(-0.0520446 -0.0259578 0)
(-0.0491871 -0.0206211 0)
(-0.00160086 0.0017791 0)
(-0.0371963 -0.0133549 0)
(0.04241 0.0542423 0)
(-0.0517893 0.00618743 0)
(0.0510403 0.128397 0)
(-0.107217 0.639944 0)
(-0.00368228 1.39687 0)
(-0.0241533 1.7956 0)
(0.140609 2.0031 0)
(-0.132684 -0.103833 0)
(-0.130499 -0.0918988 0)
(-0.121301 -0.0847987 0)
(-0.112759 -0.0778413 0)
(-0.10611 -0.0657633 0)
(-0.0920668 -0.0598805 0)
(-0.079503 -0.0555897 0)
(-0.0648998 -0.0470319 0)
(-0.0461712 -0.0421684 0)
(-0.0363926 -0.0359599 0)
(0.00395363 -0.0146209 0)
(-0.00791797 -0.0273444 0)
(0.0563838 0.0474612 0)
(-0.010592 0.00931328 0)
(0.115329 0.155006 0)
(-0.0898939 0.53899 0)
(0.0296158 1.54419 0)
(-0.0317746 1.75146 0)
(0.173401 2.00812 0)
(-0.122714 -0.106123 0)
(-0.120786 -0.096938 0)
(-0.114012 -0.0906619 0)
(-0.10577 -0.0844362 0)
(-0.10026 -0.075637 0)
(-0.0854408 -0.0713731 0)
(-0.0755556 -0.0676066 0)
(-0.0590399 -0.0624 0)
(-0.0411076 -0.0593329 0)
(-0.024022 -0.0542081 0)
(0.0093788 -0.0379843 0)
(0.0214943 -0.0443522 0)
(0.0806859 0.0202539 0)
(0.046783 0.000447139 0)
(0.212706 0.159152 0)
(-0.0101216 0.489639 0)
(0.112863 1.76704 0)
(-0.0254378 1.78707 0)
(0.248928 1.9974 0)
(-0.114861 -0.109366 0)
(-0.112227 -0.101558 0)
(-0.108016 -0.0958822 0)
(-0.100082 -0.0903135 0)
(-0.0953189 -0.0841942 0)
(-0.0822364 -0.0817251 0)
(-0.0726223 -0.0795316 0)
(-0.0562296 -0.078015 0)
(-0.0380208 -0.07775 0)
(-0.0162006 -0.0762445 0)
(0.0153949 -0.0689519 0)
(0.0467006 -0.0695306 0)
(0.104956 -0.0275676 0)
(0.113871 -0.0340517 0)
(0.307702 0.124924 0)
(0.10847 0.402143 0)
(0.279572 1.72313 0)
(-0.0195099 1.93105 0)
(0.400874 1.95476 0)
(-0.107668 -0.111539 0)
(-0.105315 -0.104823 0)
(-0.102913 -0.100142 0)
(-0.0960941 -0.0955521 0)
(-0.0919217 -0.0916149 0)
(-0.0812184 -0.0909646 0)
(-0.0719097 -0.0909715 0)
(-0.0568466 -0.0931749 0)
(-0.0387714 -0.0969822 0)
(-0.0148833 -0.101475 0)
(0.0179075 -0.10411 0)
(0.0616164 -0.108615 0)
(0.123907 -0.0931511 0)
(0.181471 -0.0963952 0)
(0.384775 0.028512 0)
(0.247918 0.283547 0)
(0.867497 1.28141 0)
(-0.0256382 2.29981 0)
(0.56456 1.93928 0)
(-0.101831 -0.113124 0)
(-0.0996544 -0.107198 0)
(-0.0987192 -0.103154 0)
(-0.093488 -0.0997037 0)
(-0.0900984 -0.0976221 0)
(-0.0821135 -0.098602 0)
(-0.0740043 -0.101136 0)
(-0.0612984 -0.106959 0)
(-0.0448196 -0.115684 0)
(-0.0214582 -0.127589 0)
(0.0112547 -0.14162 0)
(0.0605844 -0.159584 0)
(0.130951 -0.173142 0)
(0.233311 -0.194964 0)
(0.426484 -0.13607 0)
(0.465224 0.0814807 0)
(1.21961 1.09309 0)
(-0.00625066 2.82478 0)
(0.743712 2.03465 0)
(-0.0965609 -0.113842 0)
(-0.0950899 -0.108533 0)
(-0.0953075 -0.105065 0)
(-0.0919746 -0.102559 0)
(-0.0898753 -0.101843 0)
(-0.0847256 -0.104225 0)
(-0.0789285 -0.109057 0)
(-0.0696801 -0.118119 0)
(-0.0567791 -0.131798 0)
(-0.0372211 -0.151448 0)
(-0.00883471 -0.178231 0)
(0.0376027 -0.2137 0)
(0.109005 -0.260919 0)
(0.234119 -0.32642 0)
(0.414641 -0.369712 0)
(0.629466 -0.192459 0)
(1.22446 0.778982 0)
(0.0822029 3.37062 0)
(0.959648 2.33831 0)
(-0.0917972 -0.1137 0)
(-0.0912327 -0.108818 0)
(-0.0925261 -0.105703 0)
(-0.0911988 -0.103878 0)
(-0.0908489 -0.104022 0)
(-0.088731 -0.107299 0)
(-0.086169 -0.11376 0)
(-0.0815474 -0.125195 0)
(-0.0743636 -0.142802 0)
(-0.0623908 -0.16907 0)
(-0.0429411 -0.207404 0)
(-0.009634 -0.261404 0)
(0.0448362 -0.341467 0)
(0.151931 -0.460539 0)
(0.292379 -0.606022 0)
(0.530809 -0.522916 0)
(0.910404 0.376526 0)
(0.41961 3.79078 0)
(1.31755 3.12144 0)
(-0.0872753 -0.112674 0)
(-0.0877877 -0.108025 0)
(-0.0901497 -0.105006 0)
(-0.0908214 -0.103437 0)
(-0.09247 -0.103914 0)
(-0.0935066 -0.107442 0)
(-0.0948117 -0.114551 0)
(-0.0956402 -0.126952 0)
(-0.0959195 -0.146442 0)
(-0.0946682 -0.176235 0)
(-0.0903394 -0.221164 0)
(-0.079229 -0.288699 0)
(-0.0573786 -0.392831 0)
(-0.0109209 -0.555128 0)
(0.0272213 -0.765097 0)
(0.10679 -0.767133 0)
(0.268341 0.066043 0)
(0.674282 3.90339 0)
(1.79859 4.35907 0)
(-0.082825 -0.110843 0)
(-0.0844417 -0.106211 0)
(-0.0878113 -0.103012 0)
(-0.0904078 -0.101275 0)
(-0.0941444 -0.101487 0)
(-0.0982699 -0.104557 0)
(-0.103574 -0.111146 0)
(-0.110104 -0.12283 0)
(-0.118446 -0.141543 0)
(-0.129071 -0.170515 0)
(-0.142784 -0.21483 0)
(-0.160701 -0.282917 0)
(-0.185072 -0.390267 0)
(-0.219737 -0.559054 0)
(-0.324951 -0.775622 0)
(-0.533745 -0.764535 0)
(-0.476286 0.301347 0)
(-0.0017773 4.03056 0)
(2.31918 5.91132 0)
(-0.078272 -0.108248 0)
(-0.0809312 -0.103423 0)
(-0.0852371 -0.0997706 0)
(-0.0895309 -0.0974842 0)
(-0.0952219 -0.0968559 0)
(-0.102138 -0.0986971 0)
(-0.111141 -0.103627 0)
(-0.122876 -0.112933 0)
(-0.138626 -0.128289 0)
(-0.160195 -0.152297 0)
(-0.190449 -0.188954 0)
(-0.234316 -0.244736 0)
(-0.300513 -0.330648 0)
(-0.404034 -0.462189 0)
(-0.624081 -0.629978 0)
(-1.02086 -0.568177 0)
(-1.26025 0.630506 0)
(2.41059 8.47885 0)
(2.71163 7.69997 0)
(-0.0734448 -0.105035 0)
(-0.0769971 -0.099813 0)
(-0.0821145 -0.0954661 0)
(-0.0877877 -0.092239 0)
(-0.0950894 -0.0902961 0)
(-0.104286 -0.0902398 0)
(-0.116284 -0.0925439 0)
(-0.132185 -0.0981222 0)
(-0.153697 -0.108123 0)
(-0.183339 -0.124077 0)
(-0.22525 -0.148217 0)
(-0.286342 -0.183709 0)
(-0.377853 -0.234712 0)
(-0.519305 -0.306488 0)
(-0.7624 -0.379211 0)
(-1.04264 0.0505097 0)
(-0.282575 2.82113 0)
(2.02383 8.23474 0)
(2.15252 8.0175 0)
(-0.0682167 -0.101339 0)
(-0.0724585 -0.095544 0)
(-0.0781599 -0.0903258 0)
(-0.0848297 -0.0858614 0)
(-0.0933006 -0.0822548 0)
(-0.104069 -0.0798418 0)
(-0.118132 -0.0788988 0)
(-0.136782 -0.0798757 0)
(-0.161826 -0.0832045 0)
(-0.196014 -0.0894903 0)
(-0.243602 -0.0992111 0)
(-0.311038 -0.112303 0)
(-0.408836 -0.127151 0)
(-0.553604 -0.13935 0)
(-0.777462 -0.124207 0)
(-0.972602 0.556715 0)
(-0.39161 2.67363 0)
(0.947102 6.23543 0)
(0.165072 4.76785 0)
(-0.0624637 -0.0973169 0)
(-0.0671626 -0.0908255 0)
(-0.0732022 -0.0846191 0)
(-0.0804417 -0.0787778 0)
(-0.0895546 -0.0732956 0)
(-0.101153 -0.0683025 0)
(-0.116187 -0.0638159 0)
(-0.135903 -0.0598242 0)
(-0.162136 -0.0561995 0)
(-0.197428 -0.0526583 0)
(-0.245265 -0.0482573 0)
(-0.31054 -0.04091 0)
(-0.400373 -0.0262749 0)
(-0.524319 0.0052011 0)
(-0.696498 0.0726815 0)
(-0.945649 0.293832 0)
(-0.920155 1.49175 0)
(-0.385194 2.93458 0)
(-0.51859 2.25116 0)
(-0.0561285 -0.0931333 0)
(-0.0610478 -0.0858826 0)
(-0.0671613 -0.0786044 0)
(-0.0745408 -0.0713483 0)
(-0.0837687 -0.0639431 0)
(-0.0954416 -0.056329 0)
(-0.11041 -0.0482491 0)
(-0.129833 -0.0393942 0)
(-0.155265 -0.029253 0)
(-0.188696 -0.0168394 0)
(-0.232722 -0.000419277 0)
(-0.290655 0.0230564 0)
(-0.366038 0.0588374 0)
(-0.462166 0.116505 0)
(-0.579745 0.212347 0)
(-0.713119 0.377228 0)
(-0.825542 0.692319 0)
(-0.635369 1.29256 0)
(-0.35533 1.47304 0)
(-0.0491819 -0.0889895 0)
(-0.0540492 -0.0810066 0)
(-0.0599722 -0.0727309 0)
(-0.067092 -0.0641158 0)
(-0.075838 -0.0549152 0)
(-0.0867621 -0.0448511 0)
(-0.100594 -0.0335059 0)
(-0.11835 -0.0203229 0)
(-0.141252 -0.00448889 0)
(-0.170733 0.0153056 0)
(-0.2084 0.04106 0)
(-0.255928 0.0759548 0)
(-0.314432 0.125023 0)
(-0.383266 0.19578 0)
(-0.457379 0.29953 0)
(-0.52286 0.451691 0)
(-0.554823 0.673681 0)
(-0.41203 0.99484 0)
(-0.187035 1.10965 0)
(-0.0416866 -0.0848276 0)
(-0.0463765 -0.0761284 0)
(-0.0519354 -0.0669498 0)
(-0.0585766 -0.0571171 0)
(-0.0666172 -0.0463183 0)
(-0.0764779 -0.0341142 0)
(-0.0887465 -0.0200497 0)
(-0.104204 -0.00328554 0)
(-0.123707 0.0171322 0)
(-0.148162 0.0426715 0)
(-0.17846 0.0753117 0)
(-0.215146 0.117808 0)
(-0.257811 0.174038 0)
(-0.304038 0.249082 0)
(-0.347493 0.349096 0)
(-0.375091 0.479722 0)
(-0.369549 0.642555 0)
(-0.26196 0.836196 0)
(-0.104828 0.901299 0)
(-0.0335145 -0.0813595 0)
(-0.0375803 -0.0720573 0)
(-0.0422062 -0.0621139 0)
(-0.0475769 -0.051286 0)
(-0.0539369 -0.0391776 0)
(-0.0617235 -0.0253391 0)
(-0.0713184 -0.00910219 0)
(-0.0832771 0.0103238 0)
(-0.0982349 0.03414 0)
(-0.116673 0.0637067 0)
(-0.139008 0.100785 0)
(-0.16517 0.147575 0)
(-0.19415 0.206713 0)
(-0.223259 0.281021 0)
(-0.247029 0.372861 0)
(-0.255897 0.482381 0)
(-0.239111 0.60404 0)
(-0.165623 0.728132 0)
(-0.0625699 0.770577 0)
(-0.0250822 -0.077291 0)
(-0.029779 -0.0678772 0)
(-0.0347314 -0.0578025 0)
(-0.0397675 -0.0465665 0)
(-0.045228 -0.0337259 0)
(-0.051352 -0.0187221 0)
(-0.0584579 -0.000823613 0)
(-0.0669272 0.0207076 0)
(-0.0771775 0.0470481 0)
(-0.0896386 0.0794806 0)
(-0.104459 0.119529 0)
(-0.121395 0.168859 0)
(-0.139459 0.229097 0)
(-0.156441 0.301422 0)
(-0.168344 0.385832 0)
(-0.16894 0.479754 0)
(-0.151947 0.57564 0)
(-0.10374 0.662741 0)
(-0.0378822 0.692604 0)
(-0.0138467 -0.073916 0)
(-0.0158722 -0.0636493 0)
(-0.0184247 -0.0529692 0)
(-0.0213998 -0.0413743 0)
(-0.0245482 -0.0282226 0)
(-0.0278774 -0.0128255 0)
(-0.0315231 0.00562205 0)
(-0.0355321 0.0282324 0)
(-0.0399783 0.0558866 0)
(-0.0450114 0.0898387 0)
(-0.0506999 0.131392 0)
(-0.0569345 0.181752 0)
(-0.0632897 0.241736 0)
(-0.0688383 0.311324 0)
(-0.071964 0.388983 0)
(-0.0702948 0.470784 0)
(-0.0613876 0.549543 0)
(-0.0418186 0.614693 0)
(-0.0146584 0.636978 0)
)
;

boundaryField
{
    leftWall
    {
        type            fixedValue;
        value           nonuniform 0();
    }
    rightWall
    {
        type            fixedValue;
        value           uniform (0 0 0);
    }
    lowerWall
    {
        type            fixedValue;
        value           nonuniform 0();
    }
    atmosphere
    {
        type            fluxCorrectedVelocity;
        value           nonuniform List<vector> 
23
(
(-0.0126399 -0.0955706 0)
(-0.0124513 -0.0906747 0)
(-0.0125617 -0.0859823 0)
(-0.0128562 -0.0814363 0)
(-0.0138467 -0.073926 0)
(-0.0158722 -0.063659 0)
(-0.0184247 -0.0529796 0)
(-0.0213998 -0.0413855 0)
(-0.0245482 -0.0282336 0)
(-0.0278774 -0.0128303 0)
(-0.0315231 0.00562567 0)
(-0.0355321 0.0282481 0)
(-0.0399783 0.0559217 0)
(-0.0450114 0.0899024 0)
(-0.0506999 0.131495 0)
(-0.0569345 0.181901 0)
(-0.0632897 0.241934 0)
(-0.0688383 0.31156 0)
(-0.071964 0.389222 0)
(-0.0702948 0.470961 0)
(-0.0613876 0.549579 0)
(-0.0418186 0.614517 0)
(-0.0146584 0.636689 0)
)
;
    }
    defaultFaces
    {
        type            empty;
    }
    procBoundary3to1
    {
        type            processor;
        value           nonuniform List<vector> 
23
(
(-0.247299 -0.127008 0)
(-0.248603 -0.108652 0)
(-0.244408 -0.0968719 0)
(-0.241513 -0.0861899 0)
(-0.249235 -0.0613909 0)
(-0.246494 -0.0308724 0)
(-0.233613 -0.00182238 0)
(-0.205275 0.00598538 0)
(-0.182893 0.0240476 0)
(-0.159826 0.0357752 0)
(-0.13946 0.0445084 0)
(-0.12905 0.0572804 0)
(-0.0913099 0.067723 0)
(-0.111212 0.0729388 0)
(-0.0222922 0.0857769 0)
(-0.0996854 0.08213 0)
(0.0589413 0.0799227 0)
(-0.0958951 0.0828767 0)
(0.164404 0.0962215 0)
(-0.100491 0.678439 0)
(0.425507 1.27527 0)
(0.277628 1.27846 0)
(-0.00182982 1.66722 0)
)
;
    }
    procBoundary3to2
    {
        type            processor;
        value           nonuniform List<vector> 
25
(
(-0.221235 -0.147423 0)
(-0.22558 -0.121664 0)
(-0.197101 -0.142975 0)
(-0.18855 -0.126094 0)
(-0.165255 -0.139051 0)
(-0.150018 -0.135497 0)
(-0.136653 -0.137476 0)
(-0.126818 -0.135696 0)
(-0.118283 -0.135543 0)
(-0.109422 -0.134123 0)
(-0.101936 -0.133074 0)
(-0.0947438 -0.131704 0)
(-0.0881763 -0.130149 0)
(-0.0819503 -0.128295 0)
(-0.0759884 -0.126144 0)
(-0.070134 -0.123715 0)
(-0.0642831 -0.121058 0)
(-0.0583264 -0.118233 0)
(-0.0521839 -0.115317 0)
(-0.0457806 -0.112394 0)
(-0.0390697 -0.109561 0)
(-0.0320071 -0.106658 0)
(-0.0244055 -0.104431 0)
(-0.0164333 -0.101024 0)
(-0.0131252 -0.10309 0)
)
;
    }
}


// ************************************************************************* //
