/*--------------------------------*- C++ -*----------------------------------*\
| =========                 |                                                 |
| \\      /  F ield         | OpenFOAM: The Open Source CFD Toolbox           |
|  \\    /   O peration     | Version:  2.4.0                                 |
|   \\  /    A nd           | Web:      www.OpenFOAM.org                      |
|    \\/     M anipulation  |                                                 |
\*---------------------------------------------------------------------------*/
FoamFile
{
    version     2.0;
    format      ascii;
    class       volScalarField;
    location    "0.95";
    object      alpha.water;
}
// * * * * * * * * * * * * * * * * * * * * * * * * * * * * * * * * * * * * * //

dimensions      [0 0 0 0 0 0 0];

internalField   nonuniform List<scalar> 
575
(
1.09268e-09
1.09477e-09
1.27466e-09
1.63648e-09
8.35145e-10
1.09279e-09
1.49095e-09
2.07251e-09
7.90563e-10
1.00927e-09
1.3684e-09
1.94247e-09
5.3563e-10
7.1542e-10
9.96436e-10
1.37058e-09
2.5468e-10
3.59033e-10
4.79572e-10
7.02675e-10
1.05604e-10
1.41807e-10
2.00849e-10
3.00164e-10
3.12954e-11
4.58163e-11
5.92062e-11
6.68992e-11
7.71043e-12
9.33558e-12
1.03848e-11
1.05057e-11
1.3388e-12
1.45068e-12
1.43525e-12
1.29374e-12
1.80955e-13
1.75625e-13
1.54783e-13
1.24237e-13
1.96962e-14
1.70607e-14
1.33855e-14
9.57313e-15
1.794e-15
1.38146e-15
9.63834e-16
6.15166e-16
1.40786e-16
9.60114e-17
5.95422e-17
3.39814e-17
9.723e-18
5.85205e-18
3.21973e-18
1.64105e-18
5.98591e-19
3.16105e-19
1.53365e-19
6.93248e-20
3.30531e-20
1.51758e-20
6.42818e-21
2.54898e-21
1.64007e-21
6.46882e-22
2.3621e-22
8.14536e-23
7.33428e-23
2.44914e-23
7.64291e-24
2.59254e-24
2.96824e-24
8.28527e-25
2.49915e-25
3.47555e-25
1.08636e-25
2.72744e-26
2.91172e-26
2.14482e-25
3.74613e-27
2.13554e-27
1.43384e-26
1.37874e-25
1.82983e-28
7.55792e-28
7.68168e-27
8.04932e-26
3.44114e-29
3.42994e-28
3.83121e-27
4.37533e-26
1.29877e-29
1.52812e-28
1.90736e-27
2.55853e-26
1.8011e-29
2.68576e-28
4.01693e-27
5.79844e-26
2.50176e-09
3.18362e-09
4.04993e-09
4.96273e-09
4.33987e-09
2.58014e-09
1.46897e-09
8.54336e-10
1.61668e-09
5.58361e-09
8.92155e-09
9.9799e-09
9.89099e-09
9.86482e-09
8.9676e-09
4.32089e-09
1.04926e-09
1.00508e-09
6.89358e-10
3.61944e-09
5.05872e-09
5.29205e-09
5.00897e-09
3.27028e-09
1.63079e-09
8.63652e-10
4.25694e-10
3.53284e-10
1.11178e-09
2.25208e-09
2.93351e-09
3.56495e-09
3.31128e-09
1.73265e-09
7.01582e-10
7.28828e-10
1.00631e-09
6.57325e-10
3.69415e-09
4.62977e-09
3.97539e-09
2.6587e-09
1.63874e-09
8.9755e-10
4.29138e-10
1.84036e-10
9.37812e-11
9.13054e-11
1.38803e-10
1.80306e-10
2.19393e-10
2.47472e-10
3.13335e-10
4.54963e-10
7.46037e-10
1.0532e-09
6.30209e-10
2.18758e-09
2.19115e-09
1.72124e-09
1.10902e-09
6.07148e-10
2.84695e-10
1.18538e-10
4.47711e-11
1.67467e-11
9.95159e-12
1.16431e-11
2.83977e-11
7.53581e-11
1.78341e-10
3.49998e-10
6.59192e-10
1.00437e-09
1.14098e-09
5.81523e-10
9.99789e-10
8.51584e-10
5.71876e-10
3.15667e-10
1.48901e-10
6.0126e-11
2.17751e-11
7.35292e-12
2.73155e-12
2.59404e-12
8.19658e-12
3.16618e-11
1.04155e-10
2.71104e-10
5.26298e-10
9.81592e-10
1.22758e-09
1.24028e-09
4.95689e-10
3.06442e-10
2.22499e-10
1.24909e-10
5.76933e-11
2.29152e-11
7.99639e-12
2.5785e-12
8.62046e-13
5.99041e-13
1.95759e-12
1.00109e-11
4.3772e-11
1.38549e-10
4.20036e-10
7.85392e-10
1.27179e-09
1.43008e-09
1.2727e-09
3.32943e-10
5.62221e-11
3.52051e-11
1.76456e-11
7.40748e-12
2.70586e-12
8.74231e-13
2.71371e-13
1.26946e-13
3.12143e-13
1.93597e-12
1.20676e-11
5.6438e-11
1.64209e-10
5.89894e-10
1.18873e-09
1.62625e-09
1.62616e-09
1.11472e-09
2.06868e-10
7.43715e-12
4.03308e-12
1.7812e-12
6.65787e-13
2.20174e-13
6.68423e-14
2.40672e-14
3.56124e-14
2.32353e-13
1.8644e-12
1.30139e-11
6.5026e-11
1.82017e-10
7.12438e-10
1.7392e-09
2.08086e-09
1.73318e-09
9.24463e-10
1.93527e-10
7.62566e-13
3.55064e-13
1.37792e-13
4.61996e-14
1.40005e-14
4.38989e-15
3.22136e-15
1.70322e-14
1.7104e-13
1.60677e-12
1.21317e-11
6.5709e-11
2.07671e-10
8.19267e-10
1.94156e-09
2.1503e-09
1.73618e-09
9.45674e-10
2.00844e-10
6.14333e-14
2.47472e-14
8.50653e-15
2.60077e-15
7.63242e-16
3.25051e-16
7.51038e-16
8.5159e-15
1.10992e-13
1.16016e-12
9.46484e-12
5.61395e-11
2.0865e-10
7.28937e-10
1.89612e-09
2.1484e-09
1.67712e-09
1.09281e-09
2.1057e-10
4.01838e-15
1.41616e-15
4.37347e-16
1.25262e-16
4.07797e-17
3.61776e-17
2.08205e-16
3.53518e-15
5.72102e-14
6.64501e-13
5.92931e-12
2.58495e-11
1.19622e-10
5.16591e-10
1.37037e-09
2.03769e-09
1.78427e-09
1.13339e-09
1.61582e-10
2.22034e-16
6.92288e-17
1.95149e-17
5.54826e-18
2.74191e-18
6.50073e-18
5.73612e-17
1.04032e-15
2.0119e-14
2.79599e-13
2.73139e-12
1.25045e-11
4.82436e-11
3.73206e-10
1.04496e-09
1.52108e-09
1.61727e-09
7.6055e-10
1.2114e-10
1.06484e-17
2.95783e-18
7.77462e-19
2.74343e-19
4.62455e-19
2.94377e-18
2.70249e-17
3.08016e-16
4.71339e-15
8.53124e-14
9.30637e-13
4.92155e-12
1.56871e-11
1.92252e-10
6.39732e-10
1.06258e-09
1.05705e-09
3.98218e-10
6.94442e-11
4.47158e-19
1.11173e-19
3.21163e-20
4.98502e-20
3.71583e-19
3.43447e-18
3.15894e-17
2.73801e-16
2.37982e-15
2.71352e-14
3.06299e-13
1.69726e-12
6.60792e-12
4.35984e-11
2.93357e-10
5.92084e-10
4.20045e-10
1.33145e-10
2.24568e-11
1.63581e-20
4.06672e-21
5.50635e-21
4.69608e-20
4.79962e-19
4.84536e-18
4.52913e-17
3.69713e-16
2.54514e-15
1.57917e-14
1.07316e-13
5.73197e-13
2.43435e-12
1.03994e-11
6.41114e-11
1.3593e-10
1.13813e-10
2.51541e-11
5.52887e-12
5.49503e-22
5.28341e-22
4.83786e-21
5.46851e-20
6.10111e-19
6.39853e-18
5.98019e-17
4.74184e-16
3.05889e-15
1.57553e-14
6.44779e-14
2.68229e-13
8.84474e-13
2.96507e-12
1.11335e-11
1.87553e-11
1.55706e-11
4.15944e-12
1.38385e-12
4.26233e-23
3.81503e-22
4.79266e-21
5.92656e-20
6.93637e-19
7.35083e-18
6.7532e-17
5.18654e-16
3.21296e-15
1.58784e-14
5.87301e-14
2.3598e-13
6.76096e-13
1.49099e-12
2.99712e-12
3.99445e-12
2.10663e-12
6.68008e-13
3.89811e-13
2.18312e-23
3.1072e-22
4.27434e-21
5.56492e-20
6.62593e-19
6.9465e-18
6.20568e-17
4.61778e-16
2.76869e-15
1.35277e-14
5.10344e-14
2.23882e-13
5.17622e-13
8.14054e-13
1.10944e-12
9.97725e-13
4.84583e-13
2.444e-13
2.06126e-13
1.44283e-23
2.22077e-22
3.2106e-21
4.26269e-20
5.04374e-19
5.16979e-18
4.48097e-17
3.24423e-16
1.89973e-15
9.21713e-15
3.44978e-14
1.47572e-13
3.17476e-13
4.10616e-13
4.81902e-13
3.7645e-13
1.92395e-13
1.11232e-13
1.25706e-13
8.43497e-24
1.35212e-22
2.00318e-21
2.66144e-20
3.10115e-19
3.10373e-18
2.61879e-17
1.84585e-16
1.05293e-15
4.94334e-15
1.75087e-14
6.47903e-14
1.51132e-13
1.7e-13
1.9368e-13
1.44145e-13
8.76232e-14
4.97416e-14
7.67644e-14
4.29468e-24
7.09848e-23
1.07444e-21
1.442e-20
1.68977e-19
1.69374e-18
1.41083e-17
9.57208e-17
5.13495e-16
2.18974e-15
7.28735e-15
2.03206e-14
5.0574e-14
5.42214e-14
5.8007e-14
4.66858e-14
3.2864e-14
2.03157e-14
4.39945e-14
1.96624e-24
3.41736e-23
5.49103e-22
7.88887e-21
9.90043e-20
1.03461e-18
8.48805e-18
5.33086e-17
2.56264e-16
9.28712e-16
2.70652e-15
5.46175e-15
1.21883e-14
1.32811e-14
1.37475e-14
1.17649e-14
9.58341e-15
7.38711e-15
2.31846e-14
8.68457e-25
1.73183e-23
3.2683e-22
5.36913e-21
7.2338e-20
7.46907e-19
5.61946e-18
3.08111e-17
1.28307e-16
3.81787e-16
9.48606e-16
1.51916e-15
2.72049e-15
2.88885e-15
2.97296e-15
2.65144e-15
2.51796e-15
2.38159e-15
1.08808e-14
4.7388e-25
1.27534e-23
2.76275e-22
4.45469e-21
5.35646e-20
4.73289e-19
3.02254e-18
1.39427e-17
5.00151e-17
1.24634e-16
2.76171e-16
3.84796e-16
5.9331e-16
6.10221e-16
6.16125e-16
5.58671e-16
5.92206e-16
6.19927e-16
3.9303e-15
7.3357e-25
1.48921e-23
2.26767e-22
2.58643e-21
2.24573e-20
1.50523e-19
7.90368e-19
3.10275e-18
9.88875e-18
2.14991e-17
4.36719e-17
5.52767e-17
7.78046e-17
7.68204e-17
7.47745e-17
6.76077e-17
7.89001e-17
8.9955e-17
7.48638e-16
)
;

boundaryField
{
    leftWall
    {
        type            zeroGradient;
    }
    rightWall
    {
        type            zeroGradient;
    }
    lowerWall
    {
        type            zeroGradient;
    }
    atmosphere
    {
        type            inletOutlet;
        inletValue      uniform 0;
        value           nonuniform List<scalar> 
23
(
1.8011e-29
0
0
0
0
0
0
0
0
0
0
0
0
0
0
0
0
0
0
0
0
0
0
)
;
    }
    defaultFaces
    {
        type            empty;
    }
    procBoundary3to1
    {
        type            processor;
        value           nonuniform List<scalar> 
23
(
3.27973e-08
2.37176e-08
1.62511e-08
1.54084e-08
5.97142e-09
3.18495e-09
3.89272e-09
4.70008e-09
5.04968e-09
3.64334e-09
1.79359e-09
2.12857e-09
1.29238e-08
1.70945e-08
1.46924e-08
1.35359e-08
1.08449e-08
1.06858e-08
1.12147e-08
7.77502e-09
3.65796e-09
1.15788e-09
6.89632e-10
)
;
    }
    procBoundary3to2
    {
        type            processor;
        value           nonuniform List<scalar> 
25
(
1.6109e-09
6.6614e-10
6.52289e-10
4.24746e-10
1.82255e-10
6.30658e-11
2.10051e-11
5.99587e-12
1.14097e-12
1.70054e-13
2.05998e-14
2.10442e-15
1.86638e-16
1.465e-17
1.03161e-18
6.56587e-20
3.79302e-21
2.00093e-22
9.72963e-24
4.39015e-25
1.84002e-26
7.39822e-28
3.1107e-29
2.19949e-30
7.84339e-31
)
;
    }
}


// ************************************************************************* //
