/*--------------------------------*- C++ -*----------------------------------*\
| =========                 |                                                 |
| \\      /  F ield         | OpenFOAM: The Open Source CFD Toolbox           |
|  \\    /   O peration     | Version:  2.4.0                                 |
|   \\  /    A nd           | Web:      www.OpenFOAM.org                      |
|    \\/     M anipulation  |                                                 |
\*---------------------------------------------------------------------------*/
FoamFile
{
    version     2.0;
    format      ascii;
    class       volScalarField;
    location    "0.95";
    object      alpha.oil;
}
// * * * * * * * * * * * * * * * * * * * * * * * * * * * * * * * * * * * * * //

dimensions      [0 0 0 0 0 0 0];

internalField   nonuniform List<scalar> 
575
(
1.15176e-06
4.03738e-07
2.92972e-07
3.42827e-07
9.29912e-08
1.01207e-07
1.27048e-07
2.08464e-07
4.97194e-08
5.19197e-08
6.96967e-08
1.19279e-07
3.14892e-08
3.93583e-08
6.14715e-08
1.23365e-07
3.13762e-08
3.1626e-08
2.49051e-08
2.75629e-08
1.03561e-08
8.33917e-09
1.11978e-08
2.72247e-08
6.16996e-09
6.91685e-09
8.87821e-09
8.53907e-09
4.4997e-09
3.80141e-09
3.20044e-09
2.65639e-09
2.44355e-09
1.90453e-09
1.46442e-09
1.10482e-09
1.09597e-09
8.11549e-10
5.88077e-10
4.16956e-10
3.75881e-10
2.68009e-10
1.85203e-10
1.24316e-10
7.7438e-11
5.4761e-11
3.78453e-11
2.48882e-11
1.07376e-11
8.436e-12
6.04553e-12
4.0059e-12
2.29963e-12
1.60171e-12
1.03698e-12
6.28392e-13
4.26731e-13
2.66167e-13
1.55199e-13
8.50612e-14
6.81051e-14
3.7908e-14
1.9753e-14
9.69336e-15
9.34263e-15
4.59637e-15
2.11881e-15
9.22379e-16
1.1033e-15
4.74177e-16
1.9137e-16
7.36491e-17
1.12545e-16
4.16933e-17
1.4606e-17
5.31763e-18
9.91203e-18
3.12048e-18
9.70849e-19
6.47055e-19
7.6048e-19
2.0154e-19
7.69137e-20
2.75187e-19
5.16131e-20
1.24099e-20
1.77293e-20
1.60797e-19
3.08257e-21
1.22244e-21
8.06558e-21
8.95554e-20
1.78525e-22
3.47168e-22
4.07925e-21
5.43431e-20
4.42189e-23
6.04373e-22
9.08245e-21
1.3265e-19
6.21294e-07
1.39127e-06
3.4372e-06
2.06304e-06
8.21745e-07
2.82735e-07
1.59338e-07
8.30527e-08
6.18237e-08
9.63144e-08
1.35894e-07
1.92736e-07
3.9083e-07
2.65428e-07
1.22211e-07
4.69999e-08
3.92747e-07
4.60889e-06
1.61305e-06
5.43305e-07
8.31062e-07
1.06647e-06
1.10513e-06
5.6254e-07
1.93067e-07
9.92245e-08
4.74038e-08
2.84035e-08
4.35932e-08
5.08201e-08
4.32855e-08
3.18725e-08
2.37729e-08
2.75831e-08
4.70676e-08
3.73311e-07
3.92737e-06
1.27018e-06
3.80576e-07
5.14509e-07
3.82584e-07
2.64773e-07
1.7561e-07
1.00094e-07
4.75069e-08
2.06337e-08
1.24258e-08
6.50255e-09
4.31648e-09
4.87094e-09
7.70431e-09
1.51097e-08
3.33383e-08
7.37575e-08
3.81813e-07
1.21226e-06
1.28893e-06
1.91404e-07
1.66203e-07
1.32166e-07
8.62876e-08
4.76473e-08
2.24015e-08
9.52343e-09
3.99493e-09
1.54184e-09
9.29357e-10
1.41142e-09
3.2114e-09
1.03834e-08
3.58013e-08
6.71019e-08
1.81556e-07
4.84405e-07
9.5568e-07
1.28034e-06
8.30985e-08
7.4772e-08
4.81611e-08
2.54664e-08
1.16507e-08
4.65241e-09
1.7565e-09
7.28623e-10
4.47607e-10
6.34644e-10
1.8576e-09
5.78638e-09
1.79976e-08
7.00122e-08
1.19818e-07
4.17975e-07
6.65753e-07
1.06237e-06
1.28779e-06
3.37677e-08
2.11747e-08
1.10372e-08
4.89282e-09
1.91251e-09
6.84314e-10
2.54573e-10
1.35438e-10
1.66069e-10
5.88386e-10
2.43651e-09
8.57778e-09
2.30677e-08
2.17652e-07
3.45255e-07
6.62121e-07
8.6188e-07
1.35751e-06
1.24561e-06
6.31136e-09
3.74821e-09
1.84132e-09
7.81065e-10
3.01301e-10
1.11333e-10
4.87303e-11
4.53e-11
1.14181e-10
5.29022e-10
2.99225e-09
1.2458e-08
2.65215e-08
4.33813e-07
2.75817e-06
1.16377e-06
1.10862e-06
1.58209e-06
1.20931e-06
1.62345e-09
8.60111e-10
3.98538e-10
1.66063e-10
6.5328e-11
2.61279e-11
1.59342e-11
2.91076e-11
1.01291e-10
5.4423e-10
3.7675e-09
1.78398e-08
3.14488e-08
5.11688e-07
1.4755e-05
6.9966e-06
1.46527e-06
2.2863e-06
3.43892e-06
5.76974e-10
2.72609e-10
1.178e-10
4.70777e-11
1.79569e-11
7.73845e-12
8.60338e-12
2.73037e-11
1.12778e-10
6.75896e-10
4.81083e-09
2.32393e-08
4.66127e-08
6.20085e-07
2.5082e-05
2.56294e-05
6.82273e-06
1.47436e-05
6.82247e-06
1.97173e-10
8.49065e-11
3.35434e-11
1.23222e-11
4.46627e-12
2.75739e-12
8.00931e-12
3.43422e-11
1.61143e-10
9.82536e-10
6.10918e-09
2.75579e-08
6.48041e-08
6.05976e-07
9.44765e-06
3.40192e-05
3.2093e-05
3.15768e-05
3.02289e-06
5.34195e-11
2.09122e-11
7.51999e-12
2.54774e-12
1.05572e-12
1.92104e-12
1.03075e-11
5.05618e-11
2.69429e-10
1.58235e-09
8.18247e-09
3.32183e-08
7.94406e-08
5.12807e-07
1.42639e-06
3.29765e-05
3.31692e-05
9.16472e-06
1.16737e-06
1.01421e-11
3.71895e-12
1.24768e-12
4.287e-13
4.3135e-13
2.25371e-12
1.45755e-11
7.831e-11
4.64963e-10
2.63445e-09
1.18136e-08
4.33197e-08
8.81774e-08
4.77455e-07
1.21953e-06
2.53443e-06
2.08965e-05
2.60411e-06
8.0501e-07
1.56926e-12
5.39316e-13
1.72645e-13
9.7964e-14
4.06399e-13
3.01868e-12
2.10276e-11
1.19919e-10
7.68878e-10
4.29537e-09
1.78161e-08
6.14692e-08
1.05431e-07
4.90388e-07
9.69686e-07
1.41692e-06
1.59279e-06
1.29222e-06
6.6132e-07
2.18522e-13
6.7868e-14
2.52561e-14
6.23013e-14
4.98545e-13
4.11537e-12
2.97145e-11
1.75669e-10
1.192e-09
6.64187e-09
2.63709e-08
9.11371e-08
2.23254e-07
6.08125e-07
8.70901e-07
1.16478e-06
1.34327e-06
1.07909e-06
4.63349e-07
2.58826e-14
7.68499e-15
8.5093e-15
6.63348e-14
6.22845e-13
5.42482e-12
3.96573e-11
2.41668e-10
1.70735e-09
9.5443e-09
3.64737e-08
1.33031e-07
4.59924e-07
8.21896e-07
9.79275e-07
1.12714e-06
1.21165e-06
7.65918e-07
3.12015e-07
2.59765e-15
1.21954e-15
6.94413e-15
7.31925e-14
7.40916e-13
6.64467e-12
4.80166e-11
3.07268e-10
2.2078e-09
1.2427e-08
4.64463e-08
1.90976e-07
7.01493e-07
1.12894e-06
1.6279e-06
2.47683e-06
1.05411e-06
5.09501e-07
1.14799e-07
2.49565e-16
5.86025e-16
6.65623e-15
7.69043e-14
8.11215e-13
7.26471e-12
5.04734e-11
3.51459e-10
2.52523e-09
1.44672e-08
5.38873e-08
2.51132e-07
8.50472e-07
1.9546e-06
2.78327e-06
2.68985e-06
7.5651e-07
2.08007e-07
6.09762e-08
4.66545e-17
4.65492e-16
6.07057e-15
7.2965e-14
7.7376e-13
6.72909e-12
4.38398e-11
3.5104e-10
2.35734e-09
1.20516e-08
4.83064e-08
2.37043e-07
7.43059e-07
1.03215e-06
2.39836e-06
1.16815e-06
4.048e-07
8.06064e-08
1.57458e-08
2.43476e-17
3.52656e-16
4.79735e-15
5.82585e-14
6.07354e-13
5.08766e-12
3.12017e-11
2.43166e-10
1.30816e-09
4.74513e-09
1.74791e-08
1.37352e-07
4.68721e-07
6.18159e-07
6.78829e-07
4.55007e-07
1.84876e-07
2.42412e-08
5.5597e-09
1.48496e-17
2.28536e-16
3.17078e-15
3.85027e-14
3.96731e-13
3.28886e-12
2.06671e-11
1.5765e-10
7.76899e-10
2.47216e-09
5.58965e-09
3.67742e-08
2.10404e-07
2.54416e-07
2.83479e-07
1.71124e-07
8.275e-08
1.55203e-08
3.56823e-09
7.98062e-18
1.26346e-16
1.79737e-15
2.23787e-14
2.39713e-13
2.12128e-12
1.46999e-11
1.21055e-10
5.76208e-10
1.76535e-09
2.3725e-09
6.62452e-09
5.77869e-08
6.98721e-08
7.20062e-08
5.08119e-08
2.92239e-08
9.6034e-09
3.56577e-09
3.79194e-18
6.327e-17
9.75571e-16
1.36241e-14
1.6838e-13
1.72624e-12
1.37333e-11
9.75997e-11
4.49446e-10
1.11887e-09
1.10758e-09
8.80339e-10
4.79169e-09
1.26384e-08
1.39408e-08
1.06868e-08
7.1867e-09
5.1993e-09
3.00789e-09
1.72909e-18
3.40809e-17
6.51849e-16
1.10152e-14
1.52576e-13
1.60545e-12
1.21865e-11
6.82968e-11
1.99633e-10
3.18353e-10
2.81805e-10
1.12734e-10
3.69072e-10
1.75686e-09
2.36429e-09
2.17152e-09
2.26636e-09
2.37124e-09
1.78631e-09
1.01435e-18
2.83091e-17
6.33484e-16
1.04669e-14
1.27948e-13
1.14227e-12
7.26919e-12
2.95139e-11
3.31519e-11
3.29639e-11
2.65135e-11
2.1247e-11
3.996e-11
1.42302e-10
2.63461e-10
3.95861e-10
6.16209e-10
8.11385e-10
6.93825e-10
1.71095e-18
3.55376e-17
5.52774e-16
6.42253e-15
5.65627e-14
3.81279e-13
1.94467e-12
3.57932e-12
2.92718e-12
1.67641e-12
1.40395e-12
1.21546e-12
1.0547e-12
1.07882e-12
7.32705e-12
2.94418e-11
9.94641e-11
1.47358e-10
1.4797e-10
)
;

boundaryField
{
    leftWall
    {
        type            zeroGradient;
    }
    rightWall
    {
        type            zeroGradient;
    }
    lowerWall
    {
        type            zeroGradient;
    }
    atmosphere
    {
        type            inletOutlet;
        inletValue      uniform 0;
        value           nonuniform List<scalar> 
23
(
4.42189e-23
0
0
0
0
0
0
0
0
0
0
0
0
0
0
0
0
0
0
0
0
0
0
)
;
    }
    defaultFaces
    {
        type            empty;
    }
    procBoundary3to1
    {
        type            processor;
        value           nonuniform List<scalar> 
23
(
2.47118e-05
8.03e-06
7.66076e-07
5.41923e-07
1.42075e-06
7.39176e-06
8.07935e-06
4.97163e-06
1.12681e-06
4.152e-07
1.6325e-07
8.74654e-08
1.74345e-07
3.23615e-07
5.40807e-07
1.11937e-06
1.80572e-06
1.65108e-06
4.3191e-07
6.89936e-08
2.89342e-07
4.63452e-06
6.18735e-06
)
;
    }
    procBoundary3to2
    {
        type            processor;
        value           nonuniform List<scalar> 
25
(
2.50677e-06
1.04428e-07
5.60527e-08
3.29179e-08
2.41497e-08
1.08705e-08
6.44841e-09
5.34136e-09
3.10011e-09
1.44975e-09
5.11038e-10
1.0522e-10
1.23874e-11
3.05852e-12
6.36903e-13
1.13906e-13
1.76472e-14
2.3812e-15
2.81717e-16
2.94026e-17
2.7339e-18
2.30193e-19
1.71793e-20
1.11185e-21
4.71656e-23
)
;
    }
}


// ************************************************************************* //
