/*--------------------------------*- C++ -*----------------------------------*\
| =========                 |                                                 |
| \\      /  F ield         | OpenFOAM: The Open Source CFD Toolbox           |
|  \\    /   O peration     | Version:  2.4.0                                 |
|   \\  /    A nd           | Web:      www.OpenFOAM.org                      |
|    \\/     M anipulation  |                                                 |
\*---------------------------------------------------------------------------*/
FoamFile
{
    version     2.0;
    format      ascii;
    class       volScalarField;
    location    "0.95";
    object      p;
}
// * * * * * * * * * * * * * * * * * * * * * * * * * * * * * * * * * * * * * //

dimensions      [1 -1 -2 0 0 0 0];

internalField   nonuniform List<scalar> 
575
(
2.32732
2.33728
2.34928
2.36718
2.35739
2.36161
2.36836
2.37968
2.33794
2.3422
2.3471
2.35389
2.29006
2.29292
2.29659
2.30139
2.22574
2.22784
2.23064
2.23451
2.15022
2.1519
2.15407
2.15718
2.06693
2.06827
2.07017
2.07285
1.97757
1.97876
1.98045
1.98279
1.88333
1.88437
1.88588
1.88796
1.78485
1.7858
1.78715
1.78899
1.6827
1.68359
1.68483
1.68647
1.57752
1.57834
1.57946
1.58092
1.4697
1.47044
1.47145
1.47274
1.35959
1.36026
1.36115
1.36228
1.2475
1.24809
1.24886
1.24984
1.13368
1.13419
1.13485
1.13567
1.01836
1.01878
1.01933
1.02001
0.901736
0.902078
0.902516
0.903051
0.783984
0.784241
0.784571
0.784972
0.665249
0.665431
0.66566
0.665934
0.545673
0.545783
0.545919
0.546077
0.425423
0.425462
0.425507
0.425555
0.304485
0.304482
0.304459
0.304415
0.1833
0.183223
0.183133
0.182991
0.0611126
0.0609782
0.060805
0.0605891
2.40679
2.47707
2.58606
2.71479
2.81927
2.88426
2.92352
2.94728
2.96433
2.96667
2.96743
2.97457
3.00296
3.05541
3.13424
3.236
3.33722
3.39123
3.40028
2.4
2.44153
2.51617
2.61105
2.69222
2.75166
2.79212
2.8216
2.84404
2.86294
2.87865
2.89921
2.93353
2.98669
3.05115
3.12213
3.1959
3.23867
3.25241
2.36614
2.3962
2.45052
2.51744
2.57922
2.63038
2.66995
2.70158
2.72784
2.75286
2.77443
2.80105
2.83824
2.88259
2.93202
2.98679
3.05275
3.09207
3.10552
2.31128
2.3348
2.37473
2.42369
2.47304
2.51545
2.55273
2.58441
2.61274
2.63921
2.66548
2.69217
2.72342
2.76006
2.79672
2.83916
2.9004
2.94436
2.962
2.24252
2.26175
2.2925
2.32939
2.36894
2.40531
2.43912
2.46957
2.49732
2.52406
2.55082
2.57749
2.60411
2.6316
2.65929
2.69059
2.7388
2.78299
2.80605
2.16415
2.18032
2.20459
2.23372
2.26532
2.29727
2.32671
2.35511
2.38172
2.40732
2.4319
2.45725
2.4825
2.49977
2.51653
2.53994
2.57367
2.61767
2.62822
2.0789
2.09261
2.11205
2.13548
2.16152
2.18872
2.21486
2.24054
2.2654
2.28895
2.31159
2.33426
2.35727
2.36945
2.37327
2.38751
2.41459
2.45151
2.45978
1.98805
1.99959
2.01559
2.03482
2.05658
2.07963
2.10258
2.12517
2.14822
2.16979
2.19046
2.21153
2.23139
2.23981
2.2379
2.24609
2.26685
2.29151
2.29852
1.89254
1.9023
1.9156
1.93164
1.94987
1.96939
1.98944
2.00918
2.03007
2.04941
2.06785
2.08721
2.10416
2.11228
2.11056
2.12123
2.13138
2.14144
2.14928
1.79298
1.80132
1.81248
1.82595
1.84131
1.85792
1.87521
1.89259
1.9104
1.92765
1.94376
1.96077
1.97473
1.98475
1.98941
1.99616
2.00288
2.002
2.0111
1.68997
1.69712
1.70655
1.71794
1.73091
1.74501
1.75985
1.77487
1.78996
1.80477
1.81873
1.83266
1.8448
1.8552
1.86358
1.86717
1.87078
1.87202
1.88026
1.58398
1.59012
1.59812
1.60775
1.61873
1.63069
1.64331
1.65614
1.66893
1.6813
1.6932
1.70421
1.71422
1.72387
1.73215
1.73685
1.73849
1.74225
1.74908
1.4754
1.48067
1.48745
1.4956
1.50487
1.51499
1.52568
1.53654
1.54725
1.55757
1.56707
1.57562
1.58269
1.58985
1.59676
1.60247
1.60637
1.61146
1.61638
1.36458
1.36907
1.37481
1.38166
1.38946
1.39798
1.40696
1.41616
1.42506
1.43357
1.4411
1.44688
1.45069
1.45315
1.45849
1.46721
1.47378
1.48001
1.48241
1.25181
1.2556
1.2604
1.26612
1.27261
1.27973
1.28722
1.29493
1.30244
1.30948
1.31591
1.31945
1.32042
1.31601
1.32032
1.33279
1.34157
1.34774
1.34908
1.13732
1.14047
1.14443
1.14913
1.15445
1.16029
1.16647
1.17282
1.17914
1.18498
1.1909
1.19333
1.19446
1.18432
1.1886
1.19924
1.21072
1.21532
1.21674
1.02136
1.02391
1.02709
1.03085
1.03511
1.03976
1.04471
1.04978
1.05494
1.05973
1.06469
1.06625
1.06519
1.0614
1.06662
1.07308
1.08194
1.08261
1.08531
0.904112
0.906103
0.908565
0.911458
0.91472
0.91827
0.922045
0.925896
0.929821
0.933598
0.937238
0.939499
0.938987
0.939688
0.945149
0.947121
0.951597
0.952258
0.954578
0.785762
0.787227
0.789019
0.791104
0.793437
0.79595
0.798631
0.80131
0.804114
0.806841
0.809022
0.811829
0.812009
0.813811
0.818083
0.818867
0.822585
0.822689
0.824754
0.66647
0.667443
0.668607
0.669935
0.671398
0.672945
0.674613
0.6762
0.677935
0.679582
0.680887
0.682542
0.683497
0.685813
0.689609
0.690188
0.693276
0.693818
0.695798
0.546378
0.546892
0.547467
0.54809
0.548742
0.549386
0.550004
0.550517
0.551405
0.552142
0.552967
0.554256
0.555462
0.557281
0.560374
0.561468
0.563788
0.564825
0.566815
0.425633
0.425717
0.425735
0.425696
0.425544
0.425197
0.425005
0.424775
0.424765
0.424871
0.425216
0.426081
0.427445
0.428867
0.430899
0.43232
0.434407
0.435707
0.437763
0.304306
0.304025
0.303522
0.302719
0.301819
0.300883
0.299934
0.298776
0.29799
0.297391
0.297454
0.297696
0.298491
0.299861
0.301772
0.303395
0.305766
0.306895
0.308811
0.182656
0.181858
0.180769
0.179428
0.177826
0.175954
0.17413
0.172058
0.170616
0.169148
0.168539
0.168958
0.169923
0.171538
0.173906
0.175704
0.17862
0.179619
0.181657
0.0601498
0.0592019
0.0578156
0.055987
0.0537269
0.0510189
0.0481933
0.0449555
0.0425387
0.0403747
0.0392112
0.0394773
0.0405478
0.0426974
0.0460086
0.0486608
0.0527073
0.053648
0.0560775
)
;

boundaryField
{
    leftWall
    {
        type            fixedFluxPressure;
        gradient        nonuniform 0();
        value           nonuniform 0();
    }
    rightWall
    {
        type            fixedFluxPressure;
        gradient        uniform 0;
        value           nonuniform List<scalar> 
25
(
3.40028
3.25241
3.10552
2.962
2.80605
2.62822
2.45978
2.29852
2.14928
2.0111
1.88026
1.74908
1.61638
1.48241
1.34908
1.21674
1.08531
0.954578
0.824754
0.695798
0.566815
0.437763
0.308811
0.181657
0.0560775
)
;
    }
    lowerWall
    {
        type            fixedFluxPressure;
        gradient        nonuniform 0();
        value           nonuniform 0();
    }
    atmosphere
    {
        type            totalPressure;
        U               U.air;
        phi             phi.air;
        rho             rho;
        psi             none;
        gamma           1;
        p0              uniform 0;
        value           nonuniform List<scalar> 
23
(
0
-3.36592e-06
-5.22684e-05
-0.000169876
-0.000525683
-0.00141364
-0.00277716
-0.00463075
-0.00696057
-0.00978085
-0.0129125
-0.0165525
-0.0197256
-0.023192
-0.0253083
-0.0261569
-0.0258929
-0.0243507
-0.0214298
-0.0183237
-0.0135283
-0.0114957
-0.00791622
)
;
    }
    defaultFaces
    {
        type            empty;
    }
    procBoundary3to1
    {
        type            processor;
        value           nonuniform List<scalar> 
23
(
2.20337
2.22653
2.25557
2.29384
2.37632
2.51419
2.68406
2.85115
2.96964
3.03483
3.0693
3.08281
3.08653
3.06746
3.03991
3.03281
3.04798
3.1021
3.19929
3.33
3.46554
3.54012
3.55768
)
;
    }
    procBoundary3to2
    {
        type            processor;
        value           nonuniform List<scalar> 
25
(
2.31379
2.35005
2.33182
2.28665
2.22359
2.14884
2.06599
1.9768
1.88261
1.78414
1.68191
1.57673
1.46894
1.35889
1.24686
1.13311
1.01788
0.901352
0.783697
0.665041
0.545543
0.425392
0.304526
0.183315
0.0612871
)
;
    }
}


// ************************************************************************* //
