/*--------------------------------*- C++ -*----------------------------------*\
| =========                 |                                                 |
| \\      /  F ield         | OpenFOAM: The Open Source CFD Toolbox           |
|  \\    /   O peration     | Version:  2.4.0                                 |
|   \\  /    A nd           | Web:      www.OpenFOAM.org                      |
|    \\/     M anipulation  |                                                 |
\*---------------------------------------------------------------------------*/
FoamFile
{
    version     2.0;
    format      ascii;
    class       surfaceScalarField;
    location    "0.95";
    object      phi;
}
// * * * * * * * * * * * * * * * * * * * * * * * * * * * * * * * * * * * * * //

dimensions      [0 3 -1 0 0 0 0];

internalField   nonuniform List<scalar> 
1102
(
0.000178422
-2.41163e-05
0.000172613
-3.01961e-05
0.000166096
-3.397e-05
-3.95363e-05
0.000158873
0.000143423
-2.12228e-05
0.000138896
-2.56688e-05
0.000133304
-2.83784e-05
-3.20131e-05
0.000125781
0.000116105
-1.7554e-05
0.0001107
-2.02641e-05
0.00010442
-2.20975e-05
-2.42907e-05
9.66973e-05
9.7507e-05
-1.35018e-05
9.26159e-05
-1.5373e-05
8.7234e-05
-1.67156e-05
-1.81444e-05
8.10877e-05
8.56219e-05
-1.03068e-05
8.20591e-05
-1.18102e-05
7.82837e-05
-1.29402e-05
-1.41561e-05
7.42954e-05
7.74181e-05
-8.08888e-06
7.495e-05
-9.34215e-06
7.24661e-05
-1.04563e-05
-1.15712e-05
6.98813e-05
7.10516e-05
-6.58069e-06
6.94595e-05
-7.75009e-06
6.78855e-05
-8.88238e-06
-9.90541e-06
6.62198e-05
6.56723e-05
-5.51493e-06
6.45354e-05
-6.6132e-06
6.33835e-05
-7.73048e-06
-8.71227e-06
6.21904e-05
6.06517e-05
-4.67691e-06
5.97666e-05
-5.72812e-06
5.88352e-05
-6.7991e-06
-7.7698e-06
5.78927e-05
5.57446e-05
-4.03574e-06
5.50502e-05
-5.03371e-06
5.43035e-05
-6.05243e-06
-7.00305e-06
5.35368e-05
5.10332e-05
-3.49937e-06
5.04656e-05
-4.46618e-06
4.98477e-05
-5.43453e-06
-6.35901e-06
4.92037e-05
4.65414e-05
-3.05988e-06
4.60599e-05
-3.98462e-06
4.55411e-05
-4.91571e-06
-5.81162e-06
4.49937e-05
4.22631e-05
-2.67984e-06
4.18497e-05
-3.5712e-06
4.1398e-05
-4.46404e-06
-5.33079e-06
4.09172e-05
3.81695e-05
-2.34836e-06
3.78044e-05
-3.20612e-06
3.74039e-05
-4.06346e-06
-4.90077e-06
3.69739e-05
3.42488e-05
-2.04945e-06
3.39157e-05
-2.873e-06
3.35499e-05
-3.69765e-06
-4.50803e-06
3.31571e-05
3.04843e-05
-1.77049e-06
3.01768e-05
-2.56551e-06
2.98387e-05
-3.35949e-06
-4.14384e-06
2.94745e-05
2.6867e-05
-1.50679e-06
2.65759e-05
-2.27448e-06
2.62571e-05
-3.04064e-06
-3.8004e-06
2.59137e-05
2.33812e-05
-1.25262e-06
2.31019e-05
-1.99522e-06
2.27968e-05
-2.73553e-06
-3.4737e-06
2.24701e-05
2.00167e-05
-1.00307e-06
1.97435e-05
-1.72199e-06
1.94475e-05
-2.43957e-06
-3.15793e-06
1.91318e-05
1.6744e-05
-7.60896e-07
1.64779e-05
-1.4559e-06
1.61901e-05
-2.15177e-06
-2.85049e-06
1.58827e-05
1.35766e-05
-4.93212e-07
1.33005e-05
-1.17981e-06
1.30144e-05
-1.86561e-06
-2.54998e-06
1.27139e-05
1.05583e-05
-1.94675e-07
1.02459e-05
-8.67403e-07
9.92887e-06
-1.54861e-06
-2.23407e-06
9.61297e-06
7.57759e-06
1.18353e-07
7.25353e-06
-5.43343e-07
6.92621e-06
-1.22128e-06
-1.90125e-06
6.59339e-06
4.68596e-06
4.24512e-07
4.37704e-06
-2.3442e-07
4.03801e-06
-8.82237e-07
-1.55453e-06
3.6913e-06
2.5798e-07
2.21256e-07
2.28979e-07
2.84968e-07
0.000139678
-0.000100179
0.00011781
-8.47811e-05
0.000101211
-5.39426e-05
9.30343e-05
-3.62396e-05
8.6032e-05
-3.67161e-05
7.95565e-05
-4.3984e-05
7.62953e-05
-4.9126e-05
7.70744e-05
-5.11877e-05
8.5451e-05
-5.04496e-05
9.55234e-05
-5.41258e-05
0.000100989
-6.3588e-05
0.000104952
-7.87627e-05
0.000108214
-9.07956e-05
0.000111308
-0.000110853
9.81678e-05
-0.000142464
6.93761e-05
-0.000156588
3.93039e-05
-0.000152098
1.44697e-05
-0.000132318
-0.000157785
0.000101427
-7.58252e-05
7.81382e-05
-6.14922e-05
6.89977e-05
-4.48021e-05
6.9536e-05
-3.67779e-05
7.123e-05
-3.84102e-05
7.26152e-05
-4.53691e-05
7.32735e-05
-4.97843e-05
7.53214e-05
-5.32356e-05
8.01952e-05
-5.53234e-05
8.70994e-05
-6.103e-05
9.52778e-05
-7.17664e-05
0.000100425
-8.39103e-05
0.000103069
-9.34394e-05
9.91861e-05
-0.00010697
8.28154e-05
-0.000126094
6.13072e-05
-0.00013508
3.54578e-05
-0.000126249
1.76085e-05
-0.000114469
-0.000140176
7.77066e-05
-5.68346e-05
6.5586e-05
-4.93716e-05
6.25722e-05
-4.17882e-05
6.46908e-05
-3.88965e-05
6.77546e-05
-4.1474e-05
6.96163e-05
-4.72308e-05
7.04049e-05
-5.05729e-05
7.24947e-05
-5.53254e-05
7.6348e-05
-5.91767e-05
7.8924e-05
-6.3606e-05
8.16979e-05
-7.45403e-05
8.25862e-05
-8.47986e-05
8.24291e-05
-9.32823e-05
8.13654e-05
-0.000105907
7.13062e-05
-0.000116035
5.50709e-05
-0.000118845
3.64239e-05
-0.000107602
1.89535e-05
-9.69984e-05
-0.000121223
6.88127e-05
-4.45596e-05
6.2275e-05
-4.28339e-05
6.12619e-05
-4.0775e-05
6.29124e-05
-4.0547e-05
6.43199e-05
-4.28814e-05
6.53207e-05
-4.82316e-05
6.62839e-05
-5.15362e-05
6.70776e-05
-5.61191e-05
7.04155e-05
-6.25146e-05
7.36684e-05
-6.68589e-05
7.46637e-05
-7.55356e-05
7.33417e-05
-8.34765e-05
7.30466e-05
-9.29873e-05
7.59459e-05
-0.000108806
7.28271e-05
-0.000112916
6.34777e-05
-0.000109495
4.58008e-05
-8.99249e-05
1.86291e-05
-6.98267e-05
-0.000102594
6.62912e-05
-3.65555e-05
6.18261e-05
-3.83688e-05
6.08002e-05
-3.97492e-05
6.12632e-05
-4.101e-05
6.14234e-05
-4.30416e-05
6.19641e-05
-4.87723e-05
6.27337e-05
-5.23058e-05
6.26013e-05
-5.59867e-05
6.38646e-05
-6.37779e-05
6.66225e-05
-6.96169e-05
6.68918e-05
-7.58049e-05
6.51248e-05
-8.17094e-05
6.63354e-05
-9.4198e-05
6.81922e-05
-0.000110663
6.60701e-05
-0.000110794
5.80209e-05
-0.000101446
3.74118e-05
-6.93159e-05
1.2173e-05
-4.45878e-05
-9.04206e-05
6.47287e-05
-3.14029e-05
6.14534e-05
-3.50935e-05
5.9557e-05
-3.78527e-05
5.872e-05
-4.01731e-05
5.84498e-05
-4.27713e-05
5.83564e-05
-4.8679e-05
5.82705e-05
-5.22199e-05
5.83088e-05
-5.60251e-05
5.8048e-05
-6.35171e-05
5.93561e-05
-7.0925e-05
5.90726e-05
-7.55213e-05
5.80202e-05
-8.0657e-05
6.12135e-05
-9.73913e-05
6.02835e-05
-0.000109733
5.56571e-05
-0.000106167
4.10005e-05
-8.67897e-05
1.49699e-05
-4.32853e-05
-7.02147e-08
-2.95477e-05
-9.04908e-05
6.26627e-05
-2.78459e-05
5.96221e-05
-3.20529e-05
5.73541e-05
-3.55847e-05
5.62053e-05
-3.90243e-05
5.54572e-05
-4.20232e-05
5.47444e-05
-4.79662e-05
5.393e-05
-5.14056e-05
5.39626e-05
-5.60576e-05
5.34145e-05
-6.2969e-05
5.23201e-05
-6.98305e-05
5.10651e-05
-7.42663e-05
5.15405e-05
-8.11324e-05
5.32554e-05
-9.91062e-05
5.07471e-05
-0.000107224
4.44373e-05
-9.98574e-05
2.31181e-05
-6.54705e-05
3.13452e-07
-2.04806e-05
-2.23337e-06
-2.70008e-05
-9.27242e-05
5.92854e-05
-2.4941e-05
5.66726e-05
-2.94401e-05
5.44427e-05
-3.33548e-05
5.3104e-05
-3.76856e-05
5.21487e-05
-4.10679e-05
5.0604e-05
-4.64215e-05
5.01925e-05
-5.09941e-05
4.89706e-05
-5.48357e-05
4.80348e-05
-6.20332e-05
4.61749e-05
-6.79707e-05
4.40882e-05
-7.21796e-05
4.3556e-05
-8.06003e-05
3.88897e-05
-9.44398e-05
3.15676e-05
-9.99023e-05
1.8522e-05
-8.68118e-05
-9.98818e-07
-4.59497e-05
-9.76407e-06
-1.17154e-05
-1.45809e-06
-3.53068e-05
-9.41823e-05
5.54172e-05
-2.24655e-05
5.32346e-05
-2.72574e-05
5.13295e-05
-3.14498e-05
4.96057e-05
-3.59619e-05
4.87016e-05
-4.01638e-05
4.69185e-05
-4.46383e-05
4.58677e-05
-4.99434e-05
4.49637e-05
-5.39316e-05
4.25647e-05
-5.96342e-05
4.01535e-05
-6.55595e-05
3.87916e-05
-7.08177e-05
3.45801e-05
-7.63888e-05
2.58346e-05
-8.56944e-05
1.4966e-05
-8.90337e-05
1.03166e-06
-7.28775e-05
-9.68981e-06
-3.52282e-05
-6.41857e-06
-1.49866e-05
2.89197e-06
-4.46174e-05
-9.12903e-05
5.15069e-05
-2.04356e-05
4.95685e-05
-2.53191e-05
4.79056e-05
-2.97868e-05
4.61714e-05
-3.42277e-05
4.49213e-05
-3.89137e-05
4.33063e-05
-4.30233e-05
4.17214e-05
-4.83585e-05
4.04878e-05
-5.26981e-05
3.82675e-05
-5.74138e-05
3.58508e-05
-6.31428e-05
3.30092e-05
-6.79761e-05
2.84651e-05
-7.18447e-05
1.98562e-05
-7.70854e-05
9.13964e-06
-7.83171e-05
-1.99107e-06
-6.17468e-05
-5.72049e-06
-3.14988e-05
3.23073e-06
-2.39379e-05
7.18568e-06
-4.85723e-05
-8.41046e-05
4.75175e-05
-1.87493e-05
4.58147e-05
-2.36163e-05
4.42244e-05
-2.81965e-05
4.26558e-05
-3.26591e-05
4.10705e-05
-3.73284e-05
3.97354e-05
-4.16882e-05
3.78371e-05
-4.64602e-05
3.62066e-05
-5.10676e-05
3.46512e-05
-5.58585e-05
3.15124e-05
-6.0004e-05
2.83831e-05
-6.48468e-05
2.60527e-05
-6.95144e-05
2.00056e-05
-7.10383e-05
1.10348e-05
-6.93463e-05
2.23901e-06
-5.2951e-05
3.19825e-06
-3.2458e-05
1.08554e-05
-3.1595e-05
9.19873e-06
-4.69156e-05
-7.49059e-05
4.35498e-05
-1.73054e-05
4.20449e-05
-2.21114e-05
4.05082e-05
-2.66599e-05
3.90376e-05
-3.11885e-05
3.73996e-05
-3.56903e-05
3.59104e-05
-4.01991e-05
3.42284e-05
-4.47782e-05
3.23059e-05
-4.91451e-05
3.07463e-05
-5.42988e-05
2.8419e-05
-5.76767e-05
2.62673e-05
-6.26951e-05
2.45221e-05
-6.77691e-05
2.12038e-05
-6.772e-05
1.56589e-05
-6.38013e-05
1.07981e-05
-4.80903e-05
1.11067e-05
-3.27666e-05
1.24218e-05
-3.29102e-05
8.87732e-06
-4.33711e-05
-6.60286e-05
3.96455e-05
-1.60338e-05
3.82628e-05
-2.07286e-05
3.68379e-05
-2.5235e-05
3.53489e-05
-2.96995e-05
3.38294e-05
-3.41708e-05
3.21735e-05
-3.85432e-05
3.05689e-05
-4.31736e-05
2.87858e-05
-4.7362e-05
2.69269e-05
-5.24399e-05
2.53554e-05
-5.61053e-05
2.3986e-05
-6.13256e-05
2.34033e-05
-6.71865e-05
2.24068e-05
-6.67235e-05
1.99267e-05
-6.13212e-05
1.61029e-05
-4.42665e-05
1.38483e-05
-3.05121e-05
1.13084e-05
-3.03703e-05
8.81516e-06
-4.08778e-05
-5.72134e-05
3.58284e-05
-1.48883e-05
3.45547e-05
-1.9455e-05
3.31895e-05
-2.38698e-05
3.17577e-05
-2.82676e-05
3.02008e-05
-3.2614e-05
2.86305e-05
-3.69729e-05
2.68403e-05
-4.13834e-05
2.51527e-05
-4.56744e-05
2.34978e-05
-5.07851e-05
2.18194e-05
-5.44268e-05
2.09222e-05
-6.04284e-05
2.19007e-05
-6.81651e-05
2.23647e-05
-6.71874e-05
2.0453e-05
-5.94095e-05
1.6259e-05
-4.00725e-05
1.25344e-05
-2.67875e-05
8.18578e-06
-2.60217e-05
6.50605e-06
-3.91981e-05
-5.07074e-05
3.2106e-05
-1.38372e-05
3.09172e-05
-1.82662e-05
2.96288e-05
-2.25815e-05
2.82252e-05
-2.6864e-05
2.6709e-05
-3.10978e-05
2.50613e-05
-3.53253e-05
2.32884e-05
-3.96105e-05
2.14189e-05
-4.38049e-05
1.9437e-05
-4.88031e-05
1.78142e-05
-5.28041e-05
1.65422e-05
-5.91563e-05
1.65513e-05
-6.81742e-05
1.72627e-05
-6.78988e-05
1.4741e-05
-5.68877e-05
1.07487e-05
-3.60802e-05
6.21589e-06
-2.22547e-05
3.6033e-06
-2.34091e-05
5.70254e-06
-4.12973e-05
-4.50049e-05
2.85001e-05
-1.28628e-05
2.73845e-05
-1.71506e-05
2.61496e-05
-2.13465e-05
2.47966e-05
-2.55111e-05
2.32992e-05
-2.96004e-05
2.16355e-05
-3.36617e-05
1.97881e-05
-3.7763e-05
1.76956e-05
-4.17124e-05
1.5222e-05
-4.63295e-05
1.2661e-05
-5.0243e-05
9.73653e-06
-5.62319e-05
5.34076e-06
-6.37784e-05
8.56852e-07
-6.34149e-05
-2.42062e-06
-5.36103e-05
-4.28604e-06
-3.42148e-05
-4.32534e-06
-2.22154e-05
-1.52255e-07
-2.75822e-05
3.23877e-06
-4.46884e-05
-4.17661e-05
2.49964e-05
-1.19455e-05
2.39504e-05
-1.61046e-05
2.27817e-05
-2.01778e-05
2.14756e-05
-2.42049e-05
2.00223e-05
-2.81471e-05
1.83631e-05
-3.20024e-05
1.64775e-05
-3.58774e-05
1.41863e-05
-3.94213e-05
1.13823e-05
-4.35255e-05
7.8429e-06
-4.67037e-05
2.38482e-06
-5.07738e-05
-5.84317e-06
-5.55504e-05
-1.26487e-05
-5.66094e-05
-1.60718e-05
-5.01871e-05
-1.60031e-05
-3.42836e-05
-9.87838e-06
-2.83401e-05
-9.58474e-07
-3.65021e-05
1.03077e-06
-4.66776e-05
-4.07353e-05
2.1603e-05
-1.10784e-05
2.06108e-05
-1.51125e-05
1.95105e-05
-1.90775e-05
1.82716e-05
-2.2966e-05
1.68879e-05
-2.67633e-05
1.52935e-05
-3.04081e-05
1.34369e-05
-3.40208e-05
1.11685e-05
-3.71528e-05
8.14801e-06
-4.0505e-05
3.8988e-06
-4.24545e-05
-1.85494e-06
-4.50201e-05
-8.82311e-06
-4.85822e-05
-1.50357e-05
-5.03968e-05
-1.7498e-05
-4.77248e-05
-1.48244e-05
-3.69572e-05
-6.39131e-06
-3.67732e-05
4.73166e-07
-4.33666e-05
2.65886e-07
-4.64703e-05
-4.04694e-05
1.83057e-05
-1.02524e-05
1.73755e-05
-1.41822e-05
1.63389e-05
-1.80409e-05
1.51907e-05
-2.18178e-05
1.38951e-05
-2.54678e-05
1.24376e-05
-2.89506e-05
1.07106e-05
-3.22938e-05
8.6339e-06
-3.50761e-05
5.85182e-06
-3.77229e-05
2.80562e-06
-3.94083e-05
-8.12593e-07
-4.14019e-05
-5.76079e-06
-4.36341e-05
-1.10828e-05
-4.50748e-05
-1.1686e-05
-4.71217e-05
-6.29872e-06
-4.23444e-05
1.33289e-07
-4.32052e-05
1.5292e-06
-4.47625e-05
2.01249e-07
-4.51424e-05
-4.02682e-05
1.50906e-05
-9.46033e-06
1.42163e-05
-1.33079e-05
1.32593e-05
-1.70839e-05
1.22052e-05
-2.07637e-05
1.10335e-05
-2.4296e-05
9.70665e-06
-2.76237e-05
8.09826e-06
-3.06854e-05
6.20226e-06
-3.31801e-05
4.33978e-06
-3.58605e-05
3.06251e-06
-3.8131e-05
1.48395e-06
-3.98233e-05
3.50544e-07
-4.25006e-05
-9.85694e-07
-4.37385e-05
3.71124e-07
-4.84785e-05
4.01913e-06
-4.59924e-05
5.36194e-06
-4.4548e-05
3.75216e-06
-4.31527e-05
1.61652e-06
-4.30067e-05
-3.86516e-05
1.19527e-05
-8.69921e-06
1.11335e-05
-1.24887e-05
1.02585e-05
-1.62089e-05
9.3111e-06
-1.98163e-05
8.26387e-06
-2.32488e-05
7.01211e-06
-2.6372e-05
5.70794e-06
-2.93812e-05
4.76963e-06
-3.22418e-05
4.09724e-06
-3.51881e-05
4.02307e-06
-3.80568e-05
3.84118e-06
-3.96414e-05
5.75546e-06
-4.44149e-05
7.5008e-06
-4.54839e-05
7.29418e-06
-4.82719e-05
7.87394e-06
-4.65722e-05
7.91228e-06
-4.45863e-05
6.23075e-06
-4.14712e-05
3.55798e-06
-4.03339e-05
-3.50937e-05
8.86105e-06
-7.9473e-06
8.08854e-06
-1.17162e-05
7.2782e-06
-1.53986e-05
6.39164e-06
-1.89298e-05
5.47636e-06
-2.23335e-05
4.78798e-06
-2.56836e-05
4.52178e-06
-2.9115e-05
4.69442e-06
-3.24145e-05
4.8688e-06
-3.53625e-05
5.97992e-06
-3.9168e-05
7.54435e-06
-4.12059e-05
9.18067e-06
-4.60513e-05
1.0204e-05
-4.65072e-05
9.53781e-06
-4.76057e-05
9.00737e-06
-4.60418e-05
8.56205e-06
-4.4141e-05
7.02449e-06
-3.99336e-05
4.22528e-06
-3.75347e-05
-3.08684e-05
5.81107e-06
-7.16498e-06
5.04436e-06
-1.09495e-05
4.29924e-06
-1.46535e-05
3.78831e-06
-1.84188e-05
3.70476e-06
-2.225e-05
4.06115e-06
-2.604e-05
4.6503e-06
-2.97042e-05
5.73621e-06
-3.35004e-05
6.9678e-06
-3.6594e-05
8.88942e-06
-4.10896e-05
1.05756e-05
-4.28921e-05
1.06136e-05
-4.60892e-05
1.0625e-05
-4.65186e-05
9.80853e-06
-4.67892e-05
8.85033e-06
-4.50836e-05
7.73981e-06
-4.30305e-05
5.44967e-06
-3.76435e-05
2.73127e-06
-3.48163e-05
-2.81371e-05
2.89876e-06
-6.37244e-06
2.36172e-06
-1.04124e-05
2.28132e-06
-1.45731e-05
2.64127e-06
-1.87788e-05
3.32972e-06
-2.29384e-05
4.40302e-06
-2.71133e-05
5.70159e-06
-3.10028e-05
7.4263e-06
-3.52251e-05
8.94927e-06
-3.8117e-05
1.01378e-05
-4.22781e-05
1.10539e-05
-4.38082e-05
1.0829e-05
-4.58644e-05
1.03192e-05
-4.60088e-05
9.17416e-06
-4.56442e-05
7.40896e-06
-4.33184e-05
5.45954e-06
-4.10811e-05
3.03782e-06
-3.52218e-05
1.135e-06
-3.29135e-05
-2.70021e-05
5.75786e-07
1.07928e-06
1.77662e-06
2.67074e-06
3.77103e-06
5.07317e-06
6.49414e-06
7.99539e-06
9.4115e-06
1.03578e-05
1.10196e-05
1.08441e-05
1.00407e-05
8.73951e-06
6.918e-06
4.92564e-06
2.98452e-06
1.29627e-06
)
;

boundaryField
{
    leftWall
    {
        type            calculated;
        value           nonuniform 0();
    }
    rightWall
    {
        type            calculated;
        value           uniform 0;
    }
    lowerWall
    {
        type            calculated;
        value           nonuniform 0();
    }
    atmosphere
    {
        type            calculated;
        value           nonuniform List<scalar> 
23
(
4.58396e-07
-1.97694e-07
-8.89958e-07
-1.61052e-06
-6.66325e-06
-1.09159e-05
-1.52704e-05
-1.96729e-05
-2.40387e-05
-2.84154e-05
-3.24237e-05
-3.67263e-05
-3.95331e-05
-4.32244e-05
-4.44699e-05
-4.56889e-05
-4.52053e-05
-4.43431e-05
-4.14969e-05
-3.90887e-05
-3.32806e-05
-3.12253e-05
-2.57058e-05
)
;
    }
    defaultFaces
    {
        type            empty;
        value           nonuniform 0();
    }
    procBoundary3to1
    {
        type            processor;
        value           nonuniform List<scalar> 
23
(
2.83225e-05
3.60051e-05
4.04869e-05
4.67593e-05
0.000119374
0.000106649
7.05416e-05
4.44167e-05
4.37184e-05
5.04596e-05
5.23871e-05
5.04086e-05
4.2073e-05
4.40534e-05
5.81221e-05
7.48004e-05
8.75329e-05
0.00010776
0.000155604
0.00018538
0.00018217
0.000157152
0.000172254
)
;
    }
    procBoundary3to2
    {
        type            processor;
        value           nonuniform List<scalar> 
25
(
-0.000182628
-0.000146317
-0.000119774
-0.000101559
-8.8817e-05
-7.9636e-05
-7.25598e-05
-6.67381e-05
-6.14897e-05
-5.63858e-05
-5.15696e-05
-4.69809e-05
-4.26431e-05
-3.8501e-05
-3.45477e-05
-3.07633e-05
-2.71307e-05
-2.36353e-05
-2.02662e-05
-1.69862e-05
-1.38443e-05
-1.08568e-05
-7.89062e-06
-4.99212e-06
-2.91856e-07
)
;
    }
}


// ************************************************************************* //
