/*--------------------------------*- C++ -*----------------------------------*\
| =========                 |                                                 |
| \\      /  F ield         | OpenFOAM: The Open Source CFD Toolbox           |
|  \\    /   O peration     | Version:  2.4.0                                 |
|   \\  /    A nd           | Web:      www.OpenFOAM.org                      |
|    \\/     M anipulation  |                                                 |
\*---------------------------------------------------------------------------*/
FoamFile
{
    version     2.0;
    format      ascii;
    class       surfaceScalarField;
    location    "0.95";
    object      phi.water;
}
// * * * * * * * * * * * * * * * * * * * * * * * * * * * * * * * * * * * * * //

dimensions      [0 3 -1 0 0 0 0];

internalField   nonuniform List<scalar> 
1102
(
0.000178421
-2.41184e-05
0.000172613
-3.0198e-05
0.000166093
-3.39701e-05
-3.95335e-05
0.000158862
0.000143422
-2.12249e-05
0.000138895
-2.56715e-05
0.000133299
-2.83817e-05
-3.20171e-05
0.000125757
0.000116104
-1.75573e-05
0.000110699
-2.02686e-05
0.000104415
-2.21032e-05
-2.42997e-05
9.6673e-05
9.75067e-05
-1.35044e-05
9.26155e-05
-1.53765e-05
8.72321e-05
-1.67203e-05
-1.81505e-05
8.10808e-05
8.56222e-05
-1.0308e-05
8.20595e-05
-1.18119e-05
7.82838e-05
-1.29423e-05
-1.41589e-05
7.42948e-05
7.74191e-05
-8.08937e-06
7.49509e-05
-9.34275e-06
7.24671e-05
-1.04571e-05
-1.15722e-05
6.98827e-05
7.10528e-05
-6.5808e-06
6.94607e-05
-7.75023e-06
6.7887e-05
-8.88253e-06
-9.90556e-06
6.62214e-05
6.56737e-05
-5.51489e-06
6.45368e-05
-6.61317e-06
6.3385e-05
-7.73044e-06
-8.71221e-06
6.2192e-05
6.06531e-05
-4.6768e-06
5.9768e-05
-5.72801e-06
5.88368e-05
-6.79899e-06
-7.76968e-06
5.78944e-05
5.57461e-05
-4.03559e-06
5.50516e-05
-5.03359e-06
5.43051e-05
-6.05231e-06
-7.00293e-06
5.35384e-05
5.10346e-05
-3.49921e-06
5.04671e-05
-4.46604e-06
4.98493e-05
-5.4344e-06
-6.3589e-06
4.92053e-05
4.65428e-05
-3.05972e-06
4.60613e-05
-3.98448e-06
4.55425e-05
-4.91559e-06
-5.81152e-06
4.49952e-05
4.22644e-05
-2.67968e-06
4.1851e-05
-3.57106e-06
4.13994e-05
-4.46393e-06
-5.3307e-06
4.09186e-05
3.81708e-05
-2.34822e-06
3.78057e-05
-3.206e-06
3.74052e-05
-4.06336e-06
-4.90069e-06
3.69752e-05
3.425e-05
-2.04931e-06
3.39169e-05
-2.87288e-06
3.35511e-05
-3.69755e-06
-4.50797e-06
3.31584e-05
3.04854e-05
-1.77037e-06
3.01779e-05
-2.56541e-06
2.98398e-05
-3.35941e-06
-4.14379e-06
2.94756e-05
2.68679e-05
-1.50667e-06
2.65769e-05
-2.27438e-06
2.62581e-05
-3.04058e-06
-3.80037e-06
2.59147e-05
2.3382e-05
-1.25252e-06
2.31027e-05
-1.99514e-06
2.27977e-05
-2.73547e-06
-3.47368e-06
2.2471e-05
2.00174e-05
-1.00298e-06
1.97442e-05
-1.72192e-06
1.94483e-05
-2.43953e-06
-3.15792e-06
1.91325e-05
1.67447e-05
-7.60809e-07
1.64786e-05
-1.45584e-06
1.61908e-05
-2.15173e-06
-2.85048e-06
1.58833e-05
1.35771e-05
-4.9313e-07
1.3301e-05
-1.17975e-06
1.30149e-05
-1.86558e-06
-2.54997e-06
1.27144e-05
1.05587e-05
-1.94594e-07
1.02463e-05
-8.67349e-07
9.92928e-06
-1.54858e-06
-2.23406e-06
9.61336e-06
7.57789e-06
1.1843e-07
7.25383e-06
-5.43288e-07
6.9265e-06
-1.22125e-06
-1.90124e-06
6.59366e-06
4.68615e-06
4.24592e-07
4.37722e-06
-2.34371e-07
4.03818e-06
-8.82215e-07
-1.55454e-06
3.69146e-06
2.58038e-07
2.21313e-07
2.2903e-07
2.85014e-07
0.000139665
-0.000100147
0.000117802
-8.47079e-05
0.00010122
-5.39386e-05
9.30626e-05
-3.62704e-05
8.6062e-05
-3.67478e-05
7.95662e-05
-4.40019e-05
7.6299e-05
-4.91357e-05
7.70815e-05
-5.11922e-05
8.5497e-05
-5.04443e-05
9.55767e-05
-5.40569e-05
0.000101005
-6.34894e-05
0.000104973
-7.87594e-05
0.000108246
-9.08314e-05
0.000111344
-0.000110889
9.83413e-05
-0.000142567
6.95251e-05
-0.000156702
3.93069e-05
-0.000152121
1.44793e-05
-0.00013234
-0.000157798
0.000101386
-7.58325e-05
7.81504e-05
-6.15126e-05
6.9022e-05
-4.4826e-05
6.95485e-05
-3.67906e-05
7.12343e-05
-3.84173e-05
7.26175e-05
-4.53746e-05
7.32751e-05
-4.97872e-05
7.53241e-05
-5.32361e-05
8.02031e-05
-5.53234e-05
8.71215e-05
-6.10323e-05
9.52934e-05
-7.17585e-05
0.000100444
-8.38882e-05
0.000103089
-9.34007e-05
9.92215e-05
-0.000106959
8.28448e-05
-0.000126118
6.13111e-05
-0.000135095
3.54471e-05
-0.00012626
1.76132e-05
-0.000114482
-0.000140189
7.76952e-05
-5.68715e-05
6.56035e-05
-4.9404e-05
6.25818e-05
-4.18004e-05
6.46929e-05
-3.89003e-05
6.77561e-05
-4.14756e-05
6.96178e-05
-4.72325e-05
7.04066e-05
-5.05735e-05
7.24968e-05
-5.53252e-05
7.63513e-05
-5.91764e-05
7.8928e-05
-6.36064e-05
8.17026e-05
-7.4542e-05
8.25907e-05
-8.48024e-05
8.24335e-05
-9.3288e-05
8.13691e-05
-0.000105913
7.13074e-05
-0.000116041
5.50687e-05
-0.000118851
3.64166e-05
-0.000107609
1.89609e-05
-9.70111e-05
-0.000121235
6.88158e-05
-4.45805e-05
6.22815e-05
-4.28491e-05
6.1265e-05
-4.07814e-05
6.29132e-05
-4.05491e-05
6.43215e-05
-4.28826e-05
6.53215e-05
-4.82313e-05
6.62854e-05
-5.15355e-05
6.70796e-05
-5.61186e-05
7.0418e-05
-6.25144e-05
7.36715e-05
-6.68593e-05
7.46672e-05
-7.55368e-05
7.33447e-05
-8.34786e-05
7.30505e-05
-9.29908e-05
7.59491e-05
-0.000108812
7.28275e-05
-0.000112923
6.34783e-05
-0.000109504
4.57985e-05
-8.99346e-05
1.86481e-05
-6.9839e-05
-0.000102605
6.62941e-05
-3.65645e-05
6.18292e-05
-3.8374e-05
6.08016e-05
-3.97511e-05
6.1264e-05
-4.10104e-05
6.14243e-05
-4.30412e-05
6.19649e-05
-4.87716e-05
6.27349e-05
-5.23051e-05
6.26029e-05
-5.59862e-05
6.38666e-05
-6.37778e-05
6.66249e-05
-6.96173e-05
6.68944e-05
-7.58059e-05
6.51274e-05
-8.17112e-05
6.6339e-05
-9.4201e-05
6.81944e-05
-0.000110668
6.60711e-05
-0.000110801
5.8022e-05
-0.000101456
3.74146e-05
-6.93271e-05
1.2192e-05
-4.46034e-05
-9.04294e-05
6.47306e-05
-3.14049e-05
6.14553e-05
-3.50946e-05
5.95582e-05
-3.78529e-05
5.87209e-05
-4.01728e-05
5.84505e-05
-4.27708e-05
5.83571e-05
-4.86783e-05
5.82715e-05
-5.22194e-05
5.83101e-05
-5.60247e-05
5.80496e-05
-6.35171e-05
5.9358e-05
-7.09254e-05
5.90745e-05
-7.55223e-05
5.80226e-05
-8.06588e-05
6.12162e-05
-9.73946e-05
6.02846e-05
-0.000109739
5.56557e-05
-0.000106172
4.09997e-05
-8.67968e-05
1.49795e-05
-4.32945e-05
-6.74327e-08
-2.95652e-05
-9.04969e-05
6.26644e-05
-2.78461e-05
5.96236e-05
-3.20528e-05
5.73553e-05
-3.55844e-05
5.62062e-05
-3.90239e-05
5.54579e-05
-4.20227e-05
5.47451e-05
-4.79658e-05
5.39309e-05
-5.14052e-05
5.39636e-05
-5.60575e-05
5.34158e-05
-6.29691e-05
5.23215e-05
-6.9831e-05
5.10666e-05
-7.42672e-05
5.15425e-05
-8.1134e-05
5.32554e-05
-9.91091e-05
5.07444e-05
-0.000107231
4.44347e-05
-9.98678e-05
2.3121e-05
-6.54737e-05
3.2489e-07
-2.04963e-05
-2.24036e-06
-2.70133e-05
-9.27287e-05
5.92871e-05
-2.49408e-05
5.66741e-05
-2.94398e-05
5.44439e-05
-3.33545e-05
5.31049e-05
-3.76854e-05
5.21494e-05
-4.10676e-05
5.06046e-05
-4.64213e-05
5.01932e-05
-5.0994e-05
4.89714e-05
-5.48357e-05
4.80357e-05
-6.20334e-05
4.6176e-05
-6.79712e-05
4.40895e-05
-7.21804e-05
4.35571e-05
-8.06018e-05
3.88842e-05
-9.44425e-05
3.15446e-05
-9.99084e-05
1.85199e-05
-8.69488e-05
-9.84261e-07
-4.60633e-05
-9.76654e-06
-1.17367e-05
-1.46672e-06
-3.5344e-05
-9.41921e-05
5.54189e-05
-2.24652e-05
5.32361e-05
-2.72572e-05
5.13308e-05
-3.14496e-05
4.96067e-05
-3.59617e-05
4.87023e-05
-4.01637e-05
4.6919e-05
-4.46383e-05
4.58683e-05
-4.99434e-05
4.49643e-05
-5.39318e-05
4.25654e-05
-5.96345e-05
4.01543e-05
-6.556e-05
3.87924e-05
-7.08185e-05
3.458e-05
-7.63903e-05
2.58255e-05
-8.56972e-05
1.49371e-05
-8.90424e-05
1.05006e-06
-7.30091e-05
-9.66867e-06
-3.5627e-05
-6.42274e-06
-1.5162e-05
2.88864e-06
-4.48404e-05
-9.1299e-05
5.15085e-05
-2.04353e-05
4.95701e-05
-2.5319e-05
4.79068e-05
-2.97868e-05
4.61724e-05
-3.42277e-05
4.4922e-05
-3.89137e-05
4.33068e-05
-4.30234e-05
4.17218e-05
-4.83587e-05
4.04883e-05
-5.26983e-05
3.8268e-05
-5.74142e-05
3.58514e-05
-6.31433e-05
3.30096e-05
-6.79769e-05
2.84649e-05
-7.1846e-05
1.98481e-05
-7.70887e-05
9.12469e-06
-7.83259e-05
-1.98067e-06
-6.17694e-05
-5.68027e-06
-3.2012e-05
3.24516e-06
-2.44408e-05
7.1879e-06
-4.87364e-05
-8.41084e-05
4.75191e-05
-1.87491e-05
4.58162e-05
-2.36162e-05
4.42256e-05
-2.81966e-05
4.26567e-05
-3.26592e-05
4.10711e-05
-3.73285e-05
3.97358e-05
-4.16885e-05
3.78374e-05
-4.64605e-05
3.62069e-05
-5.10679e-05
3.46516e-05
-5.58589e-05
3.15129e-05
-6.00046e-05
2.83836e-05
-6.48475e-05
2.6053e-05
-6.95153e-05
2.00013e-05
-7.10403e-05
1.10269e-05
-6.93522e-05
2.23285e-06
-5.29645e-05
3.21726e-06
-3.257e-05
1.08567e-05
-3.1968e-05
9.20238e-06
-4.69358e-05
-7.49089e-05
4.35513e-05
-1.73053e-05
4.20463e-05
-2.21114e-05
4.05094e-05
-2.666e-05
3.90385e-05
-3.11887e-05
3.74002e-05
-3.56906e-05
3.59108e-05
-4.01994e-05
3.42287e-05
-4.47786e-05
3.23062e-05
-4.91455e-05
3.07466e-05
-5.42993e-05
2.84194e-05
-5.76773e-05
2.62677e-05
-6.26957e-05
2.45225e-05
-6.77699e-05
2.12021e-05
-6.77211e-05
1.56545e-05
-6.38051e-05
1.07959e-05
-4.80998e-05
1.11055e-05
-3.27793e-05
1.24204e-05
-3.29626e-05
8.8823e-06
-4.33792e-05
-6.60315e-05
3.9647e-05
-1.60337e-05
3.82642e-05
-2.07287e-05
3.6839e-05
-2.52352e-05
3.53497e-05
-2.96998e-05
3.38299e-05
-3.41712e-05
3.21739e-05
-3.85436e-05
3.05692e-05
-4.31741e-05
2.8786e-05
-4.73624e-05
2.69271e-05
-5.24404e-05
2.53557e-05
-5.61058e-05
2.39863e-05
-6.13262e-05
2.34037e-05
-6.71872e-05
2.24067e-05
-6.67242e-05
1.99255e-05
-6.13232e-05
1.61005e-05
-4.42726e-05
1.38487e-05
-3.05218e-05
1.13123e-05
-3.03804e-05
8.81559e-06
-4.08818e-05
-5.72154e-05
3.58297e-05
-1.48882e-05
3.4556e-05
-1.94551e-05
3.31905e-05
-2.38701e-05
3.17584e-05
-2.8268e-05
3.02013e-05
-3.26144e-05
2.86308e-05
-3.69734e-05
2.68405e-05
-4.13839e-05
2.51528e-05
-4.56749e-05
2.3498e-05
-5.07856e-05
2.18196e-05
-5.44273e-05
2.09224e-05
-6.04289e-05
2.1901e-05
-6.81657e-05
2.23649e-05
-6.71881e-05
2.04526e-05
-5.94105e-05
1.62573e-05
-4.00763e-05
1.25354e-05
-2.67941e-05
8.18779e-06
-2.60271e-05
6.50603e-06
-3.91999e-05
-5.07087e-05
3.21073e-05
-1.38372e-05
3.09183e-05
-1.82663e-05
2.96297e-05
-2.25818e-05
2.82258e-05
-2.68644e-05
2.67094e-05
-3.10982e-05
2.50616e-05
-3.53258e-05
2.32886e-05
-3.9611e-05
2.14191e-05
-4.38054e-05
1.94371e-05
-4.88037e-05
1.78144e-05
-5.28046e-05
1.65424e-05
-5.91569e-05
1.65515e-05
-6.81748e-05
1.72629e-05
-6.78994e-05
1.47411e-05
-5.68886e-05
1.07485e-05
-3.60817e-05
6.21629e-06
-2.22573e-05
3.60344e-06
-2.34108e-05
5.70252e-06
-4.12982e-05
-4.50059e-05
2.85012e-05
-1.28628e-05
2.73855e-05
-1.71508e-05
2.61503e-05
-2.13468e-05
2.47971e-05
-2.55115e-05
2.32995e-05
-2.96009e-05
2.16357e-05
-3.36622e-05
1.97882e-05
-3.77636e-05
1.76957e-05
-4.1713e-05
1.52221e-05
-4.63301e-05
1.26611e-05
-5.02436e-05
9.73666e-06
-5.62325e-05
5.34089e-06
-6.3779e-05
8.57009e-07
-6.34156e-05
-2.42038e-06
-5.36111e-05
-4.28586e-06
-3.42164e-05
-4.32518e-06
-2.22178e-05
-1.522e-07
-2.7583e-05
3.23882e-06
-4.46891e-05
-4.17669e-05
2.49974e-05
-1.19455e-05
2.39513e-05
-1.61048e-05
2.27824e-05
-2.01782e-05
2.14761e-05
-2.42053e-05
2.00227e-05
-2.81476e-05
1.83633e-05
-3.2003e-05
1.64776e-05
-3.58779e-05
1.41864e-05
-3.94218e-05
1.13824e-05
-4.3526e-05
7.84299e-06
-4.67042e-05
2.3849e-06
-5.07744e-05
-5.8431e-06
-5.5551e-05
-1.26486e-05
-5.66101e-05
-1.60716e-05
-5.0188e-05
-1.60029e-05
-3.42859e-05
-9.87847e-06
-2.83412e-05
-9.58431e-07
-3.65028e-05
1.03082e-06
-4.66784e-05
-4.07361e-05
2.16039e-05
-1.10785e-05
2.06116e-05
-1.51127e-05
1.95111e-05
-1.90779e-05
1.82721e-05
-2.29665e-05
1.68882e-05
-2.67638e-05
1.52937e-05
-3.04086e-05
1.34371e-05
-3.40213e-05
1.11686e-05
-3.71533e-05
8.14809e-06
-4.05056e-05
3.89886e-06
-4.2455e-05
-1.85491e-06
-4.50207e-05
-8.8231e-06
-4.85828e-05
-1.50357e-05
-5.03975e-05
-1.74977e-05
-4.77255e-05
-1.48243e-05
-3.69576e-05
-6.39139e-06
-3.67737e-05
4.73187e-07
-4.33672e-05
2.65913e-07
-4.6471e-05
-4.04701e-05
1.83064e-05
-1.02525e-05
1.73761e-05
-1.41825e-05
1.63393e-05
-1.80412e-05
1.5191e-05
-2.18183e-05
1.38954e-05
-2.54683e-05
1.24378e-05
-2.89511e-05
1.07107e-05
-3.22943e-05
8.63399e-06
-3.50767e-05
5.85188e-06
-3.77235e-05
2.80564e-06
-3.94088e-05
-8.12597e-07
-4.14024e-05
-5.76082e-06
-4.36346e-05
-1.10829e-05
-4.50753e-05
-1.1686e-05
-4.71222e-05
-6.29877e-06
-4.2345e-05
1.33254e-07
-4.32057e-05
1.5292e-06
-4.47631e-05
2.01262e-07
-4.5143e-05
-4.02689e-05
1.50912e-05
-9.46042e-06
1.42168e-05
-1.33082e-05
1.32597e-05
-1.70842e-05
1.22056e-05
-2.07641e-05
1.10337e-05
-2.42965e-05
9.70683e-06
-2.76242e-05
8.09839e-06
-3.06859e-05
6.20235e-06
-3.31807e-05
4.33982e-06
-3.5861e-05
3.06252e-06
-3.81316e-05
1.48393e-06
-3.98239e-05
3.50491e-07
-4.25012e-05
-9.85769e-07
-4.37391e-05
3.7106e-07
-4.84791e-05
4.01908e-06
-4.5993e-05
5.36191e-06
-4.45485e-05
3.75214e-06
-4.31533e-05
1.61651e-06
-4.30074e-05
-3.86523e-05
1.19532e-05
-8.6993e-06
1.11339e-05
-1.24889e-05
1.02588e-05
-1.62093e-05
9.31136e-06
-1.98167e-05
8.26407e-06
-2.32493e-05
7.01226e-06
-2.63725e-05
5.70805e-06
-2.93818e-05
4.76969e-06
-3.22424e-05
4.09727e-06
-3.51886e-05
4.02306e-06
-3.80574e-05
3.84114e-06
-3.9642e-05
5.75542e-06
-4.44155e-05
7.50075e-06
-4.54844e-05
7.29413e-06
-4.82724e-05
7.87391e-06
-4.65728e-05
7.91226e-06
-4.45869e-05
6.23073e-06
-4.14718e-05
3.55798e-06
-4.03345e-05
-3.50943e-05
8.86141e-06
-7.94738e-06
8.08885e-06
-1.17164e-05
7.27845e-06
-1.53989e-05
6.39185e-06
-1.89302e-05
5.47652e-06
-2.2334e-05
4.7881e-06
-2.56841e-05
4.52186e-06
-2.91156e-05
4.69446e-06
-3.2415e-05
4.86881e-06
-3.5363e-05
5.9799e-06
-3.91686e-05
7.54432e-06
-4.12064e-05
9.18063e-06
-4.60518e-05
1.0204e-05
-4.65078e-05
9.53778e-06
-4.76062e-05
9.00735e-06
-4.60423e-05
8.56203e-06
-4.41416e-05
7.02448e-06
-3.99342e-05
4.22529e-06
-3.75353e-05
-3.0869e-05
5.81132e-06
-7.16507e-06
5.04458e-06
-1.09497e-05
4.29942e-06
-1.46538e-05
3.78845e-06
-1.84192e-05
3.70487e-06
-2.22504e-05
4.06123e-06
-2.60405e-05
4.65035e-06
-2.97048e-05
5.73623e-06
-3.3501e-05
6.9678e-06
-3.65947e-05
8.88941e-06
-4.10902e-05
1.05756e-05
-4.28927e-05
1.06136e-05
-4.60899e-05
1.06249e-05
-4.65192e-05
9.80851e-06
-4.67899e-05
8.85032e-06
-4.50842e-05
7.73981e-06
-4.30311e-05
5.44968e-06
-3.7644e-05
2.73128e-06
-3.48169e-05
-2.81377e-05
2.8989e-06
-6.37254e-06
2.36185e-06
-1.04127e-05
2.28143e-06
-1.45734e-05
2.64135e-06
-1.87792e-05
3.32978e-06
-2.29389e-05
4.40306e-06
-2.71138e-05
5.70162e-06
-3.10034e-05
7.42631e-06
-3.52257e-05
8.94927e-06
-3.81177e-05
1.01378e-05
-4.22788e-05
1.10539e-05
-4.38088e-05
1.0829e-05
-4.5865e-05
1.03192e-05
-4.60094e-05
9.17415e-06
-4.56449e-05
7.40896e-06
-4.3319e-05
5.45955e-06
-4.10817e-05
3.03782e-06
-3.52223e-05
1.13501e-06
-3.29141e-05
-2.70027e-05
5.75827e-07
1.07931e-06
1.77665e-06
2.67075e-06
3.77103e-06
5.07317e-06
6.49414e-06
7.99538e-06
9.41149e-06
1.03578e-05
1.10196e-05
1.08441e-05
1.00407e-05
8.73951e-06
6.91801e-06
4.92565e-06
2.98453e-06
1.29628e-06
)
;

boundaryField
{
    leftWall
    {
        type            fixedValue;
        value           nonuniform 0();
    }
    rightWall
    {
        type            fixedValue;
        value           uniform 0;
    }
    lowerWall
    {
        type            fixedValue;
        value           nonuniform 0();
    }
    atmosphere
    {
        type            calculated;
        value           nonuniform List<scalar> 
23
(
4.58467e-07
-1.9765e-07
-8.89941e-07
-1.61053e-06
-6.66335e-06
-1.09162e-05
-1.52707e-05
-1.96733e-05
-2.40392e-05
-2.8416e-05
-3.24243e-05
-3.6727e-05
-3.95338e-05
-4.32251e-05
-4.44706e-05
-4.56896e-05
-4.5206e-05
-4.43437e-05
-4.14975e-05
-3.90893e-05
-3.32812e-05
-3.12258e-05
-2.57064e-05
)
;
    }
    defaultFaces
    {
        type            empty;
        value           nonuniform 0();
    }
    procBoundary3to1
    {
        type            processor;
        value           nonuniform List<scalar> 
23
(
2.80794e-05
3.59931e-05
4.05125e-05
4.67919e-05
0.00011941
0.000106652
7.05682e-05
4.44555e-05
4.37728e-05
5.05035e-05
5.24061e-05
5.04218e-05
4.19333e-05
4.39827e-05
5.81595e-05
7.48022e-05
8.75479e-05
0.000107794
0.000155708
0.000185533
0.000182285
0.000157181
0.000172264
)
;
    }
    procBoundary3to2
    {
        type            processor;
        value           nonuniform List<scalar> 
25
(
-0.000182624
-0.000146316
-0.000119774
-0.000101559
-8.88174e-05
-7.9637e-05
-7.25611e-05
-6.67395e-05
-6.14912e-05
-5.63873e-05
-5.1571e-05
-4.69823e-05
-4.26445e-05
-3.85023e-05
-3.45489e-05
-3.07643e-05
-2.71316e-05
-2.36362e-05
-2.0267e-05
-1.69868e-05
-1.38448e-05
-1.08572e-05
-7.89092e-06
-4.99229e-06
-2.9192e-07
)
;
    }
}


// ************************************************************************* //
