/*--------------------------------*- C++ -*----------------------------------*\
| =========                 |                                                 |
| \\      /  F ield         | OpenFOAM: The Open Source CFD Toolbox           |
|  \\    /   O peration     | Version:  2.4.0                                 |
|   \\  /    A nd           | Web:      www.OpenFOAM.org                      |
|    \\/     M anipulation  |                                                 |
\*---------------------------------------------------------------------------*/
FoamFile
{
    version     2.0;
    format      ascii;
    class       surfaceScalarField;
    location    "0.95";
    object      phi.oil;
}
// * * * * * * * * * * * * * * * * * * * * * * * * * * * * * * * * * * * * * //

dimensions      [0 3 -1 0 0 0 0];

internalField   nonuniform List<scalar> 
1102
(
0.000164094
-1.93983e-05
0.000172505
-2.91799e-05
0.000165972
-3.37111e-05
-3.94218e-05
0.000154953
0.000143375
-2.12557e-05
0.000138767
-2.57395e-05
0.000132067
-2.84682e-05
-3.20261e-05
0.000119651
0.000116095
-1.76124e-05
0.000110675
-2.03346e-05
0.000104011
-2.21683e-05
-2.43775e-05
9.26061e-05
9.74988e-05
-1.35211e-05
9.25813e-05
-1.54252e-05
8.67226e-05
-1.6814e-05
-1.82498e-05
8.0731e-05
8.56068e-05
-1.03531e-05
8.20746e-05
-1.18624e-05
7.82928e-05
-1.29807e-05
-1.41821e-05
7.39013e-05
7.74235e-05
-8.10233e-06
7.49501e-05
-9.3518e-06
7.2422e-05
-1.04697e-05
-1.16067e-05
6.98749e-05
7.10529e-05
-6.58786e-06
6.94595e-05
-7.75845e-06
6.78886e-05
-8.89324e-06
-9.91617e-06
6.62268e-05
6.56745e-05
-5.52014e-06
6.45377e-05
-6.61767e-06
6.33857e-05
-7.73426e-06
-8.7154e-06
6.21939e-05
6.06535e-05
-4.67952e-06
5.97685e-05
-5.73016e-06
5.88371e-05
-6.80068e-06
-7.77097e-06
5.78951e-05
5.57462e-05
-4.03678e-06
5.50518e-05
-5.03449e-06
5.43052e-05
-6.05297e-06
-7.0034e-06
5.35387e-05
5.10346e-05
-3.49959e-06
5.04672e-05
-4.46631e-06
4.98493e-05
-5.43459e-06
-6.35903e-06
4.92054e-05
4.65428e-05
-3.05979e-06
4.60613e-05
-3.98454e-06
4.55425e-05
-4.91563e-06
-5.81154e-06
4.49952e-05
4.22644e-05
-2.67969e-06
4.1851e-05
-3.57107e-06
4.13994e-05
-4.46393e-06
-5.3307e-06
4.09186e-05
3.81708e-05
-2.34822e-06
3.78057e-05
-3.206e-06
3.74052e-05
-4.06336e-06
-4.90069e-06
3.69752e-05
3.425e-05
-2.04931e-06
3.39169e-05
-2.87288e-06
3.35511e-05
-3.69756e-06
-4.50797e-06
3.31584e-05
3.04854e-05
-1.77037e-06
3.01779e-05
-2.56541e-06
2.98398e-05
-3.35941e-06
-4.14379e-06
2.94756e-05
2.68679e-05
-1.50667e-06
2.65769e-05
-2.27438e-06
2.62581e-05
-3.04058e-06
-3.80037e-06
2.59147e-05
2.3382e-05
-1.25252e-06
2.31027e-05
-1.99514e-06
2.27977e-05
-2.73547e-06
-3.47368e-06
2.2471e-05
2.00174e-05
-1.00298e-06
1.97442e-05
-1.72192e-06
1.94483e-05
-2.43953e-06
-3.15792e-06
1.91325e-05
1.67447e-05
-7.60809e-07
1.64786e-05
-1.45584e-06
1.61908e-05
-2.15173e-06
-2.85048e-06
1.58833e-05
1.35771e-05
-4.9313e-07
1.3301e-05
-1.17975e-06
1.30149e-05
-1.86558e-06
-2.54997e-06
1.27144e-05
1.05587e-05
-1.94594e-07
1.02463e-05
-8.67349e-07
9.92928e-06
-1.54858e-06
-2.23406e-06
9.61336e-06
7.57789e-06
1.1843e-07
7.25383e-06
-5.43288e-07
6.9265e-06
-1.22125e-06
-1.90124e-06
6.59366e-06
4.68615e-06
4.24592e-07
4.37722e-06
-2.34371e-07
4.03818e-06
-8.82215e-07
-1.55454e-06
3.69146e-06
2.58038e-07
2.21313e-07
2.2903e-07
2.85014e-07
0.000128489
-0.000100623
0.000114453
-8.51622e-05
0.00010246
-5.23964e-05
8.81493e-05
-3.93539e-05
8.16537e-05
-3.88832e-05
7.92237e-05
-4.47255e-05
7.59584e-05
-4.9487e-05
7.70352e-05
-5.13386e-05
8.55204e-05
-5.03966e-05
9.56332e-05
-5.37403e-05
0.000100805
-6.27569e-05
0.000103141
-7.71669e-05
0.000107856
-8.3168e-05
0.000109296
-0.000105341
9.873e-05
-0.000141721
6.00906e-05
-0.000156681
2.59271e-05
-0.00015393
1.54763e-05
-0.000144224
-0.000160204
9.88879e-05
-7.65554e-05
7.85107e-05
-6.2004e-05
7.08955e-05
-4.27603e-05
6.77437e-05
-3.34673e-05
6.7694e-05
-3.68946e-05
7.21543e-05
-4.5416e-05
7.30418e-05
-4.98547e-05
7.52736e-05
-5.32536e-05
8.02234e-05
-5.53372e-05
8.71709e-05
-6.09605e-05
9.52913e-05
-7.14782e-05
0.000100435
-8.36021e-05
0.000103089
-9.32518e-05
9.91852e-05
-0.000106995
8.26252e-05
-0.000126161
5.39981e-05
-0.000134975
2.37829e-05
-0.000127708
1.7177e-05
-0.000111564
-0.000144313
7.70565e-05
-5.70777e-05
6.6025e-05
-4.7951e-05
6.26604e-05
-4.08272e-05
6.45391e-05
-3.81946e-05
6.74712e-05
-4.09466e-05
6.94301e-05
-4.70369e-05
7.03468e-05
-5.05573e-05
7.24866e-05
-5.53302e-05
7.63389e-05
-5.9165e-05
7.893e-05
-6.36022e-05
8.17059e-05
-7.45496e-05
8.25899e-05
-8.48182e-05
8.24347e-05
-9.3309e-05
8.1308e-05
-0.000105877
7.09235e-05
-0.000115857
5.0242e-05
-0.000117271
3.06471e-05
-0.000108529
1.94102e-05
-0.000100113
-0.000125767
6.89844e-05
-4.4843e-05
6.24126e-05
-4.29803e-05
6.12465e-05
-4.07324e-05
6.28228e-05
-4.04884e-05
6.43035e-05
-4.2897e-05
6.53062e-05
-4.82421e-05
6.62855e-05
-5.15442e-05
6.70799e-05
-5.61252e-05
7.04164e-05
-6.25156e-05
7.36716e-05
-6.68616e-05
7.46718e-05
-7.55427e-05
7.33179e-05
-8.34934e-05
7.307e-05
-9.30488e-05
7.5897e-05
-0.000109023
7.16298e-05
-0.000112944
6.06896e-05
-0.00010728
4.22212e-05
-9.10326e-05
1.773e-05
-7.3322e-05
-0.000107561
6.63461e-05
-3.67696e-05
6.18678e-05
-3.84592e-05
6.07913e-05
-3.97788e-05
6.12536e-05
-4.10304e-05
6.14325e-05
-4.30525e-05
6.19631e-05
-4.87773e-05
6.27361e-05
-5.23072e-05
6.26032e-05
-5.59876e-05
6.38671e-05
-6.37788e-05
6.66287e-05
-6.96193e-05
6.68871e-05
-7.58138e-05
6.51096e-05
-8.17298e-05
6.62279e-05
-9.42714e-05
6.80232e-05
-0.000108969
6.26902e-05
-0.000107977
5.73228e-05
-0.000101608
3.5486e-05
-7.15257e-05
1.19658e-05
-4.84834e-05
-9.59135e-05
6.47458e-05
-3.14815e-05
6.14772e-05
-3.51417e-05
5.95657e-05
-3.78779e-05
5.87222e-05
-4.01824e-05
5.84524e-05
-4.27745e-05
5.83572e-05
-4.86795e-05
5.82716e-05
-5.222e-05
5.83102e-05
-5.6025e-05
5.80497e-05
-6.35176e-05
5.93622e-05
-7.09274e-05
5.90615e-05
-7.55315e-05
5.80292e-05
-8.06982e-05
5.91231e-05
-9.75064e-05
5.97299e-05
-0.000108517
5.39229e-05
-8.48331e-05
4.07112e-05
-8.78248e-05
1.42482e-05
-4.589e-05
4.00297e-07
-3.51008e-05
-9.56677e-05
6.26681e-05
-2.78649e-05
5.96298e-05
-3.20637e-05
5.73565e-05
-3.55895e-05
5.62069e-05
-3.90257e-05
5.54581e-05
-4.20234e-05
5.47451e-05
-4.7966e-05
5.39309e-05
-5.14054e-05
5.39637e-05
-5.60576e-05
5.34155e-05
-6.29695e-05
5.23208e-05
-6.98329e-05
5.10595e-05
-7.42787e-05
5.15571e-05
-8.11844e-05
4.69376e-05
-9.92042e-05
3.84428e-05
-0.000108501
4.19461e-05
-0.000101841
2.38207e-05
-6.45886e-05
8.31788e-07
-2.4629e-05
-2.12104e-06
-3.45019e-05
-9.24623e-05
5.92882e-05
-2.49454e-05
5.66754e-05
-2.94422e-05
5.44442e-05
-3.33556e-05
5.31051e-05
-3.76858e-05
5.21495e-05
-4.10678e-05
5.06046e-05
-4.64213e-05
5.01932e-05
-5.0994e-05
4.89713e-05
-5.48358e-05
4.80363e-05
-6.20338e-05
4.61668e-05
-6.79731e-05
4.40921e-05
-7.21942e-05
4.35343e-05
-8.06728e-05
3.20354e-05
-9.44947e-05
1.99274e-05
-0.000101159
2.04985e-05
-0.000117918
3.05249e-06
-7.31947e-05
-8.43511e-06
-2.13951e-05
-7.01884e-07
-5.16984e-05
-0.000103087
5.54194e-05
-2.24669e-05
5.32364e-05
-2.7258e-05
5.13309e-05
-3.14499e-05
4.96067e-05
-3.59618e-05
4.87023e-05
-4.01637e-05
4.6919e-05
-4.46383e-05
4.58683e-05
-4.99435e-05
4.49642e-05
-5.39319e-05
4.2564e-05
-5.96349e-05
4.01547e-05
-6.55626e-05
3.87566e-05
-7.08381e-05
3.44744e-05
-7.64648e-05
1.96914e-05
-8.57719e-05
9.20957e-06
-9.11342e-05
4.65494e-06
-0.000105147
-4.94578e-06
-8.61361e-05
-3.1412e-06
-5.00516e-05
4.19595e-06
-8.47003e-05
-9.97717e-05
5.15087e-05
-2.04359e-05
4.95701e-05
-2.53192e-05
4.79069e-05
-2.97868e-05
4.61724e-05
-3.42277e-05
4.4922e-05
-3.89137e-05
4.33068e-05
-4.30234e-05
4.17218e-05
-4.83587e-05
4.04883e-05
-5.26985e-05
3.82661e-05
-5.74148e-05
3.58501e-05
-6.3147e-05
3.29329e-05
-6.7997e-05
2.8318e-05
-7.19514e-05
1.51788e-05
-7.72749e-05
5.34923e-06
-8.03313e-05
2.88157e-07
-6.53822e-05
-7.75835e-07
-8.87122e-05
6.00651e-06
-8.1456e-05
7.4048e-06
-8.21167e-05
-8.34955e-05
4.75192e-05
-1.87493e-05
4.58162e-05
-2.36163e-05
4.42256e-05
-2.81966e-05
4.26567e-05
-3.26592e-05
4.10711e-05
-3.73285e-05
3.97358e-05
-4.16885e-05
3.78374e-05
-4.64605e-05
3.62069e-05
-5.10681e-05
3.46493e-05
-5.586e-05
3.14985e-05
-6.00098e-05
2.83273e-05
-6.48787e-05
2.59175e-05
-6.96367e-05
1.6727e-05
-7.13295e-05
9.31352e-06
-7.11586e-05
2.41696e-06
-5.72609e-05
5.77253e-06
-5.50923e-05
1.13559e-05
-8.39345e-05
8.70143e-06
-5.83117e-05
-7.7222e-05
4.35513e-05
-1.73053e-05
4.20463e-05
-2.21114e-05
4.05094e-05
-2.666e-05
3.90385e-05
-3.11887e-05
3.74002e-05
-3.56906e-05
3.59108e-05
-4.01994e-05
3.42286e-05
-4.47787e-05
3.2306e-05
-4.91458e-05
3.07439e-05
-5.43012e-05
2.84034e-05
-5.76885e-05
2.62009e-05
-6.274e-05
2.44247e-05
-6.79276e-05
1.88322e-05
-6.80583e-05
1.40585e-05
-6.55387e-05
9.90339e-06
-5.16701e-05
1.03219e-05
-3.7676e-05
1.14818e-05
-4.88185e-05
8.9009e-06
-4.82429e-05
-6.85877e-05
3.9647e-05
-1.60337e-05
3.82642e-05
-2.07287e-05
3.6839e-05
-2.52352e-05
3.53497e-05
-2.96998e-05
3.38299e-05
-3.41712e-05
3.21739e-05
-3.85436e-05
3.05691e-05
-4.31742e-05
2.87854e-05
-4.73629e-05
2.69224e-05
-5.24435e-05
2.53423e-05
-5.61222e-05
2.38803e-05
-6.14006e-05
2.33703e-05
-6.74247e-05
2.04706e-05
-6.66439e-05
1.90436e-05
-6.3114e-05
1.57048e-05
-4.75266e-05
1.39516e-05
-3.48277e-05
1.15338e-05
-3.51464e-05
8.63415e-06
-4.47266e-05
-5.89329e-05
3.58297e-05
-1.48882e-05
3.4556e-05
-1.94551e-05
3.31905e-05
-2.38701e-05
3.17584e-05
-2.8268e-05
3.02013e-05
-3.26144e-05
2.86308e-05
-3.69734e-05
2.68403e-05
-4.1384e-05
2.51521e-05
-4.56755e-05
2.34901e-05
-5.07903e-05
2.17914e-05
-5.4454e-05
2.08054e-05
-6.05283e-05
2.17016e-05
-6.84866e-05
2.10288e-05
-6.69116e-05
2.0187e-05
-6.14913e-05
1.60654e-05
-4.32499e-05
1.26041e-05
-3.07391e-05
8.4352e-06
-3.03355e-05
6.07167e-06
-4.19241e-05
-5.2036e-05
3.21073e-05
-1.38372e-05
3.09183e-05
-1.82663e-05
2.96297e-05
-2.25818e-05
2.82258e-05
-2.68644e-05
2.67094e-05
-3.10982e-05
2.50616e-05
-3.53258e-05
2.32884e-05
-3.96111e-05
2.14173e-05
-4.38063e-05
1.94267e-05
-4.88101e-05
1.77773e-05
-5.28404e-05
1.6288e-05
-5.92938e-05
1.58068e-05
-6.85395e-05
1.65865e-05
-6.88683e-05
1.46863e-05
-5.94888e-05
1.08676e-05
-3.92177e-05
6.35357e-06
-2.61944e-05
3.66727e-06
-2.71624e-05
5.10044e-06
-4.2806e-05
-4.50466e-05
2.85012e-05
-1.28628e-05
2.73855e-05
-1.71508e-05
2.61503e-05
-2.13468e-05
2.47971e-05
-2.55115e-05
2.32995e-05
-2.96009e-05
2.16357e-05
-3.36622e-05
1.97879e-05
-3.77638e-05
1.7693e-05
-4.17141e-05
1.52042e-05
-4.63382e-05
1.26042e-05
-5.02897e-05
9.20801e-06
-5.6397e-05
4.56655e-06
-6.42688e-05
3.06689e-07
-6.56778e-05
-2.34239e-06
-5.58728e-05
-4.17011e-06
-3.8962e-05
-4.16619e-06
-2.9842e-05
-1.62055e-07
-2.99528e-05
2.53611e-06
-4.40527e-05
-4.20055e-05
2.49974e-05
-1.19455e-05
2.39513e-05
-1.61048e-05
2.27824e-05
-2.01782e-05
2.14761e-05
-2.42053e-05
2.00227e-05
-2.81476e-05
1.83633e-05
-3.2003e-05
1.64772e-05
-3.58781e-05
1.41834e-05
-3.94231e-05
1.13544e-05
-4.35354e-05
7.76454e-06
-4.67593e-05
1.62036e-06
-5.09829e-05
-6.41828e-06
-5.64808e-05
-1.25751e-05
-5.93627e-05
-1.53759e-05
-5.29351e-05
-1.56795e-05
-4.15899e-05
-1.05958e-05
-3.13708e-05
-1.06448e-06
-3.66396e-05
8.43212e-07
-4.65432e-05
-4.07965e-05
2.16039e-05
-1.10785e-05
2.06116e-05
-1.51127e-05
1.95111e-05
-1.90779e-05
1.82721e-05
-2.29665e-05
1.68882e-05
-2.67638e-05
1.52937e-05
-3.04086e-05
1.34367e-05
-3.40215e-05
1.11659e-05
-3.71546e-05
8.12303e-06
-4.05143e-05
3.8044e-06
-4.25015e-05
-2.40042e-06
-4.51819e-05
-9.10471e-06
-4.91968e-05
-1.51375e-05
-5.20727e-05
-1.57876e-05
-4.93638e-05
-1.42124e-05
-3.59157e-05
-7.84445e-06
-3.57273e-05
8.71042e-07
-4.31847e-05
1.30914e-07
-4.65063e-05
-4.05037e-05
1.83064e-05
-1.02525e-05
1.73761e-05
-1.41825e-05
1.63393e-05
-1.80412e-05
1.5191e-05
-2.18183e-05
1.38954e-05
-2.54683e-05
1.24378e-05
-2.89511e-05
1.07104e-05
-3.22944e-05
8.63289e-06
-3.50775e-05
5.84339e-06
-3.77282e-05
2.78616e-06
-3.9425e-05
-1.06707e-06
-4.1455e-05
-6.14479e-06
-4.36053e-05
-1.12036e-05
-4.52454e-05
-1.16411e-05
-4.64576e-05
-6.50316e-06
-4.16484e-05
-3.22554e-07
-4.24527e-05
1.97171e-06
-4.48824e-05
1.55105e-07
-4.52231e-05
-4.02872e-05
1.50912e-05
-9.46042e-06
1.42168e-05
-1.33082e-05
1.32597e-05
-1.70842e-05
1.22056e-05
-2.07641e-05
1.10337e-05
-2.42965e-05
9.70681e-06
-2.76242e-05
8.09821e-06
-3.0686e-05
6.20181e-06
-3.31812e-05
4.3372e-06
-3.58637e-05
3.06219e-06
-3.81398e-05
1.43291e-06
-3.984e-05
3.44116e-07
-4.25171e-05
-1.05131e-06
-4.32676e-05
4.15734e-07
-4.77045e-05
3.93795e-06
-4.48906e-05
5.21855e-06
-4.43113e-05
3.98159e-06
-4.32739e-05
1.59446e-06
-4.30619e-05
-3.8666e-05
1.19532e-05
-8.6993e-06
1.11339e-05
-1.24889e-05
1.02588e-05
-1.62093e-05
9.31136e-06
-1.98167e-05
8.26407e-06
-2.32493e-05
7.01225e-06
-2.63725e-05
5.70793e-06
-2.93818e-05
4.76972e-06
-3.22428e-05
4.09608e-06
-3.51906e-05
4.02367e-06
-3.80628e-05
3.83687e-06
-3.96481e-05
5.8849e-06
-4.44188e-05
7.49073e-06
-4.53612e-05
7.29731e-06
-4.8253e-05
7.88021e-06
-4.65551e-05
7.88547e-06
-4.46056e-05
6.29863e-06
-4.15231e-05
3.55367e-06
-4.03687e-05
-3.51085e-05
8.86141e-06
-7.94738e-06
8.08885e-06
-1.17164e-05
7.27845e-06
-1.53989e-05
6.39185e-06
-1.89302e-05
5.47652e-06
-2.2334e-05
4.7881e-06
-2.56841e-05
4.52183e-06
-2.91156e-05
4.69468e-06
-3.24153e-05
4.86847e-06
-3.53642e-05
5.97988e-06
-3.91703e-05
7.54432e-06
-4.12079e-05
9.18826e-06
-4.60534e-05
1.01968e-05
-4.6515e-05
9.53874e-06
-4.76264e-05
9.01179e-06
-4.60658e-05
8.55856e-06
-4.4164e-05
7.03148e-06
-3.99568e-05
4.2249e-06
-3.7554e-05
-3.08807e-05
5.81132e-06
-7.16507e-06
5.04458e-06
-1.09497e-05
4.29942e-06
-1.46538e-05
3.78845e-06
-1.84192e-05
3.70487e-06
-2.22504e-05
4.06123e-06
-2.60405e-05
4.65036e-06
-2.97048e-05
5.73641e-06
-3.35011e-05
6.96779e-06
-3.65948e-05
8.88931e-06
-4.10904e-05
1.05757e-05
-4.28929e-05
1.06138e-05
-4.60901e-05
1.06236e-05
-4.65201e-05
9.80872e-06
-4.67953e-05
8.85078e-06
-4.50924e-05
7.74006e-06
-4.30391e-05
5.44939e-06
-3.76536e-05
2.73089e-06
-3.48264e-05
-2.81441e-05
2.8989e-06
-6.37254e-06
2.36185e-06
-1.04127e-05
2.28143e-06
-1.45734e-05
2.64135e-06
-1.87792e-05
3.32978e-06
-2.29389e-05
4.40307e-06
-2.71138e-05
5.70163e-06
-3.10034e-05
7.42631e-06
-3.52257e-05
8.94927e-06
-3.81177e-05
1.01377e-05
-4.22788e-05
1.10539e-05
-4.38089e-05
1.0829e-05
-4.58651e-05
1.0319e-05
-4.60095e-05
9.17416e-06
-4.56453e-05
7.40864e-06
-4.33198e-05
5.45969e-06
-4.10829e-05
3.03706e-06
-3.52243e-05
1.13482e-06
-3.29166e-05
-2.70047e-05
5.75827e-07
1.07931e-06
1.77665e-06
2.67075e-06
3.77103e-06
5.07318e-06
6.49414e-06
7.99538e-06
9.41149e-06
1.03578e-05
1.10196e-05
1.08441e-05
1.00407e-05
8.73951e-06
6.91795e-06
4.9257e-06
2.98435e-06
1.29629e-06
)
;

boundaryField
{
    leftWall
    {
        type            fixedValue;
        value           nonuniform 0();
    }
    rightWall
    {
        type            fixedValue;
        value           uniform 0;
    }
    lowerWall
    {
        type            fixedValue;
        value           nonuniform 0();
    }
    atmosphere
    {
        type            calculated;
        value           nonuniform List<scalar> 
23
(
4.58467e-07
-1.9765e-07
-8.89941e-07
-1.61053e-06
-6.66335e-06
-1.09162e-05
-1.52707e-05
-1.96733e-05
-2.40392e-05
-2.8416e-05
-3.24243e-05
-3.6727e-05
-3.95338e-05
-4.32251e-05
-4.44706e-05
-4.56896e-05
-4.5206e-05
-4.43437e-05
-4.14975e-05
-3.90893e-05
-3.32813e-05
-3.12259e-05
-2.57064e-05
)
;
    }
    defaultFaces
    {
        type            empty;
        value           nonuniform 0();
    }
    procBoundary3to1
    {
        type            processor;
        value           nonuniform List<scalar> 
23
(
1.62221e-05
2.20825e-05
3.88471e-05
4.60457e-05
0.000110573
9.3352e-05
7.62066e-05
5.19518e-05
4.77211e-05
5.19911e-05
5.30814e-05
5.07584e-05
4.13414e-05
4.23896e-05
5.42054e-05
6.12015e-05
7.22319e-05
8.72488e-05
0.000149388
0.000185646
0.000181599
0.000169395
0.000163074
)
;
    }
    procBoundary3to2
    {
        type            processor;
        value           nonuniform List<scalar> 
25
(
-0.000166814
-0.00014627
-0.000119775
-0.00010153
-8.87849e-05
-7.96389e-05
-7.2562e-05
-6.67405e-05
-6.14918e-05
-5.63875e-05
-5.15711e-05
-4.69824e-05
-4.26445e-05
-3.85023e-05
-3.45489e-05
-3.07643e-05
-2.71316e-05
-2.36362e-05
-2.0267e-05
-1.69868e-05
-1.38448e-05
-1.08572e-05
-7.89092e-06
-4.99229e-06
-2.9192e-07
)
;
    }
}


// ************************************************************************* //
