/*--------------------------------*- C++ -*----------------------------------*\
| =========                 |                                                 |
| \\      /  F ield         | OpenFOAM: The Open Source CFD Toolbox           |
|  \\    /   O peration     | Version:  2.4.0                                 |
|   \\  /    A nd           | Web:      www.OpenFOAM.org                      |
|    \\/     M anipulation  |                                                 |
\*---------------------------------------------------------------------------*/
FoamFile
{
    version     2.0;
    format      ascii;
    class       surfaceScalarField;
    location    "0.95";
    object      phi.air;
}
// * * * * * * * * * * * * * * * * * * * * * * * * * * * * * * * * * * * * * //

dimensions      [0 3 -1 0 0 0 0];

internalField   nonuniform List<scalar> 
1102
(
0.000178422
-2.41163e-05
0.000172613
-3.01961e-05
0.000166096
-3.397e-05
-3.95363e-05
0.000158873
0.000143423
-2.12228e-05
0.000138896
-2.56688e-05
0.000133304
-2.83784e-05
-3.2013e-05
0.000125781
0.000116105
-1.7554e-05
0.0001107
-2.02641e-05
0.00010442
-2.20975e-05
-2.42907e-05
9.66973e-05
9.7507e-05
-1.35018e-05
9.26159e-05
-1.5373e-05
8.7234e-05
-1.67156e-05
-1.81444e-05
8.10877e-05
8.5622e-05
-1.03068e-05
8.20592e-05
-1.18102e-05
7.82837e-05
-1.29402e-05
-1.41561e-05
7.42954e-05
7.74181e-05
-8.08889e-06
7.495e-05
-9.34216e-06
7.24662e-05
-1.04564e-05
-1.15712e-05
6.98813e-05
7.10516e-05
-6.5807e-06
6.94595e-05
-7.7501e-06
6.78856e-05
-8.88239e-06
-9.90542e-06
6.62198e-05
6.56724e-05
-5.51494e-06
6.45355e-05
-6.61321e-06
6.33836e-05
-7.73049e-06
-8.71228e-06
6.21904e-05
6.06517e-05
-4.67692e-06
5.97666e-05
-5.72813e-06
5.88353e-05
-6.79911e-06
-7.76981e-06
5.78928e-05
5.57447e-05
-4.03574e-06
5.50503e-05
-5.03372e-06
5.43036e-05
-6.05244e-06
-7.00306e-06
5.35369e-05
5.10332e-05
-3.49937e-06
5.04657e-05
-4.46619e-06
4.98478e-05
-5.43453e-06
-6.35903e-06
4.92038e-05
4.65415e-05
-3.05988e-06
4.60599e-05
-3.98462e-06
4.55411e-05
-4.91572e-06
-5.81163e-06
4.49938e-05
4.22631e-05
-2.67984e-06
4.18497e-05
-3.5712e-06
4.13981e-05
-4.46405e-06
-5.3308e-06
4.09172e-05
3.81696e-05
-2.34836e-06
3.78045e-05
-3.20612e-06
3.74039e-05
-4.06347e-06
-4.90078e-06
3.69739e-05
3.42489e-05
-2.04945e-06
3.39157e-05
-2.873e-06
3.35499e-05
-3.69765e-06
-4.50804e-06
3.31572e-05
3.04843e-05
-1.77049e-06
3.01769e-05
-2.56551e-06
2.98387e-05
-3.35949e-06
-4.14385e-06
2.94746e-05
2.6867e-05
-1.50679e-06
2.6576e-05
-2.27448e-06
2.62571e-05
-3.04064e-06
-3.80041e-06
2.59137e-05
2.33812e-05
-1.25262e-06
2.31019e-05
-1.99522e-06
2.27968e-05
-2.73553e-06
-3.47371e-06
2.24701e-05
2.00167e-05
-1.00308e-06
1.97435e-05
-1.72199e-06
1.94476e-05
-2.43958e-06
-3.15794e-06
1.91318e-05
1.6744e-05
-7.60897e-07
1.6478e-05
-1.4559e-06
1.61902e-05
-2.15177e-06
-2.85049e-06
1.58827e-05
1.35766e-05
-4.93213e-07
1.33005e-05
-1.17981e-06
1.30144e-05
-1.86561e-06
-2.54998e-06
1.27139e-05
1.05583e-05
-1.94675e-07
1.02459e-05
-8.67404e-07
9.92889e-06
-1.54861e-06
-2.23407e-06
9.61299e-06
7.5776e-06
1.18353e-07
7.25354e-06
-5.43344e-07
6.92622e-06
-1.22128e-06
-1.90125e-06
6.5934e-06
4.68597e-06
4.24513e-07
4.37705e-06
-2.34421e-07
4.03802e-06
-8.82239e-07
-1.55454e-06
3.69131e-06
2.57981e-07
2.21256e-07
2.28979e-07
2.84968e-07
0.000139678
-0.000100179
0.00011781
-8.4781e-05
0.000101211
-5.39425e-05
9.30342e-05
-3.62396e-05
8.6032e-05
-3.67161e-05
7.95565e-05
-4.3984e-05
7.62954e-05
-4.9126e-05
7.70746e-05
-5.11878e-05
8.54511e-05
-5.04497e-05
9.55235e-05
-5.41258e-05
0.000100989
-6.35881e-05
0.000104952
-7.87628e-05
0.000108214
-9.07956e-05
0.000111308
-0.000110854
9.81679e-05
-0.000142465
6.93761e-05
-0.000156588
3.93039e-05
-0.000152098
1.44696e-05
-0.000132318
-0.000157784
0.000101427
-7.58252e-05
7.81382e-05
-6.14921e-05
6.89977e-05
-4.4802e-05
6.9536e-05
-3.67779e-05
7.12301e-05
-3.84102e-05
7.26153e-05
-4.53692e-05
7.32736e-05
-4.97843e-05
7.53215e-05
-5.32357e-05
8.01953e-05
-5.53235e-05
8.70995e-05
-6.10301e-05
9.52779e-05
-7.17665e-05
0.000100425
-8.39104e-05
0.000103069
-9.34395e-05
9.91862e-05
-0.000106971
8.28155e-05
-0.000126094
6.13072e-05
-0.00013508
3.54578e-05
-0.000126249
1.76085e-05
-0.000114469
-0.000140176
7.77066e-05
-5.68346e-05
6.5586e-05
-4.93716e-05
6.25722e-05
-4.17882e-05
6.46908e-05
-3.88965e-05
6.77547e-05
-4.1474e-05
6.96164e-05
-4.72309e-05
7.04051e-05
-5.0573e-05
7.24948e-05
-5.53255e-05
7.63481e-05
-5.91768e-05
7.89242e-05
-6.36061e-05
8.1698e-05
-7.45404e-05
8.25863e-05
-8.47987e-05
8.24292e-05
-9.32824e-05
8.13654e-05
-0.000105907
7.13062e-05
-0.000116035
5.50709e-05
-0.000118845
3.64239e-05
-0.000107602
1.89534e-05
-9.69984e-05
-0.000121222
6.88127e-05
-4.45597e-05
6.22751e-05
-4.28339e-05
6.12619e-05
-4.07751e-05
6.29125e-05
-4.05471e-05
6.432e-05
-4.28815e-05
6.53208e-05
-4.82317e-05
6.6284e-05
-5.15363e-05
6.70778e-05
-5.61192e-05
7.04157e-05
-6.25147e-05
7.36686e-05
-6.6859e-05
7.46639e-05
-7.55357e-05
7.33417e-05
-8.34766e-05
7.30466e-05
-9.29873e-05
7.5946e-05
-0.000108806
7.28271e-05
-0.000112916
6.34776e-05
-0.000109495
4.58008e-05
-8.99249e-05
1.86291e-05
-6.98266e-05
-0.000102593
6.62912e-05
-3.65555e-05
6.18261e-05
-3.83688e-05
6.08003e-05
-3.97492e-05
6.12633e-05
-4.10101e-05
6.14235e-05
-4.30417e-05
6.19642e-05
-4.87724e-05
6.27338e-05
-5.23059e-05
6.26014e-05
-5.59868e-05
6.38647e-05
-6.3778e-05
6.66227e-05
-6.9617e-05
6.68919e-05
-7.5805e-05
6.51248e-05
-8.17095e-05
6.63355e-05
-9.4198e-05
6.81922e-05
-0.000110663
6.60701e-05
-0.000110794
5.80209e-05
-0.000101446
3.74118e-05
-6.93158e-05
1.21729e-05
-4.45877e-05
-9.04205e-05
6.47288e-05
-3.1403e-05
6.14535e-05
-3.50935e-05
5.9557e-05
-3.78527e-05
5.87201e-05
-4.01732e-05
5.84498e-05
-4.27714e-05
5.83565e-05
-4.86791e-05
5.82706e-05
-5.222e-05
5.8309e-05
-5.60252e-05
5.80481e-05
-6.35172e-05
5.93562e-05
-7.09251e-05
5.90726e-05
-7.55214e-05
5.80203e-05
-8.06571e-05
6.12135e-05
-9.73913e-05
6.02835e-05
-0.000109733
5.56571e-05
-0.000106167
4.10004e-05
-8.67896e-05
1.49699e-05
-4.32852e-05
-7.02153e-08
-2.95476e-05
-9.04907e-05
6.26628e-05
-2.7846e-05
5.96222e-05
-3.20529e-05
5.73542e-05
-3.55848e-05
5.62054e-05
-3.90244e-05
5.54573e-05
-4.20233e-05
5.47445e-05
-4.79663e-05
5.39302e-05
-5.14057e-05
5.39627e-05
-5.60577e-05
5.34146e-05
-6.29692e-05
5.23202e-05
-6.98306e-05
5.10651e-05
-7.42664e-05
5.15405e-05
-8.11325e-05
5.32554e-05
-9.91062e-05
5.07471e-05
-0.000107224
4.44372e-05
-9.98573e-05
2.31181e-05
-6.54704e-05
3.13451e-07
-2.04806e-05
-2.23337e-06
-2.70008e-05
-9.27241e-05
5.92855e-05
-2.4941e-05
5.66727e-05
-2.94401e-05
5.44428e-05
-3.33549e-05
5.31041e-05
-3.76857e-05
5.21488e-05
-4.1068e-05
5.06041e-05
-4.64216e-05
5.01926e-05
-5.09943e-05
4.89707e-05
-5.48358e-05
4.80349e-05
-6.20333e-05
4.6175e-05
-6.79708e-05
4.40882e-05
-7.21797e-05
4.35561e-05
-8.06003e-05
3.88897e-05
-9.44399e-05
3.15676e-05
-9.99023e-05
1.85219e-05
-8.68111e-05
-9.98834e-07
-4.59492e-05
-9.76406e-06
-1.17153e-05
-1.45809e-06
-3.53066e-05
-9.41821e-05
5.54173e-05
-2.24655e-05
5.32347e-05
-2.72575e-05
5.13297e-05
-3.14498e-05
4.96059e-05
-3.59619e-05
4.87018e-05
-4.01639e-05
4.69186e-05
-4.46385e-05
4.58678e-05
-4.99435e-05
4.49638e-05
-5.39318e-05
4.25647e-05
-5.96343e-05
4.01535e-05
-6.55596e-05
3.87916e-05
-7.08178e-05
3.45801e-05
-7.63888e-05
2.58346e-05
-8.56944e-05
1.49661e-05
-8.90336e-05
1.03156e-06
-7.28768e-05
-9.68987e-06
-3.52266e-05
-6.4186e-06
-1.49859e-05
2.89195e-06
-4.46164e-05
-9.12902e-05
5.1507e-05
-2.04356e-05
4.95687e-05
-2.53192e-05
4.79057e-05
-2.97869e-05
4.61716e-05
-3.42278e-05
4.49214e-05
-3.89138e-05
4.33064e-05
-4.30234e-05
4.17215e-05
-4.83587e-05
4.04879e-05
-5.26982e-05
3.82675e-05
-5.74139e-05
3.58508e-05
-6.31429e-05
3.30092e-05
-6.79762e-05
2.84651e-05
-7.18448e-05
1.98562e-05
-7.70854e-05
9.13965e-06
-7.83171e-05
-1.99111e-06
-6.17467e-05
-5.72064e-06
-3.14968e-05
3.23064e-06
-2.39359e-05
7.18566e-06
-4.85716e-05
-8.41046e-05
4.75176e-05
-1.87494e-05
4.58148e-05
-2.36164e-05
4.42245e-05
-2.81966e-05
4.26559e-05
-3.26592e-05
4.10706e-05
-3.73285e-05
3.97355e-05
-4.16884e-05
3.78372e-05
-4.64604e-05
3.62066e-05
-5.10677e-05
3.46512e-05
-5.58585e-05
3.15125e-05
-6.00041e-05
2.83831e-05
-6.48468e-05
2.60527e-05
-6.95144e-05
2.00056e-05
-7.10383e-05
1.10347e-05
-6.93462e-05
2.239e-06
-5.2951e-05
3.19816e-06
-3.24576e-05
1.08554e-05
-3.15936e-05
9.19872e-06
-4.69155e-05
-7.49058e-05
4.35499e-05
-1.73055e-05
4.2045e-05
-2.21114e-05
4.05084e-05
-2.666e-05
3.90378e-05
-3.11886e-05
3.73997e-05
-3.56904e-05
3.59105e-05
-4.01992e-05
3.42285e-05
-4.47784e-05
3.2306e-05
-4.91452e-05
3.07463e-05
-5.42989e-05
2.8419e-05
-5.76768e-05
2.62673e-05
-6.26951e-05
2.45221e-05
-6.77692e-05
2.12038e-05
-6.772e-05
1.56588e-05
-6.38013e-05
1.07981e-05
-4.80903e-05
1.11067e-05
-3.27666e-05
1.24218e-05
-3.29099e-05
8.87731e-06
-4.3371e-05
-6.60285e-05
3.96457e-05
-1.60339e-05
3.82629e-05
-2.07287e-05
3.6838e-05
-2.52351e-05
3.5349e-05
-2.96996e-05
3.38295e-05
-3.41709e-05
3.21736e-05
-3.85433e-05
3.0569e-05
-4.31737e-05
2.87859e-05
-4.73621e-05
2.69269e-05
-5.244e-05
2.53555e-05
-5.61053e-05
2.3986e-05
-6.13256e-05
2.34033e-05
-6.71865e-05
2.24068e-05
-6.67234e-05
1.99267e-05
-6.13212e-05
1.61028e-05
-4.42665e-05
1.38483e-05
-3.0512e-05
1.13084e-05
-3.03703e-05
8.81515e-06
-4.08778e-05
-5.72134e-05
3.58285e-05
-1.48883e-05
3.45549e-05
-1.94551e-05
3.31896e-05
-2.38699e-05
3.17578e-05
-2.82677e-05
3.02009e-05
-3.26141e-05
2.86306e-05
-3.6973e-05
2.68403e-05
-4.13835e-05
2.51527e-05
-4.56744e-05
2.34979e-05
-5.07852e-05
2.18194e-05
-5.44269e-05
2.09222e-05
-6.04284e-05
2.19007e-05
-6.81651e-05
2.23647e-05
-6.71874e-05
2.0453e-05
-5.94094e-05
1.62589e-05
-4.00725e-05
1.25344e-05
-2.67874e-05
8.18577e-06
-2.60217e-05
6.50605e-06
-3.91981e-05
-5.07074e-05
3.21061e-05
-1.38372e-05
3.09173e-05
-1.82662e-05
2.96289e-05
-2.25815e-05
2.82253e-05
-2.68641e-05
2.6709e-05
-3.10978e-05
2.50614e-05
-3.53254e-05
2.32884e-05
-3.96105e-05
2.1419e-05
-4.38049e-05
1.9437e-05
-4.88032e-05
1.78142e-05
-5.28041e-05
1.65422e-05
-5.91564e-05
1.65513e-05
-6.81742e-05
1.72627e-05
-6.78988e-05
1.4741e-05
-5.68877e-05
1.07487e-05
-3.60802e-05
6.21589e-06
-2.22546e-05
3.60329e-06
-2.34091e-05
5.70253e-06
-4.12973e-05
-4.50048e-05
2.85001e-05
-1.28628e-05
2.73846e-05
-1.71507e-05
2.61496e-05
-2.13466e-05
2.47966e-05
-2.55111e-05
2.32992e-05
-2.96004e-05
2.16355e-05
-3.36617e-05
1.97881e-05
-3.77631e-05
1.76956e-05
-4.17125e-05
1.5222e-05
-4.63296e-05
1.2661e-05
-5.02431e-05
9.73653e-06
-5.62319e-05
5.34075e-06
-6.37784e-05
8.56851e-07
-6.34149e-05
-2.42062e-06
-5.36102e-05
-4.28603e-06
-3.42148e-05
-4.32534e-06
-2.22153e-05
-1.52255e-07
-2.75822e-05
3.23877e-06
-4.46884e-05
-4.17661e-05
2.49965e-05
-1.19455e-05
2.39505e-05
-1.61047e-05
2.27818e-05
-2.01779e-05
2.14756e-05
-2.4205e-05
2.00224e-05
-2.81472e-05
1.83631e-05
-3.20025e-05
1.64775e-05
-3.58774e-05
1.41863e-05
-3.94213e-05
1.13823e-05
-4.35255e-05
7.8429e-06
-4.67037e-05
2.38483e-06
-5.07738e-05
-5.84316e-06
-5.55504e-05
-1.26487e-05
-5.66094e-05
-1.60718e-05
-5.01871e-05
-1.60031e-05
-3.42835e-05
-9.87837e-06
-2.834e-05
-9.58473e-07
-3.65021e-05
1.03077e-06
-4.66776e-05
-4.07353e-05
2.16031e-05
-1.10784e-05
2.06109e-05
-1.51125e-05
1.95106e-05
-1.90776e-05
1.82717e-05
-2.29661e-05
1.68879e-05
-2.67634e-05
1.52935e-05
-3.04081e-05
1.34369e-05
-3.40208e-05
1.11685e-05
-3.71528e-05
8.14801e-06
-4.0505e-05
3.8988e-06
-4.24545e-05
-1.85494e-06
-4.50201e-05
-8.82311e-06
-4.85822e-05
-1.50357e-05
-5.03968e-05
-1.7498e-05
-4.77248e-05
-1.48244e-05
-3.69571e-05
-6.3913e-06
-3.67731e-05
4.73166e-07
-4.33666e-05
2.65886e-07
-4.64703e-05
-4.04694e-05
1.83058e-05
-1.02524e-05
1.73755e-05
-1.41823e-05
1.63389e-05
-1.80409e-05
1.51907e-05
-2.18179e-05
1.38951e-05
-2.54678e-05
1.24376e-05
-2.89506e-05
1.07106e-05
-3.22938e-05
8.6339e-06
-3.50762e-05
5.85182e-06
-3.7723e-05
2.80562e-06
-3.94083e-05
-8.12593e-07
-4.14019e-05
-5.76079e-06
-4.3634e-05
-1.10828e-05
-4.50748e-05
-1.1686e-05
-4.71217e-05
-6.29872e-06
-4.23444e-05
1.33289e-07
-4.32052e-05
1.5292e-06
-4.47625e-05
2.01249e-07
-4.51424e-05
-4.02682e-05
1.50907e-05
-9.46035e-06
1.42164e-05
-1.3308e-05
1.32594e-05
-1.70839e-05
1.22053e-05
-2.07637e-05
1.10335e-05
-2.42961e-05
9.70666e-06
-2.76238e-05
8.09827e-06
-3.06854e-05
6.20227e-06
-3.31801e-05
4.33978e-06
-3.58605e-05
3.06251e-06
-3.8131e-05
1.48395e-06
-3.98233e-05
3.50544e-07
-4.25006e-05
-9.85694e-07
-4.37385e-05
3.71123e-07
-4.84785e-05
4.01913e-06
-4.59924e-05
5.36194e-06
-4.4548e-05
3.75216e-06
-4.31527e-05
1.61652e-06
-4.30067e-05
-3.86517e-05
1.19528e-05
-8.69923e-06
1.11335e-05
-1.24887e-05
1.02585e-05
-1.6209e-05
9.31111e-06
-1.98163e-05
8.26388e-06
-2.32488e-05
7.01212e-06
-2.6372e-05
5.70795e-06
-2.93813e-05
4.76964e-06
-3.22418e-05
4.09724e-06
-3.51881e-05
4.02307e-06
-3.80569e-05
3.84118e-06
-3.96414e-05
5.75546e-06
-4.44149e-05
7.5008e-06
-4.54839e-05
7.29417e-06
-4.82719e-05
7.87394e-06
-4.65722e-05
7.91228e-06
-4.45863e-05
6.23075e-06
-4.14712e-05
3.55798e-06
-4.03339e-05
-3.50937e-05
8.86107e-06
-7.94731e-06
8.08855e-06
-1.17162e-05
7.27821e-06
-1.53986e-05
6.39165e-06
-1.89298e-05
5.47637e-06
-2.23335e-05
4.78799e-06
-2.56836e-05
4.52178e-06
-2.9115e-05
4.69442e-06
-3.24145e-05
4.8688e-06
-3.53625e-05
5.97992e-06
-3.9168e-05
7.54436e-06
-4.12059e-05
9.18068e-06
-4.60513e-05
1.0204e-05
-4.65072e-05
9.53781e-06
-4.76057e-05
9.00737e-06
-4.60417e-05
8.56204e-06
-4.4141e-05
7.02449e-06
-3.99336e-05
4.22528e-06
-3.75347e-05
-3.08684e-05
5.81108e-06
-7.16499e-06
5.04437e-06
-1.09495e-05
4.29924e-06
-1.46535e-05
3.78831e-06
-1.84188e-05
3.70476e-06
-2.225e-05
4.06115e-06
-2.604e-05
4.6503e-06
-2.97042e-05
5.73621e-06
-3.35004e-05
6.9678e-06
-3.65941e-05
8.88942e-06
-4.10896e-05
1.05756e-05
-4.28921e-05
1.06136e-05
-4.60892e-05
1.0625e-05
-4.65186e-05
9.80853e-06
-4.67892e-05
8.85033e-06
-4.50836e-05
7.73981e-06
-4.30305e-05
5.44967e-06
-3.76435e-05
2.73127e-06
-3.48163e-05
-2.81371e-05
2.89876e-06
-6.37244e-06
2.36173e-06
-1.04124e-05
2.28133e-06
-1.45731e-05
2.64127e-06
-1.87788e-05
3.32972e-06
-2.29384e-05
4.40302e-06
-2.71133e-05
5.7016e-06
-3.10028e-05
7.4263e-06
-3.52251e-05
8.94927e-06
-3.8117e-05
1.01378e-05
-4.22781e-05
1.10539e-05
-4.38082e-05
1.0829e-05
-4.58644e-05
1.03192e-05
-4.60088e-05
9.17415e-06
-4.56442e-05
7.40896e-06
-4.33184e-05
5.45954e-06
-4.10811e-05
3.03782e-06
-3.52218e-05
1.135e-06
-3.29135e-05
-2.70021e-05
5.75786e-07
1.07928e-06
1.77662e-06
2.67074e-06
3.77103e-06
5.07317e-06
6.49414e-06
7.99539e-06
9.4115e-06
1.03578e-05
1.10196e-05
1.08441e-05
1.00407e-05
8.73951e-06
6.918e-06
4.92564e-06
2.98452e-06
1.29627e-06
)
;

boundaryField
{
    leftWall
    {
        type            fixedValue;
        value           nonuniform 0();
    }
    rightWall
    {
        type            fixedValue;
        value           uniform 0;
    }
    lowerWall
    {
        type            fixedValue;
        value           nonuniform 0();
    }
    atmosphere
    {
        type            calculated;
        value           nonuniform List<scalar> 
23
(
4.58397e-07
-1.97694e-07
-8.89958e-07
-1.61052e-06
-6.66325e-06
-1.09159e-05
-1.52704e-05
-1.96729e-05
-2.40387e-05
-2.84154e-05
-3.24237e-05
-3.67263e-05
-3.95331e-05
-4.32244e-05
-4.44699e-05
-4.56889e-05
-4.52053e-05
-4.43431e-05
-4.14969e-05
-3.90887e-05
-3.32806e-05
-3.12253e-05
-2.57058e-05
)
;
    }
    defaultFaces
    {
        type            empty;
        value           nonuniform 0();
    }
    procBoundary3to1
    {
        type            processor;
        value           nonuniform List<scalar> 
23
(
2.83227e-05
3.60051e-05
4.04869e-05
4.67593e-05
0.000119374
0.000106649
7.05415e-05
4.44166e-05
4.37184e-05
5.04596e-05
5.23871e-05
5.04087e-05
4.20731e-05
4.40534e-05
5.81221e-05
7.48004e-05
8.75329e-05
0.00010776
0.000155604
0.00018538
0.00018217
0.000157152
0.000172254
)
;
    }
    procBoundary3to2
    {
        type            processor;
        value           nonuniform List<scalar> 
25
(
-0.000182628
-0.000146317
-0.000119774
-0.000101559
-8.8817e-05
-7.9636e-05
-7.25598e-05
-6.67381e-05
-6.14898e-05
-5.63858e-05
-5.15696e-05
-4.6981e-05
-4.26432e-05
-3.8501e-05
-3.45478e-05
-3.07633e-05
-2.71307e-05
-2.36353e-05
-2.02663e-05
-1.69862e-05
-1.38443e-05
-1.08568e-05
-7.89063e-06
-4.99212e-06
-2.91857e-07
)
;
    }
}


// ************************************************************************* //
