/*--------------------------------*- C++ -*----------------------------------*\
| =========                 |                                                 |
| \\      /  F ield         | OpenFOAM: The Open Source CFD Toolbox           |
|  \\    /   O peration     | Version:  2.4.0                                 |
|   \\  /    A nd           | Web:      www.OpenFOAM.org                      |
|    \\/     M anipulation  |                                                 |
\*---------------------------------------------------------------------------*/
FoamFile
{
    version     2.0;
    format      ascii;
    class       volVectorField;
    location    "0.95";
    object      U.mercury;
}
// * * * * * * * * * * * * * * * * * * * * * * * * * * * * * * * * * * * * * //

dimensions      [0 1 -1 0 0 0 0];

internalField   nonuniform List<vector> 
575
(
(0.959582 -0.313838 0)
(0.928341 -0.389486 0)
(0.908607 -0.434925 0)
(0.87686 -0.50283 0)
(0.770484 -0.269529 0)
(0.751628 -0.327536 0)
(0.734884 -0.365043 0)
(0.696321 -0.41336 0)
(0.632031 -0.235622 0)
(0.60472 -0.272767 0)
(0.580368 -0.297016 0)
(0.538478 -0.326074 0)
(0.533355 -0.180038 0)
(0.507206 -0.202536 0)
(0.483867 -0.219282 0)
(0.450418 -0.236309 0)
(0.467127 -0.135457 0)
(0.448541 -0.154356 0)
(0.430086 -0.168198 0)
(0.409248 -0.182219 0)
(0.420894 -0.104457 0)
(0.407316 -0.119086 0)
(0.394902 -0.131448 0)
(0.382761 -0.144548 0)
(0.38452 -0.0827944 0)
(0.376388 -0.0966681 0)
(0.367446 -0.109707 0)
(0.361166 -0.121665 0)
(0.354768 -0.0692062 0)
(0.349193 -0.0819144 0)
(0.342136 -0.0949415 0)
(0.338312 -0.106106 0)
(0.327418 -0.057876 0)
(0.322809 -0.0701626 0)
(0.317803 -0.0828464 0)
(0.313879 -0.0939656 0)
(0.300733 -0.0498157 0)
(0.297025 -0.0615339 0)
(0.293223 -0.0735014 0)
(0.289879 -0.0844266 0)
(0.275155 -0.0430699 0)
(0.272191 -0.0542727 0)
(0.269075 -0.0656587 0)
(0.266208 -0.0763223 0)
(0.250813 -0.0375533 0)
(0.248388 -0.0483576 0)
(0.245784 -0.0592351 0)
(0.24325 -0.0696081 0)
(0.227663 -0.0328658 0)
(0.225675 -0.0432307 0)
(0.223375 -0.0536891 0)
(0.221156 -0.0637255 0)
(0.205576 -0.0288256 0)
(0.203887 -0.0388147 0)
(0.201828 -0.0488514 0)
(0.199811 -0.0585576 0)
(0.184464 -0.0252159 0)
(0.18298 -0.0348328 0)
(0.181071 -0.0444724 0)
(0.179208 -0.0538741 0)
(0.164243 -0.0219166 0)
(0.162873 -0.0311737 0)
(0.161068 -0.040461 0)
(0.159341 -0.0495496 0)
(0.144824 -0.0188201 0)
(0.143509 -0.0277594 0)
(0.141787 -0.0366996 0)
(0.140158 -0.0455108 0)
(0.126125 -0.0158657 0)
(0.124822 -0.0245081 0)
(0.123177 -0.033133 0)
(0.121609 -0.0416826 0)
(0.108087 -0.012963 0)
(0.106771 -0.0213428 0)
(0.105183 -0.0297017 0)
(0.103642 -0.0380153 0)
(0.0905313 -0.0100843 0)
(0.089214 -0.018192 0)
(0.0876909 -0.0263106 0)
(0.0861618 -0.0344258 0)
(0.0736109 -0.00745859 0)
(0.0721864 -0.0153135 0)
(0.0706446 -0.0231644 0)
(0.0691128 -0.0310266 0)
(0.0575029 -0.00372022 0)
(0.055846 -0.0115882 0)
(0.0541693 -0.0194583 0)
(0.0524774 -0.0273183 0)
(0.0415755 -0.000861417 0)
(0.0398716 -0.00858471 0)
(0.038104 -0.016391 0)
(0.036333 -0.0242482 0)
(0.0260332 0.00389303 0)
(0.0243944 -0.00343563 0)
(0.0226558 -0.0108711 0)
(0.0207903 -0.0184055 0)
(0.00143405 0.0052327 0)
(0.00128095 -0.00224829 0)
(0.0011509 -0.0101419 0)
(0.00131445 -0.0183603 0)
(0.79916 -0.55271 0)
(0.705107 -0.493913 0)
(0.599114 -0.294835 0)
(0.520429 -0.17965 0)
(0.476774 -0.187707 0)
(0.429823 -0.22053 0)
(0.409971 -0.243198 0)
(0.408854 -0.246516 0)
(0.426649 -0.226995 0)
(0.477122 -0.225409 0)
(0.540872 -0.274378 0)
(0.547489 -0.381477 0)
(0.56794 -0.44623 0)
(0.577867 -0.537499 0)
(0.616813 -0.704631 0)
(0.478697 -0.810289 0)
(0.301158 -0.798259 0)
(0.126553 -0.68314 0)
(0.0166359 -0.813699 0)
(0.616056 -0.429418 0)
(0.478991 -0.328608 0)
(0.387614 -0.223056 0)
(0.371944 -0.170698 0)
(0.377874 -0.17454 0)
(0.383262 -0.212076 0)
(0.387387 -0.235709 0)
(0.397684 -0.247993 0)
(0.415681 -0.259801 0)
(0.434827 -0.294311 0)
(0.492729 -0.33793 0)
(0.524051 -0.386661 0)
(0.544423 -0.428333 0)
(0.560361 -0.516866 0)
(0.50148 -0.641798 0)
(0.409436 -0.688534 0)
(0.27796 -0.668689 0)
(0.111245 -0.598093 0)
(0.0685152 -0.715352 0)
(0.462869 -0.311746 0)
(0.381939 -0.258933 0)
(0.340288 -0.204331 0)
(0.341736 -0.181889 0)
(0.358207 -0.192301 0)
(0.368652 -0.223523 0)
(0.374448 -0.241916 0)
(0.38097 -0.263748 0)
(0.397276 -0.277501 0)
(0.419172 -0.300736 0)
(0.417882 -0.364188 0)
(0.445265 -0.425899 0)
(0.436478 -0.478427 0)
(0.443619 -0.539971 0)
(0.423546 -0.602515 0)
(0.351576 -0.626491 0)
(0.266202 -0.564149 0)
(0.129893 -0.520494 0)
(0.0661324 -0.634899 0)
(0.397057 -0.242284 0)
(0.350198 -0.223756 0)
(0.330358 -0.202155 0)
(0.33379 -0.194745 0)
(0.347119 -0.206542 0)
(0.344909 -0.229486 0)
(0.354966 -0.244997 0)
(0.358125 -0.270201 0)
(0.361726 -0.294875 0)
(0.394899 -0.319494 0)
(0.387016 -0.365891 0)
(0.406391 -0.409779 0)
(0.376862 -0.449233 0)
(0.402874 -0.510022 0)
(0.406861 -0.551967 0)
(0.372595 -0.551502 0)
(0.335575 -0.484534 0)
(0.164062 -0.409752 0)
(0.0287846 -0.535143 0)
(0.372615 -0.195932 0)
(0.345313 -0.197095 0)
(0.327844 -0.196337 0)
(0.32822 -0.198658 0)
(0.334572 -0.20599 0)
(0.327519 -0.23377 0)
(0.33894 -0.250013 0)
(0.335721 -0.270291 0)
(0.337973 -0.308426 0)
(0.34452 -0.329407 0)
(0.366487 -0.370502 0)
(0.349576 -0.41002 0)
(0.342463 -0.464185 0)
(0.363658 -0.551924 0)
(0.357818 -0.552379 0)
(0.343014 -0.521156 0)
(0.300927 -0.396151 0)
(0.114676 -0.269657 0)
(0.0145651 -0.45007 0)
(0.357009 -0.162873 0)
(0.343443 -0.17861 0)
(0.324205 -0.189838 0)
(0.316962 -0.196975 0)
(0.318436 -0.207974 0)
(0.311307 -0.235219 0)
(0.316347 -0.254304 0)
(0.313103 -0.268846 0)
(0.313244 -0.30843 0)
(0.309567 -0.346463 0)
(0.326057 -0.372752 0)
(0.308849 -0.392437 0)
(0.318796 -0.457995 0)
(0.326062 -0.537672 0)
(0.313028 -0.533777 0)
(0.279651 -0.47487 0)
(0.172667 -0.298949 0)
(0.00311601 -0.174795 0)
(-0.00432294 -0.442215 0)
(0.342627 -0.144363 0)
(0.334161 -0.163827 0)
(0.310851 -0.178576 0)
(0.307085 -0.19175 0)
(0.300653 -0.204964 0)
(0.296718 -0.234614 0)
(0.292976 -0.249126 0)
(0.289236 -0.272561 0)
(0.2915 -0.305754 0)
(0.282534 -0.341896 0)
(0.278755 -0.365273 0)
(0.275399 -0.397562 0)
(0.288381 -0.496644 0)
(0.272822 -0.537135 0)
(0.258024 -0.513001 0)
(0.21981 -0.386276 0)
(0.0383898 -0.13806 0)
(-0.0315458 -0.125228 0)
(0.00475329 -0.450003 0)
(0.323738 -0.1283 0)
(0.3157 -0.149394 0)
(0.295785 -0.167007 0)
(0.290625 -0.186126 0)
(0.283219 -0.200791 0)
(0.278447 -0.22848 0)
(0.267128 -0.247399 0)
(0.27459 -0.268784 0)
(0.253753 -0.303938 0)
(0.261738 -0.336932 0)
(0.237041 -0.358622 0)
(0.243974 -0.394652 0)
(0.230976 -0.476449 0)
(0.178944 -0.514126 0)
(0.146064 -0.474551 0)
(0.0528416 -0.272337 0)
(-0.0616846 -0.0704611 0)
(-0.0362053 -0.146492 0)
(0.0188606 -0.465588 0)
(0.303936 -0.11534 0)
(0.292892 -0.137979 0)
(0.280915 -0.157257 0)
(0.271479 -0.179075 0)
(0.263982 -0.19685 0)
(0.260671 -0.220557 0)
(0.245878 -0.245767 0)
(0.247861 -0.262682 0)
(0.239334 -0.296228 0)
(0.216662 -0.322899 0)
(0.21744 -0.345307 0)
(0.207205 -0.391285 0)
(0.170609 -0.441541 0)
(0.101055 -0.462484 0)
(0.0489731 -0.383213 0)
(-0.034996 -0.180261 0)
(-0.0650191 -0.0514438 0)
(-0.00153728 -0.206743 0)
(0.0347615 -0.460858 0)
(0.281827 -0.104196 0)
(0.27245 -0.127955 0)
(0.261262 -0.148858 0)
(0.254142 -0.170077 0)
(0.243799 -0.192377 0)
(0.240146 -0.211897 0)
(0.227355 -0.238301 0)
(0.221888 -0.259699 0)
(0.21649 -0.282699 0)
(0.194818 -0.312774 0)
(0.193202 -0.342902 0)
(0.168577 -0.354944 0)
(0.140702 -0.394525 0)
(0.0690884 -0.40303 0)
(0.0237371 -0.321999 0)
(-0.0436724 -0.164954 0)
(-0.01336 -0.0946288 0)
(0.0445197 -0.235343 0)
(0.0390806 -0.430631 0)
(0.259521 -0.0953301 0)
(0.251483 -0.119031 0)
(0.241494 -0.141209 0)
(0.234347 -0.162444 0)
(0.225197 -0.185449 0)
(0.217468 -0.205311 0)
(0.211361 -0.230776 0)
(0.196364 -0.251555 0)
(0.195118 -0.274861 0)
(0.179242 -0.300618 0)
(0.161551 -0.320545 0)
(0.148613 -0.344732 0)
(0.132345 -0.354735 0)
(0.079707 -0.354238 0)
(0.0376572 -0.276589 0)
(-0.0148734 -0.15546 0)
(0.0509757 -0.149541 0)
(0.0608821 -0.23306 0)
(0.0445856 -0.374585 0)
(0.23774 -0.0877415 0)
(0.230353 -0.111366 0)
(0.222022 -0.133481 0)
(0.213659 -0.155422 0)
(0.206874 -0.177149 0)
(0.196061 -0.199658 0)
(0.191393 -0.220452 0)
(0.177623 -0.244445 0)
(0.171539 -0.268182 0)
(0.160603 -0.2836 0)
(0.147449 -0.310332 0)
(0.137003 -0.331862 0)
(0.126805 -0.332539 0)
(0.0995746 -0.316516 0)
(0.0697829 -0.243544 0)
(0.0466383 -0.165773 0)
(0.0692294 -0.165801 0)
(0.0657385 -0.219876 0)
(0.0348972 -0.344965 0)
(0.216319 -0.0811639 0)
(0.209665 -0.104332 0)
(0.201934 -0.126359 0)
(0.194312 -0.148163 0)
(0.186353 -0.16997 0)
(0.178007 -0.191017 0)
(0.169132 -0.214497 0)
(0.160194 -0.233395 0)
(0.150796 -0.259547 0)
(0.139397 -0.278041 0)
(0.134021 -0.299758 0)
(0.123205 -0.324977 0)
(0.125638 -0.324861 0)
(0.115109 -0.301989 0)
(0.10059 -0.226633 0)
(0.0727566 -0.160102 0)
(0.0730371 -0.159205 0)
(0.050777 -0.202012 0)
(0.0477843 -0.292973 0)
(0.195514 -0.0753123 0)
(0.189349 -0.0978668 0)
(0.18222 -0.119554 0)
(0.174734 -0.141075 0)
(0.167185 -0.16236 0)
(0.157989 -0.183626 0)
(0.150684 -0.205061 0)
(0.138498 -0.226516 0)
(0.132291 -0.250563 0)
(0.1206 -0.267487 0)
(0.112577 -0.297889 0)
(0.111077 -0.330121 0)
(0.121697 -0.325133 0)
(0.115446 -0.295674 0)
(0.104463 -0.210741 0)
(0.0744159 -0.14412 0)
(0.0583162 -0.141025 0)
(0.0328047 -0.193675 0)
(0.0376071 -0.266087 0)
(0.175296 -0.0699673 0)
(0.169547 -0.0918919 0)
(0.16286 -0.113095 0)
(0.155717 -0.134146 0)
(0.147933 -0.154913 0)
(0.139495 -0.175637 0)
(0.130315 -0.196801 0)
(0.120351 -0.216842 0)
(0.109806 -0.242043 0)
(0.0995749 -0.260978 0)
(0.0925783 -0.29048 0)
(0.0841539 -0.334824 0)
(0.0934074 -0.332477 0)
(0.0837856 -0.288959 0)
(0.0755194 -0.187402 0)
(0.0463672 -0.121258 0)
(0.0195991 -0.116105 0)
(0.0208849 -0.189663 0)
(0.0381235 -0.230387 0)
(0.155728 -0.0650538 0)
(0.150289 -0.0862755 0)
(0.144015 -0.106946 0)
(0.13702 -0.127426 0)
(0.129548 -0.147585 0)
(0.120898 -0.16765 0)
(0.111559 -0.187706 0)
(0.101332 -0.207848 0)
(0.0887396 -0.230704 0)
(0.0749818 -0.249965 0)
(0.0644062 -0.282671 0)
(0.0386851 -0.326932 0)
(0.0225333 -0.325324 0)
(-0.016536 -0.271887 0)
(-0.0079794 -0.170824 0)
(-0.0362203 -0.100638 0)
(-0.0076784 -0.113545 0)
(0.00580636 -0.211086 0)
(0.0276607 -0.207201 0)
(0.136761 -0.0604538 0)
(0.131629 -0.0810264 0)
(0.125672 -0.101103 0)
(0.119041 -0.12099 0)
(0.111629 -0.140418 0)
(0.103243 -0.159592 0)
(0.0940259 -0.178881 0)
(0.0826139 -0.196815 0)
(0.0704178 -0.217932 0)
(0.0513304 -0.236433 0)
(0.036108 -0.260684 0)
(-0.0113172 -0.292603 0)
(-0.0523652 -0.292104 0)
(-0.0892451 -0.245938 0)
(-0.0790064 -0.157933 0)
(-0.0908085 -0.114251 0)
(-0.00988304 -0.150814 0)
(-0.00202271 -0.227087 0)
(0.0142808 -0.200533 0)
(0.118403 -0.0561057 0)
(0.113501 -0.0760481 0)
(0.107884 -0.0955785 0)
(0.101577 -0.114786 0)
(0.0945683 -0.133583 0)
(0.0865251 -0.151689 0)
(0.0776715 -0.169933 0)
(0.0661019 -0.18608 0)
(0.0546322 -0.20482 0)
(0.0329433 -0.216778 0)
(0.010485 -0.232881 0)
(-0.0297476 -0.249487 0)
(-0.0681783 -0.257281 0)
(-0.0973043 -0.233589 0)
(-0.0845734 -0.166718 0)
(-0.0790597 -0.155325 0)
(0.0139928 -0.205089 0)
(-0.00978995 -0.227346 0)
(0.0132025 -0.196352 0)
(0.100582 -0.0519969 0)
(0.0959406 -0.071373 0)
(0.0906659 -0.0903749 0)
(0.0847307 -0.10899 0)
(0.0782554 -0.127061 0)
(0.0706187 -0.144415 0)
(0.0629907 -0.161323 0)
(0.051263 -0.175962 0)
(0.0422194 -0.190076 0)
(0.0212215 -0.197103 0)
(0.00821369 -0.207563 0)
(-0.016036 -0.218465 0)
(-0.0488003 -0.226895 0)
(-0.0720915 -0.227369 0)
(-0.0484824 -0.195687 0)
(-0.0230574 -0.204164 0)
(0.0248498 -0.218121 0)
(-0.0101117 -0.222693 0)
(0.0127428 -0.197293 0)
(0.0832381 -0.0480306 0)
(0.0788093 -0.0669563 0)
(0.0738976 -0.0855003 0)
(0.0684088 -0.103606 0)
(0.0625546 -0.121067 0)
(0.0555239 -0.137639 0)
(0.0488757 -0.153275 0)
(0.0373338 -0.16561 0)
(0.0298676 -0.177464 0)
(0.0166333 -0.187033 0)
(0.0154624 -0.195848 0)
(0.00131673 -0.206386 0)
(0.00218534 -0.212113 0)
(-0.0133621 -0.235419 0)
(0.017783 -0.219333 0)
(0.0228616 -0.216847 0)
(0.0372655 -0.214343 0)
(0.00104151 -0.214493 0)
(0.0175259 -0.19287 0)
(0.0663176 -0.0443109 0)
(0.0621111 -0.0628795 0)
(0.057541 -0.0810686 0)
(0.0525713 -0.0988141 0)
(0.0473306 -0.115731 0)
(0.0410569 -0.131325 0)
(0.0346413 -0.145372 0)
(0.0257626 -0.157775 0)
(0.0260937 -0.171929 0)
(0.017542 -0.184363 0)
(0.0252032 -0.191626 0)
(0.0166994 -0.209664 0)
(0.0437228 -0.215279 0)
(0.0370077 -0.237754 0)
(0.0436536 -0.229565 0)
(0.0384768 -0.217258 0)
(0.048537 -0.204104 0)
(0.0166088 -0.202764 0)
(0.023253 -0.181845 0)
(0.0497066 -0.040445 0)
(0.0456223 -0.0588686 0)
(0.0413419 -0.0768932 0)
(0.0368506 -0.0941399 0)
(0.0319229 -0.11035 0)
(0.0263907 -0.125535 0)
(0.0252163 -0.141147 0)
(0.022838 -0.156053 0)
(0.0280123 -0.170119 0)
(0.0237585 -0.184865 0)
(0.0397993 -0.193521 0)
(0.0410677 -0.221245 0)
(0.0577801 -0.224857 0)
(0.0507798 -0.231915 0)
(0.0531492 -0.224959 0)
(0.0421385 -0.217055 0)
(0.0514191 -0.20045 0)
(0.0223478 -0.19049 0)
(0.0248725 -0.160214 0)
(0.0333393 -0.0373812 0)
(0.0293397 -0.0554547 0)
(0.0251161 -0.0729302 0)
(0.0210843 -0.0900787 0)
(0.0195046 -0.107363 0)
(0.0199522 -0.124377 0)
(0.0240355 -0.141198 0)
(0.0251558 -0.157456 0)
(0.0369098 -0.171992 0)
(0.0367997 -0.193853 0)
(0.059278 -0.203874 0)
(0.0534286 -0.224165 0)
(0.0608904 -0.227153 0)
(0.0526054 -0.231139 0)
(0.0540244 -0.223967 0)
(0.0398566 -0.214684 0)
(0.0451375 -0.191285 0)
(0.0116516 -0.177855 0)
(0.019212 -0.143673 0)
(0.0177325 -0.0313497 0)
(0.0135875 -0.0504094 0)
(0.0118062 -0.0700447 0)
(0.0126895 -0.0900243 0)
(0.0157838 -0.109951 0)
(0.01959 -0.130118 0)
(0.0280733 -0.14922 0)
(0.0320845 -0.170199 0)
(0.0485813 -0.184988 0)
(0.0461785 -0.206236 0)
(0.0629959 -0.213616 0)
(0.0554604 -0.223713 0)
(0.0607234 -0.224355 0)
(0.0500906 -0.221895 0)
(0.0498939 -0.210975 0)
(0.0283153 -0.200194 0)
(0.0323161 -0.171766 0)
(-0.00123597 -0.160463 0)
(0.014431 -0.131422 0)
(0.00210726 -0.0323234 0)
(0.00418526 -0.0529666 0)
(0.00746658 -0.074102 0)
(0.0116368 -0.0954677 0)
(0.0171787 -0.116653 0)
(0.0228519 -0.137889 0)
(0.0321739 -0.157342 0)
(0.0360516 -0.178225 0)
(0.0509781 -0.19187 0)
(0.0482513 -0.209848 0)
(0.063131 -0.215935 0)
(0.0555984 -0.221913 0)
(0.0599978 -0.219613 0)
(0.0483317 -0.215476 0)
(0.0474887 -0.201704 0)
(0.0248771 -0.190008 0)
(0.0306482 -0.161795 0)
(-0.00066227 -0.151751 0)
(0.0158373 -0.124895 0)
)
;

boundaryField
{
    leftWall
    {
        type            fixedValue;
        value           nonuniform 0();
    }
    rightWall
    {
        type            fixedValue;
        value           uniform (0 0 0);
    }
    lowerWall
    {
        type            fixedValue;
        value           nonuniform 0();
    }
    atmosphere
    {
        type            fluxCorrectedVelocity;
        value           nonuniform List<vector> 
23
(
(0.00143405 0.00523294 0)
(0.00128095 -0.00225683 0)
(0.0011509 -0.0101596 0)
(0.00131445 -0.0183854 0)
(0.00210726 -0.0323558 0)
(0.00418526 -0.0530061 0)
(0.00746658 -0.0741508 0)
(0.0116368 -0.0955286 0)
(0.0171787 -0.116728 0)
(0.0228519 -0.137981 0)
(0.0321739 -0.157445 0)
(0.0360516 -0.178337 0)
(0.0509781 -0.191967 0)
(0.0482513 -0.209891 0)
(0.063131 -0.215939 0)
(0.0555984 -0.221858 0)
(0.0599978 -0.21951 0)
(0.0483317 -0.215323 0)
(0.0474887 -0.201502 0)
(0.0248771 -0.189809 0)
(0.0306482 -0.161606 0)
(-0.00066227 -0.151625 0)
(0.0158373 -0.124824 0)
)
;
    }
    defaultFaces
    {
        type            empty;
    }
    procBoundary3to1
    {
        type            processor;
        value           nonuniform List<vector> 
23
(
(1.12909 -0.349135 0)
(1.11136 -0.444034 0)
(1.08297 -0.501776 0)
(1.05949 -0.569528 0)
(0.989688 -0.615904 0)
(0.904949 -0.558306 0)
(0.816226 -0.404087 0)
(0.683092 -0.258624 0)
(0.53173 -0.239838 0)
(0.449201 -0.273809 0)
(0.406887 -0.269577 0)
(0.405869 -0.245521 0)
(0.386495 -0.174951 0)
(0.41124 -0.191145 0)
(0.396522 -0.272619 0)
(0.416522 -0.334796 0)
(0.46577 -0.394564 0)
(0.544989 -0.51364 0)
(0.596841 -0.796423 0)
(0.511099 -0.957247 0)
(0.330971 -0.938589 0)
(0.121061 -0.821309 0)
(0.0197458 -0.854162 0)
)
;
    }
    procBoundary3to2
    {
        type            processor;
        value           nonuniform List<vector> 
25
(
(0.975012 -0.193355 0)
(0.784222 -0.185322 0)
(0.649798 -0.16978 0)
(0.559201 -0.136648 0)
(0.490991 -0.105048 0)
(0.438485 -0.0783934 0)
(0.39778 -0.0596061 0)
(0.364523 -0.0464119 0)
(0.334554 -0.036787 0)
(0.306029 -0.0301563 0)
(0.279671 -0.0246503 0)
(0.254646 -0.0201867 0)
(0.231045 -0.0163553 0)
(0.208559 -0.0130547 0)
(0.187153 -0.0101204 0)
(0.166694 -0.00739852 0)
(0.147068 -0.0048462 0)
(0.128267 -0.00238061 0)
(0.110162 9.35938e-05 0)
(0.0925359 0.0024739 0)
(0.0757651 0.00482831 0)
(0.0601306 0.0084262 0)
(0.0438964 0.0109558 0)
(0.0285972 0.0153182 0)
(0.0019279 0.016359 0)
)
;
    }
}


// ************************************************************************* //
