/*--------------------------------*- C++ -*----------------------------------*\
| =========                 |                                                 |
| \\      /  F ield         | OpenFOAM: The Open Source CFD Toolbox           |
|  \\    /   O peration     | Version:  2.4.0                                 |
|   \\  /    A nd           | Web:      www.OpenFOAM.org                      |
|    \\/     M anipulation  |                                                 |
\*---------------------------------------------------------------------------*/
FoamFile
{
    version     2.0;
    format      ascii;
    class       volVectorField;
    location    "0.95";
    object      U.water;
}
// * * * * * * * * * * * * * * * * * * * * * * * * * * * * * * * * * * * * * //

dimensions      [0 1 -1 0 0 0 0];

internalField   nonuniform List<vector> 
575
(
(0.95958 -0.314061 0)
(0.928349 -0.389658 0)
(0.908612 -0.435036 0)
(0.876872 -0.502938 0)
(0.770483 -0.26953 0)
(0.751631 -0.327537 0)
(0.734892 -0.365044 0)
(0.69633 -0.413364 0)
(0.632034 -0.235628 0)
(0.604723 -0.272775 0)
(0.580378 -0.297029 0)
(0.538491 -0.326095 0)
(0.533353 -0.180045 0)
(0.507211 -0.202547 0)
(0.483871 -0.219296 0)
(0.450423 -0.236331 0)
(0.467126 -0.135462 0)
(0.448541 -0.154363 0)
(0.430087 -0.168209 0)
(0.409251 -0.182235 0)
(0.420894 -0.104459 0)
(0.407316 -0.11909 0)
(0.394902 -0.131453 0)
(0.382762 -0.144556 0)
(0.38452 -0.0827955 0)
(0.376388 -0.0966696 0)
(0.367446 -0.109709 0)
(0.361166 -0.121668 0)
(0.354768 -0.0692065 0)
(0.349193 -0.0819148 0)
(0.342136 -0.0949421 0)
(0.338312 -0.106107 0)
(0.327418 -0.0578761 0)
(0.322809 -0.0701627 0)
(0.317803 -0.0828465 0)
(0.313879 -0.0939657 0)
(0.300733 -0.0498157 0)
(0.297025 -0.0615339 0)
(0.293223 -0.0735015 0)
(0.289879 -0.0844266 0)
(0.275155 -0.0430699 0)
(0.272191 -0.0542727 0)
(0.269075 -0.0656587 0)
(0.266208 -0.0763223 0)
(0.250813 -0.0375533 0)
(0.248388 -0.0483576 0)
(0.245784 -0.0592351 0)
(0.24325 -0.0696081 0)
(0.227663 -0.0328658 0)
(0.225675 -0.0432307 0)
(0.223375 -0.0536891 0)
(0.221156 -0.0637255 0)
(0.205576 -0.0288256 0)
(0.203887 -0.0388147 0)
(0.201828 -0.0488514 0)
(0.199811 -0.0585576 0)
(0.184464 -0.0252159 0)
(0.18298 -0.0348328 0)
(0.181071 -0.0444724 0)
(0.179208 -0.0538741 0)
(0.164243 -0.0219166 0)
(0.162873 -0.0311737 0)
(0.161068 -0.040461 0)
(0.159341 -0.0495496 0)
(0.144824 -0.0188201 0)
(0.143509 -0.0277594 0)
(0.141787 -0.0366996 0)
(0.140158 -0.0455108 0)
(0.126125 -0.0158657 0)
(0.124822 -0.0245081 0)
(0.123177 -0.033133 0)
(0.121609 -0.0416826 0)
(0.108087 -0.012963 0)
(0.106771 -0.0213428 0)
(0.105183 -0.0297017 0)
(0.103642 -0.0380153 0)
(0.0905313 -0.0100843 0)
(0.089214 -0.018192 0)
(0.0876909 -0.0263106 0)
(0.0861618 -0.0344258 0)
(0.0736109 -0.00745859 0)
(0.0721864 -0.0153135 0)
(0.0706446 -0.0231644 0)
(0.0691128 -0.0310266 0)
(0.0575029 -0.00372022 0)
(0.055846 -0.0115882 0)
(0.0541693 -0.0194583 0)
(0.0524774 -0.0273183 0)
(0.0415755 -0.000861417 0)
(0.0398716 -0.00858471 0)
(0.038104 -0.016391 0)
(0.036333 -0.0242482 0)
(0.0260332 0.00389303 0)
(0.0243944 -0.00343563 0)
(0.0226558 -0.0108711 0)
(0.0207903 -0.0184055 0)
(0.00143405 0.0052327 0)
(0.00128095 -0.00224829 0)
(0.0011509 -0.0101419 0)
(0.00131445 -0.0183603 0)
(0.799171 -0.552737 0)
(0.705148 -0.493945 0)
(0.599215 -0.294928 0)
(0.520563 -0.179802 0)
(0.476859 -0.18786 0)
(0.429859 -0.220621 0)
(0.409981 -0.243241 0)
(0.408857 -0.246532 0)
(0.426645 -0.226778 0)
(0.477039 -0.224897 0)
(0.540713 -0.273741 0)
(0.547265 -0.38087 0)
(0.567466 -0.445763 0)
(0.577109 -0.537008 0)
(0.615769 -0.703903 0)
(0.477966 -0.809666 0)
(0.300579 -0.797106 0)
(0.126332 -0.681839 0)
(0.0165887 -0.812712 0)
(0.616072 -0.429429 0)
(0.479052 -0.328634 0)
(0.387724 -0.223129 0)
(0.372051 -0.170809 0)
(0.377929 -0.174637 0)
(0.38328 -0.212126 0)
(0.387393 -0.235735 0)
(0.397685 -0.248002 0)
(0.415679 -0.259793 0)
(0.434811 -0.29417 0)
(0.492661 -0.337637 0)
(0.523908 -0.386282 0)
(0.544147 -0.427917 0)
(0.560042 -0.516397 0)
(0.501232 -0.641235 0)
(0.409101 -0.687762 0)
(0.277572 -0.667529 0)
(0.110971 -0.596339 0)
(0.0684548 -0.714417 0)
(0.462888 -0.311779 0)
(0.381987 -0.258982 0)
(0.340349 -0.204399 0)
(0.341777 -0.181962 0)
(0.358228 -0.192352 0)
(0.368661 -0.223549 0)
(0.374451 -0.241928 0)
(0.380971 -0.263751 0)
(0.397275 -0.277497 0)
(0.419169 -0.300706 0)
(0.417876 -0.364117 0)
(0.445249 -0.425778 0)
(0.436443 -0.478233 0)
(0.443548 -0.539677 0)
(0.423403 -0.602031 0)
(0.351246 -0.625603 0)
(0.265661 -0.562601 0)
(0.129594 -0.518566 0)
(0.066058 -0.633984 0)
(0.397066 -0.242324 0)
(0.350215 -0.223805 0)
(0.330377 -0.2022 0)
(0.333803 -0.194779 0)
(0.347125 -0.206563 0)
(0.344912 -0.229497 0)
(0.354966 -0.245001 0)
(0.358124 -0.270201 0)
(0.361726 -0.294873 0)
(0.394898 -0.319487 0)
(0.387014 -0.365875 0)
(0.406384 -0.409736 0)
(0.376841 -0.449109 0)
(0.402806 -0.509674 0)
(0.406715 -0.551289 0)
(0.372243 -0.550096 0)
(0.334915 -0.482201 0)
(0.163647 -0.407335 0)
(0.0286589 -0.534252 0)
(0.372619 -0.195956 0)
(0.345318 -0.197119 0)
(0.327849 -0.196356 0)
(0.328223 -0.19867 0)
(0.334573 -0.205997 0)
(0.32752 -0.233773 0)
(0.33894 -0.250013 0)
(0.33572 -0.270291 0)
(0.337973 -0.308424 0)
(0.344519 -0.329404 0)
(0.366484 -0.370489 0)
(0.349569 -0.409971 0)
(0.342434 -0.464023 0)
(0.363579 -0.551415 0)
(0.357665 -0.551395 0)
(0.342567 -0.519111 0)
(0.300227 -0.393231 0)
(0.114152 -0.266925 0)
(0.0144321 -0.449341 0)
(0.357011 -0.162884 0)
(0.343445 -0.178619 0)
(0.324206 -0.189844 0)
(0.316963 -0.196978 0)
(0.318436 -0.207976 0)
(0.311308 -0.23522 0)
(0.316347 -0.254304 0)
(0.313103 -0.268846 0)
(0.313244 -0.308429 0)
(0.309566 -0.346459 0)
(0.326054 -0.372736 0)
(0.308839 -0.392369 0)
(0.318763 -0.457772 0)
(0.325994 -0.536847 0)
(0.312854 -0.532162 0)
(0.279245 -0.472107 0)
(0.171969 -0.295594 0)
(0.0027047 -0.172211 0)
(-0.00433652 -0.441635 0)
(0.342627 -0.144366 0)
(0.334161 -0.163829 0)
(0.310852 -0.178578 0)
(0.307085 -0.191751 0)
(0.300653 -0.204964 0)
(0.296718 -0.234614 0)
(0.292976 -0.249126 0)
(0.289236 -0.272561 0)
(0.2915 -0.305753 0)
(0.282533 -0.341893 0)
(0.278752 -0.365255 0)
(0.275386 -0.397476 0)
(0.288349 -0.496379 0)
(0.272816 -0.535996 0)
(0.257963 -0.510417 0)
(0.219502 -0.382625 0)
(0.037702 -0.134511 0)
(-0.0317799 -0.123358 0)
(0.00474546 -0.449626 0)
(0.323738 -0.1283 0)
(0.3157 -0.149395 0)
(0.295785 -0.167007 0)
(0.290625 -0.186126 0)
(0.283219 -0.200791 0)
(0.278447 -0.22848 0)
(0.267128 -0.247399 0)
(0.27459 -0.268784 0)
(0.253753 -0.303938 0)
(0.261738 -0.33693 0)
(0.237038 -0.358602 0)
(0.243959 -0.394551 0)
(0.230957 -0.47616 0)
(0.178988 -0.512705 0)
(0.145894 -0.470906 0)
(0.0523828 -0.268121 0)
(-0.0621647 -0.0672318 0)
(-0.0363268 -0.145086 0)
(0.0188533 -0.465261 0)
(0.303936 -0.11534 0)
(0.292892 -0.13798 0)
(0.280915 -0.157257 0)
(0.271479 -0.179075 0)
(0.263982 -0.19685 0)
(0.260671 -0.220557 0)
(0.245878 -0.245767 0)
(0.247861 -0.262681 0)
(0.239334 -0.296228 0)
(0.216662 -0.322897 0)
(0.217437 -0.345289 0)
(0.207191 -0.39118 0)
(0.170586 -0.441213 0)
(0.101049 -0.460924 0)
(0.0488722 -0.37947 0)
(-0.0353004 -0.17632 0)
(-0.0651969 -0.0487838 0)
(-0.00163806 -0.205282 0)
(0.0347538 -0.46053 0)
(0.281827 -0.104196 0)
(0.27245 -0.127955 0)
(0.261262 -0.148858 0)
(0.254142 -0.170077 0)
(0.243799 -0.192377 0)
(0.240146 -0.211897 0)
(0.227355 -0.238301 0)
(0.221888 -0.259699 0)
(0.21649 -0.282699 0)
(0.194818 -0.312773 0)
(0.1932 -0.342887 0)
(0.168568 -0.354861 0)
(0.140675 -0.3942 0)
(0.0690648 -0.401739 0)
(0.0236518 -0.31857 0)
(-0.0438377 -0.161159 0)
(-0.0134413 -0.0920683 0)
(0.0444746 -0.233616 0)
(0.0390693 -0.430324 0)
(0.259521 -0.0953301 0)
(0.251483 -0.119031 0)
(0.241494 -0.141209 0)
(0.234347 -0.162444 0)
(0.225197 -0.185449 0)
(0.217468 -0.205311 0)
(0.211361 -0.230776 0)
(0.196364 -0.251555 0)
(0.195118 -0.274861 0)
(0.179242 -0.300617 0)
(0.161551 -0.320537 0)
(0.148609 -0.344685 0)
(0.132329 -0.354521 0)
(0.07967 -0.353291 0)
(0.037579 -0.273876 0)
(-0.0149531 -0.15187 0)
(0.0509287 -0.146409 0)
(0.0608179 -0.231187 0)
(0.0445734 -0.374333 0)
(0.23774 -0.0877415 0)
(0.230353 -0.111366 0)
(0.222022 -0.133481 0)
(0.213659 -0.155422 0)
(0.206874 -0.177149 0)
(0.196061 -0.199658 0)
(0.191393 -0.220452 0)
(0.177623 -0.244445 0)
(0.171539 -0.268182 0)
(0.160603 -0.2836 0)
(0.147449 -0.310328 0)
(0.137002 -0.331844 0)
(0.126799 -0.332443 0)
(0.099544 -0.315833 0)
(0.0697352 -0.241478 0)
(0.0465682 -0.162639 0)
(0.0691719 -0.162668 0)
(0.0656701 -0.218465 0)
(0.0348875 -0.34478 0)
(0.216319 -0.0811639 0)
(0.209665 -0.104332 0)
(0.201934 -0.126359 0)
(0.194312 -0.148163 0)
(0.186353 -0.16997 0)
(0.178007 -0.191017 0)
(0.169132 -0.214497 0)
(0.160194 -0.233395 0)
(0.150796 -0.259547 0)
(0.139397 -0.278041 0)
(0.134021 -0.299757 0)
(0.123205 -0.324971 0)
(0.125637 -0.324831 0)
(0.115091 -0.301597 0)
(0.100539 -0.225267 0)
(0.0726852 -0.157741 0)
(0.0729513 -0.157016 0)
(0.0507303 -0.201279 0)
(0.0477811 -0.292862 0)
(0.195514 -0.0753123 0)
(0.189349 -0.0978668 0)
(0.18222 -0.119554 0)
(0.174734 -0.141075 0)
(0.167185 -0.16236 0)
(0.157989 -0.183626 0)
(0.150684 -0.205061 0)
(0.138498 -0.226516 0)
(0.132291 -0.250563 0)
(0.1206 -0.267487 0)
(0.112577 -0.297889 0)
(0.111077 -0.330119 0)
(0.121697 -0.325124 0)
(0.115441 -0.295538 0)
(0.104427 -0.210074 0)
(0.0743428 -0.142829 0)
(0.0582733 -0.140114 0)
(0.0327939 -0.193405 0)
(0.0376069 -0.266042 0)
(0.175296 -0.0699673 0)
(0.169547 -0.0918919 0)
(0.16286 -0.113095 0)
(0.155717 -0.134146 0)
(0.147933 -0.154913 0)
(0.139495 -0.175637 0)
(0.130315 -0.196801 0)
(0.120351 -0.216842 0)
(0.109806 -0.242043 0)
(0.0995749 -0.260978 0)
(0.0925783 -0.29048 0)
(0.0841538 -0.334823 0)
(0.0934073 -0.332473 0)
(0.083785 -0.288931 0)
(0.0755091 -0.187197 0)
(0.046348 -0.120849 0)
(0.0195861 -0.115841 0)
(0.0208835 -0.189594 0)
(0.0381234 -0.230373 0)
(0.155728 -0.0650538 0)
(0.150289 -0.0862755 0)
(0.144015 -0.106946 0)
(0.13702 -0.127426 0)
(0.129548 -0.147585 0)
(0.120898 -0.16765 0)
(0.111559 -0.187706 0)
(0.101332 -0.207848 0)
(0.0887396 -0.230704 0)
(0.0749818 -0.249965 0)
(0.0644062 -0.282671 0)
(0.0386851 -0.326931 0)
(0.0225335 -0.325321 0)
(-0.0165358 -0.271878 0)
(-0.00798092 -0.170784 0)
(-0.036223 -0.100564 0)
(-0.00768034 -0.113483 0)
(0.00580607 -0.211069 0)
(0.0276606 -0.207195 0)
(0.136761 -0.0604538 0)
(0.131629 -0.0810264 0)
(0.125672 -0.101103 0)
(0.119041 -0.12099 0)
(0.111629 -0.140418 0)
(0.103243 -0.159592 0)
(0.0940259 -0.178881 0)
(0.0826139 -0.196815 0)
(0.0704178 -0.217932 0)
(0.0513304 -0.236433 0)
(0.036108 -0.260684 0)
(-0.0113171 -0.292602 0)
(-0.0523651 -0.292101 0)
(-0.0892452 -0.245931 0)
(-0.079007 -0.15792 0)
(-0.0908092 -0.114233 0)
(-0.00988324 -0.1508 0)
(-0.00202279 -0.227082 0)
(0.0142808 -0.20053 0)
(0.118403 -0.0561057 0)
(0.113501 -0.0760481 0)
(0.107884 -0.0955785 0)
(0.101577 -0.114786 0)
(0.0945683 -0.133583 0)
(0.0865251 -0.151689 0)
(0.0776715 -0.169933 0)
(0.0661019 -0.18608 0)
(0.0546322 -0.20482 0)
(0.0329433 -0.216778 0)
(0.010485 -0.232881 0)
(-0.0297476 -0.249486 0)
(-0.0681782 -0.257278 0)
(-0.0973044 -0.233583 0)
(-0.0845735 -0.166709 0)
(-0.0790596 -0.155316 0)
(0.0139927 -0.205084 0)
(-0.00978997 -0.227344 0)
(0.0132025 -0.196351 0)
(0.100582 -0.0519969 0)
(0.0959406 -0.071373 0)
(0.0906659 -0.0903749 0)
(0.0847307 -0.10899 0)
(0.0782554 -0.127061 0)
(0.0706187 -0.144415 0)
(0.0629907 -0.161323 0)
(0.051263 -0.175962 0)
(0.0422194 -0.190076 0)
(0.0212215 -0.197103 0)
(0.00821369 -0.207563 0)
(-0.016036 -0.218464 0)
(-0.0488002 -0.226893 0)
(-0.0720914 -0.227365 0)
(-0.0484823 -0.195682 0)
(-0.0230574 -0.20416 0)
(0.0248498 -0.218119 0)
(-0.0101117 -0.222692 0)
(0.0127428 -0.197293 0)
(0.0832381 -0.0480306 0)
(0.0788093 -0.0669563 0)
(0.0738976 -0.0855003 0)
(0.0684088 -0.103606 0)
(0.0625546 -0.121067 0)
(0.0555239 -0.137639 0)
(0.0488757 -0.153275 0)
(0.0373338 -0.16561 0)
(0.0298676 -0.177464 0)
(0.0166333 -0.187033 0)
(0.0154624 -0.195848 0)
(0.00131673 -0.206386 0)
(0.00218536 -0.212112 0)
(-0.0133621 -0.235417 0)
(0.0177831 -0.219331 0)
(0.0228616 -0.216846 0)
(0.0372655 -0.214342 0)
(0.00104151 -0.214493 0)
(0.0175259 -0.19287 0)
(0.0663176 -0.0443109 0)
(0.0621111 -0.0628795 0)
(0.057541 -0.0810686 0)
(0.0525713 -0.0988141 0)
(0.0473306 -0.115731 0)
(0.0410569 -0.131325 0)
(0.0346413 -0.145372 0)
(0.0257626 -0.157775 0)
(0.0260937 -0.171929 0)
(0.017542 -0.184363 0)
(0.0252032 -0.191626 0)
(0.0166994 -0.209664 0)
(0.0437228 -0.215279 0)
(0.0370077 -0.237753 0)
(0.0436536 -0.229565 0)
(0.0384768 -0.217258 0)
(0.048537 -0.204104 0)
(0.0166088 -0.202764 0)
(0.023253 -0.181845 0)
(0.0497066 -0.040445 0)
(0.0456223 -0.0588686 0)
(0.0413419 -0.0768932 0)
(0.0368506 -0.0941399 0)
(0.0319229 -0.11035 0)
(0.0263907 -0.125535 0)
(0.0252163 -0.141147 0)
(0.022838 -0.156053 0)
(0.0280123 -0.170119 0)
(0.0237585 -0.184865 0)
(0.0397993 -0.193521 0)
(0.0410677 -0.221245 0)
(0.0577801 -0.224857 0)
(0.0507798 -0.231915 0)
(0.0531492 -0.224959 0)
(0.0421385 -0.217055 0)
(0.0514191 -0.20045 0)
(0.0223478 -0.19049 0)
(0.0248725 -0.160214 0)
(0.0333393 -0.0373812 0)
(0.0293397 -0.0554547 0)
(0.0251161 -0.0729302 0)
(0.0210843 -0.0900787 0)
(0.0195046 -0.107363 0)
(0.0199522 -0.124377 0)
(0.0240355 -0.141198 0)
(0.0251558 -0.157456 0)
(0.0369098 -0.171992 0)
(0.0367997 -0.193853 0)
(0.059278 -0.203874 0)
(0.0534286 -0.224165 0)
(0.0608904 -0.227153 0)
(0.0526054 -0.231139 0)
(0.0540244 -0.223967 0)
(0.0398566 -0.214684 0)
(0.0451375 -0.191285 0)
(0.0116516 -0.177855 0)
(0.019212 -0.143673 0)
(0.0177325 -0.0313497 0)
(0.0135875 -0.0504094 0)
(0.0118062 -0.0700447 0)
(0.0126895 -0.0900243 0)
(0.0157838 -0.109951 0)
(0.01959 -0.130118 0)
(0.0280733 -0.14922 0)
(0.0320845 -0.170199 0)
(0.0485813 -0.184988 0)
(0.0461785 -0.206236 0)
(0.0629959 -0.213616 0)
(0.0554604 -0.223713 0)
(0.0607234 -0.224355 0)
(0.0500906 -0.221895 0)
(0.0498939 -0.210975 0)
(0.0283153 -0.200194 0)
(0.0323161 -0.171766 0)
(-0.00123597 -0.160463 0)
(0.014431 -0.131422 0)
(0.00210726 -0.0323234 0)
(0.00418526 -0.0529666 0)
(0.00746658 -0.074102 0)
(0.0116368 -0.0954677 0)
(0.0171787 -0.116653 0)
(0.0228519 -0.137889 0)
(0.0321739 -0.157342 0)
(0.0360516 -0.178225 0)
(0.0509781 -0.19187 0)
(0.0482513 -0.209848 0)
(0.063131 -0.215935 0)
(0.0555984 -0.221913 0)
(0.0599978 -0.219613 0)
(0.0483317 -0.215476 0)
(0.0474887 -0.201704 0)
(0.0248771 -0.190008 0)
(0.0306482 -0.161795 0)
(-0.00066227 -0.151751 0)
(0.0158373 -0.124895 0)
)
;

boundaryField
{
    leftWall
    {
        type            fixedValue;
        value           nonuniform 0();
    }
    rightWall
    {
        type            fixedValue;
        value           uniform (0 0 0);
    }
    lowerWall
    {
        type            fixedValue;
        value           nonuniform 0();
    }
    atmosphere
    {
        type            fluxCorrectedVelocity;
        value           nonuniform List<vector> 
23
(
(0.00143405 0.00523294 0)
(0.00128095 -0.00225683 0)
(0.0011509 -0.0101596 0)
(0.00131445 -0.0183854 0)
(0.00210726 -0.0323558 0)
(0.00418526 -0.0530061 0)
(0.00746658 -0.0741508 0)
(0.0116368 -0.0955286 0)
(0.0171787 -0.116728 0)
(0.0228519 -0.137981 0)
(0.0321739 -0.157445 0)
(0.0360516 -0.178337 0)
(0.0509781 -0.191967 0)
(0.0482513 -0.209891 0)
(0.063131 -0.215939 0)
(0.0555984 -0.221858 0)
(0.0599978 -0.21951 0)
(0.0483317 -0.215323 0)
(0.0474887 -0.201502 0)
(0.0248771 -0.189809 0)
(0.0306482 -0.161606 0)
(-0.00066227 -0.151625 0)
(0.0158373 -0.124824 0)
)
;
    }
    defaultFaces
    {
        type            empty;
    }
    procBoundary3to1
    {
        type            processor;
        value           nonuniform List<vector> 
23
(
(1.12472 -0.347409 0)
(1.11238 -0.444808 0)
(1.08331 -0.50263 0)
(1.06007 -0.570002 0)
(0.990003 -0.615915 0)
(0.905046 -0.558331 0)
(0.816388 -0.404211 0)
(0.683246 -0.258812 0)
(0.531841 -0.240053 0)
(0.449248 -0.273947 0)
(0.4069 -0.269638 0)
(0.405869 -0.245536 0)
(0.386635 -0.174222 0)
(0.411659 -0.189589 0)
(0.397065 -0.271388 0)
(0.416565 -0.334297 0)
(0.465413 -0.394392 0)
(0.54429 -0.513415 0)
(0.595628 -0.795778 0)
(0.509644 -0.956007 0)
(0.330006 -0.937193 0)
(0.120675 -0.819894 0)
(0.0196896 -0.853123 0)
)
;
    }
    procBoundary3to2
    {
        type            processor;
        value           nonuniform List<vector> 
25
(
(0.974929 -0.193662 0)
(0.784223 -0.185332 0)
(0.649799 -0.169786 0)
(0.559202 -0.136654 0)
(0.490992 -0.105053 0)
(0.438485 -0.0783953 0)
(0.39778 -0.0596068 0)
(0.364523 -0.0464121 0)
(0.334554 -0.0367871 0)
(0.306029 -0.0301563 0)
(0.279671 -0.0246503 0)
(0.254646 -0.0201867 0)
(0.231045 -0.0163553 0)
(0.208559 -0.0130547 0)
(0.187153 -0.0101204 0)
(0.166694 -0.00739852 0)
(0.147068 -0.0048462 0)
(0.128267 -0.00238061 0)
(0.110162 9.35938e-05 0)
(0.0925359 0.0024739 0)
(0.0757651 0.00482831 0)
(0.0601306 0.0084262 0)
(0.0438964 0.0109558 0)
(0.0285972 0.0153182 0)
(0.0019279 0.016359 0)
)
;
    }
}


// ************************************************************************* //
