/*--------------------------------*- C++ -*----------------------------------*\
| =========                 |                                                 |
| \\      /  F ield         | OpenFOAM: The Open Source CFD Toolbox           |
|  \\    /   O peration     | Version:  2.4.0                                 |
|   \\  /    A nd           | Web:      www.OpenFOAM.org                      |
|    \\/     M anipulation  |                                                 |
\*---------------------------------------------------------------------------*/
FoamFile
{
    version     2.0;
    format      ascii;
    class       volScalarField;
    location    "0.9";
    object      alphas;
}
// * * * * * * * * * * * * * * * * * * * * * * * * * * * * * * * * * * * * * //

dimensions      [0 0 0 0 0 0 0];

internalField   nonuniform List<scalar> 
575
(
2
2
2
2
2
2
2
2
2
2
2
2
2
2
2
2
2
2
2
2
2
1.99999
1.99994
1.99996
1.99999
2
2
2
2
2
2
2
2
2
2
2
2
2
2
2
2
2
2
1.99999
1.7251
1.92635
1.99674
1.99986
1.99998
2
2
2
2
2
2
2
2
2
2
2
2
2
2
2
2
2
0.191785
0.58245
1.46014
1.94521
1.9967
1.9997
1.99993
1.99997
1.99998
1.99999
2
2
2
2
2
2
2
2
2
2
2
1.99999
0.00160463
0.0280167
0.472462
1.57517
1.95738
1.99628
1.99951
1.99988
1.99991
1.99967
1.99911
1.99871
1.99874
1.99892
1.99931
1.99967
1.99987
1.99994
1.99993
1.99986
1.99952
1.99889
1.62777e-05
0.00481512
0.18825
1.06891
1.83004
1.97919
1.99623
1.99543
1.97894
1.9379
1.87949
1.84412
1.846
1.86083
1.89067
1.92471
1.95015
1.96487
1.96652
1.95456
1.91989
1.86483
1.48546e-05
0.00103061
0.0706207
0.629355
1.55646
1.89657
1.89287
1.72369
1.42722
1.05567
0.71707
0.532263
0.49134
0.513942
0.612762
0.782582
0.935111
1.05557
1.11089
1.067
0.899658
0.521948
1.16125e-05
0.000118787
0.0156789
0.213764
0.715141
1.00859
0.892254
0.525067
0.23751
0.0818387
0.0224917
0.00535969
0.00468301
0.00416803
0.00380412
0.00554302
0.0111282
0.0186324
0.0253195
0.0275858
0.0265989
0.0231091
5.11098e-06
1.593e-05
0.00257719
0.034614
0.0843346
0.0820632
0.0553867
0.0347785
0.0209176
0.0105773
0.00413237
0.00315502
0.00299699
0.00441725
0.00523075
0.00626892
0.010123
0.0135076
0.0144639
0.0156912
0.0305819
0.0398617
1.68105e-05
2.284e-05
0.000119464
0.00111855
0.0025815
0.00244937
0.00166756
0.00166504
0.00166278
0.00155833
0.00104233
0.00325919
0.0118991
0.0224156
0.0267222
0.0235924
0.0262799
0.0385395
0.0493637
0.122669
0.341969
0.395321
0.00716975
0.00318372
0.00160837
0.00130959
0.00116979
0.00124812
0.00128939
0.00126118
0.00111158
0.00136771
0.0179013
0.0911388
0.188729
0.24437
0.221432
0.154667
0.117101
0.135445
0.186167
0.564972
1.16364
1.24795
0.270746
0.153114
0.0632948
0.0294926
0.0101567
0.00388811
0.00331508
0.00334453
0.00630054
0.0543001
0.27176
0.530565
0.691288
0.801762
0.755818
0.546938
0.403516
0.621241
1.0157
1.78798
2.83876
2.64967
0.73494
0.691308
0.324004
0.122498
0.0431692
0.0305888
0.0392879
0.0799434
0.226613
0.48387
0.818253
0.98393
1.02743
0.952626
0.848793
0.806222
0.851205
1.26632
2.44967
2.98644
2.99168
2.98205
0.847471
0.845053
0.600997
0.351291
0.260037
0.269608
0.412605
0.689374
0.830172
0.876211
0.931519
0.971443
0.966294
0.927321
0.921503
0.961593
1.61503
2.77289
2.95675
2.99107
2.99103
2.98665
0.908764
0.861674
0.823459
0.739118
0.794477
0.958886
0.973572
0.904138
0.926891
0.934204
0.964495
0.962726
0.951513
0.950649
0.998175
1.66484
2.80372
2.99004
2.94817
2.65244
2.46625
2.47124
1.26838
1.28183
1.64166
2.21804
2.70151
2.77729
2.51092
1.7053
1.24215
1.1222
1.0879
1.04324
1.01824
1.0356
1.55534
2.74048
2.99436
2.99915
2.9608
2.65754
2.27412
2.26784
2.21171
2.77094
2.91631
2.98551
2.99717
2.99697
2.97272
2.84321
2.72182
2.69077
2.15318
1.33748
1.13935
1.2983
2.39762
2.98293
2.99986
2.99935
2.99561
2.99871
2.99905
2.99831
2.99954
2.96837
2.99673
2.99953
2.99998
3
2.99999
2.99961
2.99748
2.99622
2.99791
2.97508
2.74973
2.36115
2.30517
2.81148
2.99594
2.99994
2.99993
2.99993
2.99999
3
3
3
2.99984
2.99999
3
3
3
3
3
2.99999
2.99999
3
2.99985
2.99634
2.98392
2.97206
2.97001
2.99283
2.99992
3
3
3
3
3
3
3
3
3
3
3
3
3
3
3
3
3
2.99999
2.99974
2.99868
2.99687
2.99561
2.9995
3
3
3
3
3
3
3
3
3
3
3
3
3
3
3
3
3
3
3
2.99999
2.99981
2.99919
2.99908
2.99996
3
3
3
3
3
3
3
3
3
3
3
3
3
3
3
3
3
3
3
3
2.99993
2.99957
2.99977
2.99996
3
3
3
3
3
3
3
3
3
3
3
3
3
3
3
3
3
3
3
3
2.99998
2.99987
2.99987
2.99992
2.99998
3
3
3
3
3
3
3
3
3
3
3
3
3
3
3
3
3
3
3
2.99998
2.99995
2.99996
2.99996
2.99996
2.99998
3
3
3
3
3
3
3
3
3
3
3
3
3
3
3
3
3
3
3
3
2.99999
2.99999
2.99999
3
3
3
3
3
3
3
3
3
3
3
3
3
3
3
3
)
;

boundaryField
{
    leftWall
    {
        type            zeroGradient;
    }
    rightWall
    {
        type            zeroGradient;
    }
    lowerWall
    {
        type            zeroGradient;
    }
    atmosphere
    {
        type            zeroGradient;
    }
    defaultFaces
    {
        type            empty;
    }
    procBoundary0to1
    {
        type            processor;
        value           nonuniform List<scalar> 
26
(
1.99999
1.99999
1.99999
1.99998
1.99675
1.66727
0.119086
0.0309317
0.0845044
0.366102
0.877704
1.35871
2.65379
2.96305
2.39472
2.61191
2.61191
2.99998
3
3
3
3
3
3
3
2.99999
)
;
    }
    procBoundary0to2
    {
        type            processor;
        value           nonuniform List<scalar> 
24
(
3
3
3
3
3
3
3
3
3
3
3
3
3
3
3
3
3
3
3
3
3
3
3
3
)
;
    }
}


// ************************************************************************* //
