/*--------------------------------*- C++ -*----------------------------------*\
| =========                 |                                                 |
| \\      /  F ield         | OpenFOAM: The Open Source CFD Toolbox           |
|  \\    /   O peration     | Version:  2.4.0                                 |
|   \\  /    A nd           | Web:      www.OpenFOAM.org                      |
|    \\/     M anipulation  |                                                 |
\*---------------------------------------------------------------------------*/
FoamFile
{
    version     2.0;
    format      ascii;
    class       volScalarField;
    location    "0.9";
    object      alpha.air;
}
// * * * * * * * * * * * * * * * * * * * * * * * * * * * * * * * * * * * * * //

dimensions      [0 0 0 0 0 0 0];

internalField   nonuniform List<scalar> 
575
(
9.9227e-12
1.12913e-11
6.75713e-12
6.52459e-12
5.51641e-12
3.32041e-12
2.06605e-12
1.54014e-12
1.18904e-12
7.6839e-13
4.43484e-13
3.04746e-13
2.458e-13
1.87049e-13
1.18168e-13
6.83064e-14
4.67657e-14
4.67884e-14
5.92437e-14
6.815e-14
3.72189e-14
1.76122e-14
3.82001e-11
4.46148e-11
3.22152e-11
3.28893e-11
2.74716e-11
1.77648e-11
1.16677e-11
8.48246e-12
6.35519e-12
4.2086e-12
2.56526e-12
1.73001e-12
1.3076e-12
9.47951e-13
6.08777e-13
3.83891e-13
2.8289e-13
2.86007e-13
3.73414e-13
4.5824e-13
3.79186e-13
2.74462e-13
2.04037e-10
1.73117e-10
1.03731e-10
5.51718e-11
4.05638e-11
2.59753e-11
1.93923e-11
1.80647e-11
1.6336e-11
1.21666e-11
7.96212e-12
5.22336e-12
3.70174e-12
2.63548e-12
1.76662e-12
1.21344e-12
9.95596e-13
1.07138e-12
1.55271e-12
2.17468e-12
2.83846e-12
3.07152e-12
9.95494e-11
1.78919e-10
1.78895e-10
1.60242e-10
9.79618e-11
6.87681e-11
5.58489e-11
4.91511e-11
4.01903e-11
2.86104e-11
1.80771e-11
1.13012e-11
8.2011e-12
6.43885e-12
4.90736e-12
3.41005e-12
3.62145e-12
3.96827e-12
5.90123e-12
8.46125e-12
3.44284e-11
4.03571e-11
5.90335e-11
7.0647e-11
1.67579e-10
2.03786e-10
1.74379e-10
1.13129e-10
9.15942e-11
7.77099e-11
6.15983e-11
4.82099e-11
3.38578e-11
2.16972e-11
1.96947e-11
1.79321e-11
1.66863e-11
1.85437e-11
4.44421e-11
2.49258e-11
2.58828e-11
3.82439e-10
3.1291e-08
1.28487e-07
5.89935e-11
6.93315e-11
1.29935e-10
2.0385e-10
2.01194e-10
1.52028e-10
1.31059e-10
1.40887e-10
1.91774e-10
2.5918e-10
4.43103e-10
5.30119e-10
2.08102e-10
1.92925e-10
3.42637e-10
7.71592e-09
2.87621e-08
1.49901e-08
9.38518e-09
1.58475e-08
1.56029e-06
1.56298e-05
5.92331e-11
6.47105e-11
9.46996e-11
1.73282e-10
2.32877e-10
2.67797e-10
4.15797e-10
6.46175e-10
8.16823e-10
9.97868e-10
3.02898e-09
1.20216e-08
1.27921e-08
1.26639e-08
1.31716e-08
1.47563e-07
5.96334e-07
5.87039e-07
3.24047e-07
2.66669e-07
8.12109e-06
0.000100956
5.91831e-11
5.92002e-11
5.97636e-11
9.86297e-11
2.6293e-10
6.02159e-10
8.39595e-10
9.3501e-10
9.34666e-10
7.71811e-10
2.26287e-09
2.76368e-08
9.32816e-08
1.29124e-07
1.17889e-07
2.47575e-07
8.55953e-07
1.82558e-06
1.11013e-06
6.06172e-07
3.59352e-06
2.29676e-05
1.44172e-08
7.16146e-09
1.23864e-09
1.95413e-10
1.91541e-10
1.91544e-10
2.65237e-10
4.89526e-10
6.56734e-10
7.03904e-10
2.56148e-09
4.44539e-08
1.88579e-07
3.93556e-07
6.32467e-07
8.89194e-07
1.24628e-06
1.82373e-06
1.74609e-06
1.22193e-06
1.51732e-06
5.24318e-06
2.75241e-07
1.30105e-07
2.50264e-08
5.38502e-09
9.07508e-10
3.40843e-10
2.74003e-10
3.54055e-10
4.4748e-10
1.01496e-08
1.63722e-08
4.65729e-08
2.98705e-07
1.44971e-06
4.10684e-06
3.72597e-06
3.27757e-06
3.17008e-06
4.67025e-06
3.59933e-05
0.00144204
0.00128183
3.55495e-07
2.58911e-07
2.16574e-07
7.85732e-08
2.05752e-08
1.16815e-08
7.74143e-09
4.13216e-09
1.52826e-08
9.31326e-08
2.63026e-06
3.62548e-05
0.000144366
0.000517215
0.000182032
0.000296423
8.29746e-05
1.69965e-05
2.07499e-05
0.0146815
0.146417
0.161493
3.55387e-07
5.89692e-07
5.8939e-07
5.08551e-07
1.81929e-07
3.65348e-08
9.0852e-09
4.71686e-09
2.18756e-06
1.50241e-05
0.000553595
0.00522526
0.0170801
0.0488525
0.0706677
0.0623828
0.00388791
0.00272438
0.104121
0.400321
0.919478
0.827045
1.90416e-06
2.55435e-06
5.32115e-07
3.47458e-07
1.07936e-07
2.77182e-08
1.20441e-08
3.36586e-06
0.000219151
0.000259233
0.00580916
0.0441707
0.0832503
0.0832214
0.0474322
0.0313382
0.0352495
0.174011
0.727018
0.99325
0.995861
0.99106
0.000144057
2.2761e-06
2.38591e-07
7.29314e-08
3.74366e-08
3.72264e-08
1.44033e-05
0.000190735
0.000358675
0.000494367
0.00473496
0.0242176
0.0346974
0.0260206
0.0235251
0.0367895
0.328754
0.887458
0.978533
0.995862
0.9958
0.993628
0.0205744
0.00487762
0.00015789
0.00243763
0.0419032
0.116785
0.100986
0.00976518
0.00196067
0.00439906
0.0144831
0.013884
0.0101962
0.0101961
0.0327455
0.348891
0.903082
0.995026
0.974151
0.828127
0.739671
0.742179
0.140448
0.163128
0.35533
0.639737
0.860815
0.895625
0.765173
0.363845
0.131225
0.0698472
0.0556257
0.0407307
0.0324035
0.0381949
0.286472
0.871398
0.997195
0.999575
0.980421
0.829294
0.639451
0.637743
0.605993
0.886221
0.959239
0.993084
0.998626
0.998512
0.986455
0.921855
0.861205
0.845646
0.577361
0.170784
0.0727837
0.152348
0.699749
0.991484
0.99993
0.999674
0.997807
0.999359
0.999528
0.999157
0.999772
0.984184
0.99837
0.999767
0.999991
0.999999
0.999995
0.999807
0.998739
0.998112
0.998957
0.98755
0.874918
0.68067
0.652686
0.905775
0.997969
0.999969
0.999967
0.999962
0.999996
0.999999
1
1
0.999921
0.999997
0.999999
0.999999
0.999999
1
0.999999
0.999997
0.999997
0.999999
0.999927
0.998172
0.99196
0.98603
0.985008
0.996414
0.99996
1
1
1
1
1
1
0.999999
0.999999
0.999999
0.999999
0.999999
1
1
0.999999
0.999999
0.999999
1
0.999994
0.999868
0.99934
0.998437
0.997804
0.999752
0.999999
1
1
1
1
1
0.999999
0.999999
0.999999
0.999999
0.999999
0.999999
1
1
0.999999
0.999999
1
1
0.999999
0.999994
0.999905
0.999594
0.999543
0.999981
1
1
1
1
1
0.999999
0.999999
0.999999
0.999999
0.999999
0.999999
1
1
1
1
1
1
1
1
0.999999
0.999967
0.999784
0.999885
0.999979
0.999998
1
1
1
0.999999
0.999999
0.999999
0.999999
0.999999
0.999999
1
1
1
1
1
1
1
1
1
0.999999
0.99999
0.999935
0.999934
0.99996
0.999992
0.999999
1
0.999999
0.999999
0.999999
0.999999
0.999999
0.999999
1
1
1
1
1
1
1
1
1
1
1
0.999991
0.999975
0.999978
0.999978
0.99998
0.99999
0.999999
0.999999
0.999999
0.999999
0.999999
0.999999
1
1
1
1
1
1
1
1
1
1
1
1
0.999999
0.999998
0.999995
0.999995
0.999992
0.999999
0.999999
0.999999
0.999999
0.999999
0.999999
1
1
1
1
1
1
1
1
1
1
)
;

boundaryField
{
    leftWall
    {
        type            alphaContactAngle;
        thetaProperties 
6
(

(
water
mercury
)
 90 0 0 0

(
water
air
)
 90 0 0 0

(
water
oil
)
 90 0 0 0

(
mercury
air
)
 90 0 0 0

(
oil
mercury
)
 90 0 0 0

(
oil
air
)
 90 0 0 0
);
        value           nonuniform List<scalar> 
26
(
9.9227e-12
3.82001e-11
2.04037e-10
9.95494e-11
5.90335e-11
5.89935e-11
5.92331e-11
5.91831e-11
1.44172e-08
2.75241e-07
3.55495e-07
3.55387e-07
1.90416e-06
0.000144057
0.0205744
0.140448
0.605993
0.984184
0.999921
0.999999
0.999999
0.999999
0.999999
0.999999
0.999999
0.999999
)
;
    }
    rightWall
    {
        type            alphaContactAngle;
        thetaProperties 
6
(

(
water
mercury
)
 90 0 0 0

(
water
air
)
 90 0 0 0

(
water
oil
)
 90 0 0 0

(
mercury
air
)
 90 0 0 0

(
oil
mercury
)
 90 0 0 0

(
oil
air
)
 90 0 0 0
);
        value           nonuniform 0();
    }
    lowerWall
    {
        type            alphaContactAngle;
        thetaProperties 
6
(

(
water
mercury
)
 90 0 0 0

(
water
air
)
 90 0 0 0

(
water
oil
)
 90 0 0 0

(
mercury
air
)
 90 0 0 0

(
oil
mercury
)
 90 0 0 0

(
oil
air
)
 90 0 0 0
);
        value           nonuniform List<scalar> 
22
(
9.9227e-12
1.12913e-11
6.75713e-12
6.52459e-12
5.51641e-12
3.32041e-12
2.06605e-12
1.54014e-12
1.18904e-12
7.6839e-13
4.43484e-13
3.04746e-13
2.458e-13
1.87049e-13
1.18168e-13
6.83064e-14
4.67657e-14
4.67884e-14
5.92437e-14
6.815e-14
3.72189e-14
1.76122e-14
)
;
    }
    atmosphere
    {
        type            inletOutlet;
        inletValue      nonuniform 0();
        value           nonuniform 0();
    }
    defaultFaces
    {
        type            empty;
    }
    procBoundary0to1
    {
        type            processor;
        value           nonuniform List<scalar> 
26
(
7.68132e-14
6.65233e-13
3.41361e-12
9.15709e-12
1.23143e-08
7.39421e-06
0.000119333
0.00011066
5.52485e-05
0.000710345
0.00445233
0.195687
0.827717
0.981825
0.703748
0.808243
0.808243
0.99999
1
1
1
1
1
1
0.999998
0.999992
)
;
    }
    procBoundary0to2
    {
        type            processor;
        value           nonuniform List<scalar> 
24
(
1
1
1
1
1
1
1
0.999999
0.999999
0.999999
0.999999
0.999999
0.999999
1
1
1
1
1
1
1
1
1
1
1
)
;
    }
}


// ************************************************************************* //
