/*--------------------------------*- C++ -*----------------------------------*\
| =========                 |                                                 |
| \\      /  F ield         | OpenFOAM: The Open Source CFD Toolbox           |
|  \\    /   O peration     | Version:  2.4.0                                 |
|   \\  /    A nd           | Web:      www.OpenFOAM.org                      |
|    \\/     M anipulation  |                                                 |
\*---------------------------------------------------------------------------*/
FoamFile
{
    version     2.0;
    format      ascii;
    class       volScalarField;
    location    "0.9";
    object      alpha.mercury;
}
// * * * * * * * * * * * * * * * * * * * * * * * * * * * * * * * * * * * * * //

dimensions      [0 0 0 0 0 0 0];

internalField   nonuniform List<scalar> 
575
(
1
1
1
1
1
1
1
1
1
1
1
1
1
1
1
1
1
1
1
0.999999
0.999998
0.999994
0.999969
0.999978
0.999994
0.999998
0.999999
1
1
1
1
1
1
1
1
1
1
1
1
1
1
1
0.999998
0.999994
0.86255
0.963176
0.998371
0.999932
0.999992
0.999998
0.999999
0.999999
0.999999
0.999999
1
1
1
1
1
1
1
1
1
0.999999
0.999999
0.999996
0.0958923
0.291225
0.730069
0.972603
0.998351
0.999848
0.999963
0.999983
0.999991
0.999996
0.999998
0.999999
0.999999
0.999999
0.999999
0.999999
0.999999
0.999999
0.999999
0.999998
0.999997
0.999993
0.000802316
0.0140083
0.236231
0.787583
0.978692
0.998138
0.999756
0.999939
0.999955
0.999836
0.999553
0.999354
0.999366
0.999459
0.999651
0.999832
0.999934
0.999968
0.999965
0.999927
0.999756
0.999442
8.13875e-06
0.00240756
0.0941249
0.534453
0.915019
0.989593
0.998116
0.997716
0.989466
0.968945
0.93974
0.92205
0.922983
0.930398
0.945311
0.962334
0.975061
0.982428
0.98325
0.977268
0.95993
0.932356
7.42719e-06
0.000515305
0.0353104
0.314678
0.778229
0.948283
0.946434
0.861844
0.713606
0.527828
0.358513
0.26604
0.245459
0.256688
0.30599
0.390804
0.467003
0.527197
0.554878
0.532918
0.449268
0.259207
5.80617e-06
5.93932e-05
0.00783945
0.106882
0.35757
0.504294
0.446126
0.262532
0.118753
0.0409156
0.0112263
0.00250993
0.00182012
0.0013026
0.000936234
0.00121463
0.00290754
0.00579842
0.00896125
0.0101217
0.00886507
0.00213394
2.5313e-06
7.9382e-06
0.00128851
0.0173069
0.0421673
0.0410314
0.0276929
0.0173887
0.0104581
0.00528563
0.00199957
0.000960974
0.000135348
5.29035e-05
3.93228e-05
3.28315e-05
3.27914e-05
3.65857e-05
4.85074e-05
7.06212e-05
7.88563e-05
6.82093e-05
8.95157e-07
1.53567e-06
3.76952e-05
0.000543536
0.00128189
0.00121555
0.000822874
0.000820343
0.000818127
0.0007136
0.000178036
4.19435e-05
1.46993e-05
9.00014e-06
6.25813e-06
4.98226e-06
3.6833e-06
3.68399e-06
4.49207e-06
2.40785e-05
4.10285e-05
4.41602e-05
5.89191e-08
1.07267e-07
8.09576e-07
7.16656e-05
0.000235034
0.00040335
0.000444654
0.000416437
0.000266802
0.000106516
3.1669e-05
1.07335e-05
5.16037e-06
3.85173e-06
3.96837e-06
4.20305e-06
4.08672e-06
5.63363e-06
2.44285e-05
6.5906e-05
6.57531e-05
4.58729e-05
4.51602e-10
1.81357e-09
4.82754e-09
9.19036e-07
8.6466e-06
2.22065e-05
2.49857e-05
1.7166e-05
1.02141e-05
5.17932e-06
1.98081e-06
1.437e-06
1.28899e-06
1.01736e-06
2.23356e-06
9.02107e-06
3.19881e-05
6.25066e-05
6.66816e-05
4.91934e-05
2.91589e-06
6.10454e-06
2.91181e-11
3.15238e-11
1.23748e-10
1.31933e-09
3.80425e-08
1.71883e-07
2.09683e-07
1.49179e-07
7.18477e-08
8.54314e-08
6.0338e-07
2.62339e-06
1.17637e-05
2.61783e-05
3.7681e-05
5.43285e-05
6.38938e-05
6.2575e-05
1.76562e-05
5.53682e-07
2.06022e-07
2.03081e-07
2.01072e-11
3.01134e-11
4.00217e-11
8.00012e-11
1.2507e-10
2.45091e-10
4.24702e-10
1.74423e-08
4.06922e-07
2.61768e-06
6.80132e-06
1.27404e-05
2.41311e-05
3.52677e-05
4.36252e-05
4.86328e-05
3.15679e-05
4.60492e-06
1.20342e-06
2.04379e-06
2.80728e-06
2.21484e-06
1.50578e-11
2.38686e-11
3.05227e-11
2.7371e-11
2.84624e-11
3.64146e-11
7.4332e-10
8.23353e-08
1.40216e-06
5.51744e-06
1.0393e-05
1.45558e-05
1.85971e-05
2.52842e-05
2.907e-05
2.19541e-05
2.64911e-06
8.94423e-08
1.39533e-07
5.4189e-06
3.48497e-05
4.92464e-05
1.16271e-11
1.83225e-11
2.51481e-11
1.74688e-11
1.10278e-11
5.58526e-12
3.5326e-10
4.00782e-08
5.33687e-07
2.09387e-06
4.89739e-06
8.89463e-06
1.15266e-05
1.203e-05
9.57626e-06
2.3063e-06
7.51974e-08
1.08466e-09
7.38925e-08
1.83239e-06
7.57023e-06
1.23762e-05
8.38219e-12
9.10095e-12
6.47826e-12
4.5812e-12
5.34638e-12
4.56606e-12
4.6928e-11
3.15495e-09
2.88262e-08
1.42472e-07
6.19468e-07
1.33994e-06
1.77555e-06
1.83717e-06
7.69264e-07
6.93931e-08
1.38253e-09
5.25939e-10
1.0559e-08
2.06293e-08
4.74357e-08
8.84387e-08
2.61327e-08
6.37871e-12
5.47736e-12
3.69644e-12
2.63892e-12
2.79274e-12
2.99756e-12
3.34793e-12
3.51795e-11
1.41206e-10
8.70639e-10
1.43098e-08
6.87352e-08
1.15037e-07
1.14182e-07
3.47275e-08
1.15561e-09
1.75422e-10
1.79216e-10
5.53997e-10
3.29724e-10
4.61459e-10
9.76052e-10
1.42178e-09
5.67138e-12
3.92691e-12
2.15925e-12
1.34482e-12
1.59306e-12
2.07534e-12
2.28817e-12
2.30562e-12
2.08817e-12
2.55794e-12
2.30125e-11
3.4871e-10
1.16066e-09
1.53853e-09
1.22118e-09
3.25582e-10
1.39699e-10
1.12291e-10
1.10937e-10
1.49485e-10
4.82954e-10
9.73369e-10
1.23369e-09
5.31294e-12
3.38396e-12
1.58244e-12
7.58064e-13
7.99933e-13
1.30284e-12
1.70611e-12
1.92912e-12
1.93693e-12
1.90656e-12
3.63463e-12
2.04041e-12
4.08252e-12
3.83164e-11
1.94486e-10
3.27172e-10
2.53689e-10
1.2375e-10
1.0828e-10
1.16326e-10
2.25069e-10
4.15282e-10
3.57637e-10
5.18639e-12
3.35627e-12
1.64295e-12
6.2617e-13
3.46114e-13
6.31857e-13
1.08925e-12
1.45317e-12
1.49995e-12
1.35856e-12
1.64032e-12
1.3424e-12
1.68134e-12
4.4681e-12
1.23826e-11
1.66696e-10
2.95032e-10
2.07448e-10
1.2741e-10
1.09278e-10
1.1029e-10
1.13426e-10
9.92581e-11
5.13173e-12
3.51645e-12
1.89251e-12
6.88085e-13
1.85008e-13
2.25564e-13
5.4606e-13
9.77802e-13
1.10057e-12
9.8819e-13
8.63454e-13
7.13658e-13
7.0421e-13
2.04545e-12
2.20091e-12
1.42055e-11
1.48345e-10
2.03857e-10
1.68193e-10
1.37523e-10
1.18013e-10
1.0437e-10
9.62616e-11
4.88049e-12
3.50275e-12
1.99351e-12
7.7051e-13
1.81403e-13
7.68176e-14
2.03605e-13
5.63923e-13
7.59084e-13
7.19272e-13
5.52674e-13
3.89077e-13
3.18697e-13
7.31897e-13
8.84577e-13
2.1085e-12
1.34644e-11
9.41193e-11
1.24433e-10
1.26814e-10
1.183e-10
1.04418e-10
9.85494e-11
4.31103e-12
3.13757e-12
1.77987e-12
7.2326e-13
1.96727e-13
4.49603e-14
6.2159e-14
2.69662e-13
4.81213e-13
4.94295e-13
3.70581e-13
2.33565e-13
1.57112e-13
2.44203e-13
3.84169e-13
8.82528e-13
2.44117e-12
1.03261e-11
3.69651e-11
5.58911e-11
6.78395e-11
7.09527e-11
7.51202e-11
3.41706e-12
2.47912e-12
1.35953e-12
5.56367e-13
1.64397e-13
3.54369e-14
1.95863e-14
1.07179e-13
2.69719e-13
3.04016e-13
2.3089e-13
1.39188e-13
8.07173e-14
8.44909e-14
1.56106e-13
3.99758e-13
1.06968e-12
3.11619e-12
5.82028e-12
1.06355e-11
1.72007e-11
2.23068e-11
2.89631e-11
2.37098e-12
1.70485e-12
8.91782e-13
3.56615e-13
1.07723e-13
2.4117e-14
7.54882e-15
3.7303e-14
1.28618e-13
1.60847e-13
1.2614e-13
7.52415e-14
3.99639e-14
3.09585e-14
5.99244e-14
1.82611e-13
)
;

boundaryField
{
    leftWall
    {
        type            zeroGradient;
    }
    rightWall
    {
        type            zeroGradient;
    }
    lowerWall
    {
        type            zeroGradient;
    }
    atmosphere
    {
        type            inletOutlet;
        inletValue      nonuniform 0();
        value           nonuniform 0();
    }
    defaultFaces
    {
        type            empty;
    }
    procBoundary0to1
    {
        type            processor;
        value           nonuniform List<scalar> 
26
(
0.999992
0.999989
0.999988
0.999986
0.99837
0.833526
0.0561846
0.00421762
0.00350344
7.63051e-05
2.15906e-05
1.08082e-05
8.17206e-07
1.51178e-06
4.83211e-05
9.09046e-06
9.09046e-06
3.75755e-09
1.62065e-09
1.30824e-09
2.10487e-10
9.01145e-11
9.27143e-11
9.631e-11
7.65513e-11
3.45443e-11
)
;
    }
    procBoundary0to2
    {
        type            processor;
        value           nonuniform List<scalar> 
24
(
5.56464e-13
1.52504e-12
3.46443e-12
6.41303e-12
1.027e-11
1.42229e-11
1.90958e-11
1.41703e-12
1.00574e-12
4.99672e-13
1.92786e-13
5.78223e-14
1.33319e-14
3.29936e-15
1.20056e-14
5.25864e-14
7.2895e-14
5.97701e-14
3.59076e-14
1.82154e-14
1.15874e-14
2.20307e-14
5.56464e-13
7.77341e-14
)
;
    }
}


// ************************************************************************* //
