/*--------------------------------*- C++ -*----------------------------------*\
| =========                 |                                                 |
| \\      /  F ield         | OpenFOAM: The Open Source CFD Toolbox           |
|  \\    /   O peration     | Version:  2.4.0                                 |
|   \\  /    A nd           | Web:      www.OpenFOAM.org                      |
|    \\/     M anipulation  |                                                 |
\*---------------------------------------------------------------------------*/
FoamFile
{
    version     2.0;
    format      ascii;
    class       surfaceScalarField;
    location    "0.9";
    object      phi;
}
// * * * * * * * * * * * * * * * * * * * * * * * * * * * * * * * * * * * * * //

dimensions      [0 3 -1 0 0 0 0];

internalField   nonuniform List<scalar> 
1101
(
-4.62606e-06
4.62606e-06
-1.02237e-05
5.5976e-06
-1.64067e-05
6.18301e-06
-2.15821e-05
5.17546e-06
-2.47829e-05
3.20072e-06
-2.58972e-05
1.1143e-06
-2.53776e-05
-5.19587e-07
-2.37252e-05
-1.65237e-06
-2.15757e-05
-2.14947e-06
-1.97457e-05
-1.83005e-06
-1.82362e-05
-1.50951e-06
-1.6456e-05
-1.78017e-06
-1.44432e-05
-2.01276e-06
-1.27175e-05
-1.72571e-06
-1.1592e-05
-1.12558e-06
-1.088e-05
-7.11937e-07
-1.01219e-05
-7.58131e-07
-8.85412e-06
-1.26777e-06
-6.80702e-06
-2.0471e-06
-4.30641e-06
-2.50061e-06
-2.89393e-06
-1.41248e-06
-5.6097e-07
-4.08092e-06
8.70698e-06
-8.76871e-06
1.02854e-05
-1.4454e-05
1.18683e-05
-2.02881e-05
1.10095e-05
-2.40271e-05
6.93981e-06
-2.58651e-05
2.95229e-06
-2.57734e-05
-6.11282e-07
-2.40545e-05
-3.37127e-06
-2.18451e-05
-4.3589e-06
-1.98134e-05
-3.8618e-06
-1.78784e-05
-3.44444e-06
-1.59804e-05
-3.67819e-06
-1.41605e-05
-3.83264e-06
-1.26617e-05
-3.22458e-06
-1.16293e-05
-2.15795e-06
-1.07523e-05
-1.58889e-06
-9.79292e-06
-1.71754e-06
-8.41985e-06
-2.64084e-06
-6.2698e-06
-4.19715e-06
-3.88851e-06
-4.8819e-06
-1.73372e-06
-3.56727e-06
-1.83384e-06
-5.15492e-06
1.38619e-05
-1.24087e-05
1.75392e-05
-1.81572e-05
1.76168e-05
-2.21608e-05
1.5013e-05
-2.49893e-05
9.76834e-06
-2.65343e-05
4.49731e-06
-2.62097e-05
-9.35907e-07
-2.42266e-05
-5.35435e-06
-2.17561e-05
-6.82942e-06
-1.93817e-05
-6.23622e-06
-1.71995e-05
-5.62664e-06
-1.54669e-05
-5.4108e-06
-1.41072e-05
-5.1923e-06
-1.28732e-05
-4.45857e-06
-1.18584e-05
-3.17278e-06
-1.0758e-05
-2.6893e-06
-9.37959e-06
-3.09594e-06
-7.95097e-06
-4.06946e-06
-6.16721e-06
-5.9809e-06
-4.19692e-06
-6.85219e-06
-1.59512e-06
-6.16907e-06
-3.47557e-06
-7.81471e-06
2.16766e-05
-1.4966e-05
2.46905e-05
-2.39108e-05
2.65617e-05
-2.87082e-05
1.98104e-05
-3.01483e-05
1.12085e-05
-2.91447e-05
3.49364e-06
-2.71363e-05
-2.94424e-06
-2.47354e-05
-7.7553e-06
-2.19267e-05
-9.6381e-06
-1.91725e-05
-8.99039e-06
-1.69416e-05
-7.85763e-06
-1.54115e-05
-6.94083e-06
-1.42371e-05
-6.36677e-06
-1.30127e-05
-5.6829e-06
-1.1631e-05
-4.55447e-06
-1.00225e-05
-4.29783e-06
-8.6036e-06
-4.51485e-06
-7.51433e-06
-5.15874e-06
-6.60791e-06
-6.88732e-06
-5.31216e-06
-8.14793e-06
-2.42699e-06
-9.05424e-06
-5.82574e-06
-5.35302e-06
2.70296e-05
-1.61221e-05
3.54596e-05
-2.93085e-05
3.9748e-05
-3.42352e-05
2.47372e-05
-3.43671e-05
1.13404e-05
-3.29797e-05
2.10626e-06
-3.08167e-05
-5.10722e-06
-2.83553e-05
-1.02168e-05
-2.54278e-05
-1.25655e-05
-2.21123e-05
-1.23059e-05
-1.91377e-05
-1.08323e-05
-1.69963e-05
-9.08218e-06
-1.55783e-05
-7.78472e-06
-1.40596e-05
-7.20164e-06
-1.1937e-05
-6.67705e-06
-9.85685e-06
-6.378e-06
-8.46038e-06
-5.91132e-06
-7.55101e-06
-6.06811e-06
-6.70129e-06
-7.73704e-06
-5.2673e-06
-9.58193e-06
-3.25582e-06
-1.10657e-05
-7.75206e-06
-9.92299e-06
3.69526e-05
-2.15249e-05
4.70615e-05
-3.70076e-05
5.52307e-05
-4.357e-05
3.12995e-05
-4.23113e-05
1.00816e-05
-3.89931e-05
-1.21191e-06
-3.54158e-05
-8.68447e-06
-3.17887e-05
-1.38439e-05
-2.81053e-05
-1.62489e-05
-2.40455e-05
-1.63658e-05
-2.01496e-05
-1.47282e-05
-1.77868e-05
-1.1445e-05
-1.68365e-05
-8.73497e-06
-1.63351e-05
-7.70306e-06
-1.54685e-05
-7.54365e-06
-1.35265e-05
-8.32001e-06
-1.09171e-05
-8.52072e-06
-8.47616e-06
-8.50904e-06
-6.39167e-06
-9.82153e-06
-3.64091e-06
-1.23327e-05
-8.36216e-07
-1.38704e-05
-7.82093e-06
-6.18154e-06
4.31342e-05
-1.48877e-05
5.57677e-05
-3.17346e-05
7.20776e-05
-4.54645e-05
4.50294e-05
-4.78133e-05
1.24304e-05
-4.49135e-05
-4.11173e-06
-3.88248e-05
-1.47731e-05
-3.34896e-05
-1.91791e-05
-2.9849e-05
-1.98895e-05
-2.52597e-05
-2.09551e-05
-1.85775e-05
-2.14104e-05
-1.34592e-05
-1.65633e-05
-1.16455e-05
-1.05487e-05
-1.24579e-05
-6.89063e-06
-1.38346e-05
-6.167e-06
-1.4924e-05
-7.23058e-06
-1.32434e-05
-1.02013e-05
-9.3311e-06
-1.24214e-05
-5.89508e-06
-1.32575e-05
-3.48868e-06
-1.47391e-05
-6.17865e-06
-1.11805e-05
-4.94268e-06
-3.78876e-06
4.69229e-05
-5.77609e-06
5.7755e-05
-1.45499e-05
8.08514e-05
-3.23292e-05
6.28087e-05
-4.00582e-05
2.01593e-05
-3.94834e-05
-4.68645e-06
-3.63138e-05
-1.79428e-05
-3.43767e-05
-2.11162e-05
-3.24538e-05
-2.18123e-05
-2.77436e-05
-2.56653e-05
-2.10029e-05
-2.81511e-05
-1.33118e-05
-2.42544e-05
-6.55399e-06
-1.73066e-05
-2.91264e-06
-1.0532e-05
-2.9537e-06
-6.12593e-06
-5.15758e-06
-5.0267e-06
-6.10111e-06
-9.25775e-06
-4.84371e-06
-1.36788e-05
-4.04449e-06
-1.40568e-05
-5.37965e-06
-1.34039e-05
-1.34646e-05
-3.09555e-06
-1.92875e-06
5.37394e-06
4.1549e-05
1.37824e-05
4.93466e-05
3.21681e-05
6.24657e-05
3.34655e-05
6.15113e-05
1.32704e-05
4.03544e-05
-1.00525e-05
1.86365e-05
-3.14018e-05
3.40658e-06
-4.23372e-05
-1.01808e-05
-3.95476e-05
-2.46019e-05
-2.94855e-05
-3.57274e-05
-2.10574e-05
-3.65793e-05
-1.40948e-05
-3.12169e-05
-8.76441e-06
-2.26369e-05
-6.40095e-06
-1.28954e-05
-6.33179e-06
-6.19509e-06
-6.76975e-06
-4.58874e-06
-7.43532e-06
-8.59218e-06
-6.81396e-06
-1.43001e-05
-1.66232e-06
-1.92084e-05
8.43789e-06
-2.35041e-05
1.96378e-05
-1.42955e-05
5.66369e-06
1.07452e-05
3.08038e-05
2.09032e-05
3.91885e-05
3.48322e-05
4.85367e-05
4.63996e-05
4.99439e-05
4.68293e-05
3.99247e-05
4.22749e-05
2.31909e-05
3.90443e-05
6.63711e-06
3.66753e-05
-7.8118e-06
3.27334e-05
-2.06599e-05
2.85306e-05
-3.15246e-05
2.98662e-05
-3.79148e-05
3.71308e-05
-3.84816e-05
4.31914e-05
-2.86975e-05
4.46315e-05
-1.43355e-05
4.054e-05
-2.10358e-06
2.96345e-05
6.31672e-06
1.73154e-05
3.72689e-06
7.68372e-06
-4.66841e-06
5.21727e-06
-1.6742e-05
1.5693e-05
-3.39799e-05
1.82464e-05
-1.68489e-05
2.17805e-05
1.94663e-05
1.13376e-05
3.00496e-05
2.86052e-05
3.72524e-05
4.13339e-05
4.47164e-05
4.24799e-05
4.78286e-05
3.68125e-05
4.6807e-05
2.42125e-05
4.35955e-05
9.8486e-06
3.90134e-05
-3.22966e-06
3.50739e-05
-1.67204e-05
3.19013e-05
-2.8352e-05
3.51829e-05
-4.11964e-05
3.86174e-05
-4.19161e-05
3.93654e-05
-2.94455e-05
3.43196e-05
-9.2897e-06
2.53277e-05
6.88826e-06
2.2275e-05
9.36943e-06
2.39998e-05
2.00215e-06
1.70392e-05
2.29213e-06
-4.10075e-06
4.39801e-06
-2.30081e-05
-1.50726e-05
-5.28469e-05
1.29901e-05
0.000105943
2.06837e-05
-9.34612e-06
2.74167e-05
2.18722e-05
2.99932e-05
3.87574e-05
3.41545e-05
3.83186e-05
3.66138e-05
3.43532e-05
3.49506e-05
2.58757e-05
3.04872e-05
1.43121e-05
2.8069e-05
-8.1152e-07
2.42396e-05
-1.2891e-05
2.6138e-05
-3.02504e-05
2.94756e-05
-4.4534e-05
2.37606e-05
-3.62011e-05
1.59337e-05
-2.16186e-05
2.43146e-06
4.21252e-06
-1.67375e-05
2.60572e-05
-4.04002e-05
3.30322e-05
-6.90583e-05
3.06602e-05
-9.07745e-05
2.40084e-05
-0.000113928
2.75511e-05
-0.000149662
2.06618e-05
-0.000175907
3.92349e-05
0.000158561
1.08591e-05
-2.02052e-05
1.04523e-05
2.22789e-05
8.55459e-06
4.06551e-05
9.40937e-06
3.74638e-05
1.0721e-05
3.30416e-05
8.62124e-06
2.79755e-05
5.86385e-06
1.70695e-05
4.32678e-06
7.25552e-07
-1.07716e-05
2.20734e-06
-5.38758e-05
1.28538e-05
-9.63534e-05
-2.05636e-06
-0.000130808
-1.74655e-06
-0.00015473
2.30373e-06
-0.000173763
2.32448e-05
-0.000186889
3.91835e-05
-0.000198088
4.42315e-05
-0.000203932
3.65035e-05
-0.00020679
2.68666e-05
-0.000274275
9.50367e-05
-0.000408837
0.000155223
-0.000417253
4.76511e-05
0.000129286
-1.17388e-05
-8.46633e-06
-1.54735e-05
2.60136e-05
-1.50804e-05
4.02619e-05
-1.36805e-05
3.60639e-05
-8.5184e-06
2.78795e-05
-1.03822e-05
2.98393e-05
-2.76949e-05
3.43822e-05
-7.34624e-05
4.64931e-05
-0.000132725
6.14701e-05
-0.000173609
5.37379e-05
-0.000194662
1.89968e-05
-0.000205034
8.62481e-06
-0.000216165
1.34346e-05
-0.000227419
3.44989e-05
-0.000232028
4.37927e-05
-0.000245076
5.72797e-05
-0.000311562
0.000102989
-0.000526355
0.000241659
-0.000724184
0.000292866
-0.000646525
7.75637e-05
-0.000585353
-1.35213e-05
-1.57254e-05
-1.21169e-05
3.65059e-06
-1.30051e-05
2.69018e-05
-1.51387e-05
4.23955e-05
-2.40408e-05
4.4966e-05
-2.69083e-05
3.07469e-05
-4.38319e-05
4.67629e-05
-0.000119111
0.000109662
-0.000196074
0.000123456
-0.000233108
9.8504e-05
-0.000227164
4.77941e-05
-0.000222343
1.41757e-05
-0.000222904
9.18621e-06
-0.000226605
1.71358e-05
-0.000222563
3.04562e-05
-0.000222756
4.39858e-05
-0.000277412
0.000111935
-0.000412915
0.000238492
-0.00054177
0.000370514
-0.000496442
0.000247538
-0.000364884
-5.39937e-05
-0.000294492
-8.39134e-05
-8.59538e-05
-1.97977e-05
2.34482e-05
-3.14598e-05
3.8564e-05
-3.58767e-05
4.68125e-05
-2.91627e-05
3.8252e-05
-5.15063e-05
5.30905e-05
-0.00012148
0.000116736
-0.000209315
0.000197497
-0.000249746
0.000163886
-0.000256221
0.000104979
-0.000250277
4.18504e-05
-0.00023739
1.2885e-06
-0.000220022
-8.18136e-06
-0.000209451
6.56406e-06
-0.000194576
1.55811e-05
-0.000190886
4.02957e-05
-0.000270697
0.000191747
-0.000360627
0.000328422
-0.000384604
0.000394491
-0.000331995
0.00019493
-0.00028246
-0.00010353
-0.000236578
-0.000129795
-8.98081e-05
-2.56978e-05
4.9146e-05
-4.81699e-05
6.10361e-05
-8.75249e-05
8.61675e-05
-0.000109588
6.03155e-05
-0.000109839
5.33406e-05
-0.000123373
0.000130271
-0.000198305
0.000272429
-0.000271976
0.000237558
-0.00028662
0.000119622
-0.000269475
2.4706e-05
-0.000223829
-4.43575e-05
-0.000203117
-2.88929e-05
-0.000187449
-9.10409e-06
-0.000162313
-9.55536e-06
-0.000155642
3.36247e-05
-0.000192261
0.000228366
-0.000228814
0.000364974
-0.000190752
0.00035643
-0.000166537
0.000170714
-0.000213452
-5.66146e-05
-0.000259027
-8.42194e-05
-0.000309443
-3.93924e-05
-1.16488e-05
-7.63901e-05
0.000125536
-9.41816e-05
7.88276e-05
-8.7339e-05
7.93249e-05
-8.8142e-05
6.11185e-05
-0.000109408
7.46069e-05
-0.000108254
0.000129116
-8.07683e-05
0.000244944
-0.00010996
0.00026675
-0.00015058
0.000160242
-0.00016582
3.99455e-05
-0.000206884
-3.29298e-06
-0.000218304
-1.7473e-05
-0.000185606
-4.18022e-05
-0.000179402
-1.57596e-05
-0.00017983
3.40528e-05
-0.000158583
0.00020712
-0.00012697
0.00033336
-9.10992e-05
0.000320559
-9.61983e-05
0.000175813
-0.000154377
1.56383e-06
-0.000206191
-3.24056e-05
-0.000226662
-1.89208e-05
-4.05774e-06
-3.78816e-05
0.000163418
-6.73957e-05
0.000108342
-6.80348e-05
7.9964e-05
-7.6637e-05
6.97207e-05
-8.89518e-05
8.69217e-05
-9.28158e-05
0.00013298
-4.59558e-05
0.000198084
-3.03693e-06
0.000223831
-1.22115e-06
0.000158426
-3.61583e-05
7.48827e-05
-8.52682e-05
4.58169e-05
-0.000124874
2.21328e-05
-0.000165215
-1.46075e-06
-0.000188923
7.94761e-06
-0.000188956
3.40858e-05
-0.000133394
0.000151559
-8.10193e-05
0.000280985
-4.02288e-05
0.000279769
-4.27109e-05
0.000178295
-0.000114647
7.35002e-05
-0.000192706
4.56528e-05
-0.000260264
4.86378e-05
2.91442e-05
-2.67228e-05
0.00019014
-4.83393e-05
0.000129958
-5.49508e-05
8.65755e-05
-6.01002e-05
7.487e-05
-5.83695e-05
8.5191e-05
-4.93296e-05
0.00012394
-1.99904e-05
0.000168745
1.78045e-05
0.000186036
2.59416e-05
0.000150289
5.1051e-06
9.57193e-05
-1.70155e-05
6.79376e-05
-4.44126e-05
4.95299e-05
-9.24693e-05
4.6596e-05
-0.000131596
4.70741e-05
-0.000150144
5.26344e-05
-0.000112952
0.000114366
-4.78619e-05
0.000215895
-1.3655e-05
0.000245562
-3.25003e-05
0.000197141
-9.14185e-05
0.000132418
-0.000138849
9.30832e-05
-0.000166853
7.66421e-05
5.21914e-05
-1.86368e-05
0.000208777
-3.05717e-05
0.000141893
-3.58791e-05
9.18829e-05
-3.63023e-05
7.52932e-05
-3.17673e-05
8.06561e-05
-1.52521e-05
0.000107425
1.33371e-05
0.000140155
3.58056e-05
0.000163567
4.06402e-05
0.000145455
2.4995e-05
0.000111365
1.15988e-05
8.13338e-05
9.28679e-07
6.02001e-05
-1.52616e-05
6.27863e-05
-4.20415e-05
7.3854e-05
-7.79212e-05
8.85141e-05
-7.85875e-05
0.000115033
-3.10548e-05
0.000168362
1.0279e-05
0.000204228
1.166e-05
0.00019576
-1.99217e-05
0.000164
-5.60884e-05
0.00012925
-7.91577e-05
9.97114e-05
6.64604e-05
-3.30479e-06
0.000212082
-8.41016e-06
0.000146998
-1.37654e-05
9.72381e-05
-1.42603e-05
7.57882e-05
-1.04331e-05
7.68288e-05
3.59325e-06
9.33987e-05
3.09297e-05
0.000112819
5.25045e-05
0.000141993
5.752e-05
0.000140439
4.73512e-05
0.000121533
3.66229e-05
9.20622e-05
2.92592e-05
6.75638e-05
2.23906e-05
6.96549e-05
1.64087e-05
7.98359e-05
8.92928e-06
9.59935e-05
6.23187e-06
0.00011773
2.69997e-05
0.000147594
6.38188e-05
0.000167409
8.87722e-05
0.000170806
0.000105722
0.00014705
0.000111156
0.000123816
0.000112641
9.82263e-05
6.64356e-05
1.27012e-05
0.000199381
1.12932e-05
0.000148406
6.85706e-06
0.000101674
4.52116e-06
7.81241e-05
5.78922e-06
7.55608e-05
1.37915e-05
8.53965e-05
3.23239e-05
9.42866e-05
5.54777e-05
0.000118839
6.43054e-05
0.000131611
6.33631e-05
0.000122476
5.7625e-05
9.78003e-05
5.06079e-05
7.4581e-05
4.59372e-05
7.43257e-05
4.51774e-05
8.05957e-05
4.93082e-05
9.18627e-05
5.99175e-05
0.000107121
8.42121e-05
0.000123299
0.000118571
0.000133051
0.000148816
0.000140561
0.000173696
0.00012217
0.000197668
9.98446e-05
0.000216726
7.91685e-05
5.86042e-05
2.10162e-05
0.000178365
2.39055e-05
0.000145517
2.18215e-05
0.000103758
1.90793e-05
8.08662e-05
1.80822e-05
7.65579e-05
2.12461e-05
8.22326e-05
2.91077e-05
8.6425e-05
4.70063e-05
0.00010094
6.11336e-05
0.000117484
6.80868e-05
0.000115522
6.78395e-05
9.80477e-05
6.23889e-05
8.00316e-05
5.90073e-05
7.77073e-05
5.93922e-05
8.02108e-05
6.59302e-05
8.53247e-05
8.03348e-05
9.27162e-05
0.000104224
9.941e-05
0.00013552
0.000101755
0.000171606
0.000104474
0.000193987
9.97891e-05
0.000216606
7.72254e-05
0.000242926
5.28492e-05
4.27172e-05
2.08804e-05
0.000157484
2.90769e-05
0.000137321
3.02006e-05
0.000102635
2.79426e-05
8.31242e-05
2.58037e-05
7.86968e-05
2.61685e-05
8.18679e-05
2.84804e-05
8.41131e-05
3.78985e-05
9.15221e-05
5.31916e-05
0.000102191
6.52115e-05
0.000103503
6.86316e-05
9.46276e-05
6.57194e-05
8.29438e-05
6.36478e-05
7.97788e-05
6.44915e-05
7.93672e-05
7.01499e-05
7.96663e-05
8.24668e-05
8.03992e-05
0.000100946
0.00012463
0.000157332
0.000180921
0.000198242
0.000222343
1.88945e-05
3.01575e-05
3.29359e-05
3.12082e-05
2.91673e-05
2.91158e-05
3.02412e-05
3.52752e-05
4.64568e-05
5.80496e-05
6.3866e-05
6.38236e-05
6.34753e-05
6.54699e-05
7.06108e-05
)
;

boundaryField
{
    leftWall
    {
        type            calculated;
        value           uniform 0;
    }
    rightWall
    {
        type            calculated;
        value           nonuniform 0();
    }
    lowerWall
    {
        type            calculated;
        value           nonuniform List<scalar> 
22
(
2.21673e-23
1.23779e-22
6.11058e-24
2.04787e-22
2.84915e-23
-7.68481e-23
-4.20936e-23
1.54881e-22
1.46349e-22
1.07671e-22
2.05116e-23
2.01246e-23
2.07872e-23
-7.33859e-23
2.44684e-23
2.22553e-23
7.2428e-24
1.25953e-22
-1.92181e-22
1.17864e-22
-5.96638e-23
8.15445e-24
)
;
    }
    atmosphere
    {
        type            calculated;
        value           nonuniform 0();
    }
    defaultFaces
    {
        type            empty;
        value           nonuniform 0();
    }
    procBoundary0to1
    {
        type            processor;
        value           nonuniform List<scalar> 
26
(
-2.33296e-06
-4.60852e-07
4.66104e-08
-7.68199e-08
-1.32949e-06
-7.67353e-07
-9.05691e-06
-1.64785e-05
1.20454e-05
2.12957e-06
-0.000137009
-0.000228526
-0.00038798
-0.000440342
-0.000224264
-0.000232724
4.28895e-05
-0.000340683
-0.000234253
-0.000293466
-0.0001899
-9.34265e-05
0.000112666
0.000224557
0.000258813
0.000244139
)
;
    }
    procBoundary0to2
    {
        type            processor;
        value           nonuniform List<scalar> 
24
(
8.09313e-05
7.80707e-05
7.17725e-05
7.62003e-05
5.99038e-05
2.87487e-05
2.09212e-05
0.00013859
0.000126058
9.98562e-05
8.48519e-05
8.07377e-05
8.19194e-05
8.29877e-05
8.6488e-05
9.10095e-05
9.19098e-05
8.88112e-05
8.29863e-05
8.01271e-05
7.73727e-05
7.45254e-05
7.97182e-05
7.12919e-05
)
;
    }
}


// ************************************************************************* //
