/*--------------------------------*- C++ -*----------------------------------*\
| =========                 |                                                 |
| \\      /  F ield         | OpenFOAM: The Open Source CFD Toolbox           |
|  \\    /   O peration     | Version:  2.4.0                                 |
|   \\  /    A nd           | Web:      www.OpenFOAM.org                      |
|    \\/     M anipulation  |                                                 |
\*---------------------------------------------------------------------------*/
FoamFile
{
    version     2.0;
    format      ascii;
    class       surfaceScalarField;
    location    "0.9";
    object      phi.mercury;
}
// * * * * * * * * * * * * * * * * * * * * * * * * * * * * * * * * * * * * * //

dimensions      [0 3 -1 0 0 0 0];

internalField   nonuniform List<scalar> 
1101
(
-4.62606e-06
4.62599e-06
-1.02237e-05
5.59755e-06
-1.64067e-05
6.18301e-06
-2.15821e-05
5.17546e-06
-2.47829e-05
3.20072e-06
-2.58972e-05
1.1143e-06
-2.53776e-05
-5.19587e-07
-2.37252e-05
-1.65237e-06
-2.15757e-05
-2.14947e-06
-1.97457e-05
-1.83005e-06
-1.82362e-05
-1.50951e-06
-1.6456e-05
-1.78017e-06
-1.44432e-05
-2.01276e-06
-1.27175e-05
-1.72571e-06
-1.1592e-05
-1.12558e-06
-1.088e-05
-7.11937e-07
-1.01219e-05
-7.58132e-07
-8.85412e-06
-1.26777e-06
-6.80702e-06
-2.0471e-06
-4.30641e-06
-2.50061e-06
-2.89393e-06
-1.41248e-06
-5.60979e-07
-4.08092e-06
7.78742e-06
-8.76871e-06
1.01065e-05
-1.4454e-05
1.18619e-05
-2.02881e-05
1.10094e-05
-2.40272e-05
6.9398e-06
-2.58651e-05
2.95229e-06
-2.57734e-05
-6.11282e-07
-2.40545e-05
-3.37127e-06
-2.18451e-05
-4.3589e-06
-1.98134e-05
-3.8618e-06
-1.78784e-05
-3.44444e-06
-1.59804e-05
-3.67819e-06
-1.41605e-05
-3.83264e-06
-1.26617e-05
-3.22458e-06
-1.16293e-05
-2.15795e-06
-1.07523e-05
-1.58889e-06
-9.79293e-06
-1.71754e-06
-8.41985e-06
-2.64084e-06
-6.2698e-06
-4.19715e-06
-3.88851e-06
-4.8819e-06
-1.73372e-06
-3.56727e-06
-1.83385e-06
-4.82978e-06
-1.86378e-05
-1.23087e-05
-5.82888e-06
-1.81598e-05
1.13167e-05
-2.21608e-05
1.47513e-05
-2.49893e-05
9.75611e-06
-2.65343e-05
4.4969e-06
-2.62097e-05
-9.35953e-07
-2.42266e-05
-5.35437e-06
-2.17561e-05
-6.82942e-06
-1.93817e-05
-6.23622e-06
-1.71995e-05
-5.62664e-06
-1.54669e-05
-5.4108e-06
-1.41072e-05
-5.1923e-06
-1.28732e-05
-4.45857e-06
-1.18584e-05
-3.17278e-06
-1.0758e-05
-2.6893e-06
-9.37959e-06
-3.09594e-06
-7.95097e-06
-4.06947e-06
-6.16721e-06
-5.9809e-06
-4.19692e-06
-6.85219e-06
-1.59512e-06
-6.16907e-06
-3.47558e-06
-5.04957e-06
-2.87163e-05
-1.31179e-05
-1.10728e-05
-2.29594e-05
7.34633e-06
-2.86377e-05
1.60271e-05
-3.01524e-05
1.0883e-05
-2.91449e-05
3.47267e-06
-2.71364e-05
-2.9457e-06
-2.47354e-05
-7.75547e-06
-2.19267e-05
-9.6382e-06
-1.91725e-05
-8.99115e-06
-1.69416e-05
-7.86129e-06
-1.54115e-05
-6.94703e-06
-1.42371e-05
-6.37276e-06
-1.30127e-05
-5.68755e-06
-1.1631e-05
-4.55675e-06
-1.00225e-05
-4.29852e-06
-8.6036e-06
-4.515e-06
-7.51433e-06
-5.15878e-06
-6.60791e-06
-6.88738e-06
-5.31217e-06
-8.14813e-06
-2.42699e-06
-9.05559e-06
-5.83055e-06
-6.36916e-06
-4.03483e-06
-1.78403e-05
-1.10358e-05
-2.85517e-05
2.03896e-06
-3.38184e-05
1.20004e-05
-3.43476e-05
9.80681e-06
-3.29841e-05
1.92617e-06
-3.08171e-05
-5.13181e-06
-2.83553e-05
-1.02441e-05
-2.5428e-05
-1.27002e-05
-2.21129e-05
-1.27265e-05
-1.9138e-05
-1.17705e-05
-1.69965e-05
-1.04144e-05
-1.55784e-05
-9.11564e-06
-1.40597e-05
-8.37123e-06
-1.19371e-05
-7.51937e-06
-9.85688e-06
-6.89092e-06
-8.46039e-06
-6.22809e-06
-7.55101e-06
-6.28903e-06
-6.7013e-06
-7.95015e-06
-5.26739e-06
-9.87615e-06
-3.25598e-06
-1.16236e-05
-8.8719e-06
-2.20158e-05
2.85286e-05
-4.06482e-05
-3.41663e-06
-4.25405e-05
-1.9373e-06
-4.34e-05
4.9737e-06
-4.22712e-05
4.909e-06
-3.89926e-05
-2.13695e-06
-3.54165e-05
-9.55139e-06
-3.1795e-05
-1.62992e-05
-2.8137e-05
-2.18299e-05
-2.41168e-05
-2.65358e-05
-2.02331e-05
-3.03215e-05
-1.78352e-05
-3.07135e-05
-1.68572e-05
-2.89089e-05
-1.63301e-05
-2.7386e-05
-1.54522e-05
-2.49062e-05
-1.3517e-05
-2.24131e-05
-1.09115e-05
-2.00385e-05
-8.47502e-06
-1.82251e-05
-6.39585e-06
-1.8823e-05
-3.6551e-06
-2.19335e-05
-8.76731e-07
-2.61064e-05
-2.76209e-05
-1.86569e-05
3.60459e-05
-3.8177e-05
6.80075e-06
-4.45108e-05
-5.45862e-06
-4.71528e-05
-1.67273e-06
-4.79423e-05
-5.95461e-06
-4.49182e-05
-1.47996e-05
-3.90275e-05
-2.64586e-05
-3.39758e-05
-3.7303e-05
-3.04938e-05
-4.83694e-05
-2.61397e-05
-6.60833e-05
-1.97667e-05
-8.47102e-05
-1.46345e-05
-9.00843e-05
-1.27474e-05
-8.36545e-05
-1.34372e-05
-7.59055e-05
-1.47701e-05
-7.06041e-05
-1.53952e-05
-6.48631e-05
-1.3401e-05
-6.22126e-05
-9.46173e-06
-5.9538e-05
-6.09218e-06
-5.89542e-05
-3.76168e-06
-6.17914e-05
-5.89782e-06
-6.36315e-05
-7.61516e-05
-1.18951e-05
4.07352e-05
-2.64293e-05
2.16537e-05
-3.58811e-05
-5.28599e-06
-3.87199e-05
-4.6631e-06
-4.06076e-05
-1.38559e-05
-3.93179e-05
-2.99349e-05
-3.62781e-05
-4.69242e-05
-3.3207e-05
-5.84153e-05
-2.80416e-05
-7.11413e-05
-1.93754e-05
-9.61699e-05
-1.4954e-05
-0.000124048
-1.34782e-05
-0.000130793
-9.91277e-06
-0.00010721
-8.41629e-06
-8.21543e-05
-1.1135e-05
-7.52054e-05
-1.4541e-05
-7.08406e-05
-1.40701e-05
-7.05404e-05
-1.04977e-05
-7.08722e-05
-7.38454e-06
-7.29583e-05
-6.71571e-06
-7.62272e-05
-1.06667e-05
-7.25317e-05
-8.32719e-05
6.98705e-07
3.62529e-05
-2.27481e-05
3.61817e-05
-3.54732e-05
1.07299e-05
-3.0108e-05
-3.99421e-06
-2.1987e-05
-1.85532e-05
-1.32152e-05
-3.56983e-05
-8.07888e-06
-5.27429e-05
-3.77821e-06
-6.74472e-05
3.13064e-06
-8.1565e-05
9.39964e-06
-9.65896e-05
-3.10484e-06
-9.37165e-05
-1.72612e-05
-8.09115e-05
-1.55268e-05
-5.26313e-05
-1.06482e-05
-2.57384e-05
-6.0296e-06
-1.95849e-05
-2.65383e-06
-1.88665e-05
-3.82449e-06
-2.50528e-05
-6.7005e-06
-3.24472e-05
-5.01556e-06
-3.89224e-05
3.27452e-06
-4.69552e-05
1.89908e-05
-4.55179e-05
-2.59703e-05
1.07721e-05
2.93832e-05
9.83185e-06
3.36851e-05
3.79019e-06
2.42998e-05
-3.85919e-06
1.01562e-05
-8.84842e-07
-1.21975e-05
6.31512e-06
-3.30666e-05
1.15633e-05
-4.85572e-05
1.6069e-05
-6.00527e-05
2.06464e-05
-6.74779e-05
2.60126e-05
-6.96561e-05
2.91998e-05
-5.46629e-05
3.23267e-05
-4.33255e-05
3.99808e-05
-3.13861e-05
4.29406e-05
-1.64158e-05
3.98566e-05
-4.81397e-06
2.92832e-05
3.64306e-06
1.67337e-05
1.3263e-06
6.87451e-06
-8.02647e-06
8.86982e-07
-2.7172e-05
5.13285e-06
-5.58013e-05
1.29644e-05
-6.39659e-05
-3.40285e-05
1.96096e-05
1.21809e-05
2.85083e-05
2.95527e-05
1.81528e-05
3.79242e-05
2.21668e-05
1.86299e-05
2.08948e-05
1.08334e-05
2.29231e-05
-4.7245e-06
2.80485e-05
-1.84047e-05
3.3022e-05
-2.51357e-05
3.39602e-05
-2.91667e-05
3.05419e-05
-3.27693e-05
3.0192e-05
-3.5509e-05
3.4863e-05
-3.66829e-05
3.79781e-05
-2.95698e-05
3.38514e-05
-1.59932e-05
2.50388e-05
-4.61848e-06
2.1273e-05
1.17124e-06
2.05597e-05
-4.17619e-06
7.63774e-06
-7.38598e-06
-2.68638e-05
-2.07982e-05
-6.38581e-05
-8.28276e-05
-6.37386e-05
-9.85796e-05
-4.89477e-05
2.06816e-05
-1.12877e-05
2.74448e-05
2.05479e-05
2.69966e-05
3.87161e-05
2.4668e-05
3.5246e-05
3.13788e-05
1.71895e-05
3.389e-05
1.13402e-05
3.12313e-05
3.17279e-06
2.75625e-05
-6.13277e-06
2.3121e-05
-1.13821e-05
2.24819e-05
-2.17797e-05
2.83583e-05
-4.59867e-05
2.21525e-05
-3.40847e-05
1.33076e-05
-1.48455e-05
-1.96393e-06
1.20577e-06
-2.17709e-05
1.56597e-05
-4.56706e-05
1.92338e-05
-8.18419e-05
7.97453e-06
-0.000118103
-2.27806e-05
-0.000166649
-5.94842e-05
-0.000185601
-7.59752e-05
-0.000135814
-6.33336e-05
1.70177e-05
1.0637e-05
-2.39399e-05
1.04947e-05
1.90934e-05
8.55742e-06
3.91204e-05
9.53766e-06
3.7229e-05
1.0708e-05
3.32868e-05
8.71875e-06
2.81785e-05
5.98054e-06
1.69929e-05
4.378e-06
6.2885e-07
-1.03315e-05
2.80103e-06
-5.76897e-05
2.35696e-05
-0.000100285
-4.87738e-07
-0.00012245
-5.56705e-06
-0.000155921
-1.3395e-06
-0.00018407
1.50324e-05
-0.000203455
2.62409e-05
-0.000220334
2.06013e-05
-0.000236335
-9.82917e-06
-0.000262109
-7.64655e-05
-0.000248101
-7.73119e-05
-0.000311725
-5.82435e-05
-0.000281216
-5.96949e-05
-1.08769e-05
-1.23843e-05
-1.27379e-05
-1.58545e-05
2.27358e-05
-1.51195e-05
3.7165e-05
-1.36052e-05
3.38593e-05
-8.42552e-06
2.35984e-05
-1.00186e-05
1.95446e-05
-2.62687e-05
2.5231e-05
-7.56136e-05
4.08205e-05
-0.000120109
5.95745e-05
-0.000166404
4.37539e-05
-0.000194736
1.02965e-05
-0.000204547
4.07259e-07
-0.00022101
6.7116e-06
-0.000231675
2.2323e-05
-0.000243312
2.52435e-05
-0.000271205
1.82726e-05
-0.000357099
-2.25929e-05
-0.000387237
-4.24097e-06
-0.000463892
-2.80041e-05
-0.00039275
-0.000130849
-0.000337037
-0.000158199
-0.000137006
-1.29074e-05
-5.5615e-06
-1.42325e-05
1.40642e-05
-1.63396e-05
1.41379e-05
-2.49377e-05
-7.77984e-06
-2.61623e-05
-3.03636e-05
-3.66285e-05
-3.04444e-05
-0.000107268
7.89627e-06
-0.000193198
7.55603e-05
-0.0001949
8.02584e-05
-0.000216202
3.3185e-05
-0.000223774
-1.59663e-07
-0.000224406
-1.30616e-06
-0.000228765
9.36091e-06
-0.000231014
1.93756e-05
-0.000242711
2.35568e-05
-0.000313928
2.806e-05
-0.000263059
6.67911e-05
-0.000446397
0.000128497
-0.000236709
-3.43376e-05
-0.000273125
-0.000134926
-0.000250545
-0.00014176
-0.000155311
-2.50594e-05
-1.25674e-05
-3.5594e-05
-1.30274e-05
-4.12082e-05
-2.41982e-05
-3.81399e-05
-4.68517e-05
-4.24626e-05
-4.61637e-05
-7.56877e-05
-1.71356e-05
-0.000169653
3.18538e-05
-0.000241953
6.25723e-05
-0.000221121
3.89547e-05
-0.000228429
-4.99135e-06
-0.000220868
-2.55768e-05
-0.000215788
-1.59459e-05
-0.000213612
-1.26496e-06
-0.000210639
6.9193e-06
-0.000240554
1.11438e-05
-0.000201534
5.70738e-05
-0.000266003
0.000171714
-0.000298892
0.00029574
-0.000203568
-1.32779e-05
-0.000231616
-8.74928e-05
-0.000209983
-9.53828e-05
-9.79463e-05
-4.17533e-05
-3.0479e-05
-5.28842e-05
-1.55818e-05
-6.53269e-05
-4.05611e-06
-8.4966e-05
1.06465e-05
-0.000104573
3.51604e-05
-0.000171833
0.000104821
-0.000280255
0.000141704
-0.000296174
8.81319e-05
-0.000266962
3.59662e-05
-0.000214421
-3.22488e-05
-0.000212815
-4.24226e-05
-0.000199659
-3.39223e-05
-0.000188356
-2.14477e-05
-0.000183418
-1.38719e-05
-0.0001547
-2.47127e-06
-0.0001746
0.000120418
-0.000243701
0.000348642
-0.000223923
0.000301409
-0.000224122
8.74052e-05
-0.000213998
-4.80262e-05
-0.000237998
-4.92086e-05
-0.000261344
-2.2156e-05
-9.47875e-06
-6.53503e-05
3.08454e-05
-8.77563e-05
6.31601e-05
-8.59588e-05
7.5561e-05
-8.81041e-05
6.10407e-05
-0.000109471
7.45978e-05
-0.000120209
0.000129026
-0.000145924
0.000232167
-0.000180729
0.000220086
-0.00019142
0.000129532
-0.000192001
3.0152e-05
-0.000208242
-3.04503e-05
-0.000203142
-4.95194e-05
-0.000184577
-4.94814e-05
-0.000173504
-3.92582e-05
-0.000212273
-1.26625e-05
-0.000190038
0.000152099
-0.000131008
0.000328255
-9.38755e-05
0.000316825
-9.65519e-05
0.000174287
-0.000154555
1.00353e-06
-0.000206319
-3.23565e-05
-0.000226354
-1.89271e-05
-4.6877e-06
-3.79411e-05
0.000160697
-6.7389e-05
0.000108322
-6.80348e-05
7.99623e-05
-7.66359e-05
6.97187e-05
-8.89532e-05
8.69181e-05
-9.28212e-05
0.000132972
-4.59894e-05
0.000198085
-3.17165e-06
0.000223782
-1.26313e-06
0.00015838
-3.65002e-05
7.48781e-05
-8.88677e-05
4.52321e-05
-0.000132955
1.59496e-05
-0.000170324
-1.0876e-05
-0.000188043
-8.39645e-06
-0.0001957
1.28187e-05
-0.000165474
0.000107109
-8.21978e-05
0.000268714
-4.02906e-05
0.000279765
-4.27735e-05
0.000178311
-0.000115354
7.34748e-05
-0.000193718
4.56006e-05
-0.000260659
4.85622e-05
2.84155e-05
-2.67246e-05
0.000190138
-4.83397e-05
0.000129956
-5.49513e-05
8.65741e-05
-6.00993e-05
7.48687e-05
-5.83691e-05
8.51893e-05
-4.93341e-05
0.000123937
-1.99931e-05
0.000168743
1.78106e-05
0.000186039
2.59454e-05
0.00015029
5.10609e-06
9.57174e-05
-1.70117e-05
6.79342e-05
-4.45613e-05
4.95174e-05
-9.5005e-05
4.62252e-05
-0.000139893
4.5342e-05
-0.000164503
4.98039e-05
-0.000136045
9.77566e-05
-5.30946e-05
0.000198445
-1.3718e-05
0.000245032
-3.25288e-05
0.000197156
-9.15777e-05
0.000132403
-0.000139154
9.28764e-05
-0.000166911
7.63104e-05
5.20697e-05
-1.86387e-05
0.000208775
-3.05719e-05
0.000141891
-3.58798e-05
9.18815e-05
-3.63017e-05
7.5292e-05
-3.17664e-05
8.06546e-05
-1.52525e-05
0.000107423
1.3336e-05
0.000140154
3.58067e-05
0.000163567
4.06417e-05
0.000145454
2.49963e-05
0.000111363
1.16006e-05
8.13311e-05
9.31046e-07
6.01969e-05
-1.52659e-05
6.27821e-05
-4.2697e-05
7.38301e-05
-8.30414e-05
8.79155e-05
-9.05176e-05
0.0001117
-4.30337e-05
0.000156739
9.69126e-06
0.000201391
1.16439e-05
0.000195361
-1.99505e-05
0.000163996
-5.61238e-05
0.000129249
-7.91839e-05
9.96985e-05
6.64535e-05
-3.30648e-06
0.00021208
-8.4104e-06
0.000146997
-1.3766e-05
9.72367e-05
-1.426e-05
7.5787e-05
-1.04324e-05
7.68276e-05
3.59381e-06
9.33972e-05
3.09301e-05
0.000112817
5.25051e-05
0.000141991
5.75208e-05
0.000140438
4.73521e-05
0.000121531
3.66241e-05
9.20599e-05
2.92609e-05
6.7561e-05
2.23923e-05
6.96515e-05
1.64096e-05
7.98318e-05
8.61808e-06
9.59877e-05
5.75686e-07
0.000117404
1.7209e-05
0.00014409
5.96135e-05
0.00016436
8.84439e-05
0.000169858
0.00010568
0.00014677
0.000111127
0.000123811
0.000112617
9.82437e-05
6.64605e-05
1.26999e-05
0.000199379
1.1293e-05
0.000148405
6.85667e-06
0.000101673
4.52138e-06
7.8123e-05
5.78968e-06
7.55596e-05
1.3792e-05
8.53951e-05
3.23244e-05
9.42849e-05
5.54782e-05
0.000118837
6.43059e-05
0.00013161
6.33636e-05
0.000122474
5.76258e-05
9.77982e-05
5.0609e-05
7.45785e-05
4.59384e-05
7.43228e-05
4.51783e-05
8.05923e-05
4.93085e-05
9.18592e-05
5.9822e-05
0.000107117
8.22852e-05
0.000123202
0.000114751
0.00013229
0.000146541
0.000139911
0.000173226
0.000122021
0.000197608
9.99227e-05
0.000216705
7.91987e-05
5.86285e-05
2.10153e-05
0.000178363
2.39053e-05
0.000145516
2.18212e-05
0.000103757
1.90795e-05
8.08651e-05
1.80825e-05
7.65568e-05
2.12465e-05
8.22313e-05
2.91081e-05
8.64235e-05
4.70067e-05
0.000100938
6.11337e-05
0.000117483
6.8087e-05
0.000115521
6.78399e-05
9.80456e-05
6.23895e-05
8.00293e-05
5.90081e-05
7.77047e-05
5.93929e-05
8.0208e-05
6.59302e-05
8.53214e-05
8.03345e-05
9.2713e-05
0.000104147
9.94071e-05
0.000135079
0.000101705
0.000170965
0.000104365
0.000193578
9.9745e-05
0.000216382
7.72711e-05
0.000242811
5.29288e-05
4.27792e-05
2.08797e-05
0.000157483
2.90765e-05
0.000137319
3.02003e-05
0.000102633
2.79426e-05
8.31231e-05
2.58038e-05
7.86957e-05
2.61687e-05
8.18666e-05
2.84806e-05
8.41117e-05
3.78986e-05
9.15205e-05
5.31916e-05
0.000102189
6.52115e-05
0.000103501
6.86318e-05
9.46257e-05
6.57197e-05
8.29418e-05
6.36482e-05
7.97766e-05
6.44915e-05
7.93647e-05
7.01497e-05
7.96638e-05
8.24659e-05
8.03962e-05
0.000100945
0.000124628
0.000157328
0.000180899
0.000198221
0.000222317
1.8894e-05
3.01571e-05
3.29357e-05
3.12081e-05
2.91673e-05
2.91159e-05
3.02412e-05
3.52753e-05
4.64568e-05
5.80495e-05
6.3866e-05
6.38237e-05
6.34754e-05
6.54699e-05
7.06101e-05
)
;

boundaryField
{
    leftWall
    {
        type            fixedValue;
        value           uniform 0;
    }
    rightWall
    {
        type            fixedValue;
        value           nonuniform 0();
    }
    lowerWall
    {
        type            fixedValue;
        value           uniform 0;
    }
    atmosphere
    {
        type            calculated;
        value           nonuniform 0();
    }
    defaultFaces
    {
        type            empty;
        value           nonuniform 0();
    }
    procBoundary0to1
    {
        type            processor;
        value           nonuniform List<scalar> 
26
(
-2.33296e-06
-4.60852e-07
4.66104e-08
-7.68203e-08
-1.3298e-06
-8.26919e-07
-1.02297e-05
-9.21471e-06
8.49642e-06
8.78196e-06
-7.98607e-05
-0.000123371
-0.000228495
-0.000296682
-0.000219733
-0.000206864
0.000102037
-0.000284283
-0.000234148
-0.000293395
-0.000189917
-9.34436e-05
0.000112647
0.000224544
0.000258774
0.000244118
)
;
    }
    procBoundary0to2
    {
        type            processor;
        value           nonuniform List<scalar> 
24
(
8.09287e-05
7.80691e-05
7.1771e-05
7.61992e-05
5.99017e-05
2.87556e-05
2.09374e-05
0.000138589
0.000126056
9.98551e-05
8.48508e-05
8.07365e-05
8.19181e-05
8.29864e-05
8.64866e-05
9.1008e-05
9.19082e-05
8.88094e-05
8.29844e-05
8.01251e-05
7.73707e-05
7.4523e-05
7.97174e-05
7.12898e-05
)
;
    }
}


// ************************************************************************* //
