/*--------------------------------*- C++ -*----------------------------------*\
| =========                 |                                                 |
| \\      /  F ield         | OpenFOAM: The Open Source CFD Toolbox           |
|  \\    /   O peration     | Version:  2.4.0                                 |
|   \\  /    A nd           | Web:      www.OpenFOAM.org                      |
|    \\/     M anipulation  |                                                 |
\*---------------------------------------------------------------------------*/
FoamFile
{
    version     2.0;
    format      ascii;
    class       surfaceScalarField;
    location    "0.9";
    object      phi.oil;
}
// * * * * * * * * * * * * * * * * * * * * * * * * * * * * * * * * * * * * * //

dimensions      [0 3 -1 0 0 0 0];

internalField   nonuniform List<scalar> 
1101
(
-4.62605e-06
4.62608e-06
-1.02236e-05
5.59758e-06
-1.64067e-05
6.18299e-06
-2.15822e-05
5.17544e-06
-2.47829e-05
3.20073e-06
-2.58972e-05
1.11432e-06
-2.53776e-05
-5.19566e-07
-2.37252e-05
-1.65233e-06
-2.15757e-05
-2.14942e-06
-1.97457e-05
-1.83e-06
-1.82362e-05
-1.50944e-06
-1.6456e-05
-1.78007e-06
-1.44432e-05
-2.01259e-06
-1.27175e-05
-1.72529e-06
-1.1592e-05
-1.12443e-06
-1.088e-05
-7.0962e-07
-1.01219e-05
-7.54414e-07
-8.85385e-06
-1.26181e-06
-6.80154e-06
-2.02835e-06
-4.27665e-06
-2.35333e-06
-2.87153e-06
-7.52194e-07
8.72486e-07
-4.08092e-06
8.78696e-06
-8.7687e-06
1.03799e-05
-1.4454e-05
1.18781e-05
-2.02881e-05
1.10095e-05
-2.40272e-05
6.93981e-06
-2.58652e-05
2.9523e-06
-2.57735e-05
-6.11256e-07
-2.40546e-05
-3.37123e-06
-2.18451e-05
-4.35885e-06
-1.98134e-05
-3.86175e-06
-1.78784e-05
-3.4443e-06
-1.59804e-05
-3.67758e-06
-1.41605e-05
-3.83071e-06
-1.26616e-05
-3.22146e-06
-1.16293e-05
-2.1543e-06
-1.07523e-05
-1.58444e-06
-9.79291e-06
-1.71132e-06
-8.41964e-06
-2.62842e-06
-6.26749e-06
-4.16324e-06
-3.86826e-06
-4.75988e-06
-1.69127e-06
-3.12194e-06
-5.70299e-07
-5.10622e-06
2.92683e-06
-1.24615e-05
1.08451e-05
-1.81534e-05
1.71746e-05
-2.21608e-05
1.51731e-05
-2.49894e-05
9.78426e-06
-2.65344e-05
4.49748e-06
-2.62097e-05
-9.35865e-07
-2.42266e-05
-5.35426e-06
-2.17561e-05
-6.82875e-06
-1.93817e-05
-6.23345e-06
-1.71994e-05
-5.61736e-06
-1.54668e-05
-5.37534e-06
-1.41072e-05
-5.11543e-06
-1.28732e-05
-4.36306e-06
-1.18584e-05
-3.0844e-06
-1.0758e-05
-2.62253e-06
-9.37945e-06
-3.04131e-06
-7.95032e-06
-4.01038e-06
-6.16429e-06
-5.83212e-06
-4.18932e-06
-6.50496e-06
-1.55852e-06
-5.54565e-06
-2.16403e-06
-6.5285e-06
1.49987e-06
-1.41181e-05
7.29925e-06
-2.37039e-05
1.75159e-05
-2.8751e-05
1.90766e-05
-3.01434e-05
1.14213e-05
-2.91447e-05
3.51916e-06
-2.71364e-05
-2.94325e-06
-2.47354e-05
-7.74199e-06
-2.19265e-05
-9.55494e-06
-1.91718e-05
-8.80015e-06
-1.69393e-05
-7.59196e-06
-1.54078e-05
-6.60024e-06
-1.4235e-05
-5.96101e-06
-1.30127e-05
-5.26241e-06
-1.16321e-05
-4.15786e-06
-1.00234e-05
-3.93925e-06
-8.60375e-06
-4.22104e-06
-7.51153e-06
-4.89388e-06
-6.59997e-06
-6.54857e-06
-5.29471e-06
-7.55072e-06
-2.37201e-06
-8.04896e-06
-4.56402e-06
-5.47358e-06
2.66471e-05
-1.68615e-05
2.98283e-05
-2.89726e-05
2.33042e-05
-3.41679e-05
1.9034e-05
-3.43798e-05
1.13532e-05
-3.29744e-05
2.26716e-06
-3.08157e-05
-5.0555e-06
-2.83421e-05
-9.98909e-06
-2.54053e-05
-1.18815e-05
-2.20971e-05
-1.1208e-05
-1.91252e-05
-9.36601e-06
-1.69878e-05
-7.34972e-06
-1.5574e-05
-5.44839e-06
-1.4058e-05
-4.49101e-06
-1.19352e-05
-3.46518e-06
-9.8547e-06
-3.65398e-06
-8.45906e-06
-3.98082e-06
-7.54932e-06
-4.52391e-06
-6.69436e-06
-6.25983e-06
-5.25139e-06
-7.8524e-06
-3.24788e-06
-9.15409e-06
-3.57971e-06
-1.06167e-05
3.69512e-05
-2.79335e-05
4.40404e-05
-3.95779e-05
3.48803e-05
-4.35079e-05
1.83119e-05
-4.23152e-05
8.50725e-06
-3.89988e-05
-9.95958e-07
-3.53643e-05
-8.24782e-06
-3.16602e-05
-1.3409e-05
-2.79842e-05
-1.67771e-05
-2.39262e-05
-1.87661e-05
-2.00663e-05
-1.89248e-05
-1.77205e-05
-1.39356e-05
-1.68111e-05
-7.38122e-06
-1.63307e-05
-4.74379e-06
-1.55115e-05
-1.07678e-06
-1.35622e-05
2.36025e-06
-1.09408e-05
5.0568e-06
-8.48079e-06
6.99928e-06
-6.37626e-06
6.0444e-06
-3.6134e-06
3.86803e-06
-6.89333e-07
5.18899e-07
1.99947e-05
-6.39538e-06
4.31333e-05
-2.10587e-05
5.48673e-05
-3.71353e-05
5.23818e-05
-4.621e-05
2.37027e-05
-4.7851e-05
4.14436e-06
-4.48993e-05
-7.72293e-06
-3.87832e-05
-1.8657e-05
-3.36036e-05
-2.62758e-05
-3.00809e-05
-3.20076e-05
-2.53846e-05
-3.97795e-05
-1.74688e-05
-4.63248e-05
-1.27365e-05
-3.62021e-05
-1.16254e-05
-2.02489e-05
-1.23638e-05
-9.76553e-06
-1.37116e-05
9.57544e-08
-1.47628e-05
5.66187e-06
-1.3101e-05
8.58049e-06
-9.20491e-06
1.17837e-05
-5.75906e-06
1.37421e-05
-3.4798e-06
1.00441e-05
-6.82045e-06
9.35807e-06
1.26043e-05
-3.8023e-06
4.69218e-05
-8.70989e-06
5.76697e-05
-2.20585e-05
6.80326e-05
-3.52294e-05
3.67351e-05
-4.03285e-05
4.92413e-06
-3.93947e-05
-1.64814e-05
-3.62949e-05
-3.17688e-05
-3.38611e-05
-3.75655e-05
-3.08171e-05
-4.0781e-05
-2.51906e-05
-4.69147e-05
-1.41264e-05
-4.63462e-05
-1.08388e-05
-2.36209e-05
-5.5649e-06
-1.01412e-05
-1.04812e-06
-1.66034e-06
-5.67751e-07
5.4522e-06
-2.88806e-06
6.93689e-06
-4.17928e-06
4.17559e-06
-3.4589e-06
1.3499e-06
-3.79901e-06
1.13086e-06
-7.08456e-06
1.9447e-06
-1.71021e-05
1.01889e-05
1.19266e-05
5.37565e-06
3.90756e-05
1.23178e-05
4.41791e-05
1.8849e-05
5.2614e-05
1.51728e-05
5.47656e-05
2.23317e-06
2.70994e-05
-1.09575e-05
7.36418e-06
-2.61031e-05
-6.66437e-06
-3.50853e-05
-1.92213e-05
-3.32418e-05
-3.06339e-05
-1.69725e-05
-2.57408e-05
-1.1841e-05
-2.64343e-05
-1.08765e-05
-1.81779e-05
-8.63005e-06
-8.70669e-06
-5.40073e-06
4.33659e-07
-4.59833e-06
9.42513e-06
-5.17354e-06
1.02038e-05
-6.16789e-06
3.40041e-06
-4.91854e-06
-2.77195e-06
1.20033e-06
-6.55649e-06
1.17275e-05
-1.05469e-05
1.91356e-05
1.22884e-06
2.57715e-05
1.11337e-05
2.37228e-05
2.13443e-05
2.99249e-05
3.43977e-05
4.01005e-05
4.38213e-05
3.69207e-05
4.44248e-05
2.57897e-05
4.06471e-05
1.67017e-05
3.79715e-05
9.40979e-06
3.58668e-05
-3.19897e-06
2.55262e-05
-1.03777e-05
2.4573e-05
-2.03734e-05
3.03216e-05
-2.94573e-05
4.08679e-05
-2.7232e-05
4.65699e-05
-1.54824e-05
4.70557e-05
7.14792e-07
4.24851e-05
9.92288e-06
3.14976e-05
1.63104e-05
1.97122e-05
1.3592e-05
1.05353e-05
7.00423e-06
7.28137e-06
-3.67797e-06
1.60707e-05
-2.37629e-05
1.45211e-05
-1.77104e-05
2.21527e-05
2.14604e-05
2.44028e-05
3.29509e-05
4.25796e-05
4.08868e-05
5.46491e-05
4.71339e-05
5.51234e-05
4.81456e-05
4.53016e-05
4.67926e-05
2.9683e-05
4.22844e-05
1.52909e-05
3.67414e-05
2.8073e-06
3.15882e-05
-9.39625e-06
2.99802e-05
-2.10825e-05
3.66236e-05
-3.32368e-05
4.04511e-05
-3.14405e-05
4.13161e-05
-1.96644e-05
3.54305e-05
-2.82204e-06
2.55417e-05
1.37157e-05
2.3993e-05
1.8644e-05
2.86672e-05
1.3345e-05
2.19096e-05
1.30262e-05
-6.36709e-07
8.05439e-06
-2.49125e-05
-3.89819e-05
-4.81406e-05
-8.24528e-05
8.53009e-06
2.10878e-05
-3.27607e-07
2.84536e-05
3.20693e-05
3.15818e-05
4.92903e-05
3.6024e-05
4.98618e-05
3.77602e-05
4.60418e-05
3.42507e-05
3.6763e-05
2.91784e-05
2.46988e-05
2.69099e-05
8.64685e-06
2.07678e-05
-5.82218e-06
2.18197e-05
-2.35374e-05
2.63208e-05
-4.05086e-05
2.27197e-05
-3.29463e-05
1.63671e-05
-2.01394e-05
4.56377e-06
5.31217e-06
-1.21526e-05
2.8612e-05
-3.64076e-05
3.74147e-05
-6.59331e-05
3.53939e-05
-9.04148e-05
2.04991e-05
-0.000122914
-2.29905e-05
-0.000172326
-9.8801e-05
-0.000151768
-8.42235e-05
4.3668e-05
1.122e-05
-1.6028e-05
1.02642e-05
2.62311e-05
8.40334e-06
4.88065e-05
9.5477e-06
4.79949e-05
1.01151e-05
4.38841e-05
7.14177e-06
3.84375e-05
4.27175e-06
2.55837e-05
1.45933e-06
6.51026e-06
-1.54813e-05
7.42998e-06
-5.27844e-05
1.6121e-05
-9.471e-05
-9.16986e-07
-0.00013256
-2.41813e-06
-0.000155895
1.70166e-06
-0.000171709
2.33162e-05
-0.00018705
4.02214e-05
-0.000201764
4.45146e-05
-0.000211439
2.33074e-05
-0.000233118
-5.31809e-05
-0.000284635
-0.000111548
-0.0002334
-0.000168202
-0.000169014
-0.000101035
-2.74601e-05
-1.1186e-05
-6.36754e-06
-1.48846e-05
2.85563e-05
-1.48902e-05
4.54327e-05
-1.48149e-05
4.35967e-05
-1.07147e-05
3.46166e-05
-1.46376e-05
3.27422e-05
-3.29025e-05
4.20765e-05
-7.64456e-05
5.41617e-05
-0.000133486
6.52317e-05
-0.00017306
5.5617e-05
-0.000194187
1.981e-05
-0.000205626
8.81564e-06
-0.000217211
1.34768e-05
-0.000228096
3.52429e-05
-0.000233903
4.3631e-05
-0.000256551
4.27866e-05
-0.000337737
-1.2867e-05
-0.000398694
-0.000100691
-0.000350571
-0.000132508
-0.000274657
-0.000150583
-0.000237579
-0.000135812
-0.000134748
-1.15946e-05
4.97377e-07
-1.1976e-05
2.17937e-05
-1.37475e-05
2.40098e-05
-2.3842e-05
8.22448e-07
-2.71373e-05
-2.12199e-05
-4.3463e-05
-2.00619e-05
-0.000121259
2.7829e-05
-0.0001986
9.00594e-05
-0.000233719
9.16984e-05
-0.000227318
4.46715e-05
-0.000222501
1.1938e-05
-0.000223161
8.38547e-06
-0.00022687
1.71505e-05
-0.000223232
3.03249e-05
-0.000232853
3.63297e-05
-0.000304888
3.97992e-05
-0.000402958
-3.02497e-06
-0.000394497
-0.000133848
-0.000370723
-0.000140652
-0.000328797
-0.000134151
-0.00027345
-0.000136485
-0.000145695
-2.37471e-05
-1.27427e-05
-3.41717e-05
-8.25281e-06
-4.07161e-05
-1.79366e-05
-3.90115e-05
-5.04382e-05
-4.3829e-05
-6.6069e-05
-8.70014e-05
-4.32043e-05
-0.000186273
3.03186e-05
-0.000250607
6.64228e-05
-0.000256677
4.30317e-05
-0.000249564
-1.32016e-05
-0.000236787
-3.21971e-05
-0.0002198
-1.55822e-05
-0.000210091
3.86628e-06
-0.000202663
1.09709e-05
-0.000229305
1.35481e-05
-0.000345574
5.58245e-05
-0.000388998
-1.5479e-05
-0.000341937
-0.000157515
-0.000314585
-0.000163043
-0.000274447
-0.000168443
-0.000232089
-0.000164483
-0.00016459
-4.36423e-05
-4.46542e-05
-5.3673e-05
-3.70997e-05
-5.55461e-05
-4.19922e-05
-5.37346e-05
-5.38342e-05
-9.38759e-05
-4.50719e-05
-0.000216652
1.07128e-05
-0.00031051
3.81558e-05
-0.000302889
3.89922e-05
-0.000280259
1.49519e-05
-0.000249901
-5.47493e-05
-0.000220718
-7.10369e-05
-0.000201368
-5.42701e-05
-0.00018854
-3.55107e-05
-0.000181304
-2.46086e-05
-0.000229335
-1.27292e-05
-0.000306055
6.90268e-05
-0.00033826
2.38944e-05
-0.000332705
-9.00634e-05
-0.000357996
-7.72536e-05
-0.000298271
-8.05289e-05
-0.000218889
-0.00010371
-0.000203156
-9.82734e-05
-9.24527e-05
-5.65051e-05
-4.24196e-05
-6.13903e-05
-3.77671e-06
-5.50382e-05
-1.09161e-05
-5.97241e-05
-2.42814e-06
-0.000167294
3.88471e-05
-0.000275835
5.53673e-05
-0.000358227
6.3888e-05
-0.000339727
7.15787e-05
-0.000295381
3.89336e-05
-0.000242925
-1.75339e-05
-0.00021793
-5.55619e-05
-0.000201504
-6.34957e-05
-0.000184514
-6.09199e-05
-0.000179239
-4.91855e-05
-0.000250242
-2.75629e-05
-0.000294185
4.82003e-05
-0.000278055
0.00011101
-0.000219771
8.64962e-05
-0.000141596
6.69578e-05
-0.000114807
1.81014e-05
-0.000193956
-3.80232e-05
-0.000221617
-2.6395e-05
-1.01673e-05
-4.10222e-05
1.34257e-05
-4.12481e-05
4.55139e-05
-6.61078e-05
7.44455e-05
-7.6455e-05
6.94896e-05
-8.94021e-05
8.67155e-05
-0.000104837
0.000132875
-0.000117775
0.000169789
-0.000133591
0.000114187
-7.27991e-05
8.23147e-05
-6.43443e-05
5.46528e-05
-0.00010754
-3.85001e-06
-0.000147145
-1.47847e-05
-0.000174797
-2.73356e-05
-0.000187273
-2.66254e-05
-0.000202628
-8.13136e-06
-0.000241865
2.48997e-05
-0.000160406
9.78474e-05
-5.67386e-05
0.000263753
-4.15953e-05
0.000180985
-0.000112595
7.62421e-05
-0.000193205
4.59067e-05
-0.00025975
4.69428e-05
2.53006e-05
-2.6716e-05
0.000188168
-4.79217e-05
0.000129783
-5.49566e-05
8.61867e-05
-6.00385e-05
7.47315e-05
-5.8406e-05
8.51417e-05
-4.93585e-05
0.000123913
-1.94287e-05
0.000168641
1.77347e-05
0.000185915
2.55548e-05
0.000149615
4.51468e-06
9.4824e-05
-1.46554e-05
6.61694e-05
-5.5313e-05
2.09288e-05
-0.0001262
1.9622e-05
-0.000181546
2.1332e-05
-0.000205219
3.34837e-05
-0.000221918
4.0694e-05
-0.000131243
6.12835e-05
-3.26545e-05
0.000169996
-3.17606e-05
0.000197212
-9.12396e-05
0.000132436
-0.000140579
9.02004e-05
-0.00016883
7.2701e-05
4.57907e-05
-1.89584e-05
0.000208248
-3.08683e-05
0.000139267
-3.59336e-05
9.10068e-05
-3.62436e-05
7.50266e-05
-3.17993e-05
8.05984e-05
-1.52085e-05
0.000107414
1.33002e-05
0.000139991
3.58788e-05
0.000163451
4.05723e-05
0.000145463
2.47204e-05
0.000111208
1.1653e-05
8.09176e-05
-7.67045e-07
5.97987e-05
-2.70068e-05
5.38807e-05
-8.4569e-05
3.60319e-05
-0.000151625
4.90697e-05
-0.000181184
6.4654e-05
-0.00017159
5.91097e-05
-8.28709e-05
0.000109893
9.42826e-06
0.000110442
-2.22495e-05
0.000137966
-5.94633e-05
0.000128693
-8.1895e-05
9.83524e-05
6.35418e-05
-3.20561e-06
0.00020843
-8.05115e-06
0.000145395
-1.38065e-05
9.66677e-05
-1.414e-05
7.55712e-05
-1.0484e-05
7.67596e-05
3.69793e-06
9.33951e-05
3.09085e-05
0.000112821
5.24524e-05
0.000141833
5.74853e-05
0.000140369
4.73156e-05
0.000121551
3.66332e-05
9.20761e-05
2.91287e-05
6.75762e-05
2.2242e-05
6.95539e-05
6.64853e-06
7.94594e-05
-4.43255e-05
7.47728e-05
-0.000108145
6.13991e-05
-0.000129213
7.52373e-05
-7.09115e-05
8.89972e-05
2.6583e-05
0.000115654
8.21106e-05
0.000102952
0.000108068
9.04613e-05
0.000105864
8.90928e-05
7.09352e-05
1.2574e-05
0.000198356
1.18114e-05
0.000147679
6.76588e-06
0.000100935
4.64025e-06
7.79122e-05
5.71196e-06
7.54998e-05
1.38339e-05
8.53895e-05
3.24659e-05
9.42903e-05
5.54457e-05
0.000118723
6.42588e-05
0.000131547
6.33377e-05
0.000122425
5.75741e-05
9.77245e-05
5.06435e-05
7.45017e-05
4.59577e-05
7.4248e-05
4.48192e-05
8.04989e-05
4.31404e-05
9.12291e-05
5.80664e-06
9.70473e-05
-3.10703e-05
6.56868e-05
-2.00814e-05
8.63436e-05
3.90296e-05
0.000104548
0.000114355
0.000104389
0.000158043
0.00010709
0.000198944
7.46264e-05
5.29695e-05
2.06318e-05
0.000177703
2.36407e-05
0.00014319
2.17247e-05
0.000103394
1.91681e-05
8.06807e-05
1.80355e-05
7.65029e-05
2.12496e-05
8.22275e-05
2.92338e-05
8.64168e-05
4.69821e-05
0.000100954
6.10967e-05
0.000117519
6.80695e-05
0.000115511
6.76986e-05
9.78443e-05
6.24286e-05
7.99178e-05
5.89938e-05
7.76012e-05
5.93768e-05
8.01179e-05
6.59146e-05
8.5239e-05
7.93127e-05
9.27395e-05
4.31629e-05
9.84376e-05
5.6417e-05
6.19052e-05
8.92638e-05
7.33901e-05
0.00013302
8.20162e-05
0.000176232
8.23985e-05
0.000210539
6.5771e-05
6.06196e-05
1.94989e-05
0.000154592
2.87902e-05
0.000136385
3.01183e-05
0.000102464
2.80034e-05
8.29551e-05
2.57901e-05
7.86529e-05
2.61658e-05
8.18647e-05
2.84957e-05
8.41055e-05
3.79195e-05
9.15254e-05
5.31991e-05
0.000102259
6.52262e-05
0.000103553
6.85887e-05
9.44896e-05
6.57119e-05
8.27789e-05
6.35925e-05
7.95763e-05
6.44635e-05
7.92857e-05
7.00978e-05
7.95829e-05
8.24315e-05
8.01259e-05
9.6289e-05
0.000105732
0.000130819
0.000150146
0.000179227
0.000200582
1.83972e-05
3.00983e-05
3.28636e-05
3.12356e-05
2.9166e-05
2.9115e-05
3.02407e-05
3.5284e-05
4.64945e-05
5.8154e-05
6.38302e-05
6.37758e-05
6.34579e-05
6.5453e-05
7.06201e-05
)
;

boundaryField
{
    leftWall
    {
        type            fixedValue;
        value           uniform 0;
    }
    rightWall
    {
        type            fixedValue;
        value           nonuniform 0();
    }
    lowerWall
    {
        type            fixedValue;
        value           uniform 0;
    }
    atmosphere
    {
        type            calculated;
        value           nonuniform 0();
    }
    defaultFaces
    {
        type            empty;
        value           nonuniform 0();
    }
    procBoundary0to1
    {
        type            processor;
        value           nonuniform List<scalar> 
26
(
-2.32117e-06
-4.34576e-07
5.17924e-08
-3.31286e-08
-1.32384e-06
-7.65275e-07
-9.38515e-06
-2.08413e-05
1.83281e-06
-6.95336e-06
-0.000126344
-0.00015256
-0.000209725
-0.000232288
-0.000222476
-0.000209816
0.000179893
-0.000158113
-0.000229451
-0.000291772
-0.000188837
-9.47293e-05
0.000109461
0.000222327
0.000219536
0.000233043
)
;
    }
    procBoundary0to2
    {
        type            processor;
        value           nonuniform List<scalar> 
24
(
8.07316e-05
7.66465e-05
6.13543e-05
5.6335e-05
4.80725e-05
2.99411e-05
2.97028e-05
0.000138506
0.000126017
9.9733e-05
8.47771e-05
8.0724e-05
8.19179e-05
8.29837e-05
8.64899e-05
9.10279e-05
9.19413e-05
8.87413e-05
8.26781e-05
7.99873e-05
7.73026e-05
7.42232e-05
7.96199e-05
7.07891e-05
)
;
    }
}


// ************************************************************************* //
