/*--------------------------------*- C++ -*----------------------------------*\
| =========                 |                                                 |
| \\      /  F ield         | OpenFOAM: The Open Source CFD Toolbox           |
|  \\    /   O peration     | Version:  2.4.0                                 |
|   \\  /    A nd           | Web:      www.OpenFOAM.org                      |
|    \\/     M anipulation  |                                                 |
\*---------------------------------------------------------------------------*/
FoamFile
{
    version     2.0;
    format      ascii;
    class       surfaceScalarField;
    location    "0.9";
    object      phi.air;
}
// * * * * * * * * * * * * * * * * * * * * * * * * * * * * * * * * * * * * * //

dimensions      [0 3 -1 0 0 0 0];

internalField   nonuniform List<scalar> 
1101
(
-4.62606e-06
4.62618e-06
-1.02236e-05
5.59769e-06
-1.64067e-05
6.18307e-06
-2.15822e-05
5.17552e-06
-2.47829e-05
3.20079e-06
-2.58972e-05
1.11435e-06
-2.53776e-05
-5.19545e-07
-2.37252e-05
-1.65232e-06
-2.15757e-05
-2.14942e-06
-1.97457e-05
-1.83001e-06
-1.82362e-05
-1.50948e-06
-1.6456e-05
-1.78016e-06
-1.44433e-05
-2.01275e-06
-1.27175e-05
-1.72571e-06
-1.1592e-05
-1.12558e-06
-1.088e-05
-7.11928e-07
-1.01219e-05
-7.58118e-07
-8.85414e-06
-1.26775e-06
-6.80705e-06
-2.04708e-06
-4.30644e-06
-2.5006e-06
-2.89396e-06
-1.41247e-06
-5.60986e-07
-4.08093e-06
8.84882e-06
-8.76871e-06
1.04118e-05
-1.44541e-05
1.18836e-05
-2.02881e-05
1.10096e-05
-2.40272e-05
6.93991e-06
-2.58652e-05
2.95237e-06
-2.57735e-05
-6.11208e-07
-2.40546e-05
-3.37119e-06
-2.18451e-05
-4.35882e-06
-1.98134e-05
-3.86174e-06
-1.78784e-05
-3.44439e-06
-1.59804e-05
-3.67816e-06
-1.41605e-05
-3.83261e-06
-1.26617e-05
-3.22456e-06
-1.16293e-05
-2.15792e-06
-1.07523e-05
-1.58885e-06
-9.79294e-06
-1.71749e-06
-8.41987e-06
-2.64079e-06
-6.26983e-06
-4.19709e-06
-3.88855e-06
-4.88185e-06
-1.73376e-06
-3.56724e-06
-1.83383e-06
-5.11058e-06
1.95396e-06
-1.24786e-05
9.45509e-06
-1.81514e-05
1.73911e-05
-2.21608e-05
1.52291e-05
-2.49894e-05
9.79376e-06
-2.65344e-05
4.49775e-06
-2.62097e-05
-9.35744e-07
-2.42266e-05
-5.35419e-06
-2.17561e-05
-6.82926e-06
-1.93817e-05
-6.23609e-06
-1.71995e-05
-5.62654e-06
-1.54669e-05
-5.41074e-06
-1.41072e-05
-5.19226e-06
-1.28733e-05
-4.45853e-06
-1.18584e-05
-3.17274e-06
-1.0758e-05
-2.68925e-06
-9.37961e-06
-3.09588e-06
-7.95099e-06
-4.0694e-06
-6.16724e-06
-5.98082e-06
-4.19696e-06
-6.85212e-06
-1.59516e-06
-6.16898e-06
-3.47548e-06
-6.34534e-06
-2.14755e-06
-1.40403e-05
4.8298e-06
-2.37116e-05
1.68565e-05
-2.8766e-05
1.91134e-05
-3.01405e-05
1.15024e-05
-2.91446e-05
3.5345e-06
-2.71364e-05
-2.94274e-06
-2.47354e-05
-7.75501e-06
-2.19267e-05
-9.63787e-06
-1.91725e-05
-8.98961e-06
-1.69416e-05
-7.85199e-06
-1.54115e-05
-6.92955e-06
-1.42371e-05
-6.35592e-06
-1.30127e-05
-5.675e-06
-1.16311e-05
-4.5513e-06
-1.00225e-05
-4.29712e-06
-8.60362e-06
-4.51462e-06
-7.51435e-06
-5.15858e-06
-6.60794e-06
-6.88716e-06
-5.31221e-06
-8.1471e-06
-2.42703e-06
-9.01366e-06
-5.74493e-06
-5.52964e-06
2.62147e-05
-1.69834e-05
2.77615e-05
-2.89448e-05
2.07175e-05
-3.41735e-05
1.87448e-05
-3.43846e-05
1.14069e-05
-3.29712e-05
2.33255e-06
-3.08164e-05
-5.05869e-06
-2.83553e-05
-1.01609e-05
-2.54277e-05
-1.23871e-05
-2.21115e-05
-1.19787e-05
-1.91371e-05
-1.03853e-05
-1.6996e-05
-8.59123e-06
-1.55782e-05
-7.28941e-06
-1.40595e-05
-6.71879e-06
-1.1937e-05
-6.24398e-06
-9.85684e-06
-6.02522e-06
-8.4604e-06
-5.61996e-06
-7.55103e-06
-5.83518e-06
-6.70132e-06
-7.50798e-06
-5.26717e-06
-9.30397e-06
-3.25588e-06
-1.00047e-05
-3.74749e-06
-1.10311e-05
3.69501e-05
-2.91737e-05
4.26629e-05
-3.98109e-05
3.12366e-05
-4.35039e-05
1.70058e-05
-4.23168e-05
8.51091e-06
-3.89938e-05
-9.35803e-07
-3.54144e-05
-8.23616e-06
-3.17807e-05
-1.34802e-05
-2.80903e-05
-1.70615e-05
-2.40396e-05
-1.95056e-05
-2.01566e-05
-2.06093e-05
-1.77929e-05
-1.89499e-05
-1.68388e-05
-1.65194e-05
-1.63348e-05
-1.52001e-05
-1.54695e-05
-1.39788e-05
-1.35286e-05
-1.31912e-05
-1.09193e-05
-1.20156e-05
-8.47674e-06
-1.10831e-05
-6.38986e-06
-1.21126e-05
-3.63043e-06
-1.50386e-05
-7.25158e-07
-1.68768e-05
-7.39491e-06
-6.58139e-06
4.3133e-05
-2.25017e-05
5.41385e-05
-3.79091e-05
4.8173e-05
-4.6277e-05
2.07015e-05
-4.78455e-05
3.54034e-06
-4.49135e-05
-7.91744e-06
-3.88584e-05
-1.9023e-05
-3.3671e-05
-2.70639e-05
-3.01611e-05
-3.28556e-05
-2.57318e-05
-4.13896e-05
-1.92302e-05
-5.00633e-05
-1.41e-05
-5.13311e-05
-1.22453e-05
-4.55742e-05
-1.2994e-05
-4.10757e-05
-1.43474e-05
-3.92988e-05
-1.51792e-05
-3.69089e-05
-1.33272e-05
-3.55048e-05
-9.39883e-06
-3.40615e-05
-5.99687e-06
-3.342e-05
-3.62746e-06
-3.56025e-05
-6.27075e-06
-3.59599e-05
-4.27142e-05
-3.82229e-06
4.6928e-05
-9.76829e-06
5.75567e-05
-2.33365e-05
6.43993e-05
-3.55977e-05
3.25234e-05
-4.03511e-05
3.15269e-06
-3.93963e-05
-1.71929e-05
-3.62948e-05
-3.28295e-05
-3.37787e-05
-3.99471e-05
-3.05299e-05
-4.40292e-05
-2.50327e-05
-5.04471e-05
-1.97937e-05
-4.93628e-05
-1.3331e-05
-3.59276e-05
-6.86291e-06
-2.55223e-05
-3.32692e-06
-1.58006e-05
-3.55046e-06
-1.01118e-05
-6.1356e-06
-9.45542e-06
-7.30363e-06
-1.61105e-05
-5.94431e-06
-2.28557e-05
-4.78325e-06
-2.57812e-05
-5.69194e-06
-2.63177e-05
-1.33709e-05
-1.29709e-05
-5.06364e-06
5.37477e-06
4.17015e-05
1.13726e-05
4.94152e-05
1.55205e-05
5.90353e-05
1.15468e-05
4.45895e-05
4.33901e-08
2.07186e-05
-1.11168e-05
2.56029e-06
-2.47375e-05
-1.05395e-05
-3.30793e-05
-2.22813e-05
-3.15258e-05
-3.42596e-05
-2.44474e-05
-4.31388e-05
-1.95559e-05
-4.11926e-05
-1.42476e-05
-3.35908e-05
-8.79059e-06
-2.26466e-05
-6.32468e-06
-1.24966e-05
-6.22179e-06
-4.83844e-06
-6.64245e-06
-3.42929e-06
-7.33546e-06
-7.25688e-06
-6.73719e-06
-1.26474e-05
-1.62652e-06
-1.70519e-05
8.40664e-06
-1.94825e-05
1.95658e-05
5.53901e-05
6.29925e-05
1.07698e-05
3.10237e-05
2.09093e-05
3.93287e-05
3.38455e-05
4.85852e-05
4.32061e-05
4.86569e-05
4.32799e-05
3.67454e-05
3.99444e-05
1.99356e-05
3.75088e-05
4.03545e-06
3.5537e-05
-1.02134e-05
3.20984e-05
-2.27023e-05
2.84321e-05
-3.28747e-05
2.98639e-05
-3.78666e-05
3.71564e-05
-3.72596e-05
4.32359e-05
-2.41015e-05
4.47556e-05
-5.80807e-07
4.07366e-05
2.53955e-06
2.9833e-05
1.26644e-05
1.76123e-05
6.23656e-06
8.0775e-06
-3.998e-06
5.63066e-06
-1.58925e-05
2.27286e-05
4.35271e-05
-9.00343e-06
0.000120408
0.000129663
1.95061e-05
1.20944e-05
3.00946e-05
2.94296e-05
3.72425e-05
4.19307e-05
4.44106e-05
4.27908e-05
4.71015e-05
3.65945e-05
4.60219e-05
2.36021e-05
4.31015e-05
9.22374e-06
3.8861e-05
-3.62039e-06
3.50582e-05
-1.66413e-05
3.19463e-05
-2.70443e-05
3.56724e-05
-1.29823e-05
4.02253e-05
6.34022e-05
4.35656e-05
0.000109332
3.62076e-05
0.000140401
2.57364e-05
0.000150924
2.52035e-05
0.000124482
2.55615e-05
7.72833e-05
1.71919e-05
6.74107e-05
2.19306e-05
9.01009e-05
3.60801e-05
9.85039e-05
-7.6458e-05
9.61312e-05
0.000205917
2.06961e-05
-1.14854e-05
2.74615e-05
2.11048e-05
3.00528e-05
3.90627e-05
3.42017e-05
3.88384e-05
3.66198e-05
3.46833e-05
3.49441e-05
2.60697e-05
3.04827e-05
1.44872e-05
2.80651e-05
-9.80113e-08
2.4485e-05
6.6537e-08
4.33872e-05
-2.59754e-05
9.11484e-05
-5.41127e-05
7.53285e-05
-2.81267e-05
4.30313e-05
8.61369e-06
4.3646e-06
4.23301e-05
-2.61442e-05
5.8615e-05
-4.35327e-05
6.4756e-05
-4.0482e-05
8.95426e-05
-4.21337e-05
0.000100526
-7.14989e-05
0.000114527
-0.00013792
7.2916e-05
-0.000179561
4.46849e-05
0.000170057
1.06532e-05
-1.62999e-05
1.04556e-05
1.95e-05
8.55104e-06
3.87787e-05
9.41157e-06
3.62303e-05
1.07019e-05
3.2615e-05
8.58701e-06
2.76347e-05
5.62057e-06
1.70144e-05
3.52039e-06
8.48812e-07
-2.27919e-05
8.63893e-07
-2.80019e-05
3.46929e-05
-1.36453e-05
8.37265e-05
-5.15396e-05
4.38108e-05
-0.000108831
2.27118e-05
-0.000174106
4.38914e-05
-0.000192123
6.61612e-05
-0.000172989
9.45047e-05
-0.000151931
9.88766e-05
-0.000170994
0.000100437
-0.000272476
0.000130967
-0.000409795
0.000157002
-0.000418888
4.8264e-05
0.000130501
-1.11462e-05
6.32664e-05
-1.58566e-05
7.59102e-05
-1.51731e-05
4.4127e-05
-1.33978e-05
9.50777e-05
-8.10704e-06
0.000145044
-9.5173e-06
0.000165854
-2.94934e-05
0.000141407
-7.36226e-05
8.64831e-05
-0.000123818
0.000111891
-0.000124293
0.000103472
-0.000143058
6.58395e-05
-0.000156402
5.71269e-05
-0.000178553
5.27047e-05
-0.000222793
6.1411e-05
-0.000209803
9.91171e-05
-0.000201847
0.000122992
-0.000294594
0.000175083
-0.000535562
0.000263037
-0.000729033
0.000303192
-0.000648061
9.97437e-05
-0.000587188
5.6177e-06
2.71065e-06
-7.61224e-06
6.3525e-05
-3.09395e-07
0.000116199
7.2652e-06
0.000149216
-2.82992e-06
0.000150203
-3.14998e-05
0.000102379
-8.16691e-05
0.000120306
-0.000211956
0.000232886
-0.000190569
0.00029096
-0.000229411
0.00022528
-0.000189444
0.000167954
-0.00018238
0.000103657
-0.000196624
6.90465e-05
-0.000208768
5.48031e-05
-0.000189705
7.28342e-05
-0.00018148
8.93289e-05
-0.000261716
0.000158759
-0.000413562
0.000251136
-0.000544077
0.000371878
-0.000510415
0.000256563
-0.000375312
-3.72391e-05
-0.000302085
-5.9698e-05
-5.85656e-05
4.07155e-06
8.47341e-05
-2.23436e-05
8.28527e-05
-3.07132e-05
8.26361e-05
-2.58861e-05
5.87879e-05
-5.27062e-05
6.22128e-05
-0.000129538
0.00012588
-0.000230384
0.000222093
-0.000251409
0.000219135
-0.000253805
0.000168519
-0.00026203
0.000107576
-0.000253696
7.43567e-05
-0.00022837
5.77368e-05
-0.000186807
6.34218e-05
-0.000150715
6.40925e-05
-0.000162597
6.82671e-05
-0.000265437
0.000201807
-0.000360582
0.000328914
-0.000385038
0.000394698
-0.000333879
0.000198866
-0.000285578
-9.74824e-05
-0.000239266
-0.000122271
-7.33551e-05
-1.95864e-05
7.33178e-05
-4.77021e-05
6.70446e-05
-8.83076e-05
8.88555e-05
-0.000109822
6.07083e-05
-0.000109864
5.34081e-05
-0.000122686
0.000130361
-0.000192972
0.00027405
-0.000268251
0.000245766
-0.000287724
0.000127539
-0.000277436
3.13964e-05
-0.00022908
-3.69491e-05
-0.000215769
-5.72336e-06
-0.000178731
3.46642e-05
-0.000136619
1.28829e-05
-0.000142204
4.50332e-05
-0.000191773
0.000229211
-0.000228792
0.000364991
-0.000190573
0.00035651
-0.000166266
0.000170991
-0.000213405
-5.6607e-05
-0.000259053
-8.4215e-05
-0.000309499
-3.93678e-05
-1.16397e-05
-7.65652e-05
0.000126882
-9.42121e-05
7.88951e-05
-8.73429e-05
7.93354e-05
-8.81422e-05
6.11188e-05
-0.000109408
7.46069e-05
-0.000108237
0.000129116
-8.05667e-05
0.000244961
-0.000109598
0.000266873
-0.000150368
0.000160357
-0.000165297
3.99755e-05
-0.00020607
-2.96374e-06
-0.000223104
-1.43565e-05
-0.000186151
-3.80627e-05
-0.000179447
-8.39236e-06
-0.000176273
3.76114e-05
-0.000158443
0.000207567
-0.000126965
0.000333368
-9.10944e-05
0.000320563
-9.61972e-05
0.000175815
-0.000154377
1.56379e-06
-0.00020619
-3.24055e-05
-0.000226662
-1.89208e-05
-4.05774e-06
-3.78815e-05
0.000163424
-6.73958e-05
0.000108342
-6.80349e-05
7.9964e-05
-7.6637e-05
6.97207e-05
-8.89518e-05
8.69217e-05
-9.28158e-05
0.00013298
-4.59558e-05
0.000198084
-3.03662e-06
0.000223831
-1.22104e-06
0.000158426
-3.61573e-05
7.48827e-05
-8.5247e-05
4.58188e-05
-0.000124763
2.21667e-05
-0.000165109
-1.35459e-06
-0.000188947
8.20238e-06
-0.000188827
3.44382e-05
-0.000133197
0.000151926
-8.10175e-05
0.000281011
-4.02288e-05
0.000279769
-4.27109e-05
0.000178295
-0.000114647
7.35002e-05
-0.000192705
4.56528e-05
-0.000260264
4.86378e-05
2.91442e-05
-2.67228e-05
0.000190141
-4.83393e-05
0.000129958
-5.49509e-05
8.65756e-05
-6.01003e-05
7.48701e-05
-5.83696e-05
8.51911e-05
-4.93296e-05
0.00012394
-1.99904e-05
0.000168745
1.78046e-05
0.000186036
2.59416e-05
0.000150289
5.1051e-06
9.57193e-05
-1.70155e-05
6.79376e-05
-4.44118e-05
4.953e-05
-9.24559e-05
4.65978e-05
-0.00013154
4.70827e-05
-0.000150041
5.26503e-05
-0.000112819
0.000114462
-4.78514e-05
0.000215949
-1.3655e-05
0.000245562
-3.25003e-05
0.00019714
-9.14185e-05
0.000132418
-0.000138849
9.30831e-05
-0.000166853
7.6642e-05
5.21913e-05
-1.86368e-05
0.000208777
-3.05717e-05
0.000141893
-3.58791e-05
9.1883e-05
-3.63023e-05
7.52933e-05
-3.17673e-05
8.06561e-05
-1.52521e-05
0.000107425
1.33371e-05
0.000140155
3.58057e-05
0.000163567
4.06402e-05
0.000145455
2.4995e-05
0.000111365
1.15988e-05
8.13338e-05
9.2868e-07
6.02001e-05
-1.52615e-05
6.27863e-05
-4.20393e-05
7.38541e-05
-7.79027e-05
8.8516e-05
-7.85431e-05
0.000115044
-3.10214e-05
0.000168399
1.02799e-05
0.000204234
1.166e-05
0.00019576
-1.99217e-05
0.000164
-5.60883e-05
0.00012925
-7.91576e-05
9.97113e-05
6.64603e-05
-3.30479e-06
0.000212082
-8.41016e-06
0.000146998
-1.37654e-05
9.72382e-05
-1.42603e-05
7.57882e-05
-1.04331e-05
7.68289e-05
3.59325e-06
9.33988e-05
3.09297e-05
0.000112819
5.25045e-05
0.000141993
5.752e-05
0.000140439
4.73513e-05
0.000121533
3.66229e-05
9.20623e-05
2.92592e-05
6.75638e-05
2.23906e-05
6.96549e-05
1.64087e-05
7.98359e-05
8.93018e-06
9.59935e-05
6.24613e-06
0.000117731
2.70256e-05
0.000147602
6.38279e-05
0.000167416
8.87729e-05
0.000170808
0.000105722
0.000147051
0.000111156
0.000123816
0.000112641
9.82263e-05
6.64355e-05
1.27012e-05
0.000199381
1.12932e-05
0.000148406
6.85707e-06
0.000101674
4.52117e-06
7.81242e-05
5.78923e-06
7.55608e-05
1.37915e-05
8.53966e-05
3.23239e-05
9.42866e-05
5.54777e-05
0.000118839
6.43055e-05
0.000131611
6.33632e-05
0.000122476
5.76251e-05
9.78004e-05
5.06079e-05
7.4581e-05
4.59372e-05
7.43257e-05
4.51774e-05
8.05957e-05
4.93082e-05
9.18627e-05
5.99178e-05
0.000107121
8.42165e-05
0.0001233
0.00011858
0.000133052
0.000148822
0.000140562
0.000173698
0.000122171
0.000197668
9.98444e-05
0.000216725
7.91685e-05
5.86042e-05
2.10162e-05
0.000178365
2.39055e-05
0.000145517
2.18215e-05
0.000103758
1.90793e-05
8.08663e-05
1.80822e-05
7.6558e-05
2.12461e-05
8.22327e-05
2.91077e-05
8.6425e-05
4.70063e-05
0.00010094
6.11336e-05
0.000117484
6.80868e-05
0.000115522
6.78395e-05
9.80477e-05
6.23889e-05
8.00316e-05
5.90073e-05
7.77073e-05
5.93922e-05
8.02109e-05
6.59303e-05
8.53247e-05
8.03348e-05
9.27162e-05
0.000104225
9.941e-05
0.000135521
0.000101755
0.000171608
0.000104475
0.000193988
9.97892e-05
0.000216607
7.72253e-05
0.000242926
5.2849e-05
4.2717e-05
2.08804e-05
0.000157484
2.90769e-05
0.000137321
3.02006e-05
0.000102635
2.79426e-05
8.31243e-05
2.58037e-05
7.86969e-05
2.61685e-05
8.18679e-05
2.84804e-05
8.41131e-05
3.78985e-05
9.15221e-05
5.31916e-05
0.000102191
6.52115e-05
0.000103503
6.86316e-05
9.46276e-05
6.57194e-05
8.29439e-05
6.36479e-05
7.97788e-05
6.44915e-05
7.93672e-05
7.01499e-05
7.96663e-05
8.24669e-05
8.03993e-05
0.000100946
0.00012463
0.000157332
0.000180921
0.000198242
0.000222343
1.88945e-05
3.01575e-05
3.29359e-05
3.12082e-05
2.91673e-05
2.91158e-05
3.02412e-05
3.52753e-05
4.64568e-05
5.80496e-05
6.3866e-05
6.38236e-05
6.34753e-05
6.54699e-05
7.06108e-05
)
;

boundaryField
{
    leftWall
    {
        type            fixedValue;
        value           uniform 0;
    }
    rightWall
    {
        type            fixedValue;
        value           nonuniform 0();
    }
    lowerWall
    {
        type            fixedValue;
        value           uniform 0;
    }
    atmosphere
    {
        type            calculated;
        value           nonuniform 0();
    }
    defaultFaces
    {
        type            empty;
        value           nonuniform 0();
    }
    procBoundary0to1
    {
        type            processor;
        value           nonuniform List<scalar> 
26
(
-2.33297e-06
-4.60865e-07
4.65916e-08
-7.68401e-08
-1.32899e-06
-7.43705e-07
-9.97109e-06
-1.86914e-05
1.02417e-05
-6.6114e-05
-0.000322868
-0.000303591
-0.000405851
-0.000442942
-0.000224816
-0.000241409
2.84705e-05
-0.000340697
-0.000234253
-0.000293466
-0.0001899
-9.34264e-05
0.000112666
0.000224557
0.000258813
0.000244139
)
;
    }
    procBoundary0to2
    {
        type            processor;
        value           nonuniform List<scalar> 
24
(
8.09313e-05
7.80707e-05
7.17725e-05
7.62003e-05
5.99038e-05
2.87486e-05
2.09212e-05
0.00013859
0.000126058
9.98563e-05
8.4852e-05
8.07377e-05
8.19194e-05
8.29877e-05
8.64881e-05
9.10096e-05
9.19099e-05
8.88112e-05
8.29863e-05
8.01271e-05
7.73727e-05
7.45254e-05
7.97182e-05
7.12919e-05
)
;
    }
}


// ************************************************************************* //
