/*--------------------------------*- C++ -*----------------------------------*\
| =========                 |                                                 |
| \\      /  F ield         | OpenFOAM: The Open Source CFD Toolbox           |
|  \\    /   O peration     | Version:  2.4.0                                 |
|   \\  /    A nd           | Web:      www.OpenFOAM.org                      |
|    \\/     M anipulation  |                                                 |
\*---------------------------------------------------------------------------*/
FoamFile
{
    version     2.0;
    format      ascii;
    class       surfaceScalarField;
    location    "0.9";
    object      phi.water;
}
// * * * * * * * * * * * * * * * * * * * * * * * * * * * * * * * * * * * * * //

dimensions      [0 3 -1 0 0 0 0];

internalField   nonuniform List<scalar> 
1101
(
-4.62771e-06
9.021e-06
-1.02244e-05
9.3622e-06
-1.64086e-05
7.47907e-06
-2.15831e-05
5.80246e-06
-2.47834e-05
3.58466e-06
-2.58975e-05
1.20798e-06
-2.53777e-05
-4.91888e-07
-2.37251e-05
-1.63178e-06
-2.15756e-05
-2.13094e-06
-1.97455e-05
-1.81386e-06
-1.8236e-05
-1.49341e-06
-1.64559e-05
-1.7624e-06
-1.44432e-05
-1.99435e-06
-1.27176e-05
-1.71043e-06
-1.1592e-05
-1.11442e-06
-1.088e-05
-7.03449e-07
-1.01219e-05
-7.51352e-07
-8.85413e-06
-1.26109e-06
-6.80703e-06
-2.03972e-06
-4.30653e-06
-2.49323e-06
-2.89396e-06
-1.40916e-06
-5.60407e-07
-4.22683e-06
2.11648e-05
-8.69916e-06
1.98165e-05
-1.44756e-05
1.98095e-05
-2.03377e-05
1.27903e-05
-2.39691e-05
7.65341e-06
-2.58656e-05
3.18274e-06
-2.57741e-05
-4.61929e-07
-2.40544e-05
-3.17648e-06
-2.18448e-05
-4.1535e-06
-1.98128e-05
-3.73651e-06
-1.78778e-05
-3.35224e-06
-1.59799e-05
-3.59441e-06
-1.41605e-05
-3.75618e-06
-1.26617e-05
-3.17897e-06
-1.16293e-05
-2.13087e-06
-1.07524e-05
-1.56691e-06
-9.79294e-06
-1.69694e-06
-8.41977e-06
-2.61335e-06
-6.26981e-06
-4.16349e-06
-3.88882e-06
-4.85103e-06
-1.73399e-06
-3.5565e-06
-1.83058e-06
-8.56111e-06
4.37682e-05
-1.75108e-05
5.68538e-05
-1.51044e-05
5.77163e-05
-2.09541e-05
3.38099e-05
-2.48132e-05
2.45179e-05
-2.65207e-05
9.81552e-06
-2.62135e-05
1.52824e-06
-2.42229e-05
-3.68946e-06
-2.17434e-05
-5.75776e-06
-1.93768e-05
-5.73445e-06
-1.71968e-05
-5.3953e-06
-1.54656e-05
-5.23564e-06
-1.4108e-05
-5.03724e-06
-1.28739e-05
-4.34078e-06
-1.18584e-05
-3.10634e-06
-1.07579e-05
-2.64287e-06
-9.3791e-06
-3.04507e-06
-7.95047e-06
-3.99048e-06
-6.16741e-06
-5.89012e-06
-4.19839e-06
-6.78843e-06
-1.59581e-06
-6.13704e-06
-3.41269e-06
-8.47838e-06
2.42367e-05
-1.68945e-05
3.11316e-05
-2.93593e-05
4.45242e-05
-3.34886e-05
4.75788e-05
-2.56897e-05
3.92408e-05
-2.73568e-05
2.42994e-05
-2.68603e-05
7.40706e-06
-2.45905e-05
-3.22293e-06
-2.19857e-05
-5.86764e-06
-1.91975e-05
5.67282e-08
-1.69391e-05
8.48909e-06
-1.54091e-05
1.22877e-05
-1.42364e-05
1.25535e-05
-1.30133e-05
1.15658e-05
-1.16314e-05
8.59293e-06
-1.00229e-05
3.98996e-06
-8.60403e-06
1.38335e-07
-7.51391e-06
-2.44159e-06
-6.60947e-06
-3.86205e-06
-5.31426e-06
-2.79274e-06
-2.42243e-06
2.16143e-06
1.16451e-05
-5.34544e-06
2.70422e-05
-1.58764e-05
3.58444e-05
-3.01021e-05
4.72091e-05
-3.73854e-05
4.95739e-05
-3.60266e-05
3.86631e-05
-2.87667e-05
3.12835e-05
-2.81537e-05
1.79756e-05
-2.82065e-05
1.30786e-05
-2.34616e-05
1.2773e-05
-2.0136e-05
1.42278e-05
-1.85144e-05
1.9143e-05
-1.67593e-05
2.3494e-05
-1.5431e-05
2.51767e-05
-1.38946e-05
2.49944e-05
-1.16754e-05
2.31124e-05
-9.63723e-06
2.02492e-05
-8.41212e-06
1.91337e-05
-7.54715e-06
1.88358e-05
-6.55087e-06
1.74689e-05
-4.64354e-06
1.59526e-05
-2.8376e-06
1.60712e-05
2.40041e-05
-9.90837e-06
3.69527e-05
-2.05551e-05
4.71354e-05
-3.44717e-05
5.91865e-05
-4.40176e-05
5.07232e-05
-4.31106e-05
3.86342e-05
-3.90747e-05
2.76433e-05
-3.50807e-05
2.17178e-05
-3.08157e-05
1.8668e-05
-2.66146e-05
1.57626e-05
-2.25542e-05
1.38849e-05
-1.90248e-05
1.41226e-05
-1.72103e-05
1.67587e-05
-1.65752e-05
1.96266e-05
-1.64105e-05
2.10588e-05
-1.58043e-05
2.14993e-05
-1.38196e-05
2.11901e-05
-1.11744e-05
2.12815e-05
-8.54141e-06
2.14371e-05
-6.1838e-06
2.01907e-05
-3.20282e-06
1.7301e-05
-1.2389e-07
1.5344e-05
2.13722e-05
-6.17828e-06
4.31342e-05
-1.44629e-05
5.57818e-05
-2.90246e-05
7.37873e-05
-4.34305e-05
5.75024e-05
-4.6999e-05
3.65933e-05
-4.48274e-05
2.42485e-05
-3.69133e-05
1.20161e-05
-3.16854e-05
4.09373e-06
-2.87939e-05
4.12944e-07
-2.45594e-05
-3.02174e-06
-1.80376e-05
-7.05212e-06
-1.30555e-05
-5.15076e-06
-1.12758e-05
-2.18025e-07
-1.20743e-05
3.34645e-06
-1.33338e-05
5.52309e-06
-1.45698e-05
6.82294e-06
-1.30877e-05
5.76031e-06
-9.17704e-06
4.65738e-06
-5.65979e-06
4.62896e-06
-3.22467e-06
2.75573e-06
-6.33108e-06
4.37236e-06
5.67664e-06
-3.7885e-06
4.6923e-05
-5.6942e-06
5.77566e-05
-1.32519e-05
8.13491e-05
-3.03962e-05
6.85356e-05
-3.9642e-05
3.1907e-05
-3.96333e-05
9.2797e-06
-3.63334e-05
-4.78069e-06
-3.46522e-05
-1.26979e-05
-3.28366e-05
-1.72815e-05
-2.79677e-05
-2.35204e-05
-2.1046e-05
-2.73495e-05
-1.33132e-05
-2.40396e-05
-6.55002e-06
-1.72024e-05
-2.90972e-06
-1.04888e-05
-2.95091e-06
-6.11531e-06
-5.14773e-06
-5.02066e-06
-6.07803e-06
-9.22734e-06
-4.8115e-06
-1.35877e-05
-4.01391e-06
-1.38395e-05
-5.35269e-06
-1.31181e-05
-1.3429e-05
-2.87962e-06
-2.16817e-06
5.37396e-06
4.1549e-05
1.38061e-05
4.93467e-05
3.28029e-05
6.25003e-05
3.5414e-05
6.21013e-05
1.48008e-05
4.16627e-05
-9.93992e-06
1.98091e-05
-3.19397e-05
4.21885e-06
-4.28817e-05
-9.65451e-06
-3.98863e-05
-2.42788e-05
-2.96286e-05
-3.5545e-05
-2.10903e-05
-3.65211e-05
-1.40994e-05
-3.12208e-05
-8.76425e-06
-2.27371e-05
-6.4055e-06
-1.30754e-05
-6.34169e-06
-6.44755e-06
-6.78297e-06
-4.812e-06
-7.45051e-06
-8.81367e-06
-6.84067e-06
-1.46072e-05
-1.70558e-06
-1.96241e-05
8.36089e-06
-2.44638e-05
1.96561e-05
-1.78586e-05
8.88073e-08
1.07452e-05
3.08293e-05
2.09034e-05
3.92034e-05
3.48413e-05
4.85442e-05
4.64456e-05
4.9964e-05
4.6889e-05
3.99693e-05
4.23116e-05
2.3238e-05
3.9067e-05
6.67154e-06
3.66923e-05
-7.78052e-06
3.27432e-05
-2.06376e-05
2.85333e-05
-3.15161e-05
2.98654e-05
-3.79921e-05
3.71026e-05
-3.90375e-05
4.31325e-05
-3.01676e-05
4.45705e-05
-1.66411e-05
4.04898e-05
-3.8033e-06
2.95869e-05
5.34316e-06
1.72352e-05
2.96646e-06
7.55269e-06
-5.78004e-06
5.02329e-06
-1.84846e-05
1.55737e-05
-3.97266e-05
2.04465e-05
-4.13671e-05
-4.57682e-06
1.94559e-05
9.22906e-06
3.00426e-05
2.74206e-05
3.7248e-05
4.08874e-05
4.47177e-05
4.22839e-05
4.7837e-05
3.67695e-05
4.68172e-05
2.42069e-05
4.36028e-05
9.84526e-06
3.90166e-05
-3.23621e-06
3.50771e-05
-1.67439e-05
3.19198e-05
-2.85589e-05
3.51001e-05
-4.25448e-05
3.83196e-05
-4.68853e-05
3.88274e-05
-3.85342e-05
3.39833e-05
-2.18282e-05
2.52783e-05
-6.35886e-06
2.20055e-05
9.56566e-07
2.33261e-05
-2.07757e-06
1.61067e-05
-4.28219e-06
-6.31393e-06
-7.69765e-06
-3.5038e-05
-5.83317e-05
-5.15253e-05
-7.8319e-05
4.80393e-06
2.0575e-05
-1.84677e-05
2.72909e-05
1.44209e-05
2.9916e-05
3.62279e-05
3.41168e-05
3.73693e-05
3.66058e-05
3.40332e-05
3.49532e-05
2.56851e-05
3.04915e-05
1.40864e-05
2.80746e-05
-1.22225e-06
2.43479e-05
-1.38214e-05
2.69684e-05
-3.27179e-05
3.12288e-05
-4.91399e-05
2.38237e-05
-4.44946e-05
1.22582e-05
-3.22636e-05
-1.6593e-06
-8.59223e-06
-1.97386e-05
1.49133e-05
-4.27628e-05
2.38395e-05
-7.24244e-05
2.13297e-05
-0.000100598
5.22178e-06
-0.000161673
-9.00445e-05
-0.000178502
-0.00012817
-9.51563e-05
-2.69374e-05
4.29985e-05
9.96181e-06
-3.60201e-05
1.06463e-05
9.1829e-06
8.59806e-06
3.36411e-05
9.39688e-06
3.41946e-05
1.07442e-05
3.11041e-05
8.6748e-06
2.61278e-05
5.96477e-06
1.45845e-05
4.84469e-06
-2.88669e-06
-8.1794e-06
-3.62656e-06
-5.60704e-05
5.91182e-06
-0.000119353
-1.2605e-05
-0.000160565
-1.24408e-05
-0.000171493
-3.55768e-06
-0.000179957
1.62576e-05
-0.000185611
2.96879e-05
-0.000190337
3.37436e-05
-0.000202917
1.90604e-05
-0.000271621
-8.85533e-05
-0.000329126
-0.000207702
-0.000263992
-0.000191521
-0.000145271
-6.96217e-05
-4.5372e-05
-1.47785e-05
-2.61441e-05
-1.70109e-05
1.10119e-05
-1.52532e-05
2.74748e-05
-1.31811e-05
2.69848e-05
-7.72727e-06
1.70303e-05
-8.17939e-06
1.14987e-05
-2.13107e-05
1.09166e-05
-6.40592e-05
1.74376e-05
-0.000128361
3.44073e-05
-0.000179733
3.55937e-05
-0.000209873
2.18258e-06
-0.000215149
-6.82668e-06
-0.000218329
2.75093e-06
-0.000223734
2.27258e-05
-0.000224237
2.91306e-05
-0.000237438
2.93658e-05
-0.000340408
-8.68311e-06
-0.000367289
-0.000106608
-0.000342068
-0.000209593
-0.000307925
-0.000217411
-0.000258486
-0.000198903
-0.000175114
-1.56804e-05
-2.60213e-05
-1.84914e-05
-7.52683e-06
-2.01571e-05
-7.46253e-06
-2.62369e-05
-2.25315e-05
-2.50978e-05
-4.59122e-05
-2.83911e-05
-4.93709e-05
-7.95455e-05
-2.84466e-05
-0.000172834
3.00652e-05
-0.000225837
4.8752e-05
-0.000230242
1.30935e-05
-0.000228836
-1.0317e-05
-0.000224093
-8.18175e-06
-0.000225718
3.00735e-06
-0.000223961
1.40988e-05
-0.000226972
1.74305e-05
-0.000279391
1.44834e-05
-0.000316011
1.98805e-05
-0.000354893
4.99084e-05
-0.000288127
-0.000164819
-0.00028454
-0.000197485
-0.000260287
-0.000178603
-0.000181641
-3.33412e-05
-4.23614e-05
-4.04192e-05
-5.11056e-05
-4.2823e-05
-5.60399e-05
-3.89843e-05
-6.60033e-05
-3.68534e-05
-7.66465e-05
-3.64367e-05
-7.08977e-05
-9.73834e-05
-4.91878e-05
-0.000200957
4.57316e-06
-0.000247826
1.22309e-05
-0.000246186
-3.91467e-05
-0.000229923
-5.13063e-05
-0.000217652
-3.22686e-05
-0.000214245
-1.25895e-05
-0.000214484
-8.1283e-06
-0.000249337
-1.05456e-05
-0.000340738
1.16185e-05
-0.000271101
0.000135953
-0.000205321
0.000254743
-0.000226886
-4.00915e-05
-0.000219184
-0.000107544
-0.000216974
-0.000124363
-0.000135754
-4.78641e-05
-3.07424e-05
-5.71953e-05
-3.558e-05
-5.43868e-05
-4.76121e-05
-5.19587e-05
-4.21871e-05
-5.32262e-05
-3.96068e-05
-6.44282e-05
-1.80942e-05
-0.000149351
2.88291e-05
-0.000244696
4.55012e-05
-0.000261138
2.37945e-05
-0.000233481
-4.32135e-05
-0.000214629
-6.18531e-05
-0.000200416
-5.68876e-05
-0.00019065
-4.48891e-05
-0.000192548
-3.60256e-05
-0.000215143
-2.8693e-05
-0.000174492
7.40003e-05
-0.000229271
0.000302891
-0.000176204
0.000258316
-0.00020418
6.57916e-05
-0.000209318
-3.0602e-05
-0.000222761
-4.75271e-05
-0.000242379
-4.25199e-05
-2.38564e-05
-5.44502e-05
2.33182e-05
-7.64739e-05
1.28362e-05
-5.77396e-05
2.71571e-07
-5.7285e-05
2.49455e-05
-0.000108936
7.29053e-05
-0.00010381
0.000126344
-0.000135295
0.000181549
-0.000193773
0.000117783
-0.000203917
6.72359e-05
-0.000146713
2.51391e-06
-0.000193105
-4.33377e-05
-0.000196965
-3.24046e-05
-0.000185363
-4.14741e-05
-0.000178419
-3.22059e-05
-0.000161323
-1.31991e-05
-0.000133855
0.000145933
-0.00013986
0.000268855
-9.79406e-05
0.000309608
-8.84402e-05
0.00015795
-0.000152491
-1.24793e-06
-0.000205821
-3.50484e-05
-0.000226181
-2.0095e-05
-4.79497e-06
-3.80215e-05
0.000160707
-6.73979e-05
0.000108246
-6.80396e-05
7.98856e-05
-7.65685e-05
6.96781e-05
-8.89448e-05
8.68997e-05
-9.28398e-05
0.000132952
-4.60623e-05
0.000198065
-3.24488e-06
0.000223769
-1.27302e-06
0.0001584
-3.67138e-05
7.48957e-05
-8.54566e-05
4.50492e-05
-0.000104608
6.15447e-06
-0.000164649
-2.49564e-05
-0.00018834
-1.68762e-05
-0.000189619
9.72706e-06
-0.000159726
0.000107788
-7.16068e-05
0.000246916
-4.25003e-05
0.000219046
-4.28655e-05
0.000175589
-0.00011448
7.36948e-05
-0.000193546
4.56688e-05
-0.000260676
4.84467e-05
2.83609e-05
-2.67503e-05
0.000190117
-4.83267e-05
0.000129926
-5.49435e-05
8.65176e-05
-6.00772e-05
7.47888e-05
-5.83831e-05
8.51495e-05
-4.93473e-05
0.000123922
-2.00231e-05
0.000168719
1.77748e-05
0.000186028
2.59392e-05
0.000150298
5.11634e-06
9.57376e-05
-1.70085e-05
6.79495e-05
-4.4557e-05
4.95267e-05
-9.52214e-05
4.61995e-05
-0.000131131
4.48183e-05
-0.000121226
3.70079e-05
-0.000127534
7.97469e-05
-6.94561e-05
0.000189165
-2.00897e-05
0.000213204
-2.81496e-05
0.000166704
-9.14426e-05
0.000131068
-0.000139497
9.39588e-05
-0.00016676
7.66215e-05
5.17968e-05
-1.8649e-05
0.000208734
-3.06118e-05
0.000141852
-3.586e-05
9.1816e-05
-3.62767e-05
7.50369e-05
-3.17969e-05
8.05801e-05
-1.52532e-05
0.00010742
1.33187e-05
0.000140137
3.57814e-05
0.000163547
4.06319e-05
0.000145454
2.49904e-05
0.000111378
1.16067e-05
8.13447e-05
9.59418e-07
6.0214e-05
-1.52683e-05
6.2801e-05
-4.282e-05
7.38239e-05
-7.2271e-05
8.78298e-05
-7.23668e-05
8.21819e-05
-5.66442e-05
0.000123367
-8.13286e-06
0.00019076
9.39074e-06
0.000190318
-1.90156e-05
0.000123682
-5.69514e-05
0.000101382
-7.90434e-05
9.11582e-05
6.51094e-05
-3.29261e-06
0.000212039
-8.41738e-06
0.000146943
-1.36577e-05
9.71744e-05
-1.41734e-05
7.55968e-05
-1.05065e-05
7.67182e-05
3.60459e-06
9.33882e-05
3.09399e-05
0.000112823
5.24865e-05
0.000141965
5.75086e-05
0.000140426
4.73406e-05
0.000121534
3.6623e-05
9.2061e-05
2.92758e-05
6.75555e-05
2.2413e-05
6.96422e-05
1.64181e-05
7.98193e-05
8.3582e-06
9.59785e-05
-6.38079e-06
0.000117331
9.93995e-06
0.000106107
4.97905e-05
0.000130056
8.17499e-05
0.000159938
9.84145e-05
0.000144451
0.000105021
0.000127047
0.000111146
0.000100112
6.84703e-05
1.27062e-05
0.000199342
1.12394e-05
0.000148369
6.85077e-06
0.000101468
4.59725e-06
7.79383e-05
5.66586e-06
7.54682e-05
1.37905e-05
8.53855e-05
3.23701e-05
9.42876e-05
5.54669e-05
0.00011882
6.42944e-05
0.000131594
6.33573e-05
0.000122465
5.76193e-05
9.77917e-05
5.06106e-05
7.45682e-05
4.59462e-05
7.4305e-05
4.51742e-05
8.0575e-05
4.92945e-05
9.18491e-05
5.96422e-05
0.000107114
7.63717e-05
0.000123404
0.000106397
0.000122007
0.000142529
0.000119858
0.000168706
9.9423e-05
0.000188989
9.12943e-05
0.000213234
7.7174e-05
5.92843e-05
2.10045e-05
0.000178272
2.37015e-05
0.000145462
2.18057e-05
0.000103488
1.91575e-05
8.06772e-05
1.79929e-05
7.6469e-05
2.12419e-05
8.22246e-05
2.9143e-05
8.64222e-05
4.70072e-05
0.000100941
6.11247e-05
0.000117475
6.80819e-05
0.000115508
6.78335e-05
9.80331e-05
6.23885e-05
8.0014e-05
5.90089e-05
7.76842e-05
5.93819e-05
8.01933e-05
6.59087e-05
8.53164e-05
8.03248e-05
9.2715e-05
0.00010433
9.94064e-05
0.000132703
0.000101908
0.000170054
0.00010408
0.000190456
9.85005e-05
0.000214901
7.39611e-05
0.000242185
5.36012e-05
4.33606e-05
2.0877e-05
0.000154716
2.89533e-05
0.000135616
3.01524e-05
0.000102389
2.80003e-05
8.2914e-05
2.57614e-05
7.86011e-05
2.6167e-05
8.18625e-05
2.84872e-05
8.41103e-05
3.79154e-05
9.15261e-05
5.3191e-05
0.000102203
6.52114e-05
0.000103505
6.86258e-05
9.46146e-05
6.57196e-05
8.29229e-05
6.36448e-05
7.97589e-05
6.44839e-05
7.93567e-05
7.0134e-05
7.96655e-05
8.24619e-05
8.03984e-05
0.000100945
0.000124651
0.000157361
0.000180937
0.000198248
0.000222449
1.8785e-05
3.00881e-05
3.2827e-05
3.12244e-05
2.9158e-05
2.91154e-05
3.02415e-05
3.52892e-05
4.64666e-05
5.80578e-05
6.38611e-05
6.38222e-05
6.34713e-05
6.54627e-05
7.06049e-05
)
;

boundaryField
{
    leftWall
    {
        type            fixedValue;
        value           uniform 0;
    }
    rightWall
    {
        type            fixedValue;
        value           nonuniform 0();
    }
    lowerWall
    {
        type            fixedValue;
        value           uniform 0;
    }
    atmosphere
    {
        type            calculated;
        value           nonuniform 0();
    }
    defaultFaces
    {
        type            empty;
        value           nonuniform 0();
    }
    procBoundary0to1
    {
        type            processor;
        value           nonuniform List<scalar> 
26
(
-2.33297e-06
-4.60857e-07
4.65789e-08
-7.1299e-08
-1.04497e-06
-3.17519e-07
-8.83405e-06
-1.64105e-05
1.26882e-05
7.75822e-06
-7.16728e-05
-8.42847e-05
-9.23343e-05
-0.000207214
-0.000229858
-0.000220676
0.000129254
-0.000226258
-0.000234032
-0.000293318
-0.00018976
-9.37577e-05
0.000111939
0.000223739
0.000257816
0.000244152
)
;
    }
    procBoundary0to2
    {
        type            processor;
        value           nonuniform List<scalar> 
24
(
8.09294e-05
7.80701e-05
7.18021e-05
7.62369e-05
6.00558e-05
2.89435e-05
2.12738e-05
0.000137923
0.000125496
9.96472e-05
8.46253e-05
8.06873e-05
8.19174e-05
8.29858e-05
8.64883e-05
9.10194e-05
9.19223e-05
8.88141e-05
8.29766e-05
8.0118e-05
7.737e-05
7.45247e-05
7.9717e-05
7.12903e-05
)
;
    }
}


// ************************************************************************* //
