/*--------------------------------*- C++ -*----------------------------------*\
| =========                 |                                                 |
| \\      /  F ield         | OpenFOAM: The Open Source CFD Toolbox           |
|  \\    /   O peration     | Version:  2.4.0                                 |
|   \\  /    A nd           | Web:      www.OpenFOAM.org                      |
|    \\/     M anipulation  |                                                 |
\*---------------------------------------------------------------------------*/
FoamFile
{
    version     2.0;
    format      ascii;
    class       volScalarField;
    location    "0.9";
    object      rho;
}
// * * * * * * * * * * * * * * * * * * * * * * * * * * * * * * * * * * * * * //

dimensions      [1 -3 0 0 0 0 0];

internalField   nonuniform List<scalar> 
575
(
13529
13529
13529
13529
13529
13529
13529
13529
13529
13529
13529
13529
13529
13529
13529
13529
13529
13529
13529
13529
13529
13528.9
13528.6
13528.7
13528.9
13529
13529
13529
13529
13529
13529
13529
13529
13529
13529
13529
13529
13529
13529
13529
13529
13529
13529
13528.9
11806.9
13067.6
13508.6
13528.2
13528.9
13529
13529
13529
13529
13529
13529
13529
13529
13529
13529
13529
13529
13529
13529
13529
13529
13528.9
2201.44
4648.76
10147
13185.7
13508.3
13527.1
13528.5
13528.8
13528.9
13529
13529
13529
13529
13529
13529
13529
13529
13529
13529
13529
13529
13528.9
1010.05
1175.51
3959.74
10867.6
13262
13505.7
13525.9
13528.2
13528.4
13526.9
13523.4
13520.9
13521.1
13522.2
13524.6
13526.9
13528.2
13528.6
13528.6
13528.1
13525.9
13522
1000.1
1030.16
2179.29
7696.16
12464.3
13398.6
13505.4
13500.4
13397
13139.9
12774
12552.4
12564
12656.9
12843.8
13057.1
13216.5
13308.8
13319.1
13244.2
13026.9
12681.4
1000.09
1006.46
1442.4
4942.6
10750.4
12881
12857.9
11798
9940.76
7613.15
5491.79
4333.12
4075.14
4215.75
4833.36
5895.9
6850.53
7604.66
7951.5
7676.34
6628.32
4245.89
1000.07
1000.74
1098.22
2339.13
5480
7318.3
6589.51
4289.26
2487.85
1512.63
1140.63
1031.28
1022.28
1015.54
1010.76
1013.66
1033.77
1069.13
1108.58
1123.14
1106.64
1017.33
1000.03
1000.1
1016.14
1216.84
1528.31
1514.08
1346.96
1217.86
1131.03
1066.22
1024.99
1011.42
1000.33
998.507
997.917
997.31
995.383
993.742
993.425
993.11
985.777
980.995
1000
1000.01
1000.45
1006.79
1016.05
1015.22
1010.3
1010.27
1010.24
1008.88
1001.89
998.938
994.249
988.915
986.726
988.273
986.911
980.782
975.381
939.009
830.293
803.58
996.416
998.41
999.207
1000.31
1002.59
1004.83
1005.37
1005
1003.05
1000.76
991.479
954.594
905.778
878.126
889.429
922.871
941.546
932.362
907.257
725.761
492.427
457.554
864.627
923.443
968.353
985.266
995.039
998.356
998.68
998.56
996.989
972.928
864.424
737.355
662.93
623.608
657.525
757.906
800.623
691.59
545.219
307.236
41.3187
89.5972
632.531
654.347
837.998
938.751
978.416
984.708
980.359
960.032
886.804
758.196
593.792
530.2
528.153
565.736
599.877
613.325
592.923
454.865
139.642
4.4067
3.08927
5.50187
576.336
577.474
699.501
824.355
869.982
865.196
793.705
655.408
585.099
562.178
536.705
526.585
534.564
549.854
551.625
538.294
357.62
58.2334
11.8854
3.42024
3.42108
4.5143
555.925
571.606
588.349
631.662
623.755
579.066
563.807
552.824
537.556
535.177
525.15
525.791
529.604
530.127
517.712
342.671
50.6215
3.49234
13.9674
88.7485
137.924
136.877
436.172
440.811
357.192
211.487
80.5114
60.0619
127.892
329.636
444.676
473.92
483.987
498.91
507.27
501.499
365.985
66.3611
2.41848
1.21284
10.7954
86.734
183.41
185.755
197.749
58.5247
22.4212
4.77769
1.72362
1.77163
7.85451
40.2432
70.556
78.285
212.679
416.844
466.816
427.203
151.776
5.27234
1.03567
1.16345
2.09783
1.32308
1.23946
1.42675
1.11549
8.89215
1.81558
1.119
1.00442
1.00041
1.00232
1.09639
1.62984
1.94256
1.52093
7.22186
63.4706
160.446
174.413
48.0573
2.01576
1.01614
1.01714
1.01932
1.0024
1.00049
1.00037
1.00037
1.03933
1.00137
1.00008
1.00002
1.00001
1.00001
1.00015
1.00113
1.00124
1.00034
1.03647
1.91233
5.01298
7.97314
8.48345
2.79178
1.02063
1.00064
1.00042
1.00023
1.00024
1.00026
1.00028
1.00005
1.00002
1.00002
1.00001
1.00001
1
1
1.00002
1.00003
1.00003
1.00006
1.00305
1.06569
1.32964
1.78055
2.09698
1.12561
1.00125
1.00044
1.00023
1.00023
1.00029
1.00033
1.00004
1.00002
1.00003
1.00002
1.00001
1
1
1
1.00001
1.00001
1.00002
1.00002
1.00016
1.00272
1.0474
1.203
1.22957
1.01093
1.00066
1.00031
1.00025
1.00031
1.00045
1.00006
1.00007
1.00006
1.00004
1.00001
1
1.00001
1.00001
1.00001
1.00001
1.00001
1.00001
1.00002
1.00003
1.00037
1.01651
1.10836
1.05801
1.01117
1.00157
1.00066
1.00047
1.00051
1.0001
1.00011
1.00006
1.00004
1.00001
1
1.00001
1.00001
1.00001
1.00001
1.00001
1.00002
1.00002
1.00002
1.00004
1.00017
1.00501
1.03279
1.03315
1.02069
1.00444
1.00106
1.0006
1.00011
1.0001
1.00005
1.00004
1.00002
1
1
1.00001
1.00001
1.00001
1.00002
1.00003
1.00002
1.00002
1.00001
1.00002
1.00006
1.00429
1.01246
1.01141
1.01137
1.01046
1.00538
1.0001
1.00005
1.00005
1.00004
1.00001
1
1
1.00001
1.00001
1.00001
1.00003
1.00003
1.00002
1.00002
1.00001
1.00001
1.00001
1.0001
1.00046
1.00114
1.00287
1.00281
1.00431
1.00007
1.00005
1.00005
1.00002
1.00001
1
1
1
1
1.00001
1.00002
1.00002
1.00001
1.00001
1.00001
1.00002
)
;

boundaryField
{
    leftWall
    {
        type            calculated;
        value           nonuniform List<scalar> 
26
(
13529
13528.6
11806.9
2201.44
1010.05
1000.1
1000.09
1000.07
1000.03
1000
996.416
864.627
632.531
576.336
555.925
436.172
197.749
8.89215
1.03933
1.00005
1.00004
1.00006
1.0001
1.00011
1.0001
1.00007
)
;
    }
    rightWall
    {
        type            calculated;
        value           nonuniform 0();
    }
    lowerWall
    {
        type            calculated;
        value           nonuniform List<scalar> 
22
(
13529
13529
13529
13529
13529
13529
13529
13529
13529
13529
13529
13529
13529
13529
13529
13529
13529
13529
13529
13529
13529
13528.9
)
;
    }
    atmosphere
    {
        type            calculated;
        value           nonuniform 0();
    }
    defaultFaces
    {
        type            empty;
    }
    procBoundary0to1
    {
        type            processor;
        value           nonuniform List<scalar> 
26
(
13528.9
13528.9
13528.8
13528.8
13508.6
11443.1
1700.64
1041.65
1005.17
818.338
563.672
418.833
87.8036
10.3898
155.871
99.1002
99.1002
1.00538
1.00028
1.00028
1.00039
1.00052
1.00055
1.00064
1.00146
1.00468
)
;
    }
    procBoundary0to2
    {
        type            processor;
        value           nonuniform List<scalar> 
24
(
1.00002
1.00003
1.00004
1.00008
1.0002
1.0003
1.00062
1.00007
1.00006
1.00003
1.00001
1
0.999999
1
1
1
1
1
1
1
1.00001
1.00002
1.00002
1.00003
)
;
    }
}


// ************************************************************************* //
