/*--------------------------------*- C++ -*----------------------------------*\
| =========                 |                                                 |
| \\      /  F ield         | OpenFOAM: The Open Source CFD Toolbox           |
|  \\    /   O peration     | Version:  2.4.0                                 |
|   \\  /    A nd           | Web:      www.OpenFOAM.org                      |
|    \\/     M anipulation  |                                                 |
\*---------------------------------------------------------------------------*/
FoamFile
{
    version     2.0;
    format      ascii;
    class       volVectorField;
    location    "0.9";
    object      U;
}
// * * * * * * * * * * * * * * * * * * * * * * * * * * * * * * * * * * * * * //

dimensions      [0 1 -1 0 0 0 0];

internalField   nonuniform List<vector> 
575
(
(-0.0240937 -0.0874182 0)
(-0.0810466 -0.085557 0)
(-0.146108 -0.0652422 0)
(-0.219997 -0.0340378 0)
(-0.267544 -0.0113152 0)
(-0.294382 0.00601699 0)
(-0.296698 0.00971922 0)
(-0.284107 0.00893069 0)
(-0.2605 0.0065093 0)
(-0.23621 0.00342493 0)
(-0.218191 -0.00128495 0)
(-0.201317 -0.00713889 0)
(-0.177366 -0.00765263 0)
(-0.154832 -0.0077516 0)
(-0.137371 -0.00654275 0)
(-0.128089 -0.00391192 0)
(-0.120491 -0.00371743 0)
(-0.11036 -0.00461339 0)
(-0.0916651 -0.00507549 0)
(-0.0618262 -0.00724908 0)
(-0.0373952 -0.000942135 0)
(-0.030628 0.00148335 0)
(-0.0210969 0.142767 0)
(-0.0715803 0.148365 0)
(-0.125255 0.122468 0)
(-0.199337 0.0820874 0)
(-0.254134 0.0423613 0)
(-0.29047 0.00470888 0)
(-0.300824 -0.0153676 0)
(-0.289638 -0.0260388 0)
(-0.264235 -0.0287921 0)
(-0.238972 -0.022299 0)
(-0.217138 -0.0143782 0)
(-0.19483 -0.0118455 0)
(-0.172774 -0.0141729 0)
(-0.153025 -0.0115286 0)
(-0.137863 -0.0062553 0)
(-0.127979 -0.00407175 0)
(-0.117307 -0.00459643 0)
(-0.106045 -0.00883969 0)
(-0.0856307 -0.0167248 0)
(-0.0560747 -0.0201712 0)
(-0.0322223 -0.0144906 0)
(-0.00867928 -0.00794319 0)
(-0.020503 -0.0477577 0)
(-0.0942584 -0.0405455 0)
(-0.17628 0.0239518 0)
(-0.232644 0.0497884 0)
(-0.270715 0.0388065 0)
(-0.296947 0.0295659 0)
(-0.307581 0.00881824 0)
(-0.292707 -0.0112199 0)
(-0.265142 -0.0195073 0)
(-0.236475 -0.0206579 0)
(-0.209534 -0.0236369 0)
(-0.186361 -0.027201 0)
(-0.169479 -0.0253011 0)
(-0.154945 -0.0207692 0)
(-0.140491 -0.0149779 0)
(-0.130374 -0.0120647 0)
(-0.114617 -0.0138834 0)
(-0.0995989 -0.0205609 0)
(-0.0812727 -0.0298575 0)
(-0.0580849 -0.0334851 0)
(-0.0369651 -0.0236592 0)
(-0.00110655 -0.0101531 0)
(-0.0492522 0.309875 0)
(-0.148474 0.24636 0)
(-0.236152 0.137173 0)
(-0.300021 0.101192 0)
(-0.343275 0.0600676 0)
(-0.343919 0.0168969 0)
(-0.32487 -0.0185459 0)
(-0.300893 -0.0451676 0)
(-0.2707 -0.0527432 0)
(-0.235427 -0.0456274 0)
(-0.205983 -0.0381159 0)
(-0.184671 -0.0355031 0)
(-0.170452 -0.0363447 0)
(-0.157237 -0.0329988 0)
(-0.140857 -0.0237026 0)
(-0.123838 -0.0198171 0)
(-0.104601 -0.0193429 0)
(-0.090842 -0.021953 0)
(-0.0794199 -0.0325868 0)
(-0.0701722 -0.0386757 0)
(-0.0506682 -0.0426617 0)
(-0.0060217 -0.0316242 0)
(-0.0282974 -0.0210511 0)
(-0.0863183 0.0799546 0)
(-0.328171 0.211819 0)
(-0.394317 0.121466 0)
(-0.403556 0.0648945 0)
(-0.393879 0.0208679 0)
(-0.368458 -0.0138433 0)
(-0.342405 -0.040888 0)
(-0.312863 -0.0535533 0)
(-0.274221 -0.0495022 0)
(-0.235336 -0.0403591 0)
(-0.205245 -0.0307805 0)
(-0.185911 -0.0229139 0)
(-0.172398 -0.0191641 0)
(-0.149438 -0.0178865 0)
(-0.123336 -0.0208665 0)
(-0.10136 -0.0260639 0)
(-0.090278 -0.0341081 0)
(-0.0812651 -0.0437564 0)
(-0.0701364 -0.0508941 0)
(-0.0503928 -0.0523994 0)
(-0.0245808 -0.0229417 0)
(-0.0589702 0.264815 0)
(-0.154288 0.270352 0)
(-0.340793 0.266148 0)
(-0.534865 0.161021 0)
(-0.514332 0.0611749 0)
(-0.475818 0.00311222 0)
(-0.42981 -0.0390555 0)
(-0.387441 -0.0619853 0)
(-0.347396 -0.074711 0)
(-0.302272 -0.08386 0)
(-0.252144 -0.0885034 0)
(-0.213364 -0.0827001 0)
(-0.196476 -0.0766998 0)
(-0.190862 -0.0730408 0)
(-0.183172 -0.0659299 0)
(-0.166888 -0.0563258 0)
(-0.13979 -0.0435076 0)
(-0.1073 -0.0355325 0)
(-0.0844061 -0.0417899 0)
(-0.059288 -0.0555987 0)
(-0.0213327 -0.0745555 0)
(0.000329719 -0.0745906 0)
(-0.0329481 0.172333 0)
(-0.101253 0.260459 0)
(-0.221621 0.319296 0)
(-0.533176 0.19106 0)
(-0.572815 0.04115 0)
(-0.554228 -0.0161417 0)
(-0.487673 -0.0596058 0)
(-0.414538 -0.104506 0)
(-0.369121 -0.123976 0)
(-0.331164 -0.111433 0)
(-0.262206 -0.0734411 0)
(-0.178137 -0.028657 0)
(-0.135958 -0.00111514 0)
(-0.132657 0.00292348 0)
(-0.150799 -0.0147833 0)
(-0.171808 -0.0467045 0)
(-0.170948 -0.0668293 0)
(-0.129357 -0.0758033 0)
(-0.0828689 -0.0840181 0)
(-0.0492362 -0.0978518 0)
(-0.0357372 -0.0936565 0)
(-0.0976487 0.00355607 0)
(-0.0227178 0.269973 0)
(-0.0580067 0.324237 0)
(-0.0588805 0.447138 0)
(-0.297111 0.328706 0)
(-0.468286 0.0849895 0)
(-0.47288 -0.0546918 0)
(-0.439255 -0.122647 0)
(-0.415445 -0.100506 0)
(-0.399691 -0.0537039 0)
(-0.364069 -0.0390615 0)
(-0.280556 -0.0639767 0)
(-0.201027 -0.0693735 0)
(-0.109673 -0.0492888 0)
(-0.0460224 -0.0118395 0)
(-0.0192642 0.03063 0)
(-0.0515967 0.0689702 0)
(-0.0713319 0.0621588 0)
(-0.0666364 0.0445515 0)
(-0.0483111 0.0449059 0)
(-0.0408429 0.0346542 0)
(-0.0865354 0.06604 0)
(-0.218518 0.0194593 0)
(0.0169706 0.217493 0)
(0.0444763 0.274309 0)
(0.117385 0.386596 0)
(0.198024 0.400038 0)
(0.137993 0.275364 0)
(0.0186308 0.130159 0)
(-0.119188 0.0275127 0)
(-0.213627 -0.0586934 0)
(-0.239354 -0.169621 0)
(-0.174786 -0.263347 0)
(-0.133336 -0.267894 0)
(-0.0978392 -0.222017 0)
(-0.0585382 -0.175791 0)
(-0.0385192 -0.150004 0)
(-0.0331595 -0.161633 0)
(-0.0373364 -0.218286 0)
(-0.0376576 -0.257581 0)
(-0.0382589 -0.275046 0)
(-0.0318635 -0.275282 0)
(0.0161326 -0.248713 0)
(0.064673 -0.177293 0)
(0.137183 -0.0798764 0)
(0.0302048 0.228721 0)
(0.0876724 0.26417 0)
(0.142836 0.309642 0)
(0.220001 0.307126 0)
(0.261745 0.206611 0)
(0.244869 0.0949257 0)
(0.219935 0.0030353 0)
(0.205374 -0.0705741 0)
(0.187007 -0.135002 0)
(0.166832 -0.171603 0)
(0.150214 -0.171613 0)
(0.173253 -0.151122 0)
(0.214947 -0.0975185 0)
(0.238138 -0.0111161 0)
(0.238775 0.0791888 0)
(0.195798 0.154663 0)
(0.127465 0.145192 0)
(0.0611733 0.0934092 0)
(0.0194254 0.0333019 0)
(0.0401584 -0.0442146 0)
(0.1079 0.000704045 0)
(0.0676162 0.139887 0)
(0.0687106 0.116143 0)
(0.134394 0.172458 0)
(0.185897 0.229792 0)
(0.217595 0.234575 0)
(0.252142 0.199631 0)
(0.253408 0.136467 0)
(0.244747 0.063284 0)
(0.224858 -0.00379583 0)
(0.202117 -0.0629853 0)
(0.180971 -0.133764 0)
(0.170209 -0.19813 0)
(0.198982 -0.223284 0)
(0.207933 -0.174984 0)
(0.204294 -0.117521 0)
(0.160755 -0.0866666 0)
(0.126038 -0.0690425 0)
(0.120498 -0.0938012 0)
(0.123692 -0.132553 0)
(0.0613243 -0.195418 0)
(-0.097911 -0.284822 0)
(-0.218611 -0.181665 0)
(-0.45405 0.0974475 0)
(0.0735631 0.00364061 0)
(0.139264 0.130128 0)
(0.160893 0.205758 0)
(0.167265 0.213681 0)
(0.191125 0.191642 0)
(0.194132 0.131985 0)
(0.180653 0.0559923 0)
(0.157308 -0.0260225 0)
(0.139799 -0.110565 0)
(0.134089 -0.193484 0)
(0.145763 -0.290819 0)
(0.156261 -0.285626 0)
(0.0941203 -0.191958 0)
(0.0718258 -0.0173216 0)
(-0.0414908 0.117264 0)
(-0.133451 0.141121 0)
(-0.284101 0.105158 0)
(-0.463329 0.160727 0)
(-0.490378 0.248742 0)
(-0.739488 -0.0250307 0)
(-0.69361 0.50971 0)
(-1.15126 0.848945 0)
(0.0408826 -0.110966 0)
(0.0636551 0.10607 0)
(0.0618184 0.214567 0)
(0.0307649 0.18695 0)
(0.0652012 0.163757 0)
(0.0537923 0.134943 0)
(0.0387568 0.0781673 0)
(0.0235442 0.0114703 0)
(0.0145409 -0.0491833 0)
(-0.115584 -0.131733 0)
(-0.416827 -0.143107 0)
(-0.674563 -0.062765 0)
(-0.787816 -0.017401 0)
(-0.896539 0.0854121 0)
(-0.93184 0.211959 0)
(-1.03282 0.267531 0)
(-1.07915 0.257556 0)
(-1.10772 0.103472 0)
(-1.10202 0.0595044 0)
(-1.22475 1.092 0)
(-2.57128 0.146925 0)
(-2.45134 1.11108 0)
(-0.0535406 -0.0854592 0)
(-0.0822175 0.155037 0)
(-0.0759157 0.251077 0)
(-0.0936857 0.243972 0)
(-0.0549242 0.222893 0)
(-0.0422932 0.20125 0)
(-0.0649196 0.148498 0)
(-0.214841 0.0224688 0)
(-0.578108 0.111652 0)
(-0.816242 0.280963 0)
(-1.04877 0.113826 0)
(-1.06397 0.0311832 0)
(-1.14068 0.0494067 0)
(-1.2072 0.183756 0)
(-1.20524 0.234379 0)
(-1.25124 0.229876 0)
(-1.39379 0.140219 0)
(-1.84548 0.508614 0)
(-3.28231 1.71521 0)
(-3.90089 1.12707 0)
(-3.53134 0.495382 0)
(-2.75445 0.593308 0)
(-0.0494923 -0.00816192 0)
(-0.0766421 0.141236 0)
(-0.0617857 0.189145 0)
(-0.116528 0.124673 0)
(-0.138379 0.0469508 0)
(-0.166206 0.0768877 0)
(-0.329214 0.21481 0)
(-0.899885 0.475255 0)
(-1.19558 0.524225 0)
(-1.24647 0.318861 0)
(-1.20603 0.121443 0)
(-1.20344 0.0704794 0)
(-1.21477 0.0846335 0)
(-1.19066 0.192704 0)
(-1.19062 0.228314 0)
(-1.22303 0.344398 0)
(-1.52217 0.972871 0)
(-2.40726 2.29984 0)
(-3.04102 1.4183 0)
(-2.10793 -0.230267 0)
(-1.73008 -0.499527 0)
(-1.36514 -0.557949 0)
(-0.130539 0.0601222 0)
(-0.121755 0.10769 0)
(-0.194256 0.170614 0)
(-0.173049 0.221111 0)
(-0.164456 0.449802 0)
(-0.46573 0.716274 0)
(-0.849513 0.828119 0)
(-1.33561 0.706012 0)
(-1.44437 0.433299 0)
(-1.3984 0.115158 0)
(-1.35276 0.0024923 0)
(-1.22691 0.0216105 0)
(-1.14903 0.115032 0)
(-1.09993 0.136537 0)
(-1.02945 0.225069 0)
(-0.926188 0.828606 0)
(-1.36524 2.01998 0)
(-2.15084 2.13982 0)
(-2.18311 1.14001 0)
(-1.6334 -0.49418 0)
(-1.42208 -0.630161 0)
(-1.2089 -0.63793 0)
(-0.198545 0.0929224 0)
(-0.0948676 0.467291 0)
(-0.335517 0.7815 0)
(-0.593222 0.622978 0)
(-0.572498 0.403637 0)
(-0.548837 0.89643 0)
(-0.722902 1.81712 0)
(-1.47823 1.32862 0)
(-1.65527 0.794425 0)
(-1.52644 0.395974 0)
(-1.34297 -0.0681029 0)
(-1.16413 -0.142744 0)
(-1.05724 -0.0547741 0)
(-0.982235 0.0121498 0)
(-0.823036 0.228337 0)
(-0.459897 1.41571 0)
(-1.21291 1.90101 0)
(-1.37183 2.04388 0)
(-0.946161 1.20054 0)
(-0.807934 -0.244274 0)
(-1.28069 -0.253423 0)
(-1.57503 0.174592 0)
(-1.85777 0.16735 0)
(-0.34993 0.873758 0)
(-0.447842 0.462792 0)
(-0.512991 0.373983 0)
(-0.435579 0.206216 0)
(-0.554656 0.306955 0)
(-0.598464 0.665993 0)
(-0.445511 1.46688 0)
(-0.521956 1.67128 0)
(-0.764733 0.93557 0)
(-0.737465 0.100771 0)
(-1.00051 -0.174487 0)
(-1.20317 -0.0521774 0)
(-1.05814 -0.071631 0)
(-0.956381 -0.0907929 0)
(-0.886435 0.227378 0)
(-0.735556 1.30641 0)
(-0.795001 1.88772 0)
(-0.715093 1.83339 0)
(-0.392531 0.895942 0)
(-0.558221 -0.322784 0)
(-1.0237 -0.616111 0)
(-1.18249 -0.529119 0)
(-1.21978 -0.190074 0)
(-0.186938 0.737044 0)
(-0.278386 0.46213 0)
(-0.390798 0.415578 0)
(-0.356118 0.367683 0)
(-0.434806 0.431218 0)
(-0.516441 0.707987 0)
(-0.40089 1.13714 0)
(-0.0948849 1.30071 0)
(0.0385204 0.898175 0)
(-0.0422497 0.387507 0)
(-0.30095 0.181642 0)
(-0.566314 -0.0388759 0)
(-0.777602 -0.178926 0)
(-1.03003 0.0483551 0)
(-1.07638 0.290799 0)
(-0.812298 1.01183 0)
(-0.542357 1.69129 0)
(-0.377969 1.59283 0)
(-0.124698 0.897736 0)
(-0.341802 0.311216 0)
(-0.800147 0.25138 0)
(-1.24394 0.295885 0)
(-1.59322 0.113897 0)
(-0.156846 0.887881 0)
(-0.168303 0.643256 0)
(-0.308736 0.451508 0)
(-0.298149 0.404007 0)
(-0.323942 0.482126 0)
(-0.282139 0.705185 0)
(-0.212853 0.983498 0)
(-0.0189732 1.06931 0)
(0.177165 0.822591 0)
(0.113548 0.457881 0)
(-0.0407417 0.314301 0)
(-0.14461 0.235686 0)
(-0.321427 0.170984 0)
(-0.631037 0.0728596 0)
(-0.80168 0.109574 0)
(-0.769871 0.66178 0)
(-0.398938 1.42713 0)
(-0.151853 1.49378 0)
(-0.0322642 1.05043 0)
(-0.313729 0.548001 0)
(-0.595714 0.294919 0)
(-0.862418 0.282192 0)
(-1.01357 0.230863 0)
(-0.138612 1.11883 0)
(-0.0844598 0.753936 0)
(-0.216092 0.485615 0)
(-0.182357 0.408982 0)
(-0.19144 0.44492 0)
(-0.141964 0.621506 0)
(-0.00614005 0.837424 0)
(0.135233 0.933948 0)
(0.217052 0.789078 0)
(0.206191 0.550968 0)
(0.0800294 0.390443 0)
(0.0499196 0.291203 0)
(-0.0331295 0.30569 0)
(-0.134198 0.380006 0)
(-0.31151 0.418826 0)
(-0.485989 0.547626 0)
(-0.323478 0.94395 0)
(-0.0440339 1.20997 0)
(0.137564 1.11437 0)
(-0.00284397 0.864089 0)
(-0.196947 0.615487 0)
(-0.392846 0.453277 0)
(-0.501803 0.267319 0)
(-0.0536923 1.18425 0)
(0.0105906 0.800014 0)
(-0.0892643 0.515245 0)
(-0.0651647 0.403972 0)
(-0.07897 0.416495 0)
(-0.0307139 0.52914 0)
(0.0728436 0.671702 0)
(0.241842 0.840317 0)
(0.300971 0.774182 0)
(0.295104 0.641759 0)
(0.212497 0.473213 0)
(0.191239 0.346355 0)
(0.138979 0.359529 0)
(0.107169 0.420935 0)
(0.0784398 0.514003 0)
(0.0301416 0.644924 0)
(0.0500075 0.82298 0)
(0.230274 0.956175 0)
(0.413116 0.971629 0)
(0.517684 0.877825 0)
(0.600812 0.76496 0)
(0.620634 0.615274 0)
(0.529348 0.425662 0)
(0.0204067 1.14102 0)
(0.0989877 0.808691 0)
(0.0356341 0.542198 0)
(0.0397303 0.413171 0)
(0.0136557 0.407108 0)
(0.050177 0.473973 0)
(0.101617 0.541353 0)
(0.242031 0.698764 0)
(0.334449 0.735016 0)
(0.345549 0.669419 0)
(0.32511 0.526122 0)
(0.301678 0.384013 0)
(0.256038 0.386581 0)
(0.24407 0.429698 0)
(0.252693 0.507012 0)
(0.295646 0.613442 0)
(0.369535 0.741954 0)
(0.547736 0.817574 0)
(0.698167 0.853305 0)
(0.87703 0.733673 0)
(0.969141 0.637951 0)
(1.14143 0.523273 0)
(1.12883 0.373712 0)
(0.0640952 1.01145 0)
(0.145679 0.795275 0)
(0.117252 0.559377 0)
(0.122277 0.431431 0)
(0.0901267 0.413248 0)
(0.106175 0.452172 0)
(0.121819 0.482221 0)
(0.192679 0.578488 0)
(0.298438 0.681584 0)
(0.352257 0.64734 0)
(0.371225 0.528568 0)
(0.357327 0.416174 0)
(0.322571 0.409871 0)
(0.316357 0.433811 0)
(0.331578 0.478871 0)
(0.390648 0.543451 0)
(0.484975 0.605327 0)
(0.648536 0.637679 0)
(0.801992 0.688013 0)
(1.00784 0.611557 0)
(1.07654 0.480112 0)
(1.23079 0.369846 0)
(1.32834 0.285405 0)
(0.0631159 0.900535 0)
(0.150527 0.768078 0)
(0.15834 0.560467 0)
(0.169564 0.443966 0)
(0.137808 0.420082 0)
(0.140421 0.443106 0)
(0.141569 0.458961 0)
(0.163334 0.51191 0)
(0.242099 0.584854 0)
(0.322069 0.590166 0)
(0.371272 0.520617 0)
(0.366792 0.441549 0)
(0.34398 0.426999 0)
(0.342813 0.432832 0)
(0.35695 0.447199 0)
(0.404304 0.468051 0)
(0.488414 0.484881 0)
(0.605891 0.480667 0)
(0.722771 0.457837 0)
(0.947708 0.484374 0)
(1.0026 0.373382 0)
(1.0969 0.210966 0)
(1.25387 0.173629 0)
(0.0612604 0.796164 0)
(0.139589 0.711031 0)
(0.176393 0.5456 0)
(0.181266 0.453857 0)
(0.157695 0.430447 0)
(0.156411 0.44289 0)
(0.157692 0.450993 0)
(0.166281 0.477344 0)
(0.213868 0.512665 0)
(0.27985 0.520591 0)
(0.338495 0.496818 0)
(0.347995 0.451449 0)
(0.339545 0.434112 0)
(0.344874 0.426237 0)
(0.362778 0.417659 0)
(0.400175 0.40819 0)
)
;

boundaryField
{
    leftWall
    {
        type            calculated;
        value           uniform (0 0 0);
    }
    rightWall
    {
        type            calculated;
        value           nonuniform 0();
    }
    lowerWall
    {
        type            calculated;
        value           uniform (0 0 0);
    }
    atmosphere
    {
        type            calculated;
        value           nonuniform 0();
    }
    defaultFaces
    {
        type            empty;
    }
    procBoundary0to1
    {
        type            processor;
        value           nonuniform List<vector> 
26
(
(-0.0239135 -0.00894899 0)
(-0.00268744 -0.0187117 0)
(0.00235098 -0.00699931 0)
(0.00381141 -0.0285106 0)
(-0.00734521 0.00529704 0)
(-0.0192994 -0.0685397 0)
(-0.102228 0.15865 0)
(-0.126142 -0.252316 0)
(-0.0257551 -0.0605589 0)
(-0.0218761 0.221634 0)
(-0.877551 0.414708 0)
(-1.21142 0.801372 0)
(-1.84986 1.36046 0)
(-1.89744 1.33372 0)
(-0.863219 -0.6961 0)
(-1.07019 -0.443582 0)
(-1.07019 -0.443582 0)
(-1.72108 -0.297451 0)
(-1.28174 0.040318 0)
(-1.58628 -0.10103 0)
(-1.00932 -0.00979778 0)
(-0.50287 0.0829802 0)
(0.626597 0.23799 0)
(1.20015 0.180973 0)
(1.37595 0.155082 0)
(1.31201 0.142749 0)
)
;
    }
    procBoundary0to2
    {
        type            processor;
        value           nonuniform List<vector> 
24
(
(0.459785 0.398449 0)
(0.536603 0.368352 0)
(0.617265 0.31694 0)
(0.747152 0.336617 0)
(0.837943 0.259144 0)
(0.912735 0.085454 0)
(1.00288 0.0347739 0)
(0.0606396 0.696927 0)
(0.121553 0.644205 0)
(0.174327 0.528616 0)
(0.174011 0.460259 0)
(0.159543 0.440474 0)
(0.161113 0.441137 0)
(0.166401 0.444284 0)
(0.176482 0.455779 0)
(0.208236 0.467171 0)
(0.25168 0.469511 0)
(0.294221 0.460757 0)
(0.315445 0.442235 0)
(0.32857 0.42978 0)
(0.346033 0.410133 0)
(0.369542 0.38968 0)
(0.459785 0.398449 0)
(0.400989 0.365243 0)
)
;
    }
}


// ************************************************************************* //
