/*--------------------------------*- C++ -*----------------------------------*\
| =========                 |                                                 |
| \\      /  F ield         | OpenFOAM: The Open Source CFD Toolbox           |
|  \\    /   O peration     | Version:  2.4.0                                 |
|   \\  /    A nd           | Web:      www.OpenFOAM.org                      |
|    \\/     M anipulation  |                                                 |
\*---------------------------------------------------------------------------*/
FoamFile
{
    version     2.0;
    format      ascii;
    class       volVectorField;
    location    "0.9";
    object      U.air;
}
// * * * * * * * * * * * * * * * * * * * * * * * * * * * * * * * * * * * * * //

dimensions      [0 1 -1 0 0 0 0];

internalField   nonuniform List<vector> 
575
(
(-0.0240937 -0.0874179 0)
(-0.0810465 -0.0855567 0)
(-0.146107 -0.065242 0)
(-0.219997 -0.0340376 0)
(-0.267544 -0.011315 0)
(-0.294383 0.00601716 0)
(-0.296698 0.00971935 0)
(-0.284107 0.00893083 0)
(-0.2605 0.00650944 0)
(-0.23621 0.00342505 0)
(-0.218191 -0.00128488 0)
(-0.201317 -0.00713884 0)
(-0.177366 -0.00765261 0)
(-0.154833 -0.00775159 0)
(-0.137371 -0.00654274 0)
(-0.12809 -0.00391189 0)
(-0.120491 -0.0037174 0)
(-0.11036 -0.00461335 0)
(-0.0916654 -0.00507543 0)
(-0.0618265 -0.00724904 0)
(-0.0373956 -0.000942107 0)
(-0.0306283 0.00148329 0)
(-0.021097 0.142769 0)
(-0.0715803 0.148366 0)
(-0.125255 0.122469 0)
(-0.199338 0.0820879 0)
(-0.254135 0.0423617 0)
(-0.29047 0.00470923 0)
(-0.300825 -0.0153673 0)
(-0.289638 -0.0260385 0)
(-0.264235 -0.0287917 0)
(-0.238972 -0.0222987 0)
(-0.217138 -0.014378 0)
(-0.19483 -0.0118454 0)
(-0.172774 -0.0141728 0)
(-0.153025 -0.0115285 0)
(-0.137863 -0.00625521 0)
(-0.127979 -0.00407163 0)
(-0.117307 -0.00459628 0)
(-0.106045 -0.00883951 0)
(-0.085631 -0.0167246 0)
(-0.056075 -0.020171 0)
(-0.0322227 -0.0144905 0)
(-0.00867957 -0.0079432 0)
(-0.0194578 -0.0553216 0)
(-0.0945564 -0.039581 0)
(-0.176473 0.0246137 0)
(-0.232645 0.0497906 0)
(-0.270715 0.0388073 0)
(-0.296947 0.0295665 0)
(-0.307581 0.00881886 0)
(-0.292707 -0.0112193 0)
(-0.265142 -0.0195067 0)
(-0.236475 -0.0206574 0)
(-0.209534 -0.0236366 0)
(-0.186361 -0.0272007 0)
(-0.169479 -0.0253009 0)
(-0.154945 -0.020769 0)
(-0.140492 -0.0149777 0)
(-0.130374 -0.0120645 0)
(-0.114617 -0.0138831 0)
(-0.0995991 -0.0205606 0)
(-0.081273 -0.0298571 0)
(-0.0580853 -0.0334847 0)
(-0.0369655 -0.0236588 0)
(-0.00110688 -0.0101528 0)
(-0.0339993 0.110696 0)
(-0.123043 0.102653 0)
(-0.226933 0.110985 0)
(-0.300531 0.10242 0)
(-0.343401 0.0605982 0)
(-0.34392 0.0169043 0)
(-0.32487 -0.0185446 0)
(-0.300893 -0.0451666 0)
(-0.2707 -0.0527422 0)
(-0.235427 -0.0456266 0)
(-0.205983 -0.0381153 0)
(-0.184671 -0.0355027 0)
(-0.170452 -0.0363443 0)
(-0.157237 -0.0329984 0)
(-0.140857 -0.0237022 0)
(-0.123838 -0.0198167 0)
(-0.104601 -0.0193423 0)
(-0.0908422 -0.0219524 0)
(-0.0794202 -0.0325861 0)
(-0.0701727 -0.0386735 0)
(-0.0506687 -0.042554 0)
(-0.00602205 -0.0314068 0)
(-0.0278434 -0.0279472 0)
(-0.096281 0.0421759 0)
(-0.308087 0.105909 0)
(-0.388337 0.105887 0)
(-0.403883 0.0661682 0)
(-0.393928 0.021461 0)
(-0.368459 -0.0138236 0)
(-0.342405 -0.0408854 0)
(-0.312863 -0.0535512 0)
(-0.27422 -0.0494912 0)
(-0.235333 -0.0402786 0)
(-0.20524 -0.0306171 0)
(-0.185908 -0.022756 0)
(-0.172397 -0.0190472 0)
(-0.149437 -0.0178369 0)
(-0.123336 -0.020835 0)
(-0.10136 -0.0259809 0)
(-0.0902782 -0.0340628 0)
(-0.0812654 -0.0437274 0)
(-0.0701362 -0.0508448 0)
(-0.0503926 -0.0495588 0)
(-0.0245784 -0.0101037 0)
(-0.0589912 0.264792 0)
(-0.189192 0.238552 0)
(-0.40922 0.147253 0)
(-0.522213 0.104488 0)
(-0.513788 0.0588371 0)
(-0.475897 0.00443271 0)
(-0.429809 -0.03842 0)
(-0.387404 -0.0612221 0)
(-0.347273 -0.0732081 0)
(-0.302158 -0.0825816 0)
(-0.252177 -0.0888887 0)
(-0.213467 -0.0844626 0)
(-0.196526 -0.078405 0)
(-0.190868 -0.0741659 0)
(-0.183171 -0.0659717 0)
(-0.166907 -0.0552873 0)
(-0.139817 -0.0416895 0)
(-0.107319 -0.033613 0)
(-0.0843982 -0.0400404 0)
(-0.0591925 -0.0539397 0)
(-0.0205738 -0.0669802 0)
(0.00103548 -0.0344404 0)
(-0.0329496 0.172326 0)
(-0.115374 0.248341 0)
(-0.322767 0.190203 0)
(-0.53983 0.0861111 0)
(-0.570777 0.0245087 0)
(-0.554234 -0.016033 0)
(-0.48767 -0.0595376 0)
(-0.415095 -0.111585 0)
(-0.370458 -0.148545 0)
(-0.332836 -0.166908 0)
(-0.26595 -0.167072 0)
(-0.184571 -0.145772 0)
(-0.142982 -0.122248 0)
(-0.138942 -0.11506 0)
(-0.156814 -0.118062 0)
(-0.175603 -0.127724 0)
(-0.172898 -0.130437 0)
(-0.130406 -0.127254 0)
(-0.0838098 -0.130844 0)
(-0.0506112 -0.148746 0)
(-0.0374703 -0.158053 0)
(-0.101892 -0.0946149 0)
(-0.0227175 0.269984 0)
(-0.059481 0.322682 0)
(-0.134366 0.346501 0)
(-0.363807 0.158534 0)
(-0.473267 0.00127577 0)
(-0.473007 -0.105462 0)
(-0.437898 -0.185365 0)
(-0.408659 -0.20299 0)
(-0.38333 -0.195876 0)
(-0.332315 -0.2087 0)
(-0.252458 -0.20649 0)
(-0.198042 -0.145886 0)
(-0.111969 -0.109575 0)
(-0.0500783 -0.0580094 0)
(-0.0244588 -0.00722503 0)
(-0.0599426 0.0266133 0)
(-0.0840324 -0.00257456 0)
(-0.080472 -0.0406136 0)
(-0.0578471 -0.0589668 0)
(-0.0485987 -0.0749341 0)
(-0.087427 -0.0411963 0)
(-0.233387 -0.0375971 0)
(0.0169753 0.217919 0)
(0.0444655 0.274483 0)
(0.0926053 0.352585 0)
(0.0859855 0.26924 0)
(0.0263238 0.144074 0)
(-0.0183926 0.0335195 0)
(-0.0985372 -0.0512851 0)
(-0.166125 -0.125628 0)
(-0.189726 -0.221149 0)
(-0.141237 -0.306384 0)
(-0.11425 -0.308205 0)
(-0.0976093 -0.252958 0)
(-0.0591402 -0.179945 0)
(-0.038264 -0.148419 0)
(-0.0326553 -0.157676 0)
(-0.0366888 -0.214634 0)
(-0.0370491 -0.253601 0)
(-0.0377863 -0.270512 0)
(-0.0315494 -0.269746 0)
(0.016234 -0.237287 0)
(0.0642033 0.00214964 0)
(0.132857 0.0756661 0)
(0.0302717 0.229833 0)
(0.0877957 0.264808 0)
(0.142712 0.309609 0)
(0.20993 0.294143 0)
(0.239701 0.180934 0)
(0.228518 0.0710916 0)
(0.210489 -0.0159142 0)
(0.198084 -0.0898271 0)
(0.182125 -0.153945 0)
(0.164677 -0.189045 0)
(0.15055 -0.174376 0)
(0.173349 -0.147656 0)
(0.215186 -0.0846454 0)
(0.238511 0.0253631 0)
(0.239676 0.0955091 0)
(0.196829 0.174247 0)
(0.128789 0.15613 0)
(0.0630537 0.101385 0)
(0.0218794 0.0434035 0)
(0.0600153 0.159771 0)
(0.0543303 0.544388 0)
(-0.18971 0.564179 0)
(0.068846 0.118068 0)
(0.134616 0.173855 0)
(0.186115 0.230834 0)
(0.217333 0.234573 0)
(0.249575 0.19592 0)
(0.248728 0.128475 0)
(0.241113 0.0550151 0)
(0.223069 -0.0103247 0)
(0.201918 -0.0659502 0)
(0.181095 -0.130735 0)
(0.17182 -0.121629 0)
(0.204719 0.0527148 0)
(0.223527 0.182059 0)
(0.220348 0.294418 0)
(0.166894 0.291839 0)
(0.135401 0.252453 0)
(0.132669 0.103173 0)
(0.12815 0.0230835 0)
(0.127586 0.00990655 0)
(0.140445 0.260094 0)
(-0.127809 0.392006 0)
(-0.974185 0.673352 0)
(0.0735767 0.0027609 0)
(0.139436 0.13332 0)
(0.161183 0.209052 0)
(0.167574 0.216127 0)
(0.191234 0.192719 0)
(0.194117 0.132285 0)
(0.180622 0.0561708 0)
(0.157292 -0.0242905 0)
(0.140388 -0.0743759 0)
(0.179778 -0.178064 0)
(0.355465 -0.255411 0)
(0.468875 0.0114987 0)
(0.304822 0.255914 0)
(0.148713 0.476522 0)
(-0.0628433 0.573369 0)
(-0.169015 0.521661 0)
(-0.215802 0.45507 0)
(-0.248998 0.548899 0)
(-0.245792 0.751489 0)
(-0.586227 0.280745 0)
(-0.665998 0.603688 0)
(-1.26677 1.00502 0)
(0.0396989 -0.119902 0)
(0.0629494 0.0884108 0)
(0.0619237 0.211688 0)
(0.030762 0.188926 0)
(0.0652082 0.165541 0)
(0.0536284 0.136257 0)
(0.0380007 0.0796937 0)
(0.0206862 0.0148016 0)
(-0.0199049 -0.0179145 0)
(-0.0849698 -0.0617536 0)
(-0.111247 0.0579438 0)
(-0.238655 0.0649752 0)
(-0.450015 0.103982 0)
(-0.761712 0.244184 0)
(-0.947156 0.379202 0)
(-0.971684 0.50135 0)
(-0.854785 0.609019 0)
(-0.86391 0.493454 0)
(-1.01905 0.248653 0)
(-1.22207 1.10482 0)
(-2.57841 0.14883 0)
(-2.46492 1.1177 0)
(-0.0529763 0.0933973 0)
(-0.0832514 0.26277 0)
(-0.0765102 0.248286 0)
(-0.0929003 0.37658 0)
(-0.0533465 0.508638 0)
(-0.0397507 0.546659 0)
(-0.0697014 0.404724 0)
(-0.215402 0.0886558 0)
(-0.555083 0.224833 0)
(-0.668304 0.465396 0)
(-0.784914 0.470297 0)
(-0.799874 0.286936 0)
(-0.90519 0.210575 0)
(-1.08675 0.317708 0)
(-1.12333 0.460835 0)
(-1.05597 0.56402 0)
(-1.15155 0.465538 0)
(-1.80882 0.646445 0)
(-3.3096 1.76959 0)
(-3.91024 1.13598 0)
(-3.54048 0.500829 0)
(-2.76418 0.601467 0)
(-0.0371966 0.360765 0)
(-0.0284058 0.543354 0)
(0.0214851 0.500217 0)
(0.00585884 0.631963 0)
(-0.0938414 0.563791 0)
(-0.280392 0.621539 0)
(-0.67688 0.896707 0)
(-1.16211 1.11822 0)
(-1.16487 1.01895 0)
(-1.13835 0.791205 0)
(-0.999335 0.495469 0)
(-1.02213 0.36729 0)
(-1.09302 0.295045 0)
(-1.04351 0.382207 0)
(-0.981216 0.510471 0)
(-1.02034 0.61413 0)
(-1.47544 1.09048 0)
(-2.40812 2.31418 0)
(-3.06958 1.47406 0)
(-2.15752 -0.132634 0)
(-1.78013 -0.408108 0)
(-1.39098 -0.467988 0)
(-0.0622776 0.41124 0)
(-0.0265492 0.451559 0)
(-0.155692 0.475776 0)
(-0.151481 0.43443 0)
(-0.156638 0.563884 0)
(-0.491569 0.826566 0)
(-0.914459 1.04809 0)
(-1.4125 1.18696 0)
(-1.44716 0.955285 0)
(-1.42319 0.642359 0)
(-1.42458 0.476735 0)
(-1.29096 0.368125 0)
(-1.10839 0.374507 0)
(-0.914998 0.385838 0)
(-0.821451 0.419041 0)
(-0.860327 0.916281 0)
(-1.36275 2.02541 0)
(-2.15092 2.14109 0)
(-2.18939 1.17921 0)
(-1.62942 -0.433526 0)
(-1.443 -0.547103 0)
(-1.23624 -0.532583 0)
(-0.179324 0.250157 0)
(-0.0763335 0.543222 0)
(-0.336445 0.823233 0)
(-0.595414 0.629978 0)
(-0.572851 0.40481 0)
(-0.548622 0.898126 0)
(-0.710464 1.83992 0)
(-1.45323 1.41928 0)
(-1.64912 0.89735 0)
(-1.53349 0.503244 0)
(-1.36821 0.0983304 0)
(-1.22593 0.0907394 0)
(-1.07377 0.247232 0)
(-0.897936 0.221997 0)
(-0.752763 0.324339 0)
(-0.451205 1.42495 0)
(-1.21286 1.90116 0)
(-1.37168 2.0448 0)
(-0.943993 1.20508 0)
(-0.807204 -0.243825 0)
(-1.2807 -0.253107 0)
(-1.57543 0.175496 0)
(-1.85795 0.167615 0)
(-0.350976 0.893039 0)
(-0.448029 0.463983 0)
(-0.513026 0.374123 0)
(-0.43558 0.206219 0)
(-0.554656 0.306955 0)
(-0.598461 0.665994 0)
(-0.445184 1.4671 0)
(-0.51999 1.67315 0)
(-0.762639 0.937302 0)
(-0.736684 0.101257 0)
(-0.997162 -0.171503 0)
(-1.21024 -0.0091782 0)
(-1.06432 0.0282454 0)
(-0.951439 -0.0185893 0)
(-0.877736 0.265253 0)
(-0.733591 1.30824 0)
(-0.794973 1.88776 0)
(-0.715069 1.83345 0)
(-0.392505 0.89597 0)
(-0.558221 -0.322786 0)
(-1.0237 -0.616111 0)
(-1.18248 -0.529119 0)
(-1.21978 -0.190074 0)
(-0.186932 0.737108 0)
(-0.278386 0.462131 0)
(-0.390799 0.415579 0)
(-0.356119 0.367683 0)
(-0.434806 0.431218 0)
(-0.516441 0.707987 0)
(-0.40089 1.13714 0)
(-0.0948832 1.30071 0)
(0.0385221 0.898176 0)
(-0.0422496 0.387507 0)
(-0.300935 0.181665 0)
(-0.566029 -0.0383828 0)
(-0.776681 -0.177622 0)
(-1.03045 0.0530561 0)
(-1.0772 0.297587 0)
(-0.811108 1.01505 0)
(-0.542318 1.69132 0)
(-0.377969 1.59283 0)
(-0.124698 0.897736 0)
(-0.341802 0.311216 0)
(-0.800147 0.25138 0)
(-1.24393 0.295884 0)
(-1.59322 0.113897 0)
(-0.156846 0.887882 0)
(-0.168303 0.643256 0)
(-0.308736 0.451508 0)
(-0.298149 0.404007 0)
(-0.323942 0.482127 0)
(-0.282139 0.705185 0)
(-0.212853 0.983498 0)
(-0.0189732 1.06931 0)
(0.177165 0.822591 0)
(0.113548 0.457882 0)
(-0.0407417 0.314301 0)
(-0.14461 0.235686 0)
(-0.321407 0.170999 0)
(-0.630886 0.0729074 0)
(-0.801276 0.109638 0)
(-0.76911 0.662899 0)
(-0.398726 1.42738 0)
(-0.151852 1.49378 0)
(-0.0322641 1.05043 0)
(-0.313729 0.548001 0)
(-0.595714 0.294919 0)
(-0.862417 0.282192 0)
(-1.01357 0.230863 0)
(-0.138613 1.11883 0)
(-0.0844599 0.753937 0)
(-0.216092 0.485615 0)
(-0.182357 0.408983 0)
(-0.19144 0.44492 0)
(-0.141964 0.621506 0)
(-0.00614006 0.837424 0)
(0.135233 0.933948 0)
(0.217053 0.789079 0)
(0.206191 0.550968 0)
(0.0800294 0.390443 0)
(0.0499197 0.291203 0)
(-0.0331295 0.30569 0)
(-0.134197 0.380007 0)
(-0.311473 0.418835 0)
(-0.485812 0.547725 0)
(-0.323165 0.94426 0)
(-0.0440187 1.20998 0)
(0.137564 1.11437 0)
(-0.00284396 0.864088 0)
(-0.196947 0.615487 0)
(-0.392846 0.453276 0)
(-0.501803 0.267319 0)
(-0.0536924 1.18425 0)
(0.0105906 0.800014 0)
(-0.0892644 0.515246 0)
(-0.0651648 0.403972 0)
(-0.0789701 0.416495 0)
(-0.0307139 0.52914 0)
(0.0728436 0.671702 0)
(0.241842 0.840317 0)
(0.300971 0.774182 0)
(0.295104 0.641759 0)
(0.212497 0.473214 0)
(0.191239 0.346355 0)
(0.138979 0.359529 0)
(0.107169 0.420935 0)
(0.0784399 0.514003 0)
(0.0301555 0.64493 0)
(0.0501746 0.823069 0)
(0.230374 0.956229 0)
(0.413126 0.971635 0)
(0.517684 0.877824 0)
(0.600811 0.76496 0)
(0.620634 0.615273 0)
(0.529347 0.425662 0)
(0.0204067 1.14102 0)
(0.0989877 0.808692 0)
(0.0356341 0.542199 0)
(0.0397304 0.413171 0)
(0.0136557 0.407108 0)
(0.0501771 0.473973 0)
(0.101617 0.541353 0)
(0.242032 0.698764 0)
(0.334449 0.735016 0)
(0.345549 0.669419 0)
(0.32511 0.526122 0)
(0.301678 0.384013 0)
(0.256038 0.386581 0)
(0.24407 0.429698 0)
(0.252693 0.507012 0)
(0.295646 0.613442 0)
(0.36954 0.741956 0)
(0.547784 0.817594 0)
(0.698213 0.853321 0)
(0.877047 0.733678 0)
(0.969141 0.637951 0)
(1.14143 0.523273 0)
(1.12883 0.373711 0)
(0.0640952 1.01145 0)
(0.145679 0.795275 0)
(0.117252 0.559377 0)
(0.122277 0.431432 0)
(0.0901268 0.413248 0)
(0.106175 0.452172 0)
(0.12182 0.482221 0)
(0.192679 0.578488 0)
(0.298438 0.681584 0)
(0.352257 0.647341 0)
(0.371226 0.528568 0)
(0.357327 0.416174 0)
(0.322571 0.409871 0)
(0.316357 0.433811 0)
(0.331578 0.478871 0)
(0.390648 0.543451 0)
(0.484975 0.605327 0)
(0.648539 0.63768 0)
(0.802003 0.688015 0)
(1.00785 0.611558 0)
(1.07654 0.48011 0)
(1.23079 0.369843 0)
(1.32834 0.285404 0)
(0.0631159 0.900535 0)
(0.150527 0.768079 0)
(0.15834 0.560467 0)
(0.169565 0.443966 0)
(0.137808 0.420083 0)
(0.140421 0.443107 0)
(0.141569 0.458961 0)
(0.163334 0.511911 0)
(0.242099 0.584854 0)
(0.322069 0.590166 0)
(0.371272 0.520617 0)
(0.366792 0.441549 0)
(0.34398 0.426999 0)
(0.342813 0.432832 0)
(0.35695 0.447199 0)
(0.404304 0.468051 0)
(0.488414 0.484881 0)
(0.605891 0.480667 0)
(0.722771 0.457837 0)
(0.947708 0.484374 0)
(1.0026 0.373381 0)
(1.0969 0.210965 0)
(1.25387 0.173628 0)
(0.0612604 0.796165 0)
(0.139589 0.711031 0)
(0.176393 0.545601 0)
(0.181266 0.453857 0)
(0.157695 0.430447 0)
(0.156411 0.442891 0)
(0.157692 0.450993 0)
(0.166281 0.477344 0)
(0.213869 0.512666 0)
(0.27985 0.520591 0)
(0.338495 0.496818 0)
(0.347995 0.451449 0)
(0.339546 0.434112 0)
(0.344874 0.426237 0)
(0.362779 0.417659 0)
(0.400175 0.40819 0)
)
;

boundaryField
{
    leftWall
    {
        type            fixedValue;
        value           uniform (0 0 0);
    }
    rightWall
    {
        type            fixedValue;
        value           nonuniform 0();
    }
    lowerWall
    {
        type            fixedValue;
        value           uniform (0 0 0);
    }
    atmosphere
    {
        type            fluxCorrectedVelocity;
        value           nonuniform 0();
    }
    defaultFaces
    {
        type            empty;
    }
    procBoundary0to1
    {
        type            processor;
        value           nonuniform List<vector> 
26
(
(-0.0239135 -0.00894902 0)
(-0.00268752 -0.0187118 0)
(0.00235087 -0.00699934 0)
(0.00381129 -0.0284854 0)
(-0.00734187 0.0123259 0)
(-0.0192834 -0.0472299 0)
(-0.119119 -0.0685112 0)
(-0.130183 -0.351337 0)
(-0.121604 -0.139194 0)
(-0.428476 0.267571 0)
(-1.73809 0.886304 0)
(-1.8433 1.41394 0)
(-1.98347 1.49978 0)
(-1.90965 1.37464 0)
(-0.784098 -0.622081 0)
(-1.06774 -0.331355 0)
(-1.06774 -0.331355 0)
(-1.72109 -0.297445 0)
(-1.28174 0.040318 0)
(-1.58628 -0.10103 0)
(-1.00932 -0.00979774 0)
(-0.50287 0.0829802 0)
(0.626596 0.23799 0)
(1.20015 0.180973 0)
(1.37595 0.155082 0)
(1.31201 0.142747 0)
)
;
    }
    procBoundary0to2
    {
        type            processor;
        value           nonuniform List<vector> 
24
(
(0.459785 0.398449 0)
(0.536603 0.368352 0)
(0.617266 0.31694 0)
(0.747152 0.336617 0)
(0.837943 0.259144 0)
(0.912734 0.085454 0)
(1.00288 0.0347739 0)
(0.0606397 0.696928 0)
(0.121553 0.644206 0)
(0.174327 0.528616 0)
(0.174011 0.46026 0)
(0.159543 0.440474 0)
(0.161113 0.441137 0)
(0.166401 0.444284 0)
(0.176482 0.455779 0)
(0.208236 0.467171 0)
(0.25168 0.469511 0)
(0.294221 0.460757 0)
(0.315446 0.442235 0)
(0.32857 0.42978 0)
(0.346033 0.410133 0)
(0.369542 0.38968 0)
(0.459785 0.398449 0)
(0.400989 0.365243 0)
)
;
    }
}


// ************************************************************************* //
