/*--------------------------------*- C++ -*----------------------------------*\
| =========                 |                                                 |
| \\      /  F ield         | OpenFOAM: The Open Source CFD Toolbox           |
|  \\    /   O peration     | Version:  2.4.0                                 |
|   \\  /    A nd           | Web:      www.OpenFOAM.org                      |
|    \\/     M anipulation  |                                                 |
\*---------------------------------------------------------------------------*/
FoamFile
{
    version     2.0;
    format      ascii;
    class       volVectorField;
    location    "0.9";
    object      U.mercury;
}
// * * * * * * * * * * * * * * * * * * * * * * * * * * * * * * * * * * * * * //

dimensions      [0 1 -1 0 0 0 0];

internalField   nonuniform List<vector> 
575
(
(-0.0240937 -0.0874182 0)
(-0.0810466 -0.085557 0)
(-0.146108 -0.0652422 0)
(-0.219997 -0.0340378 0)
(-0.267544 -0.0113152 0)
(-0.294382 0.00601699 0)
(-0.296698 0.00971922 0)
(-0.284107 0.00893069 0)
(-0.2605 0.0065093 0)
(-0.23621 0.00342493 0)
(-0.218191 -0.00128495 0)
(-0.201317 -0.00713889 0)
(-0.177366 -0.00765263 0)
(-0.154832 -0.0077516 0)
(-0.137371 -0.00654275 0)
(-0.128089 -0.00391192 0)
(-0.120491 -0.00371743 0)
(-0.11036 -0.00461339 0)
(-0.0916651 -0.00507549 0)
(-0.0618262 -0.00724908 0)
(-0.0373953 -0.000942144 0)
(-0.030628 0.0014833 0)
(-0.0210969 0.142766 0)
(-0.0715803 0.148364 0)
(-0.125255 0.122468 0)
(-0.199337 0.0820874 0)
(-0.254134 0.0423613 0)
(-0.29047 0.00470888 0)
(-0.300824 -0.0153676 0)
(-0.289638 -0.0260388 0)
(-0.264235 -0.0287921 0)
(-0.238972 -0.022299 0)
(-0.217138 -0.0143782 0)
(-0.19483 -0.0118455 0)
(-0.172774 -0.0141729 0)
(-0.153025 -0.0115286 0)
(-0.137863 -0.0062553 0)
(-0.127979 -0.00407175 0)
(-0.117307 -0.00459643 0)
(-0.106045 -0.00883969 0)
(-0.0856307 -0.0167248 0)
(-0.0560747 -0.0201712 0)
(-0.0322223 -0.0144906 0)
(-0.00867928 -0.00794324 0)
(-0.0169731 -0.073313 0)
(-0.0921681 -0.047303 0)
(-0.176196 0.0236645 0)
(-0.232644 0.0497855 0)
(-0.270715 0.0388063 0)
(-0.296947 0.0295658 0)
(-0.307581 0.00881824 0)
(-0.292707 -0.0112199 0)
(-0.265142 -0.0195074 0)
(-0.236475 -0.0206579 0)
(-0.209534 -0.0236369 0)
(-0.186361 -0.027201 0)
(-0.169479 -0.0253011 0)
(-0.154945 -0.0207692 0)
(-0.140492 -0.0149779 0)
(-0.130374 -0.0120648 0)
(-0.114617 -0.0138834 0)
(-0.0995989 -0.0205609 0)
(-0.0812727 -0.0298575 0)
(-0.0580849 -0.0334851 0)
(-0.0369651 -0.0236592 0)
(-0.00110655 -0.0101531 0)
(-0.0177616 -0.101357 0)
(-0.103722 -0.00654606 0)
(-0.215214 0.0776701 0)
(-0.298129 0.0966381 0)
(-0.343214 0.0598113 0)
(-0.343918 0.0168881 0)
(-0.32487 -0.0185468 0)
(-0.300893 -0.0451679 0)
(-0.2707 -0.0527433 0)
(-0.235427 -0.0456274 0)
(-0.205983 -0.0381159 0)
(-0.184671 -0.0355031 0)
(-0.170452 -0.0363447 0)
(-0.157237 -0.0329988 0)
(-0.140857 -0.0237026 0)
(-0.123838 -0.0198171 0)
(-0.104601 -0.0193429 0)
(-0.090842 -0.021953 0)
(-0.0794199 -0.0325868 0)
(-0.0701722 -0.0386757 0)
(-0.0506682 -0.0426617 0)
(-0.0060217 -0.0316243 0)
(-0.0173257 -0.188027 0)
(-0.132031 -0.0933442 0)
(-0.29089 0.0151781 0)
(-0.379296 0.0823226 0)
(-0.402713 0.0616122 0)
(-0.393855 0.0205764 0)
(-0.368458 -0.0138618 0)
(-0.342405 -0.0408905 0)
(-0.312863 -0.0535551 0)
(-0.274221 -0.0495136 0)
(-0.235338 -0.0404113 0)
(-0.205247 -0.0308701 0)
(-0.185912 -0.0230011 0)
(-0.172399 -0.0192333 0)
(-0.149438 -0.0179223 0)
(-0.123336 -0.0208782 0)
(-0.10136 -0.0260669 0)
(-0.090278 -0.0341092 0)
(-0.0812651 -0.0437576 0)
(-0.0701364 -0.0508975 0)
(-0.0503933 -0.0524196 0)
(-0.0245819 -0.0230127 0)
(-0.120362 0.203221 0)
(-0.469317 -0.0166262 0)
(-0.487785 0.0107448 0)
(-0.511064 0.0546568 0)
(-0.511077 0.0471683 0)
(-0.47572 0.00145193 0)
(-0.42981 -0.0393598 0)
(-0.387459 -0.0623633 0)
(-0.347545 -0.0765114 0)
(-0.302752 -0.0892464 0)
(-0.253028 -0.099166 0)
(-0.214176 -0.0966619 0)
(-0.196877 -0.0905203 0)
(-0.190934 -0.0855164 0)
(-0.18303 -0.075652 0)
(-0.166754 -0.0629233 0)
(-0.139701 -0.0477883 0)
(-0.107262 -0.0384961 0)
(-0.0844221 -0.0445934 0)
(-0.0593848 -0.0594228 0)
(-0.0216376 -0.0814902 0)
(-0.00027299 -0.0865954 0)
(-0.0473555 0.137498 0)
(-0.419669 -0.0126865 0)
(-0.496228 -0.0311768 0)
(-0.545145 0.00228779 0)
(-0.567777 1.79912e-05 0)
(-0.553816 -0.024885 0)
(-0.488227 -0.068581 0)
(-0.416464 -0.129036 0)
(-0.372153 -0.179737 0)
(-0.334354 -0.217403 0)
(-0.268997 -0.243318 0)
(-0.189901 -0.242808 0)
(-0.148886 -0.224118 0)
(-0.144181 -0.213449 0)
(-0.161741 -0.202637 0)
(-0.178742 -0.194809 0)
(-0.174573 -0.186104 0)
(-0.131357 -0.17552 0)
(-0.0847019 -0.176076 0)
(-0.0519881 -0.196326 0)
(-0.0363029 -0.220547 0)
(-0.0995338 -0.218554 0)
(-0.0256701 0.240227 0)
(-0.248657 0.122448 0)
(-0.413605 -0.0257584 0)
(-0.432749 -0.0173703 0)
(-0.477375 -0.0677975 0)
(-0.473121 -0.152136 0)
(-0.436709 -0.2402 0)
(-0.402825 -0.291072 0)
(-0.365952 -0.346868 0)
(-0.280529 -0.485355 0)
(-0.165212 -0.648991 0)
(-0.176453 -0.699651 0)
(-0.132553 -0.647982 0)
(-0.0955026 -0.573793 0)
(-0.0961321 -0.527727 0)
(-0.159254 -0.473907 0)
(-0.173943 -0.456149 0)
(-0.146429 -0.443222 0)
(-0.0930258 -0.440833 0)
(-0.0746145 -0.45086 0)
(-0.0798114 -0.438787 0)
(-0.163474 -0.570758 0)
(0.0155104 0.202891 0)
(-0.00548215 0.204246 0)
(-0.187162 -0.0314965 0)
(-0.182582 -0.0442968 0)
(-0.15099 -0.0643929 0)
(-0.084512 -0.139065 0)
(-0.0519529 -0.229042 0)
(-0.0328301 -0.313453 0)
(-0.00685014 -0.411029 0)
(0.0412895 -0.540562 0)
(0.0605673 -0.677522 0)
(-0.0946412 -0.699105 0)
(-0.103984 -0.476682 0)
(-0.0685324 -0.243236 0)
(-0.0483539 -0.226936 0)
(-0.0183873 -0.279683 0)
(-0.01157 -0.325737 0)
(-0.0271276 -0.358947 0)
(-0.0433568 -0.385597 0)
(-0.0116243 -0.396729 0)
(0.0443157 -0.34859 0)
(0.156339 -0.235785 0)
(0.0296868 0.222667 0)
(0.0844495 0.254869 0)
(0.0706504 0.198955 0)
(-0.0116096 0.00813718 0)
(-0.0260781 -0.12867 0)
(0.0177487 -0.23615 0)
(0.0516569 -0.334548 0)
(0.0742824 -0.416805 0)
(0.0980313 -0.480358 0)
(0.12384 -0.520165 0)
(0.171313 -0.37331 0)
(0.17054 -0.246139 0)
(0.205155 -0.141294 0)
(0.231409 -0.0414021 0)
(0.234474 0.0562449 0)
(0.192449 0.13656 0)
(0.124419 0.130433 0)
(0.0575883 0.0764468 0)
(0.0153002 0.00525752 0)
(-0.00260461 -0.132972 0)
(0.0488138 -0.158545 0)
(0.0796038 -0.0401541 0)
(0.0686403 0.115858 0)
(0.134188 0.171373 0)
(0.183929 0.22233 0)
(0.139677 0.128168 0)
(0.123119 0.0091265 0)
(0.108143 -0.112025 0)
(0.136333 -0.183564 0)
(0.164875 -0.22292 0)
(0.192204 -0.236436 0)
(0.185073 -0.236962 0)
(0.166359 -0.247038 0)
(0.187842 -0.253002 0)
(0.201689 -0.197113 0)
(0.201514 -0.132341 0)
(0.159434 -0.100653 0)
(0.123327 -0.0846257 0)
(0.111842 -0.106944 0)
(0.0975083 -0.144253 0)
(0.00984715 -0.250585 0)
(-0.275093 -0.431757 0)
(-0.416877 -0.48912 0)
(-0.295261 -0.303404 0)
(0.0735323 0.000501907 0)
(0.139295 0.130432 0)
(0.161033 0.206506 0)
(0.165853 0.206561 0)
(0.182519 0.160828 0)
(0.183045 0.0808754 0)
(0.181122 0.0097496 0)
(0.161944 -0.0521416 0)
(0.138088 -0.128106 0)
(0.128874 -0.20265 0)
(0.143162 -0.298359 0)
(0.151787 -0.302049 0)
(0.0785979 -0.222162 0)
(0.0605381 -0.0686058 0)
(-0.0667405 0.0633595 0)
(-0.165851 0.0873185 0)
(-0.338085 0.0371061 0)
(-0.563094 0.0241677 0)
(-0.689376 -0.0125443 0)
(-1.08236 -0.488924 0)
(-1.04455 -0.607268 0)
(-0.400953 -0.171315 0)
(0.0399016 -0.131882 0)
(0.0629139 0.0872236 0)
(0.0620875 0.210144 0)
(0.0307805 0.186791 0)
(0.0655113 0.163033 0)
(0.0547025 0.133113 0)
(0.039307 0.0765742 0)
(0.0235621 0.00998058 0)
(0.0152819 -0.0520609 0)
(-0.111657 -0.137165 0)
(-0.440757 -0.153979 0)
(-0.734935 -0.0787789 0)
(-0.86556 -0.0397689 0)
(-0.958341 0.0488947 0)
(-1.027 0.158618 0)
(-1.15227 0.156442 0)
(-1.21594 0.0584249 0)
(-1.30838 -0.266839 0)
(-1.46581 -0.593027 0)
(-1.60426 -0.116833 0)
(-1.78825 -0.108509 0)
(-1.40666 0.500824 0)
(-0.0563547 -0.103137 0)
(-0.0860421 0.139222 0)
(-0.076351 0.237411 0)
(-0.0934458 0.23837 0)
(-0.0545749 0.220193 0)
(-0.041559 0.198154 0)
(-0.0613583 0.140768 0)
(-0.20352 0.00911051 0)
(-0.57221 0.0932422 0)
(-0.836476 0.252516 0)
(-1.08255 0.0731189 0)
(-1.11893 -0.0096038 0)
(-1.19947 0.0214348 0)
(-1.23672 0.118626 0)
(-1.24697 0.136048 0)
(-1.33822 0.0779185 0)
(-1.59136 -0.169405 0)
(-2.11035 -0.500802 0)
(-2.47994 -0.119419 0)
(-2.4674 -0.392736 0)
(-1.98585 -0.615243 0)
(-1.72963 -0.462349 0)
(-0.0525912 -0.0353978 0)
(-0.0824329 0.119581 0)
(-0.0695489 0.168742 0)
(-0.121242 0.10698 0)
(-0.140354 0.00807218 0)
(-0.147138 -0.0143916 0)
(-0.2643 0.101461 0)
(-0.859781 0.42045 0)
(-1.19115 0.478851 0)
(-1.25427 0.253796 0)
(-1.23913 0.0552147 0)
(-1.23681 0.0155466 0)
(-1.23638 0.0477636 0)
(-1.22497 0.127314 0)
(-1.24655 0.141675 0)
(-1.37652 0.107001 0)
(-1.9203 -0.0415219 0)
(-2.31129 0.859694 0)
(-2.22963 -0.184592 0)
(-1.8696 -0.825377 0)
(-1.56593 -0.91729 0)
(-1.30406 -0.918104 0)
(-0.144924 -0.00832011 0)
(-0.146772 0.0154293 0)
(-0.218378 -0.0319954 0)
(-0.210911 -0.167963 0)
(-0.202999 -0.200636 0)
(-0.264005 -0.126291 0)
(-0.562207 0.0788122 0)
(-1.23886 0.386493 0)
(-1.43565 0.328741 0)
(-1.39434 0.0487103 0)
(-1.33656 -0.0630628 0)
(-1.21424 -0.0338517 0)
(-1.16148 0.0632971 0)
(-1.13645 0.0895126 0)
(-1.15074 0.114508 0)
(-1.32203 0.234042 0)
(-1.7797 1.31619 0)
(-2.1151 1.57285 0)
(-1.94495 -0.216057 0)
(-1.55871 -0.770368 0)
(-1.27278 -0.789414 0)
(-1.13583 -0.87792 0)
(-0.225876 -0.130044 0)
(-0.219194 -0.0428337 0)
(-0.318112 0.022867 0)
(-0.43076 0.0994199 0)
(-0.50626 0.184456 0)
(-0.584561 0.578459 0)
(-1.27836 0.752336 0)
(-1.71361 0.437176 0)
(-1.68806 0.238537 0)
(-1.49214 -0.120836 0)
(-1.31146 -0.284611 0)
(-1.14944 -0.200366 0)
(-1.05507 -0.0903629 0)
(-1.00058 -0.0330494 0)
(-0.977424 0.0204689 0)
(-1.01451 0.825564 0)
(-1.24489 1.78992 0)
(-1.44731 1.57493 0)
(-1.31168 0.430517 0)
(-1.00118 -0.352998 0)
(-1.22674 -0.33251 0)
(-1.41578 -0.0614609 0)
(-1.77587 0.0182676 0)
(-0.308505 0.110305 0)
(-0.417487 0.269163 0)
(-0.502268 0.330772 0)
(-0.435388 0.205494 0)
(-0.554647 0.306904 0)
(-0.600212 0.665463 0)
(-0.625997 1.34513 0)
(-0.985907 1.23096 0)
(-1.11793 0.643095 0)
(-0.900114 -0.00198612 0)
(-1.1481 -0.311946 0)
(-1.16095 -0.310492 0)
(-1.04609 -0.267348 0)
(-0.964943 -0.21619 0)
(-0.954847 -0.0755625 0)
(-1.03511 1.02715 0)
(-0.815413 1.85913 0)
(-0.73477 1.78242 0)
(-0.406854 0.881335 0)
(-0.557886 -0.322908 0)
(-1.02335 -0.617284 0)
(-1.18149 -0.530248 0)
(-1.21868 -0.191135 0)
(-0.189622 0.710482 0)
(-0.278403 0.462028 0)
(-0.390801 0.415569 0)
(-0.356113 0.367668 0)
(-0.434805 0.431191 0)
(-0.516473 0.707918 0)
(-0.400893 1.13712 0)
(-0.0956415 1.30038 0)
(0.0377719 0.897816 0)
(-0.0422446 0.38742 0)
(-0.305358 0.174231 0)
(-0.603559 -0.104273 0)
(-0.829051 -0.252626 0)
(-1.01328 -0.142774 0)
(-1.04412 0.0243242 0)
(-0.940192 0.664923 0)
(-0.566613 1.66762 0)
(-0.378316 1.59284 0)
(-0.124889 0.897809 0)
(-0.341957 0.31123 0)
(-0.800386 0.251501 0)
(-1.2443 0.295216 0)
(-1.59308 0.11199 0)
(-0.15685 0.887868 0)
(-0.168312 0.643245 0)
(-0.308742 0.4515 0)
(-0.298147 0.403999 0)
(-0.323936 0.482115 0)
(-0.28215 0.705161 0)
(-0.212883 0.983493 0)
(-0.0189592 1.06933 0)
(0.177194 0.822591 0)
(0.113563 0.45787 0)
(-0.0407286 0.314283 0)
(-0.144605 0.235612 0)
(-0.325347 0.167972 0)
(-0.65675 0.0645998 0)
(-0.855391 0.101072 0)
(-0.872411 0.510731 0)
(-0.480567 1.32983 0)
(-0.152184 1.49383 0)
(-0.0324273 1.05049 0)
(-0.31382 0.547995 0)
(-0.595888 0.294784 0)
(-0.862886 0.281814 0)
(-1.01395 0.230341 0)
(-0.138616 1.11882 0)
(-0.0844666 0.753927 0)
(-0.216097 0.485607 0)
(-0.182357 0.408976 0)
(-0.191436 0.444911 0)
(-0.141962 0.621493 0)
(-0.00614748 0.837415 0)
(0.13523 0.933955 0)
(0.21706 0.789078 0)
(0.206199 0.55096 0)
(0.0800383 0.390429 0)
(0.0499314 0.291186 0)
(-0.0331151 0.305668 0)
(-0.134302 0.379905 0)
(-0.322517 0.416211 0)
(-0.529686 0.523236 0)
(-0.412285 0.855821 0)
(-0.0520727 1.20665 0)
(0.137357 1.11443 0)
(-0.00298856 0.864073 0)
(-0.197112 0.615382 0)
(-0.393035 0.453139 0)
(-0.501937 0.267205 0)
(-0.0536964 1.18424 0)
(0.0105853 0.800004 0)
(-0.0892684 0.515238 0)
(-0.0651653 0.403966 0)
(-0.0789674 0.416488 0)
(-0.0307107 0.52913 0)
(0.0728448 0.671693 0)
(0.241842 0.840312 0)
(0.300974 0.774175 0)
(0.295109 0.641749 0)
(0.212503 0.473201 0)
(0.191247 0.34634 0)
(0.138989 0.35951 0)
(0.107178 0.420911 0)
(0.0784381 0.513969 0)
(0.0254539 0.643021 0)
(-0.00896312 0.79124 0)
(0.18803 0.932916 0)
(0.408737 0.96923 0)
(0.517499 0.87786 0)
(0.600653 0.764989 0)
(0.620485 0.615311 0)
(0.529227 0.425719 0)
(0.0204042 1.14101 0)
(0.0989841 0.808682 0)
(0.0356314 0.542191 0)
(0.0397298 0.413165 0)
(0.0136574 0.407102 0)
(0.0501797 0.473965 0)
(0.101619 0.541343 0)
(0.242033 0.698755 0)
(0.334452 0.735006 0)
(0.345551 0.669409 0)
(0.325113 0.52611 0)
(0.301683 0.383999 0)
(0.256044 0.386564 0)
(0.244076 0.429678 0)
(0.252696 0.50699 0)
(0.295642 0.613416 0)
(0.367937 0.741455 0)
(0.526906 0.809135 0)
(0.678571 0.846796 0)
(0.871233 0.731837 0)
(0.968913 0.638072 0)
(1.14132 0.523378 0)
(1.12875 0.373844 0)
(0.0640946 1.01144 0)
(0.145677 0.795266 0)
(0.117251 0.55937 0)
(0.122276 0.431425 0)
(0.0901277 0.413241 0)
(0.106176 0.452165 0)
(0.121821 0.482213 0)
(0.192681 0.578478 0)
(0.298439 0.681574 0)
(0.352257 0.647331 0)
(0.371227 0.528556 0)
(0.35733 0.416161 0)
(0.322575 0.409856 0)
(0.316361 0.433794 0)
(0.33158 0.478852 0)
(0.390646 0.543431 0)
(0.484967 0.605305 0)
(0.647663 0.637449 0)
(0.798056 0.68721 0)
(1.00501 0.611321 0)
(1.0749 0.480528 0)
(1.2299 0.370408 0)
(1.32816 0.285638 0)
(0.0631157 0.900525 0)
(0.150525 0.76807 0)
(0.158339 0.56046 0)
(0.169564 0.44396 0)
(0.137808 0.420076 0)
(0.140422 0.443099 0)
(0.14157 0.458953 0)
(0.163334 0.511902 0)
(0.242099 0.584844 0)
(0.322069 0.590156 0)
(0.371273 0.520606 0)
(0.366793 0.441537 0)
(0.343981 0.426986 0)
(0.342814 0.432818 0)
(0.356949 0.447183 0)
(0.4043 0.468033 0)
(0.488406 0.484863 0)
(0.605878 0.480651 0)
(0.722746 0.457822 0)
(0.947661 0.484365 0)
(1.00248 0.373425 0)
(1.09678 0.211037 0)
(1.25378 0.173792 0)
(0.0612598 0.796156 0)
(0.139587 0.711023 0)
(0.176392 0.545594 0)
(0.181265 0.453851 0)
(0.157695 0.430441 0)
(0.156411 0.442884 0)
(0.157692 0.450985 0)
(0.166281 0.477335 0)
(0.213868 0.512657 0)
(0.27985 0.520582 0)
(0.338495 0.496808 0)
(0.347995 0.451438 0)
(0.339546 0.434101 0)
(0.344875 0.426225 0)
(0.362777 0.417646 0)
(0.400171 0.408176 0)
)
;

boundaryField
{
    leftWall
    {
        type            fixedValue;
        value           uniform (0 0 0);
    }
    rightWall
    {
        type            fixedValue;
        value           nonuniform 0();
    }
    lowerWall
    {
        type            fixedValue;
        value           uniform (0 0 0);
    }
    atmosphere
    {
        type            fluxCorrectedVelocity;
        value           nonuniform 0();
    }
    defaultFaces
    {
        type            empty;
    }
    procBoundary0to1
    {
        type            processor;
        value           nonuniform List<vector> 
26
(
(-0.0239135 -0.00894907 0)
(-0.00268744 -0.0187119 0)
(0.00235098 -0.00699946 0)
(0.00381141 -0.0285108 0)
(-0.00734714 0.00501744 0)
(-0.0198153 -0.100646 0)
(-0.136083 -0.390984 0)
(-0.0413297 -0.936008 0)
(-0.0442382 -0.955229 0)
(0.0255156 -0.202921 0)
(-0.68077 0.277344 0)
(-0.920719 0.481215 0)
(-1.24461 0.699863 0)
(-1.54037 -0.151509 0)
(-1.11956 -0.991275 0)
(-1.10752 -0.958311 0)
(-1.10752 -0.958311 0)
(-1.72132 -0.314346 0)
(-1.28087 0.038164 0)
(-1.5858 -0.103173 0)
(-1.00935 -0.010254 0)
(-0.50294 0.0828733 0)
(0.626526 0.238052 0)
(1.2001 0.181108 0)
(1.37591 0.155175 0)
(1.31191 0.142937 0)
)
;
    }
    procBoundary0to2
    {
        type            processor;
        value           nonuniform List<vector> 
24
(
(0.459778 0.398435 0)
(0.53659 0.368339 0)
(0.617249 0.316927 0)
(0.747131 0.336608 0)
(0.837916 0.259138 0)
(0.912705 0.0854541 0)
(1.00286 0.034784 0)
(0.0606392 0.69692 0)
(0.121552 0.644198 0)
(0.174326 0.528609 0)
(0.17401 0.460253 0)
(0.159542 0.440468 0)
(0.161112 0.44113 0)
(0.166401 0.444277 0)
(0.176482 0.455771 0)
(0.208235 0.467163 0)
(0.25168 0.469503 0)
(0.29422 0.460748 0)
(0.315445 0.442226 0)
(0.328569 0.42977 0)
(0.346032 0.410123 0)
(0.36954 0.389669 0)
(0.459778 0.398435 0)
(0.400985 0.365232 0)
)
;
    }
}


// ************************************************************************* //
