/*--------------------------------*- C++ -*----------------------------------*\
| =========                 |                                                 |
| \\      /  F ield         | OpenFOAM: The Open Source CFD Toolbox           |
|  \\    /   O peration     | Version:  2.4.0                                 |
|   \\  /    A nd           | Web:      www.OpenFOAM.org                      |
|    \\/     M anipulation  |                                                 |
\*---------------------------------------------------------------------------*/
FoamFile
{
    version     2.0;
    format      ascii;
    class       volVectorField;
    location    "0.9";
    object      U.oil;
}
// * * * * * * * * * * * * * * * * * * * * * * * * * * * * * * * * * * * * * //

dimensions      [0 1 -1 0 0 0 0];

internalField   nonuniform List<vector> 
575
(
(-0.0240937 -0.0874182 0)
(-0.0810465 -0.085557 0)
(-0.146107 -0.0652423 0)
(-0.219997 -0.0340378 0)
(-0.267544 -0.0113152 0)
(-0.294383 0.00601704 0)
(-0.296698 0.00971928 0)
(-0.284107 0.00893079 0)
(-0.2605 0.00650945 0)
(-0.23621 0.00342515 0)
(-0.218191 -0.00128463 0)
(-0.201317 -0.00713834 0)
(-0.177366 -0.00765164 0)
(-0.154833 -0.00774939 0)
(-0.137371 -0.00653726 0)
(-0.128089 -0.00390103 0)
(-0.120491 -0.00369923 0)
(-0.11036 -0.00458433 0)
(-0.0916642 -0.00497185 0)
(-0.0618064 -0.00633198 0)
(-0.0373107 0.00285302 0)
(-0.0305094 0.00902164 0)
(-0.0210969 0.142768 0)
(-0.0715802 0.148365 0)
(-0.125255 0.122468 0)
(-0.199337 0.0820873 0)
(-0.254134 0.0423613 0)
(-0.29047 0.00470896 0)
(-0.300825 -0.0153675 0)
(-0.289638 -0.0260386 0)
(-0.264235 -0.0287918 0)
(-0.238972 -0.0222987 0)
(-0.217138 -0.0143777 0)
(-0.19483 -0.0118435 0)
(-0.172774 -0.014167 0)
(-0.153025 -0.0115188 0)
(-0.137863 -0.0062421 0)
(-0.127979 -0.00405334 0)
(-0.117307 -0.00456943 0)
(-0.106045 -0.00878934 0)
(-0.0856302 -0.0165805 0)
(-0.0560624 -0.0194502 0)
(-0.032138 -0.0115392 0)
(-0.00848111 -0.000632052 0)
(-0.0194544 -0.0553457 0)
(-0.0944653 -0.0398751 0)
(-0.176406 0.0243833 0)
(-0.232645 0.0497889 0)
(-0.270715 0.0388064 0)
(-0.296947 0.0295659 0)
(-0.307581 0.00881843 0)
(-0.292707 -0.0112196 0)
(-0.265142 -0.0195052 0)
(-0.236475 -0.0206495 0)
(-0.209534 -0.0236101 0)
(-0.186361 -0.0271009 0)
(-0.169479 -0.0250823 0)
(-0.154945 -0.0204951 0)
(-0.140491 -0.0147244 0)
(-0.130374 -0.0118687 0)
(-0.114617 -0.0137169 0)
(-0.0995988 -0.0203673 0)
(-0.0812714 -0.0293647 0)
(-0.0580771 -0.0322327 0)
(-0.0369188 -0.020782 0)
(-0.00105656 -0.00323609 0)
(-0.0360148 0.137017 0)
(-0.126143 0.120175 0)
(-0.227049 0.111314 0)
(-0.30041 0.10213 0)
(-0.343354 0.0604025 0)
(-0.34392 0.0169003 0)
(-0.32487 -0.018545 0)
(-0.300893 -0.0451322 0)
(-0.270699 -0.0525258 0)
(-0.235425 -0.0451373 0)
(-0.205974 -0.0374308 0)
(-0.184653 -0.0345764 0)
(-0.170432 -0.035153 0)
(-0.157227 -0.0317116 0)
(-0.140859 -0.0224742 0)
(-0.123845 -0.018721 0)
(-0.104605 -0.0184263 0)
(-0.0908412 -0.0210911 0)
(-0.0794122 -0.0312819 0)
(-0.0701403 -0.0361443 0)
(-0.050496 -0.0382393 0)
(-0.00565491 -0.0246297 0)
(-0.0280514 -0.024782 0)
(-0.0936635 0.0521001 0)
(-0.310715 0.119777 0)
(-0.388408 0.106071 0)
(-0.403808 0.0658746 0)
(-0.39391 0.0212433 0)
(-0.368458 -0.0137649 0)
(-0.342388 -0.0403071 0)
(-0.312807 -0.0517527 0)
(-0.274137 -0.0463032 0)
(-0.235249 -0.0355351 0)
(-0.205172 -0.0243843 0)
(-0.185859 -0.014539 0)
(-0.172361 -0.00992612 0)
(-0.14941 -0.00796285 0)
(-0.12331 -0.0127741 0)
(-0.101339 -0.0204191 0)
(-0.0902626 -0.0296527 0)
(-0.0812503 -0.0392883 0)
(-0.0701134 -0.044962 0)
(-0.0503752 -0.0443054 0)
(-0.0245281 -0.00785272 0)
(-0.0589786 0.264804 0)
(-0.179404 0.247468 0)
(-0.399314 0.164464 0)
(-0.523051 0.108234 0)
(-0.513751 0.0586756 0)
(-0.475882 0.0041599 0)
(-0.429793 -0.0382206 0)
(-0.387243 -0.0598106 0)
(-0.346891 -0.0702376 0)
(-0.301581 -0.0780484 0)
(-0.251582 -0.0811016 0)
(-0.212987 -0.0694631 0)
(-0.196204 -0.0552766 0)
(-0.190796 -0.0465883 0)
(-0.183384 -0.0317104 0)
(-0.167195 -0.0178314 0)
(-0.139978 -0.00496237 0)
(-0.10738 0.00278714 0)
(-0.0843779 -0.00382536 0)
(-0.0591201 -0.0169051 0)
(-0.0207216 -0.0375673 0)
(0.00125584 -0.0305227 0)
(-0.0329486 0.172328 0)
(-0.110139 0.252832 0)
(-0.306355 0.211148 0)
(-0.539044 0.0984907 0)
(-0.570805 0.0247277 0)
(-0.55422 -0.0162366 0)
(-0.487612 -0.0592659 0)
(-0.41493 -0.110297 0)
(-0.370258 -0.146052 0)
(-0.332501 -0.160358 0)
(-0.26486 -0.151173 0)
(-0.182463 -0.115164 0)
(-0.138424 -0.0748086 0)
(-0.132675 -0.056179 0)
(-0.149633 -0.0388174 0)
(-0.169427 -0.0267084 0)
(-0.168513 -0.0125182 0)
(-0.12748 0.0010109 0)
(-0.0812272 -0.00209982 0)
(-0.0478849 -0.0196383 0)
(-0.039798 -0.0440825 0)
(-0.106068 0.110833 0)
(-0.0227174 0.26997 0)
(-0.0586357 0.323572 0)
(-0.118786 0.367277 0)
(-0.354988 0.181035 0)
(-0.472771 0.0096146 0)
(-0.473003 -0.102601 0)
(-0.438008 -0.180416 0)
(-0.409534 -0.189652 0)
(-0.385671 -0.175571 0)
(-0.33764 -0.181384 0)
(-0.258469 -0.177757 0)
(-0.197534 -0.1108 0)
(-0.104211 -0.0439315 0)
(-0.0297057 0.0122502 0)
(0.00795057 0.0785114 0)
(-0.0231795 0.129661 0)
(-0.0477503 0.139129 0)
(-0.0473302 0.127154 0)
(-0.0383697 0.1283 0)
(-0.044528 0.111894 0)
(-0.123517 0.132848 0)
(-0.265509 0.0781984 0)
(0.0169721 0.218637 0)
(0.0444775 0.275657 0)
(0.0997252 0.363694 0)
(0.105906 0.292337 0)
(0.0438948 0.164461 0)
(-0.0117942 0.0506225 0)
(-0.102654 -0.03545 0)
(-0.17601 -0.111165 0)
(-0.200896 -0.208647 0)
(-0.148879 -0.292507 0)
(-0.108128 -0.276102 0)
(-0.0635359 -0.150412 0)
(-0.0593676 -0.0929907 0)
(-0.0366232 -0.0662625 0)
(-0.0247189 -0.0799404 0)
(-0.0276177 -0.141693 0)
(-0.0311614 -0.19526 0)
(-0.0305884 -0.220999 0)
(-0.0189993 -0.220386 0)
(0.0343965 -0.177266 0)
(0.0766779 -0.0755839 0)
(0.119182 0.0216195 0)
(0.0307412 0.234802 0)
(0.088991 0.270949 0)
(0.146117 0.317588 0)
(0.216004 0.301634 0)
(0.247273 0.190025 0)
(0.233863 0.0796259 0)
(0.21368 -0.00824861 0)
(0.200467 -0.0822659 0)
(0.183472 -0.146193 0)
(0.163509 -0.164328 0)
(0.149818 -0.122494 0)
(0.189555 -0.0873944 0)
(0.233305 -0.027085 0)
(0.253215 0.0632246 0)
(0.250776 0.156399 0)
(0.205918 0.223638 0)
(0.138353 0.215787 0)
(0.0746068 0.17554 0)
(0.0351539 0.123272 0)
(0.0488319 0.0240826 0)
(0.0994648 0.0767144 0)
(0.0360003 0.224811 0)
(0.0757968 0.19935 0)
(0.147413 0.252342 0)
(0.203056 0.304974 0)
(0.236084 0.296836 0)
(0.264097 0.245551 0)
(0.257563 0.166152 0)
(0.241536 0.084512 0)
(0.21708 0.0136164 0)
(0.191216 -0.0416186 0)
(0.16875 -0.103012 0)
(0.165422 -0.162277 0)
(0.207263 -0.161138 0)
(0.217346 -0.104874 0)
(0.214022 -0.0468114 0)
(0.163602 -0.0195675 0)
(0.128187 -0.00810261 0)
(0.137984 -0.0369759 0)
(0.152049 -0.0799069 0)
(0.0877813 -0.146823 0)
(-0.0883113 -0.243783 0)
(-0.222688 -0.257599 0)
(-0.359611 -0.000470352 0)
(0.0742595 0.0732941 0)
(0.145344 0.210993 0)
(0.168176 0.281249 0)
(0.177752 0.284618 0)
(0.197979 0.256397 0)
(0.195356 0.187728 0)
(0.174688 0.106133 0)
(0.15306 0.0243182 0)
(0.127336 -0.055585 0)
(0.116667 -0.1501 0)
(0.122075 -0.253861 0)
(0.143178 -0.246181 0)
(0.0950912 -0.159806 0)
(0.0773954 -0.0036617 0)
(-0.0245395 0.127122 0)
(-0.107997 0.166645 0)
(-0.26476 0.151807 0)
(-0.443866 0.197422 0)
(-0.506937 0.206646 0)
(-0.833937 -0.22725 0)
(-1.00939 -0.563642 0)
(-0.604562 0.100149 0)
(0.0423277 -0.0801558 0)
(0.0649795 0.139744 0)
(0.0584572 0.269725 0)
(0.0313014 0.248297 0)
(0.0660616 0.223509 0)
(0.0472405 0.190432 0)
(0.0306094 0.126419 0)
(0.0160952 0.0459058 0)
(-0.00663027 -0.0262355 0)
(-0.134649 -0.120008 0)
(-0.398484 -0.135839 0)
(-0.676392 -0.0643009 0)
(-0.799198 -0.0262116 0)
(-0.894622 0.0767144 0)
(-0.918034 0.217988 0)
(-1.05095 0.280065 0)
(-1.09983 0.262863 0)
(-1.16454 0.028269 0)
(-1.31633 -0.433591 0)
(-1.61692 -0.793395 0)
(-0.855621 -0.316688 0)
(-0.948362 0.377187 0)
(-0.0511504 -0.07049 0)
(-0.0789142 0.168696 0)
(-0.0747583 0.287446 0)
(-0.096158 0.301611 0)
(-0.0635402 0.288516 0)
(-0.0589331 0.267676 0)
(-0.0899285 0.201357 0)
(-0.235569 0.0463411 0)
(-0.585031 0.128312 0)
(-0.818169 0.28983 0)
(-1.04372 0.119406 0)
(-1.06463 0.0306397 0)
(-1.14561 0.0481065 0)
(-1.21246 0.187205 0)
(-1.21003 0.237248 0)
(-1.26674 0.222852 0)
(-1.52287 -0.0214619 0)
(-2.13498 -0.573032 0)
(-2.04004 -0.759089 0)
(-1.6301 -1.00724 0)
(-1.32315 -0.76538 0)
(-1.23193 -0.667101 0)
(-0.0475878 -0.000977199 0)
(-0.0723052 0.155493 0)
(-0.0543884 0.208561 0)
(-0.110276 0.147852 0)
(-0.140208 0.0532121 0)
(-0.158697 0.0416313 0)
(-0.326507 0.190367 0)
(-0.922373 0.499684 0)
(-1.20031 0.538885 0)
(-1.24897 0.32796 0)
(-1.20661 0.123693 0)
(-1.20453 0.0727507 0)
(-1.21642 0.0870347 0)
(-1.19134 0.196381 0)
(-1.19797 0.224814 0)
(-1.33659 0.204154 0)
(-1.96648 -0.123404 0)
(-2.23516 -0.570633 0)
(-1.9652 -0.680738 0)
(-1.87175 -0.689956 0)
(-1.59396 -0.743572 0)
(-1.28732 -0.804406 0)
(-0.140954 0.00544264 0)
(-0.137681 0.0508893 0)
(-0.213478 0.0254296 0)
(-0.210009 -0.134041 0)
(-0.214421 -0.231774 0)
(-0.252846 -0.204057 0)
(-0.676148 0.146112 0)
(-1.30654 0.444994 0)
(-1.44606 0.359786 0)
(-1.39682 0.0783453 0)
(-1.34896 -0.0226519 0)
(-1.22569 0.0101057 0)
(-1.15008 0.110966 0)
(-1.10579 0.130671 0)
(-1.1116 0.149934 0)
(-1.37201 0.238352 0)
(-2.24844 0.0841345 0)
(-1.95964 -0.838786 0)
(-1.86934 -0.823127 0)
(-1.65509 -0.788162 0)
(-1.38743 -0.775597 0)
(-1.16039 -0.820787 0)
(-0.228079 -0.148805 0)
(-0.238504 -0.12087 0)
(-0.314357 -0.191175 0)
(-0.27553 -0.380611 0)
(-0.317546 -0.453255 0)
(-0.710093 -0.239685 0)
(-1.64604 0.1617 0)
(-1.77671 0.260823 0)
(-1.69397 0.156385 0)
(-1.48809 -0.191324 0)
(-1.30875 -0.2952 0)
(-1.15159 -0.190467 0)
(-1.05607 -0.0779245 0)
(-0.997229 -0.0247747 0)
(-0.986606 0.00555785 0)
(-1.47242 0.340478 0)
(-1.87272 -0.212071 0)
(-1.83223 -0.790715 0)
(-1.93363 -0.869244 0)
(-1.9511 -0.947425 0)
(-1.2571 -0.927192 0)
(-1.09978 -0.902736 0)
(-1.0967 -1.00071 0)
(-0.284821 -0.326116 0)
(-0.333299 -0.267564 0)
(-0.362811 -0.231755 0)
(-0.356744 -0.104226 0)
(-0.543698 0.195347 0)
(-1.41416 0.448638 0)
(-2.14243 0.320522 0)
(-2.08005 0.19191 0)
(-1.8724 0.0189604 0)
(-1.48559 -0.364515 0)
(-1.26609 -0.411226 0)
(-1.15377 -0.352932 0)
(-1.04495 -0.2845 0)
(-0.965662 -0.22646 0)
(-0.970058 -0.136677 0)
(-1.70098 0.405491 0)
(-1.62505 0.546729 0)
(-1.40534 0.00282166 0)
(-1.07 0.16016 0)
(-0.580306 0.00428981 0)
(-0.95734 -0.583743 0)
(-1.1603 -0.535929 0)
(-1.19329 -0.199408 0)
(-0.268519 -0.071541 0)
(-0.292618 0.290566 0)
(-0.389183 0.390356 0)
(-0.355968 0.364708 0)
(-0.434773 0.429431 0)
(-0.521565 0.706134 0)
(-0.642101 1.03975 0)
(-0.843291 0.91547 0)
(-0.633846 0.610017 0)
(-0.148436 0.329959 0)
(-0.504074 -0.135586 0)
(-0.721728 -0.30813 0)
(-0.891237 -0.339779 0)
(-1.00083 -0.283459 0)
(-1.02233 -0.155256 0)
(-1.14253 0.116081 0)
(-1.50899 0.743408 0)
(-0.486227 1.48611 0)
(-0.168523 0.942076 0)
(-0.336737 0.323541 0)
(-0.79232 0.254188 0)
(-1.24265 0.28722 0)
(-1.59026 0.0926935 0)
(-0.158994 0.869014 0)
(-0.168109 0.641057 0)
(-0.308731 0.450206 0)
(-0.298165 0.403308 0)
(-0.323995 0.481778 0)
(-0.282303 0.704963 0)
(-0.213031 0.982636 0)
(-0.0228553 1.06688 0)
(0.172456 0.822986 0)
(0.113397 0.458868 0)
(-0.0400024 0.311391 0)
(-0.159845 0.19194 0)
(-0.472382 0.0591354 0)
(-0.858955 0.000397946 0)
(-1.05953 0.0688009 0)
(-1.11547 0.152693 0)
(-1.25315 0.406735 0)
(-0.312056 1.47096 0)
(-0.0613697 1.06093 0)
(-0.316022 0.554881 0)
(-0.598312 0.289115 0)
(-0.871166 0.266829 0)
(-1.01797 0.201619 0)
(-0.139069 1.11592 0)
(-0.084576 0.752255 0)
(-0.216101 0.483562 0)
(-0.182405 0.408139 0)
(-0.191485 0.444654 0)
(-0.14203 0.621338 0)
(-0.00628076 0.837149 0)
(0.135005 0.933704 0)
(0.216441 0.789197 0)
(0.206031 0.551076 0)
(0.0802556 0.390303 0)
(0.0505409 0.289049 0)
(-0.0373967 0.296742 0)
(-0.257471 0.310162 0)
(-0.703686 0.327088 0)
(-0.921725 0.304617 0)
(-1.00747 0.264295 0)
(-0.846868 0.863055 0)
(0.118193 1.12277 0)
(-0.0163919 0.865719 0)
(-0.210391 0.606539 0)
(-0.408212 0.43841 0)
(-0.516761 0.241381 0)
(-0.053801 1.1813 0)
(0.010848 0.796752 0)
(-0.0890202 0.512143 0)
(-0.0651692 0.402807 0)
(-0.0790137 0.416206 0)
(-0.0307625 0.529022 0)
(0.0726239 0.67142 0)
(0.24156 0.840128 0)
(0.300701 0.774144 0)
(0.295026 0.641834 0)
(0.212481 0.473042 0)
(0.191358 0.34613 0)
(0.139304 0.358383 0)
(0.106603 0.41781 0)
(0.0140507 0.494472 0)
(-0.389669 0.477865 0)
(-0.72195 0.406931 0)
(-0.639229 0.475264 0)
(-0.0772322 0.682751 0)
(0.475335 0.87378 0)
(0.583991 0.767229 0)
(0.602796 0.6201 0)
(0.507446 0.435109 0)
(0.0202018 1.13672 0)
(0.0988607 0.804308 0)
(0.0357523 0.53981 0)
(0.039694 0.412046 0)
(0.0136084 0.406773 0)
(0.0501516 0.4739 0)
(0.101493 0.541163 0)
(0.24175 0.698507 0)
(0.33417 0.734873 0)
(0.345405 0.669366 0)
(0.325078 0.525996 0)
(0.301763 0.383702 0)
(0.256165 0.386154 0)
(0.244137 0.429067 0)
(0.251269 0.504117 0)
(0.256202 0.602639 0)
(-0.0800653 0.60673 0)
(-0.195506 0.515507 0)
(-0.0182861 0.612966 0)
(0.455358 0.592681 0)
(0.887343 0.671851 0)
(1.13026 0.545449 0)
(1.11672 0.399801 0)
(0.0635538 1.00719 0)
(0.14495 0.792106 0)
(0.117117 0.557958 0)
(0.122188 0.430558 0)
(0.0900762 0.412959 0)
(0.106163 0.452127 0)
(0.121766 0.482104 0)
(0.19245 0.578199 0)
(0.298195 0.681372 0)
(0.352083 0.6472 0)
(0.37112 0.528348 0)
(0.357256 0.415695 0)
(0.322598 0.409338 0)
(0.316348 0.433304 0)
(0.331424 0.478197 0)
(0.389888 0.542282 0)
(0.478957 0.602632 0)
(0.323537 0.557711 0)
(0.350195 0.595752 0)
(0.624609 0.576978 0)
(0.812861 0.543886 0)
(1.05594 0.477647 0)
(1.25918 0.37514 0)
(0.0627293 0.896574 0)
(0.14997 0.765918 0)
(0.158178 0.55951 0)
(0.169471 0.443388 0)
(0.137773 0.419902 0)
(0.140416 0.443082 0)
(0.141546 0.458893 0)
(0.163238 0.511713 0)
(0.241969 0.584663 0)
(0.32191 0.589986 0)
(0.371017 0.520132 0)
(0.366609 0.440929 0)
(0.343867 0.426445 0)
(0.342728 0.432366 0)
(0.356833 0.446735 0)
(0.404131 0.467576 0)
(0.488101 0.484312 0)
(0.597216 0.477947 0)
(0.668941 0.474522 0)
(0.871204 0.493972 0)
(0.90366 0.425047 0)
(1.00781 0.2824 0)
(1.21172 0.278575 0)
(0.061174 0.794609 0)
(0.139462 0.710246 0)
(0.17626 0.544927 0)
(0.181212 0.453562 0)
(0.157684 0.430371 0)
(0.15641 0.442879 0)
(0.157682 0.450956 0)
(0.166263 0.47726 0)
(0.213844 0.512566 0)
(0.279791 0.520458 0)
(0.338334 0.496414 0)
(0.34782 0.45096 0)
(0.339451 0.433743 0)
(0.344776 0.42588 0)
(0.362653 0.417162 0)
(0.39996 0.407582 0)
)
;

boundaryField
{
    leftWall
    {
        type            fixedValue;
        value           uniform (0 0 0);
    }
    rightWall
    {
        type            fixedValue;
        value           nonuniform 0();
    }
    lowerWall
    {
        type            fixedValue;
        value           uniform (0 0 0);
    }
    atmosphere
    {
        type            fluxCorrectedVelocity;
        value           nonuniform 0();
    }
    defaultFaces
    {
        type            empty;
    }
    procBoundary0to1
    {
        type            processor;
        value           nonuniform List<vector> 
26
(
(-0.0238614 0.000670289 0)
(-0.0025602 -0.00792978 0)
(0.00236166 0.005323 0)
(0.00403579 -0.0178545 0)
(-0.00729197 0.0311746 0)
(-0.01903 -0.0141364 0)
(-0.111502 0.252149 0)
(-0.166538 -0.22192 0)
(-0.10949 -0.013109 0)
(-0.0896601 0.2981 0)
(-0.935042 0.429995 0)
(-1.08061 0.663863 0)
(-1.21434 0.694484 0)
(-1.24613 -0.880967 0)
(-1.04917 -0.863906 0)
(-1.07841 -0.912853 0)
(-1.07841 -0.912853 0)
(-0.923676 -0.853383 0)
(-1.27745 0.0178833 0)
(-1.57384 -0.126119 0)
(-1.00658 -0.0486509 0)
(-0.510354 0.0509187 0)
(0.611421 0.253569 0)
(1.18995 0.211618 0)
(1.36533 0.204591 0)
(1.26268 0.252503 0)
)
;
    }
    procBoundary0to2
    {
        type            processor;
        value           nonuniform List<vector> 
24
(
(0.459484 0.39786 0)
(0.536216 0.367638 0)
(0.616276 0.315485 0)
(0.745931 0.335749 0)
(0.835362 0.261044 0)
(0.906846 0.0872962 0)
(1.00239 0.0511755 0)
(0.0605938 0.695859 0)
(0.121466 0.643624 0)
(0.174246 0.528216 0)
(0.173992 0.460144 0)
(0.159542 0.440453 0)
(0.161112 0.441129 0)
(0.166398 0.444265 0)
(0.17648 0.455756 0)
(0.208233 0.467139 0)
(0.251672 0.469455 0)
(0.294194 0.460581 0)
(0.315425 0.442006 0)
(0.328548 0.429622 0)
(0.345968 0.409907 0)
(0.369313 0.389129 0)
(0.459484 0.39786 0)
(0.400583 0.364304 0)
)
;
    }
}


// ************************************************************************* //
