/*--------------------------------*- C++ -*----------------------------------*\
| =========                 |                                                 |
| \\      /  F ield         | OpenFOAM: The Open Source CFD Toolbox           |
|  \\    /   O peration     | Version:  2.4.0                                 |
|   \\  /    A nd           | Web:      www.OpenFOAM.org                      |
|    \\/     M anipulation  |                                                 |
\*---------------------------------------------------------------------------*/
FoamFile
{
    version     2.0;
    format      ascii;
    class       volVectorField;
    location    "0.9";
    object      U.water;
}
// * * * * * * * * * * * * * * * * * * * * * * * * * * * * * * * * * * * * * //

dimensions      [0 1 -1 0 0 0 0];

internalField   nonuniform List<vector> 
575
(
(-0.024103 -0.0825579 0)
(-0.0810692 -0.0812373 0)
(-0.146131 -0.0633453 0)
(-0.220014 -0.0329409 0)
(-0.267554 -0.0105363 0)
(-0.294388 0.00629327 0)
(-0.2967 0.00983124 0)
(-0.284107 0.00902371 0)
(-0.260499 0.00659434 0)
(-0.236208 0.00349638 0)
(-0.218189 -0.00121891 0)
(-0.201315 -0.00706942 0)
(-0.177365 -0.00757953 0)
(-0.154832 -0.0076897 0)
(-0.137371 -0.00649943 0)
(-0.128089 -0.00388001 0)
(-0.120491 -0.00369167 0)
(-0.11036 -0.00458794 0)
(-0.0916653 -0.00504686 0)
(-0.0618264 -0.00721985 0)
(-0.0373955 -0.000929872 0)
(-0.0306282 0.00148578 0)
(-0.0219599 0.186953 0)
(-0.07392 0.18143 0)
(-0.126882 0.139984 0)
(-0.200313 0.0898082 0)
(-0.254622 0.0450723 0)
(-0.290631 0.00554707 0)
(-0.30085 -0.0149333 0)
(-0.289637 -0.0255151 0)
(-0.264228 -0.0282435 0)
(-0.238964 -0.0219258 0)
(-0.217131 -0.0140709 0)
(-0.194824 -0.0115502 0)
(-0.172769 -0.0139035 0)
(-0.153023 -0.0113588 0)
(-0.137862 -0.00615005 0)
(-0.127979 -0.00398791 0)
(-0.117307 -0.00452029 0)
(-0.106045 -0.00874232 0)
(-0.0856307 -0.016606 0)
(-0.0560746 -0.0200605 0)
(-0.0322221 -0.0144507 0)
(-0.00867926 -0.00793271 0)
(-0.0426543 0.112611 0)
(-0.148934 0.136204 0)
(-0.22757 0.200035 0)
(-0.244715 0.0933112 0)
(-0.272898 0.061734 0)
(-0.297205 0.0412945 0)
(-0.307614 0.0149426 0)
(-0.292682 -0.006646 0)
(-0.265083 -0.0162445 0)
(-0.236415 -0.0190784 0)
(-0.20949 -0.0227902 0)
(-0.186332 -0.0264978 0)
(-0.169463 -0.0246776 0)
(-0.154939 -0.0203428 0)
(-0.140489 -0.0147343 0)
(-0.130373 -0.0118839 0)
(-0.114616 -0.0136939 0)
(-0.0995986 -0.0202782 0)
(-0.0812719 -0.0295268 0)
(-0.0580837 -0.0332295 0)
(-0.036964 -0.0235502 0)
(-0.00110626 -0.00999024 0)
(-0.0525922 0.353492 0)
(-0.166862 0.350275 0)
(-0.292784 0.298106 0)
(-0.36718 0.262857 0)
(-0.379934 0.215234 0)
(-0.35055 0.0749923 0)
(-0.325659 0.00788596 0)
(-0.300456 -0.0301311 0)
(-0.270234 -0.0420304 0)
(-0.23519 -0.0317204 0)
(-0.205887 -0.0207979 0)
(-0.184624 -0.0177815 0)
(-0.170429 -0.0196869 0)
(-0.15723 -0.0173081 0)
(-0.140858 -0.00964413 0)
(-0.123842 -0.00853116 0)
(-0.104603 -0.0117492 0)
(-0.0908418 -0.016797 0)
(-0.079418 -0.0270716 0)
(-0.0701696 -0.0304192 0)
(-0.0506598 -0.0288114 0)
(-0.00599889 -0.0155996 0)
(-0.0283063 -0.020917 0)
(-0.0856689 0.0824167 0)
(-0.339702 0.272639 0)
(-0.450011 0.266598 0)
(-0.442261 0.215655 0)
(-0.40675 0.177109 0)
(-0.36904 0.0618865 0)
(-0.340941 -0.000267657 0)
(-0.311262 -0.014366 0)
(-0.271849 0.0204365 0)
(-0.23149 0.0765576 0)
(-0.201709 0.108271 0)
(-0.183775 0.115186 0)
(-0.171295 0.109139 0)
(-0.14916 0.0855208 0)
(-0.123517 0.0497923 0)
(-0.101612 0.0205266 0)
(-0.0903396 0.00171508 0)
(-0.0811901 -0.00721178 0)
(-0.0696089 -0.00271425 0)
(-0.048629 0.0318064 0)
(-0.0227361 0.105887 0)
(-0.0589697 0.264816 0)
(-0.153527 0.271044 0)
(-0.325519 0.292685 0)
(-0.56219 0.283129 0)
(-0.549379 0.211989 0)
(-0.485219 0.160988 0)
(-0.429589 0.122169 0)
(-0.379387 0.103214 0)
(-0.333431 0.0944634 0)
(-0.287291 0.0842376 0)
(-0.238365 0.0778089 0)
(-0.203756 0.0824892 0)
(-0.191663 0.0889839 0)
(-0.189888 0.0937996 0)
(-0.185616 0.102231 0)
(-0.170304 0.112368 0)
(-0.143263 0.12399 0)
(-0.109451 0.130298 0)
(-0.0834657 0.122915 0)
(-0.0551243 0.108924 0)
(-0.0140248 0.0916594 0)
(0.00864617 0.0910252 0)
(-0.032948 0.172333 0)
(-0.101089 0.2606 0)
(-0.21157 0.332124 0)
(-0.52768 0.277739 0)
(-0.590497 0.185489 0)
(-0.561771 0.144176 0)
(-0.477899 0.0989759 0)
(-0.402523 0.0485213 0)
(-0.361566 0.0149666 0)
(-0.327599 0.00703201 0)
(-0.258411 0.0215111 0)
(-0.173871 0.0490075 0)
(-0.131749 0.0715115 0)
(-0.128674 0.0777454 0)
(-0.145971 0.068162 0)
(-0.167357 0.0484257 0)
(-0.16777 0.0377812 0)
(-0.127125 0.0354704 0)
(-0.0805824 0.0308238 0)
(-0.046092 0.0145881 0)
(-0.0352667 0.00996658 0)
(-0.0969487 0.081168 0)
(-0.0227178 0.269973 0)
(-0.0579954 0.324249 0)
(-0.0560777 0.450874 0)
(-0.280879 0.370122 0)
(-0.463228 0.170029 0)
(-0.472634 0.0444408 0)
(-0.441307 -0.0279624 0)
(-0.419938 -0.0326659 0)
(-0.404237 -0.0141977 0)
(-0.367633 -0.0200209 0)
(-0.281866 -0.0573298 0)
(-0.20109 -0.0677729 0)
(-0.109637 -0.0482016 0)
(-0.0459833 -0.0111431 0)
(-0.0192447 0.0310615 0)
(-0.0515542 0.0694427 0)
(-0.0711574 0.0632662 0)
(-0.0663052 0.0468285 0)
(-0.0479785 0.0487044 0)
(-0.0404675 0.0390788 0)
(-0.0862625 0.069994 0)
(-0.217737 0.0196208 0)
(0.0169707 0.217493 0)
(0.0444767 0.27431 0)
(0.117778 0.387135 0)
(0.204727 0.407864 0)
(0.150715 0.290321 0)
(0.023044 0.141678 0)
(-0.121103 0.0348199 0)
(-0.216827 -0.054185 0)
(-0.241812 -0.167069 0)
(-0.175934 -0.261874 0)
(-0.133728 -0.267072 0)
(-0.0978847 -0.221646 0)
(-0.0585297 -0.175976 0)
(-0.0385258 -0.150362 0)
(-0.0332026 -0.162054 0)
(-0.0373977 -0.218762 0)
(-0.0377244 -0.258212 0)
(-0.0383637 -0.275778 0)
(-0.0320504 -0.276077 0)
(0.0158462 -0.249831 0)
(0.064298 -0.180471 0)
(0.137926 -0.0840635 0)
(0.0302048 0.228721 0)
(0.0876724 0.26417 0)
(0.142838 0.309646 0)
(0.220127 0.307289 0)
(0.262115 0.207041 0)
(0.245146 0.095329 0)
(0.220074 0.00331357 0)
(0.205482 -0.0702895 0)
(0.18708 -0.134719 0)
(0.166863 -0.171355 0)
(0.15021 -0.171611 0)
(0.173201 -0.151321 0)
(0.214727 -0.0983638 0)
(0.237793 -0.0128187 0)
(0.238446 0.077071 0)
(0.195553 0.152998 0)
(0.127171 0.143288 0)
(0.0606351 0.0901186 0)
(0.018609 0.0286323 0)
(0.0389477 -0.0537567 0)
(0.112328 -0.039292 0)
(0.0885344 0.0842731 0)
(0.0686595 0.115542 0)
(0.134352 0.172203 0)
(0.185869 0.229671 0)
(0.217579 0.23451 0)
(0.252164 0.199644 0)
(0.253465 0.136555 0)
(0.244797 0.0633853 0)
(0.224887 -0.00371197 0)
(0.202126 -0.0629513 0)
(0.180984 -0.133788 0)
(0.170296 -0.198779 0)
(0.198153 -0.229517 0)
(0.205747 -0.191313 0)
(0.201161 -0.140493 0)
(0.159946 -0.105782 0)
(0.125644 -0.0802325 0)
(0.118183 -0.101339 0)
(0.119252 -0.1408 0)
(0.0552761 -0.20653 0)
(-0.116184 -0.348043 0)
(-0.298515 -0.40585 0)
(-0.295579 -0.145456 0)
(0.0733046 -0.0222192 0)
(0.138165 0.115508 0)
(0.160401 0.200657 0)
(0.166946 0.211526 0)
(0.191055 0.190979 0)
(0.194127 0.131771 0)
(0.180672 0.0558293 0)
(0.157322 -0.0261893 0)
(0.139878 -0.110912 0)
(0.135088 -0.195972 0)
(0.154376 -0.304533 0)
(0.166895 -0.331182 0)
(0.081812 -0.274285 0)
(0.0468033 -0.129084 0)
(-0.0614881 0.0197536 0)
(-0.145459 0.0841475 0)
(-0.297077 0.072665 0)
(-0.495878 0.0994646 0)
(-0.562068 0.130749 0)
(-1.20382 -0.316064 0)
(-0.805265 -0.474569 0)
(-0.384671 0.196526 0)
(0.0368757 -0.196393 0)
(0.060689 0.030661 0)
(0.0634294 0.188129 0)
(0.03069 0.178386 0)
(0.0651624 0.161061 0)
(0.0539991 0.133192 0)
(0.03909 0.0761941 0)
(0.0241913 0.00847863 0)
(0.0207326 -0.0558928 0)
(-0.0977723 -0.142732 0)
(-0.501975 -0.179247 0)
(-0.844051 -0.104279 0)
(-0.926358 -0.0407923 0)
(-0.955302 0.052217 0)
(-0.968499 0.16243 0)
(-0.989932 0.204191 0)
(-1.0449 0.183103 0)
(-1.10931 -0.0417659 0)
(-1.73073 -1.09584 0)
(-1.82122 -0.929878 0)
(-1.00731 0.232039 0)
(-0.587391 0.349542 0)
(-0.06679 -0.1686 0)
(-0.100233 0.080542 0)
(-0.077659 0.196296 0)
(-0.0923469 0.212759 0)
(-0.0518964 0.199831 0)
(-0.036151 0.176731 0)
(-0.0473551 0.111367 0)
(-0.168934 -0.0304429 0)
(-0.544502 0.0304221 0)
(-0.803316 0.218074 0)
(-1.12418 0.0265251 0)
(-1.1393 -0.0428993 0)
(-1.1787 0.00605602 0)
(-1.19648 0.132355 0)
(-1.18809 0.172554 0)
(-1.19749 0.173572 0)
(-1.35789 0.0157473 0)
(-2.11157 -0.863007 0)
(-1.90519 -1.07058 0)
(-1.75885 -1.07724 0)
(-1.59877 -0.987832 0)
(-1.28186 -0.790777 0)
(-0.0635891 -0.111469 0)
(-0.103038 0.0464389 0)
(-0.096283 0.098521 0)
(-0.134865 0.0561944 0)
(-0.1406 -0.042375 0)
(-0.134295 -0.0765704 0)
(-0.183444 -0.0149203 0)
(-0.707208 0.235636 0)
(-1.1398 0.336355 0)
(-1.22196 0.178677 0)
(-1.24418 0.00531482 0)
(-1.22666 -0.0250069 0)
(-1.21073 0.0214092 0)
(-1.20307 0.116541 0)
(-1.19427 0.137925 0)
(-1.23865 0.119488 0)
(-1.61444 -0.106945 0)
(-2.12676 -0.0833271 0)
(-1.79094 -1.11622 0)
(-1.74686 -1.17168 0)
(-1.47306 -1.05437 0)
(-1.35481 -1.04891 0)
(-0.191709 -0.179491 0)
(-0.18726 -0.141793 0)
(-0.232487 -0.189583 0)
(-0.217859 -0.272739 0)
(-0.203292 -0.397758 0)
(-0.186769 -0.398944 0)
(-0.213663 -0.274179 0)
(-0.882734 0.0454935 0)
(-1.35564 0.131627 0)
(-1.38204 -0.0692952 0)
(-1.33142 -0.135422 0)
(-1.18796 -0.0703736 0)
(-1.15639 0.0149282 0)
(-1.1407 0.035581 0)
(-1.16666 0.0388921 0)
(-1.39657 0.0257111 0)
(-2.3257 0.394184 0)
(-2.02663 1.27387 0)
(-1.51559 -0.623087 0)
(-1.26572 -0.897329 0)
(-1.20257 -0.916182 0)
(-1.17865 -0.943837 0)
(-0.268755 -0.295435 0)
(-0.293667 -0.368516 0)
(-0.301952 -0.368952 0)
(-0.306399 -0.397526 0)
(-0.300153 -0.38101 0)
(-0.289379 -0.282729 0)
(-0.42167 -0.17932 0)
(-1.19994 0.00819552 0)
(-1.57584 0.0169857 0)
(-1.41618 -0.307414 0)
(-1.24106 -0.367402 0)
(-1.11353 -0.264246 0)
(-1.03653 -0.160763 0)
(-1.01783 -0.129579 0)
(-1.01831 -0.147239 0)
(-1.33091 0.13915 0)
(-1.20665 1.79437 0)
(-1.41833 1.4217 0)
(-1.25267 0.316506 0)
(-1.06466 -0.26989 0)
(-1.14334 -0.459968 0)
(-1.27637 -0.436023 0)
(-1.62542 -0.231366 0)
(-0.311113 0.11027 0)
(-0.391796 0.0831594 0)
(-0.40464 -0.0449695 0)
(-0.414162 0.105506 0)
(-0.552206 0.296524 0)
(-0.597136 0.650544 0)
(-0.59777 1.20566 0)
(-0.995006 0.953844 0)
(-1.21961 0.491067 0)
(-0.934326 -0.0805928 0)
(-1.10562 -0.367376 0)
(-1.1227 -0.368616 0)
(-1.04749 -0.320686 0)
(-0.968976 -0.260381 0)
(-0.951563 -0.170066 0)
(-1.09786 0.89852 0)
(-0.845709 1.9037 0)
(-0.789203 1.7717 0)
(-0.418376 0.888614 0)
(-0.553508 -0.320287 0)
(-1.02148 -0.6171 0)
(-1.18034 -0.531012 0)
(-1.21787 -0.192396 0)
(-0.189673 0.709286 0)
(-0.278532 0.459634 0)
(-0.390848 0.413117 0)
(-0.356068 0.366011 0)
(-0.434801 0.430951 0)
(-0.516502 0.707621 0)
(-0.401157 1.13609 0)
(-0.0960226 1.29879 0)
(0.0375208 0.896367 0)
(-0.0421835 0.386061 0)
(-0.305222 0.172768 0)
(-0.605554 -0.104871 0)
(-0.828852 -0.246828 0)
(-1.01272 -0.148858 0)
(-1.03653 0.0450591 0)
(-0.92823 0.707186 0)
(-0.649862 1.68759 0)
(-0.38478 1.59212 0)
(-0.127296 0.898582 0)
(-0.341303 0.311968 0)
(-0.79984 0.251647 0)
(-1.24435 0.294636 0)
(-1.59266 0.110846 0)
(-0.156914 0.887525 0)
(-0.16837 0.642953 0)
(-0.308622 0.451072 0)
(-0.298158 0.403691 0)
(-0.32396 0.48197 0)
(-0.282195 0.705067 0)
(-0.212999 0.983411 0)
(-0.0191417 1.06938 0)
(0.177091 0.822693 0)
(0.11357 0.457942 0)
(-0.0406876 0.314266 0)
(-0.14452 0.234875 0)
(-0.325176 0.166349 0)
(-0.656752 0.0629918 0)
(-0.853584 0.112086 0)
(-0.868353 0.507944 0)
(-0.604196 1.24986 0)
(-0.199287 1.52137 0)
(-0.0378449 1.05314 0)
(-0.314179 0.547933 0)
(-0.596193 0.294039 0)
(-0.863755 0.280432 0)
(-1.01451 0.229225 0)
(-0.138653 1.11849 0)
(-0.0844821 0.753616 0)
(-0.21607 0.485244 0)
(-0.182402 0.408428 0)
(-0.191473 0.444721 0)
(-0.142 0.621416 0)
(-0.00623202 0.837339 0)
(0.135108 0.93393 0)
(0.216971 0.78912 0)
(0.206179 0.551003 0)
(0.080059 0.390435 0)
(0.0499912 0.291171 0)
(-0.0330644 0.305626 0)
(-0.134408 0.379759 0)
(-0.322938 0.415734 0)
(-0.526817 0.530421 0)
(-0.482862 0.851042 0)
(-0.154105 1.19164 0)
(0.101867 1.13217 0)
(-0.019152 0.868232 0)
(-0.20359 0.612709 0)
(-0.395034 0.450557 0)
(-0.503421 0.264727 0)
(-0.05372 1.18397 0)
(0.010582 0.799691 0)
(-0.0892483 0.514821 0)
(-0.0651625 0.402991 0)
(-0.0790217 0.416171 0)
(-0.0307365 0.529074 0)
(0.0727816 0.671625 0)
(0.241746 0.840266 0)
(0.300892 0.774177 0)
(0.295069 0.641757 0)
(0.212504 0.473193 0)
(0.191294 0.346309 0)
(0.139051 0.359449 0)
(0.107206 0.42085 0)
(0.0783795 0.513915 0)
(0.0235675 0.64175 0)
(-0.0662474 0.798189 0)
(0.142662 0.935553 0)
(0.351251 0.982638 0)
(0.496877 0.882072 0)
(0.59414 0.77621 0)
(0.616013 0.621766 0)
(0.527371 0.430157 0)
(0.0203684 1.1408 0)
(0.0989509 0.808437 0)
(0.0356083 0.541719 0)
(0.039673 0.412117 0)
(0.0135838 0.406628 0)
(0.0501594 0.473911 0)
(0.101587 0.541298 0)
(0.241958 0.698693 0)
(0.334378 0.734971 0)
(0.345508 0.669394 0)
(0.325101 0.526084 0)
(0.301697 0.383938 0)
(0.256073 0.386474 0)
(0.244091 0.429593 0)
(0.252698 0.506943 0)
(0.295632 0.613361 0)
(0.365446 0.741266 0)
(0.519753 0.807122 0)
(0.651798 0.852929 0)
(0.848601 0.741383 0)
(0.944 0.651903 0)
(1.13387 0.539209 0)
(1.12656 0.388588 0)
(0.064065 1.01123 0)
(0.145634 0.795056 0)
(0.117165 0.558545 0)
(0.122157 0.430374 0)
(0.0900431 0.412764 0)
(0.106161 0.452119 0)
(0.121807 0.482185 0)
(0.192627 0.578412 0)
(0.298378 0.681516 0)
(0.352215 0.647288 0)
(0.371202 0.52851 0)
(0.357319 0.416086 0)
(0.322573 0.409761 0)
(0.316355 0.433709 0)
(0.331571 0.478806 0)
(0.39064 0.543419 0)
(0.484965 0.605266 0)
(0.647242 0.636748 0)
(0.791055 0.685568 0)
(1.00089 0.612838 0)
(1.06824 0.486654 0)
(1.22704 0.376144 0)
(1.32557 0.291215 0)
(0.0630952 0.900177 0)
(0.150488 0.767729 0)
(0.158131 0.559296 0)
(0.16941 0.443013 0)
(0.137735 0.419716 0)
(0.140412 0.443069 0)
(0.141564 0.458938 0)
(0.163307 0.511852 0)
(0.242058 0.584784 0)
(0.322029 0.590095 0)
(0.371239 0.520538 0)
(0.366768 0.441456 0)
(0.343965 0.426904 0)
(0.342802 0.432755 0)
(0.35694 0.447152 0)
(0.404297 0.468027 0)
(0.488404 0.484861 0)
(0.605875 0.480608 0)
(0.722761 0.457571 0)
(0.947673 0.484058 0)
(1.0025 0.37307 0)
(1.09669 0.210828 0)
(1.25372 0.173834 0)
(0.0611611 0.794583 0)
(0.139384 0.70985 0)
(0.176163 0.544437 0)
(0.181133 0.453191 0)
(0.157661 0.43026 0)
(0.156409 0.442872 0)
(0.15769 0.450978 0)
(0.166274 0.477312 0)
(0.213851 0.512613 0)
(0.279824 0.520528 0)
(0.338466 0.49674 0)
(0.347973 0.451371 0)
(0.339532 0.434046 0)
(0.344865 0.426189 0)
(0.362773 0.417632 0)
(0.40017 0.408174 0)
)
;

boundaryField
{
    leftWall
    {
        type            fixedValue;
        value           uniform (0 0 0);
    }
    rightWall
    {
        type            fixedValue;
        value           nonuniform 0();
    }
    lowerWall
    {
        type            fixedValue;
        value           uniform (0 0 0);
    }
    atmosphere
    {
        type            fluxCorrectedVelocity;
        value           nonuniform 0();
    }
    defaultFaces
    {
        type            empty;
    }
    procBoundary0to1
    {
        type            processor;
        value           nonuniform List<vector> 
26
(
(-0.0239135 -0.0089471 0)
(-0.00268746 -0.0187054 0)
(0.0023509 -0.00646807 0)
(0.00381687 -0.0107042 0)
(-0.00616045 0.177421 0)
(-0.0167133 0.0923459 0)
(-0.100134 0.19099 0)
(-0.12559 -0.250035 0)
(-0.0186336 -0.0611362 0)
(0.017385 0.17785 0)
(-0.469708 0.298036 0)
(-0.516404 0.38023 0)
(-0.538772 0.340508 0)
(-0.98448 -0.752214 0)
(-1.09503 -1.04881 0)
(-1.16693 -1.06955 0)
(-1.16693 -1.06955 0)
(-1.77017 -0.292382 0)
(-1.28046 0.0373196 0)
(-1.58587 -0.104034 0)
(-1.00931 -0.0111359 0)
(-0.504753 0.0802644 0)
(0.623881 0.241371 0)
(1.19579 0.198399 0)
(1.37265 0.161708 0)
(1.31205 0.142964 0)
)
;
    }
    procBoundary0to2
    {
        type            processor;
        value           nonuniform List<vector> 
24
(
(0.459777 0.398434 0)
(0.536589 0.368338 0)
(0.617244 0.316918 0)
(0.747122 0.3366 0)
(0.837898 0.259108 0)
(0.912668 0.0854183 0)
(1.0028 0.0347538 0)
(0.0605662 0.695165 0)
(0.121339 0.642727 0)
(0.174114 0.527665 0)
(0.17395 0.459928 0)
(0.159538 0.440416 0)
(0.161112 0.441128 0)
(0.1664 0.444274 0)
(0.176481 0.455765 0)
(0.208232 0.467144 0)
(0.251673 0.469474 0)
(0.294209 0.460706 0)
(0.315438 0.442188 0)
(0.328564 0.429743 0)
(0.346029 0.410106 0)
(0.36954 0.389664 0)
(0.459777 0.398434 0)
(0.400985 0.365231 0)
)
;
    }
}


// ************************************************************************* //
