/*--------------------------------*- C++ -*----------------------------------*\
| =========                 |                                                 |
| \\      /  F ield         | OpenFOAM: The Open Source CFD Toolbox           |
|  \\    /   O peration     | Version:  2.4.0                                 |
|   \\  /    A nd           | Web:      www.OpenFOAM.org                      |
|    \\/     M anipulation  |                                                 |
\*---------------------------------------------------------------------------*/
FoamFile
{
    version     2.0;
    format      ascii;
    class       volScalarField;
    location    "0.7";
    object      alpha.water;
}
// * * * * * * * * * * * * * * * * * * * * * * * * * * * * * * * * * * * * * //

dimensions      [0 0 0 0 0 0 0];

internalField   nonuniform List<scalar> 
559
(
1.32862e-17
3.03324e-17
7.62382e-17
1.85255e-16
5.36572e-16
2.12383e-15
9.80083e-15
4.70265e-13
2.95524e-13
1.44768e-13
7.55455e-14
4.67884e-14
4.23053e-14
5.52775e-14
7.57108e-14
8.3036e-14
8.46588e-14
6.49387e-14
3.69048e-14
1.43681e-14
3.77287e-15
5.23794e-16
2.89977e-17
1.99137e-18
4.72527e-18
1.25436e-17
3.0038e-17
7.41683e-17
2.70837e-16
1.30951e-15
8.22245e-14
4.52151e-14
2.15535e-14
1.13171e-14
6.9904e-15
6.54541e-15
9.11047e-15
1.27109e-14
1.39111e-14
1.31325e-14
9.9272e-15
5.63657e-15
2.21325e-15
5.66923e-16
7.45225e-17
3.76381e-18
2.60883e-19
6.61747e-19
1.86159e-18
4.56312e-18
9.84347e-18
3.00524e-17
1.42979e-16
1.14926e-14
5.38738e-15
2.52293e-15
1.32541e-15
8.15803e-16
7.96918e-16
1.17431e-15
1.66338e-15
1.80804e-15
1.61494e-15
1.18647e-15
6.70291e-16
2.63525e-16
6.57829e-17
8.21252e-18
3.74306e-19
3.18812e-20
8.9031e-20
2.61632e-19
6.5804e-19
1.3131e-18
3.18284e-18
1.34911e-17
1.3099e-15
5.14005e-16
2.37284e-16
1.24327e-16
7.63579e-17
7.80054e-17
1.20649e-16
1.72758e-16
1.86209e-16
1.5968e-16
1.13724e-16
6.3609e-17
2.49996e-17
6.11528e-18
7.32701e-19
3.11187e-20
3.92749e-21
1.18983e-20
3.5699e-20
9.17376e-20
1.79538e-19
3.60584e-19
1.22951e-18
1.24176e-16
4.02041e-17
1.83273e-17
9.58478e-18
5.88606e-18
6.29195e-18
1.01201e-17
1.45698e-17
1.55339e-17
1.29012e-17
8.93135e-18
4.92153e-18
1.92327e-18
4.63753e-19
5.4042e-20
2.22615e-21
4.79106e-22
1.54758e-21
4.71924e-21
1.23543e-20
2.46922e-20
4.60528e-20
1.26602e-19
9.96427e-18
2.64238e-18
1.19191e-18
6.21855e-19
3.82691e-19
4.27416e-19
7.09044e-19
1.02264e-18
1.07732e-18
8.69786e-19
5.86811e-19
3.18204e-19
1.23036e-19
2.92571e-20
3.3347e-21
1.38173e-22
5.62899e-23
1.90593e-22
5.9107e-22
1.57837e-21
3.29619e-21
6.27452e-21
1.53483e-20
6.88352e-19
1.48777e-19
6.64473e-20
3.45654e-20
2.13742e-20
2.48953e-20
4.23363e-20
6.10273e-20
6.35032e-20
4.99574e-20
3.28439e-20
1.75349e-20
6.70932e-21
1.57463e-21
1.76714e-22
7.87781e-24
6.11493e-24
2.16627e-23
6.87245e-23
1.88147e-22
4.18315e-22
8.47792e-22
1.98476e-21
4.14373e-20
7.2761e-21
3.2214e-21
1.67106e-21
1.04028e-21
1.26044e-21
2.18638e-21
3.14682e-21
3.23691e-21
2.48256e-21
1.58657e-21
8.33037e-22
3.1528e-22
7.31418e-23
8.09014e-24
4.28349e-25
6.10348e-25
2.24734e-24
7.31289e-24
2.07636e-23
4.96961e-23
1.07858e-22
2.50142e-22
2.20265e-21
3.13493e-22
1.37507e-22
7.11449e-23
4.46582e-23
5.61577e-23
9.89715e-23
1.42093e-22
1.4447e-22
1.0818e-22
6.72724e-23
3.46793e-23
1.29298e-23
2.96592e-24
3.24947e-25
2.38406e-26
5.52084e-26
2.11058e-25
7.14086e-25
2.12643e-24
5.46937e-24
1.27017e-23
3.04593e-23
1.04336e-22
1.20197e-23
5.222e-24
2.69437e-24
1.70698e-24
2.22287e-24
3.96857e-24
5.67855e-24
5.70413e-24
4.17492e-24
2.52978e-24
1.27946e-24
4.69217e-25
1.05951e-25
1.15153e-26
1.39178e-27
4.55784e-27
1.8218e-26
6.43704e-26
2.00997e-25
5.53632e-25
1.40045e-24
3.81318e-24
4.44179e-24
4.13911e-25
1.78023e-25
9.16345e-26
5.8638e-26
7.88669e-26
1.42306e-25
2.02867e-25
2.01371e-25
1.44023e-25
8.48377e-26
4.20401e-26
1.51692e-26
3.37279e-27
3.68367e-28
8.49919e-29
3.43988e-28
1.43688e-27
5.32698e-27
1.76316e-26
5.25485e-26
1.52424e-25
5.78352e-25
1.71121e-25
1.28889e-26
5.48419e-27
2.81663e-27
1.82187e-27
2.52566e-27
4.59707e-27
6.52638e-27
6.40499e-27
4.4845e-27
2.5706e-27
1.24618e-27
4.40999e-28
9.62906e-29
1.08112e-29
5.18021e-30
2.38851e-29
1.04866e-28
4.10509e-28
1.44638e-27
4.82373e-27
1.90058e-26
1.27848e-25
6.00543e-27
3.65693e-28
1.53731e-28
7.87909e-29
5.15459e-29
7.35157e-29
1.34768e-28
1.90472e-28
1.84825e-28
1.26673e-28
7.05743e-29
3.3433e-29
1.1595e-29
2.48521e-30
3.03138e-31
3.06291e-31
1.53606e-30
7.09275e-30
2.94111e-29
1.13776e-28
4.85593e-28
3.38557e-27
3.92643e-26
1.92872e-28
9.49217e-30
3.93859e-30
2.0154e-30
1.33447e-30
1.95553e-30
3.60739e-30
5.07632e-30
4.87272e-30
3.27225e-30
1.7733e-30
8.20227e-31
2.78258e-31
5.85516e-32
8.61322e-33
1.7124e-32
9.16435e-32
4.47735e-31
2.007e-30
9.3748e-30
6.68466e-29
8.71045e-28
1.39008e-26
5.69699e-30
2.26815e-31
9.27104e-32
4.73859e-32
3.17731e-32
4.77732e-32
8.86116e-32
1.24171e-31
1.17965e-31
7.76759e-32
4.09544e-32
1.84816e-32
6.12687e-33
1.27064e-33
2.65702e-34
9.01955e-34
5.11542e-33
2.6686e-32
1.37376e-31
9.77773e-31
1.36111e-29
2.62019e-28
5.00451e-27
1.55244e-31
5.00596e-33
2.01246e-33
1.02803e-33
6.98491e-34
1.07646e-33
2.00693e-33
2.80202e-33
2.63698e-33
1.70424e-33
8.75106e-34
3.85286e-34
1.24726e-34
2.57484e-35
9.18921e-36
4.4657e-35
2.68829e-34
1.5485e-33
1.0819e-32
1.4817e-31
3.3296e-30
7.88718e-29
1.7217e-27
3.91629e-33
1.0257e-34
4.04531e-35
2.0664e-35
1.42335e-35
2.24559e-35
4.20507e-35
5.85055e-35
5.46051e-35
3.46973e-35
1.73796e-35
7.47185e-36
2.36371e-36
4.97836e-37
3.46339e-37
2.0871e-36
1.35101e-35
9.43675e-35
1.15035e-33
2.80499e-32
8.12205e-31
2.21519e-29
5.45101e-28
9.16792e-35
1.95977e-36
7.56638e-37
3.86534e-37
2.69953e-37
4.35429e-37
8.18196e-37
1.13452e-36
1.05064e-36
6.57285e-37
3.21556e-37
1.3515e-37
4.18706e-38
9.49421e-39
1.34823e-38
9.28609e-38
6.71367e-37
6.82901e-36
1.5737e-34
5.37711e-33
1.81782e-31
5.5922e-30
1.54126e-28
1.99771e-36
3.50592e-38
1.32505e-38
6.7663e-39
4.79077e-39
7.88995e-39
1.48598e-38
2.0523e-38
1.88468e-38
1.16096e-38
5.55096e-39
2.28324e-39
6.95178e-40
1.87621e-40
5.19059e-40
3.96834e-39
3.49818e-38
6.18685e-37
2.26437e-35
9.37969e-34
3.6066e-32
1.24611e-30
3.83777e-29
4.07139e-38
5.90075e-40
2.19309e-40
1.11764e-40
8.02128e-41
1.34594e-40
2.53585e-40
3.4816e-40
3.16523e-40
1.91749e-40
8.95445e-41
3.60485e-41
1.08442e-41
4.05806e-42
1.93025e-41
1.66082e-40
2.07586e-39
6.44463e-38
3.06834e-36
1.44609e-34
6.23411e-33
2.42019e-31
8.36539e-30
7.81729e-40
9.45111e-42
3.47246e-42
1.76241e-42
1.2801e-42
2.18244e-42
4.10142e-42
5.58115e-42
5.00882e-42
2.97529e-42
1.35311e-42
5.3194e-43
1.6016e-43
1.00364e-43
7.17075e-43
7.9819e-42
1.75808e-40
7.83892e-39
4.1132e-37
2.07377e-35
9.73394e-34
4.18791e-32
1.62772e-30
1.42763e-41
1.46557e-43
5.32021e-44
2.6847e-44
1.96936e-44
3.39853e-44
6.35017e-44
8.5397e-44
7.53981e-44
4.37784e-44
1.93292e-44
7.39117e-45
2.29466e-45
3.11402e-45
4.15984e-44
1.07784e-42
4.19477e-41
1.83969e-39
8.2337e-38
3.68676e-36
1.63964e-34
7.2151e-33
3.00979e-31
2.49985e-43
2.21811e-45
7.94907e-46
3.98232e-46
2.94399e-46
5.12293e-46
9.48322e-46
1.2558e-45
1.08733e-45
6.15385e-46
2.62958e-46
9.77033e-47
3.6863e-47
2.59255e-46
8.98203e-45
3.68279e-43
1.53607e-41
6.31121e-40
2.54629e-38
1.01708e-36
4.0629e-35
1.64116e-33
6.68647e-32
4.21959e-45
3.28206e-47
1.16021e-47
5.76625e-48
4.29133e-48
7.51078e-48
1.37412e-47
1.78777e-47
1.51472e-47
8.33259e-48
3.43593e-48
1.26315e-48
1.75875e-48
6.17492e-47
2.72715e-45
1.17981e-43
4.95791e-42
2.02569e-40
8.11616e-39
3.21258e-37
1.26604e-35
5.02264e-34
2.03125e-32
)
;

boundaryField
{
    leftWall
    {
        type            zeroGradient;
    }
    rightWall
    {
        type            zeroGradient;
    }
    lowerWall
    {
        type            zeroGradient;
    }
    atmosphere
    {
        type            inletOutlet;
        inletValue      uniform 0;
        value           nonuniform List<scalar> 
23
(
4.21959e-45
3.28206e-47
1.16021e-47
5.76625e-48
4.29133e-48
7.51078e-48
1.37412e-47
1.78777e-47
1.51472e-47
8.33259e-48
3.43593e-48
1.26315e-48
1.75875e-48
6.17492e-47
2.72715e-45
1.17981e-43
4.95791e-42
2.02569e-40
8.11616e-39
3.21258e-37
1.26604e-35
5.02264e-34
2.03125e-32
)
;
    }
    defaultFaces
    {
        type            empty;
    }
    procBoundary2to0
    {
        type            processor;
        value           nonuniform List<scalar> 
24
(
7.55604e-17
1.69918e-16
4.12677e-16
1.0712e-15
3.52802e-15
1.39223e-14
5.84027e-14
2.09791e-12
1.46271e-12
7.49637e-13
3.86626e-13
2.38415e-13
2.11355e-13
2.61261e-13
3.51996e-13
3.85402e-13
4.4404e-13
3.36143e-13
1.89943e-13
7.07046e-14
1.87125e-14
2.73224e-15
1.63954e-16
1.63954e-16
)
;
    }
    procBoundary2to3
    {
        type            processor;
        value           nonuniform List<scalar> 
25
(
4.36863e-14
5.97356e-15
6.63662e-16
6.3269e-17
5.67918e-18
5.61001e-19
6.42321e-20
7.74053e-21
9.04981e-22
1.06774e-22
1.55048e-23
3.52962e-24
1.1876e-24
4.75139e-25
1.99207e-25
8.23046e-26
3.21649e-26
1.15104e-26
3.6626e-27
1.02303e-27
2.50048e-28
5.47896e-29
1.13403e-29
2.7052e-30
8.38675e-31
)
;
    }
}


// ************************************************************************* //
