/*--------------------------------*- C++ -*----------------------------------*\
| =========                 |                                                 |
| \\      /  F ield         | OpenFOAM: The Open Source CFD Toolbox           |
|  \\    /   O peration     | Version:  2.4.0                                 |
|   \\  /    A nd           | Web:      www.OpenFOAM.org                      |
|    \\/     M anipulation  |                                                 |
\*---------------------------------------------------------------------------*/
FoamFile
{
    version     2.0;
    format      ascii;
    class       volScalarField;
    location    "0.7";
    object      alpha.oil;
}
// * * * * * * * * * * * * * * * * * * * * * * * * * * * * * * * * * * * * * //

dimensions      [0 0 0 0 0 0 0];

internalField   nonuniform List<scalar> 
559
(
5.5704e-08
3.14789e-08
1.68251e-08
7.94044e-09
2.83332e-09
1.11143e-09
6.90262e-10
8.66572e-15
2.22248e-15
1.25971e-14
6.31947e-14
1.83331e-13
5.63068e-13
2.37205e-12
9.34759e-12
2.81428e-11
6.96875e-11
1.00489e-10
2.43541e-10
5.05841e-09
1.56435e-08
2.57034e-08
2.94091e-08
3.84037e-08
2.58596e-08
1.3066e-08
6.7768e-09
2.486e-09
7.78927e-10
2.9363e-10
6.67258e-16
3.64719e-16
3.03607e-15
1.5099e-14
5.10727e-14
2.10769e-13
1.02257e-12
4.16757e-12
1.27478e-11
2.96268e-11
4.35101e-11
8.7817e-11
1.31965e-09
6.75363e-09
1.21645e-08
1.97258e-08
2.36709e-08
1.36577e-08
8.60118e-09
4.65456e-09
1.8222e-09
5.4287e-10
1.53028e-10
4.60993e-17
5.99831e-17
5.52624e-16
2.86237e-15
1.2129e-14
6.40781e-14
3.36431e-13
1.39622e-12
4.27845e-12
9.52187e-12
1.41598e-11
2.61378e-11
1.54471e-10
1.97057e-09
5.27819e-09
7.99043e-09
1.19254e-08
7.8338e-09
4.52284e-09
2.29473e-09
9.76436e-10
3.05858e-10
9.3318e-11
3.10467e-18
8.06479e-18
7.70341e-17
4.37744e-16
2.35785e-15
1.46927e-14
8.08977e-14
3.42158e-13
1.06304e-12
2.3852e-12
3.8269e-12
7.95209e-12
2.17963e-11
4.80728e-10
1.39073e-09
2.94649e-09
4.55531e-09
3.39459e-09
1.9193e-09
9.89549e-10
4.16648e-10
1.47754e-10
4.66613e-11
2.18512e-19
8.5981e-19
8.53432e-18
5.54148e-17
3.68483e-16
2.55649e-15
1.46339e-14
6.37553e-14
2.06745e-13
5.02515e-13
9.60465e-13
2.20207e-12
7.4897e-12
8.82211e-11
3.04947e-10
7.02813e-10
1.24119e-09
1.0797e-09
6.25288e-10
3.20877e-10
1.41918e-10
5.37219e-11
1.79837e-11
1.60903e-20
7.46638e-20
7.86068e-19
5.99496e-18
4.76436e-17
3.59598e-16
2.16415e-15
9.9974e-15
3.56162e-14
1.0156e-13
2.47862e-13
6.39404e-13
2.0939e-12
1.41229e-11
5.3278e-11
1.36916e-10
2.48977e-10
2.58089e-10
1.6017e-10
8.20301e-11
3.75655e-11
1.51564e-11
5.87265e-12
1.17067e-21
5.4632e-21
6.29217e-20
5.77539e-19
5.37674e-18
4.4116e-17
2.85506e-16
1.44931e-15
5.93099e-15
2.039e-14
6.11662e-14
1.74695e-13
5.33883e-13
2.27267e-12
8.10132e-12
2.13072e-11
3.95802e-11
4.78721e-11
3.32631e-11
1.80192e-11
8.71146e-12
3.766e-12
1.60625e-12
7.9424e-23
3.50388e-22
4.62788e-21
5.23709e-20
5.64752e-19
5.07491e-18
3.59975e-17
2.04701e-16
9.64389e-16
3.84991e-15
1.32229e-14
4.08432e-14
1.21079e-13
3.88825e-13
1.18364e-12
2.95879e-12
5.55326e-12
7.46987e-12
5.85314e-12
3.54633e-12
1.86154e-12
8.54743e-13
3.84594e-13
4.90057e-24
2.07238e-23
3.3183e-22
4.64669e-21
5.69212e-20
5.57792e-19
4.31409e-18
2.70085e-17
1.40836e-16
6.18241e-16
2.30941e-15
7.54261e-15
2.23053e-14
6.35011e-14
1.68314e-13
3.85815e-13
7.12393e-13
1.011e-12
8.92866e-13
6.11126e-13
3.49227e-13
1.69878e-13
7.9798e-14
2.74052e-25
1.19274e-24
2.39062e-23
3.99389e-22
5.37483e-21
5.63336e-20
4.64636e-19
3.1063e-18
1.72505e-17
8.03267e-17
3.17581e-16
1.08146e-15
3.23453e-15
8.836e-15
2.1687e-14
4.66278e-14
8.42705e-14
1.22109e-13
1.18515e-13
8.94357e-14
5.51454e-14
2.86323e-14
1.41898e-14
1.40523e-26
6.89679e-26
1.69273e-24
3.18694e-23
4.55889e-22
5.00213e-21
4.30905e-20
3.00764e-19
1.73884e-18
8.41688e-18
3.4622e-17
1.21993e-16
3.72236e-16
1.01263e-15
2.41771e-15
5.02066e-15
8.92504e-15
1.29776e-14
1.35115e-14
1.1074e-14
7.3534e-15
4.08996e-15
2.17627e-15
6.73233e-28
3.96087e-27
1.12355e-25
2.27276e-24
3.37893e-23
3.82441e-22
3.39528e-21
2.44254e-20
1.45393e-19
7.25485e-19
3.08212e-18
1.11739e-17
3.47917e-17
9.54669e-17
2.26982e-16
4.6683e-16
8.28642e-16
1.21406e-15
1.33837e-15
1.17229e-15
8.33227e-16
5.01825e-16
2.92527e-16
3.07836e-29
2.17683e-28
6.74641e-27
1.42351e-25
2.1711e-24
2.5132e-23
2.28245e-22
1.68084e-21
1.02416e-20
5.23856e-20
2.28522e-19
8.50091e-19
2.70689e-18
7.54837e-18
1.81448e-17
3.75542e-17
6.71265e-17
9.96107e-17
1.1514e-16
1.07385e-16
8.20128e-17
5.38996e-17
3.49551e-17
1.36327e-30
1.10497e-29
3.60168e-28
7.80449e-27
1.21286e-25
1.4297e-24
1.32362e-23
9.94757e-23
6.18887e-22
3.23764e-21
1.447e-20
5.51271e-20
1.79471e-19
5.09939e-19
1.2465e-18
2.61609e-18
4.75111e-18
7.21095e-18
8.74095e-18
8.66165e-18
7.1159e-18
5.15064e-18
3.77464e-18
5.87415e-32
5.08298e-31
1.70413e-29
3.76222e-28
5.93661e-27
7.11015e-26
6.69897e-25
5.13091e-24
3.25608e-23
1.73995e-22
7.95466e-22
3.10064e-21
1.03265e-20
2.9973e-20
7.48512e-20
1.60309e-19
2.97632e-19
4.6458e-19
5.90617e-19
6.22789e-19
5.53486e-19
4.45072e-19
3.75382e-19
2.44309e-33
2.10294e-32
7.16527e-31
1.60569e-29
2.56873e-28
3.12312e-27
2.99342e-26
2.33634e-25
1.5125e-24
8.25344e-24
3.85904e-23
1.53911e-22
5.24574e-22
1.55736e-21
3.98306e-21
8.73861e-21
1.66677e-20
2.69153e-20
3.59848e-20
4.04714e-20
3.91195e-20
3.53023e-20
3.58743e-20
9.68168e-35
7.82889e-34
2.69356e-32
6.11683e-31
9.91403e-30
1.22305e-28
1.19214e-27
9.48183e-27
6.2674e-26
3.49586e-25
1.67323e-24
6.83592e-24
2.38753e-23
7.26065e-23
1.90513e-22
4.29487e-22
8.44551e-22
1.41696e-21
1.99744e-21
2.4042e-21
2.54517e-21
2.62028e-21
3.73587e-21
3.60754e-36
2.63581e-35
9.12494e-34
2.09795e-32
3.44361e-31
4.30907e-30
4.27004e-29
3.46189e-28
2.33763e-27
1.33429e-26
6.54382e-26
2.74304e-25
9.83888e-25
3.07369e-24
8.29955e-24
1.92896e-23
3.92071e-23
6.85139e-23
1.02071e-22
1.32026e-22
1.54318e-22
1.88413e-22
5.17817e-22
1.25286e-37
8.08907e-37
2.8131e-35
6.54233e-34
1.08721e-32
1.37947e-31
1.38909e-30
1.14768e-29
7.91469e-29
4.624e-28
2.32549e-27
1.00184e-26
3.6988e-26
1.1902e-25
3.31719e-25
7.97813e-25
1.68396e-24
3.07999e-24
4.86162e-24
6.77607e-24
8.83622e-24
1.41488e-23
9.63754e-23
4.0436e-39
2.30471e-38
8.08708e-37
1.89995e-35
3.19189e-34
4.09709e-33
4.18285e-32
3.51167e-31
2.46614e-30
1.47077e-29
7.56964e-29
3.34951e-28
1.27387e-27
4.22915e-27
1.22057e-26
3.05052e-26
6.71842e-26
1.29245e-25
2.17349e-25
3.29036e-25
4.87953e-25
1.24639e-24
1.94908e-23
1.21699e-40
6.23897e-40
2.20799e-38
5.22511e-37
8.84904e-36
1.14624e-34
1.18339e-33
1.00652e-32
7.17551e-32
4.35329e-31
2.28476e-30
1.03538e-29
4.0475e-29
1.38493e-28
4.1446e-28
1.07903e-27
2.48729e-27
5.05644e-27
9.12089e-27
1.51499e-26
2.67627e-26
1.37497e-25
3.75165e-24
3.44143e-42
1.61685e-41
5.76483e-40
1.37103e-38
2.33464e-37
3.04351e-36
3.16937e-35
2.72337e-34
1.96419e-33
1.20826e-32
6.44507e-32
2.97805e-31
1.19163e-30
4.18924e-30
1.29632e-29
3.51633e-29
8.50943e-29
1.83818e-28
3.58187e-28
6.62834e-28
1.58981e-27
1.9055e-26
6.92424e-25
9.2072e-44
4.01841e-43
1.44071e-41
3.43779e-40
5.87646e-39
7.69525e-38
8.06468e-37
6.98316e-36
5.08351e-35
3.16337e-34
1.71018e-33
8.03415e-33
3.28131e-32
1.18197e-31
3.76957e-31
1.06213e-30
2.69212e-30
6.17794e-30
1.31013e-29
2.89286e-29
1.50795e-28
3.92152e-27
1.53431e-25
2.34344e-45
9.62229e-45
3.463e-43
8.28173e-42
1.41974e-40
1.86541e-39
1.9645e-38
1.7113e-37
1.25519e-36
7.88136e-36
4.30628e-35
2.05048e-34
8.52069e-34
3.13715e-33
1.0283e-32
3.00318e-32
7.95281e-32
1.94097e-31
4.62139e-31
1.75463e-30
3.18712e-29
1.17203e-27
4.70987e-26
)
;

boundaryField
{
    leftWall
    {
        type            zeroGradient;
    }
    rightWall
    {
        type            zeroGradient;
    }
    lowerWall
    {
        type            zeroGradient;
    }
    atmosphere
    {
        type            inletOutlet;
        inletValue      uniform 0;
        value           nonuniform List<scalar> 
23
(
2.34344e-45
9.62229e-45
3.463e-43
8.28173e-42
1.41974e-40
1.86541e-39
1.9645e-38
1.7113e-37
1.25519e-36
7.88136e-36
4.30628e-35
2.05048e-34
8.52069e-34
3.13715e-33
1.0283e-32
3.00318e-32
7.95281e-32
1.94097e-31
4.62139e-31
1.75463e-30
3.18712e-29
1.17203e-27
4.70987e-26
)
;
    }
    defaultFaces
    {
        type            empty;
    }
    procBoundary2to0
    {
        type            processor;
        value           nonuniform List<scalar> 
24
(
6.55385e-08
4.45701e-08
1.83123e-08
7.54564e-09
3.05275e-09
1.77135e-09
1.49897e-09
9.45436e-14
1.83437e-14
4.1781e-14
2.11928e-13
5.72922e-13
1.37876e-12
4.76209e-12
1.73042e-11
4.94858e-11
1.24402e-10
1.73548e-10
5.09031e-10
7.29504e-09
3.04688e-08
4.62299e-08
6.17121e-08
6.17121e-08
)
;
    }
    procBoundary2to3
    {
        type            processor;
        value           nonuniform List<scalar> 
25
(
8.86558e-10
1.86195e-10
7.37178e-11
4.36223e-11
2.17035e-11
8.84463e-12
3.01011e-12
8.64737e-13
2.14052e-13
4.58252e-14
8.4953e-15
1.38634e-15
2.02002e-16
2.68596e-17
3.39662e-18
4.51075e-19
8.07524e-20
2.26748e-20
7.2835e-21
2.1407e-21
5.45837e-22
1.22444e-22
2.55312e-23
6.13168e-24
1.94383e-24
)
;
    }
}


// ************************************************************************* //
