/*--------------------------------*- C++ -*----------------------------------*\
| =========                 |                                                 |
| \\      /  F ield         | OpenFOAM: The Open Source CFD Toolbox           |
|  \\    /   O peration     | Version:  2.4.0                                 |
|   \\  /    A nd           | Web:      www.OpenFOAM.org                      |
|    \\/     M anipulation  |                                                 |
\*---------------------------------------------------------------------------*/
FoamFile
{
    version     2.0;
    format      ascii;
    class       volVectorField;
    location    "0.7";
    object      U;
}
// * * * * * * * * * * * * * * * * * * * * * * * * * * * * * * * * * * * * * //

dimensions      [0 1 -1 0 0 0 0];

internalField   nonuniform List<vector> 
559
(
(-0.0320902 0.160525 0)
(-0.037273 0.179454 0)
(-0.0373145 0.204528 0)
(-0.0322649 0.235515 0)
(-0.0199752 0.259651 0)
(-8.05285e-05 0.280236 0)
(0.033033 0.303602 0)
(0.00267357 0.158477 0)
(0.00718661 0.138798 0)
(0.0102119 0.133626 0)
(0.0102545 0.129609 0)
(0.00889336 0.126412 0)
(0.00565197 0.12428 0)
(0.00174845 0.123562 0)
(-0.00182615 0.124678 0)
(-0.00511861 0.126507 0)
(-0.00673717 0.129174 0)
(-0.00709289 0.131633 0)
(-0.00628902 0.133861 0)
(-0.00815472 0.136113 0)
(-0.0101036 0.139134 0)
(-0.0144826 0.145005 0)
(-0.0191988 0.155462 0)
(-0.0239342 0.16484 0)
(-0.0245778 0.177383 0)
(-0.0215263 0.198602 0)
(-0.0139596 0.222921 0)
(0.00236028 0.240491 0)
(0.0233732 0.252061 0)
(0.0526464 0.268402 0)
(0.00221335 0.153991 0)
(0.00523551 0.135499 0)
(0.00651261 0.132936 0)
(0.0067484 0.130692 0)
(0.00592145 0.12871 0)
(0.00427956 0.127536 0)
(0.00210324 0.126926 0)
(-0.000233977 0.127691 0)
(-0.00256872 0.128797 0)
(-0.00437283 0.130434 0)
(-0.00552837 0.132849 0)
(-0.00569978 0.135796 0)
(-0.00754119 0.138699 0)
(-0.00918968 0.142783 0)
(-0.0108609 0.149024 0)
(-0.0114682 0.156853 0)
(-0.00904864 0.164967 0)
(-0.00773629 0.176637 0)
(-0.00411562 0.193337 0)
(0.00685518 0.210392 0)
(0.023332 0.221726 0)
(0.0429146 0.229392 0)
(0.0684047 0.240636 0)
(0.00160136 0.1509 0)
(0.00343682 0.133993 0)
(0.00461344 0.132198 0)
(0.00531355 0.130485 0)
(0.00517895 0.129343 0)
(0.00476301 0.128828 0)
(0.00393232 0.128762 0)
(0.00283887 0.129613 0)
(0.00172963 0.131009 0)
(0.000523878 0.132507 0)
(-0.00107378 0.133569 0)
(-0.00197174 0.135726 0)
(-0.00277367 0.139757 0)
(-0.00375278 0.143382 0)
(-0.00359226 0.148173 0)
(-0.00234455 0.153936 0)
(0.000343286 0.163536 0)
(0.00264322 0.174136 0)
(0.00865124 0.18518 0)
(0.0195066 0.197053 0)
(0.0337874 0.204827 0)
(0.0513419 0.208555 0)
(0.0714554 0.215661 0)
(0.00114616 0.148898 0)
(0.00260429 0.132243 0)
(0.00416625 0.13093 0)
(0.004772 0.129828 0)
(0.00492085 0.129289 0)
(0.00485343 0.12902 0)
(0.00452163 0.129231 0)
(0.0042739 0.129996 0)
(0.00429038 0.131106 0)
(0.00447669 0.132986 0)
(0.00415111 0.134699 0)
(0.00355351 0.136931 0)
(0.00431586 0.140442 0)
(0.00503482 0.143414 0)
(0.00588591 0.1472 0)
(0.00687866 0.152194 0)
(0.00910836 0.158844 0)
(0.0147642 0.166957 0)
(0.02252 0.175378 0)
(0.033166 0.184252 0)
(0.0467408 0.189143 0)
(0.0629697 0.190853 0)
(0.0785224 0.195454 0)
(0.00102934 0.147025 0)
(0.00229765 0.13105 0)
(0.00300274 0.130226 0)
(0.00356327 0.129778 0)
(0.00381347 0.129312 0)
(0.00392379 0.12905 0)
(0.00389788 0.129239 0)
(0.00393094 0.129897 0)
(0.0041394 0.131174 0)
(0.00449589 0.133072 0)
(0.00514906 0.135139 0)
(0.00518529 0.136913 0)
(0.00610225 0.138937 0)
(0.00773425 0.142501 0)
(0.00986232 0.146426 0)
(0.0123567 0.151526 0)
(0.0150674 0.156528 0)
(0.0199192 0.161455 0)
(0.0273663 0.167908 0)
(0.0368952 0.173445 0)
(0.0493392 0.175999 0)
(0.0630584 0.17766 0)
(0.0774597 0.180751 0)
(0.000792765 0.145583 0)
(0.00188477 0.130088 0)
(0.00260349 0.129478 0)
(0.00336086 0.129076 0)
(0.00380084 0.128941 0)
(0.00411717 0.129066 0)
(0.00426628 0.129316 0)
(0.0044252 0.129748 0)
(0.00473687 0.130525 0)
(0.00515521 0.132259 0)
(0.0059744 0.13399 0)
(0.0069551 0.135243 0)
(0.00777159 0.137467 0)
(0.00934923 0.139775 0)
(0.011459 0.142872 0)
(0.0148031 0.146886 0)
(0.0204941 0.150358 0)
(0.0264549 0.154375 0)
(0.0333137 0.158285 0)
(0.0426067 0.161241 0)
(0.0541518 0.162488 0)
(0.0642156 0.162737 0)
(0.078145 0.163622 0)
(0.000880687 0.14405 0)
(0.00205253 0.129105 0)
(0.00285115 0.128737 0)
(0.00363719 0.128725 0)
(0.0042341 0.128738 0)
(0.00476332 0.128767 0)
(0.00531081 0.129059 0)
(0.00584727 0.129617 0)
(0.0063839 0.130457 0)
(0.0069296 0.131327 0)
(0.00817517 0.132778 0)
(0.0098918 0.13474 0)
(0.0116577 0.136561 0)
(0.0135973 0.138349 0)
(0.0156749 0.1406 0)
(0.0194362 0.142845 0)
(0.0229392 0.145702 0)
(0.0281045 0.149187 0)
(0.0347733 0.151044 0)
(0.0440114 0.152884 0)
(0.0530096 0.153251 0)
(0.0632279 0.153082 0)
(0.0752836 0.150167 0)
(0.000691942 0.142915 0)
(0.00164477 0.128258 0)
(0.00247378 0.127927 0)
(0.00337721 0.127884 0)
(0.00409766 0.12791 0)
(0.0047629 0.128052 0)
(0.00542298 0.128316 0)
(0.00609863 0.128756 0)
(0.00686719 0.12948 0)
(0.00780567 0.130625 0)
(0.00898231 0.131702 0)
(0.0101715 0.13285 0)
(0.0120738 0.134335 0)
(0.0145378 0.136317 0)
(0.0171204 0.137867 0)
(0.0203446 0.139097 0)
(0.0247883 0.141179 0)
(0.0307976 0.141808 0)
(0.037979 0.142937 0)
(0.0445283 0.143525 0)
(0.0532461 0.144246 0)
(0.0621466 0.141516 0)
(0.0728019 0.13807 0)
(0.000704409 0.141522 0)
(0.00176995 0.127191 0)
(0.0026049 0.126807 0)
(0.00357849 0.126816 0)
(0.00442719 0.127027 0)
(0.00532008 0.127379 0)
(0.00616925 0.127689 0)
(0.00704761 0.128119 0)
(0.00803629 0.128694 0)
(0.00931018 0.129423 0)
(0.0106338 0.130214 0)
(0.0119639 0.131178 0)
(0.0137181 0.131821 0)
(0.0157748 0.132989 0)
(0.0193007 0.133804 0)
(0.0232297 0.135324 0)
(0.0273562 0.135914 0)
(0.0318322 0.136858 0)
(0.036805 0.137555 0)
(0.043098 0.136651 0)
(0.0514815 0.134147 0)
(0.0599266 0.132312 0)
(0.0681191 0.129134 0)
(0.000680012 0.140495 0)
(0.00172 0.126449 0)
(0.00258121 0.126167 0)
(0.00354628 0.1262 0)
(0.00435521 0.126266 0)
(0.0052704 0.126409 0)
(0.00617573 0.126631 0)
(0.0070966 0.126964 0)
(0.00806986 0.127354 0)
(0.00925596 0.127868 0)
(0.0108036 0.128816 0)
(0.0130699 0.129401 0)
(0.0151196 0.130134 0)
(0.0174911 0.130622 0)
(0.0196192 0.131505 0)
(0.0223749 0.131593 0)
(0.026216 0.131752 0)
(0.0309866 0.131846 0)
(0.03701 0.130254 0)
(0.0435435 0.129148 0)
(0.0492675 0.128278 0)
(0.0557699 0.124868 0)
(0.063884 0.119845 0)
(0.000678269 0.139062 0)
(0.00179178 0.125284 0)
(0.00275285 0.125038 0)
(0.00385831 0.125158 0)
(0.00485771 0.12534 0)
(0.00589141 0.125528 0)
(0.00692769 0.125786 0)
(0.00801692 0.126087 0)
(0.00916962 0.126424 0)
(0.0103623 0.126781 0)
(0.0115537 0.126994 0)
(0.0128127 0.127535 0)
(0.0146915 0.128017 0)
(0.0170284 0.128288 0)
(0.0199807 0.128016 0)
(0.0237137 0.127539 0)
(0.027504 0.127295 0)
(0.0315138 0.126429 0)
(0.0356511 0.126241 0)
(0.0401099 0.124363 0)
(0.0462639 0.120846 0)
(0.0526544 0.117488 0)
(0.0586792 0.11336 0)
(0.000638507 0.138038 0)
(0.00170734 0.124438 0)
(0.00263099 0.124077 0)
(0.00370866 0.124149 0)
(0.00468915 0.124258 0)
(0.00569835 0.12439 0)
(0.00670129 0.124586 0)
(0.0077539 0.124855 0)
(0.00889572 0.125166 0)
(0.0101811 0.125505 0)
(0.0117501 0.125839 0)
(0.0137203 0.125981 0)
(0.015759 0.125833 0)
(0.0179873 0.125652 0)
(0.0204272 0.125445 0)
(0.0227778 0.125114 0)
(0.0256338 0.12436 0)
(0.0292208 0.123216 0)
(0.0335377 0.120727 0)
(0.0385887 0.11837 0)
(0.0432669 0.115999 0)
(0.0481192 0.112059 0)
(0.0536172 0.107173 0)
(0.000658716 0.136649 0)
(0.00189657 0.123276 0)
(0.00296123 0.122939 0)
(0.00416 0.123078 0)
(0.00523484 0.123232 0)
(0.00632493 0.123412 0)
(0.00737136 0.123594 0)
(0.00841294 0.123735 0)
(0.00948389 0.123826 0)
(0.0106224 0.123863 0)
(0.0118247 0.123848 0)
(0.0131197 0.123839 0)
(0.0147305 0.123737 0)
(0.016656 0.123327 0)
(0.0189585 0.12268 0)
(0.0217661 0.121548 0)
(0.0249713 0.120253 0)
(0.0283118 0.118884 0)
(0.0317022 0.117234 0)
(0.0353426 0.114607 0)
(0.0395003 0.110964 0)
(0.0439614 0.107025 0)
(0.0483284 0.102345 0)
(0.000644844 0.135529 0)
(0.0018286 0.122245 0)
(0.00285563 0.121858 0)
(0.00402813 0.122021 0)
(0.0050759 0.122212 0)
(0.00616146 0.122444 0)
(0.00722315 0.122692 0)
(0.0082956 0.122909 0)
(0.00939465 0.123066 0)
(0.0105686 0.123107 0)
(0.0118476 0.123028 0)
(0.0132779 0.122697 0)
(0.0149101 0.122193 0)
(0.0167087 0.121579 0)
(0.0186809 0.120721 0)
(0.0208039 0.119587 0)
(0.0231212 0.118112 0)
(0.0258138 0.116085 0)
(0.0289492 0.113463 0)
(0.0324082 0.110535 0)
(0.0358851 0.107188 0)
(0.0394196 0.103012 0)
(0.0431039 0.0982032 0)
(0.00071052 0.134101 0)
(0.00202044 0.120956 0)
(0.00309867 0.120568 0)
(0.00433722 0.12077 0)
(0.00541315 0.120955 0)
(0.006529 0.12117 0)
(0.00759799 0.121369 0)
(0.00864148 0.12152 0)
(0.00965247 0.121584 0)
(0.0106986 0.121521 0)
(0.0117736 0.121328 0)
(0.0128919 0.121017 0)
(0.0141477 0.12046 0)
(0.0156207 0.119615 0)
(0.017307 0.118508 0)
(0.0192428 0.117061 0)
(0.0214399 0.115248 0)
(0.0238081 0.113132 0)
(0.0263306 0.110656 0)
(0.0290386 0.10758 0)
(0.0319469 0.103877 0)
(0.0349327 0.0996449 0)
(0.0379227 0.0948347 0)
(0.000738192 0.132787 0)
(0.00201542 0.119969 0)
(0.00301992 0.119559 0)
(0.00421971 0.119821 0)
(0.00525165 0.120054 0)
(0.00635235 0.120298 0)
(0.007464 0.120539 0)
(0.00862322 0.120742 0)
(0.00976871 0.120861 0)
(0.0108525 0.120879 0)
(0.0118893 0.120635 0)
(0.0128591 0.120074 0)
(0.0138504 0.119207 0)
(0.0149352 0.118174 0)
(0.0161891 0.116906 0)
(0.0176445 0.115341 0)
(0.0193433 0.113391 0)
(0.0212434 0.111035 0)
(0.023333 0.108207 0)
(0.02561 0.104957 0)
(0.0279881 0.101215 0)
(0.030373 0.0969177 0)
(0.0327663 0.0920877 0)
(0.000894234 0.131245 0)
(0.00204263 0.118697 0)
(0.00279932 0.118265 0)
(0.00387879 0.118526 0)
(0.00478603 0.118746 0)
(0.00580649 0.118977 0)
(0.00688298 0.119238 0)
(0.0080177 0.119476 0)
(0.00916916 0.119627 0)
(0.0103128 0.119697 0)
(0.0114166 0.119586 0)
(0.012482 0.119195 0)
(0.0135111 0.118536 0)
(0.0144535 0.117449 0)
(0.0153642 0.115857 0)
(0.0162563 0.113873 0)
(0.0173266 0.11164 0)
(0.0186774 0.109142 0)
(0.0202969 0.106292 0)
(0.0220583 0.102936 0)
(0.0239266 0.0990767 0)
(0.0258109 0.0947352 0)
(0.0276653 0.0899164 0)
(0.000983134 0.129896 0)
(0.00186886 0.118146 0)
(0.00217571 0.117751 0)
(0.00294227 0.117986 0)
(0.00353505 0.11816 0)
(0.00431252 0.118306 0)
(0.00513415 0.118349 0)
(0.00607207 0.118412 0)
(0.00712707 0.118506 0)
(0.00828884 0.118542 0)
(0.00950117 0.11846 0)
(0.0107038 0.118161 0)
(0.0118411 0.117535 0)
(0.0128894 0.116542 0)
(0.0138577 0.115208 0)
(0.014816 0.113435 0)
(0.0157557 0.11106 0)
(0.0165106 0.10805 0)
(0.0172907 0.104738 0)
(0.0184514 0.101271 0)
(0.0198267 0.0974418 0)
(0.0212348 0.0931017 0)
(0.0225943 0.0882798 0)
(0.00100085 0.12845 0)
(0.00127451 0.117817 0)
(0.000731481 0.117345 0)
(0.000856345 0.117425 0)
(0.000822911 0.117516 0)
(0.00110688 0.117519 0)
(0.00144754 0.117478 0)
(0.00201399 0.1174 0)
(0.00280762 0.117328 0)
(0.00385023 0.117209 0)
(0.00510095 0.117038 0)
(0.00646222 0.11672 0)
(0.00782888 0.116132 0)
(0.00925077 0.115251 0)
(0.0106436 0.113979 0)
(0.0119089 0.11226 0)
(0.0129735 0.110135 0)
(0.0138908 0.107631 0)
(0.0147814 0.104404 0)
(0.0153857 0.100439 0)
(0.0158318 0.0962351 0)
(0.0166871 0.0918763 0)
(0.0175559 0.0871307 0)
(0.000823838 0.127576 0)
(0.00023835 0.118309 0)
(-0.00157705 0.117979 0)
(-0.00242522 0.117799 0)
(-0.00341303 0.117682 0)
(-0.00396067 0.117522 0)
(-0.00435029 0.117287 0)
(-0.00441827 0.116951 0)
(-0.0041718 0.116516 0)
(-0.00353927 0.116046 0)
(-0.00246562 0.115598 0)
(-0.000959104 0.115121 0)
(0.000825326 0.114502 0)
(0.00269392 0.113612 0)
(0.00456619 0.112427 0)
(0.0062963 0.110835 0)
(0.00786347 0.10881 0)
(0.00945354 0.106318 0)
(0.0107573 0.103425 0)
(0.0117226 0.10019 0)
(0.0124527 0.0961441 0)
(0.0125896 0.0913788 0)
(0.012623 0.0864867 0)
(0.000477631 0.127411 0)
(-0.00127497 0.119929 0)
(-0.00413289 0.119559 0)
(-0.00608975 0.119113 0)
(-0.00814774 0.118711 0)
(-0.00972803 0.118275 0)
(-0.011015 0.117764 0)
(-0.0119547 0.117175 0)
(-0.0125645 0.116515 0)
(-0.0127229 0.115652 0)
(-0.0124355 0.114658 0)
(-0.011641 0.113593 0)
(-0.0102362 0.112521 0)
(-0.00825533 0.111393 0)
(-0.00578736 0.110111 0)
(-0.00298959 0.108678 0)
(-0.00014634 0.106948 0)
(0.00230143 0.104766 0)
(0.00429412 0.102068 0)
(0.00602876 0.0989063 0)
(0.00738311 0.0954441 0)
(0.00820416 0.0916271 0)
(0.00807258 0.0868652 0)
(9.9124e-05 0.128095 0)
(-0.00238923 0.123014 0)
(-0.00592562 0.122578 0)
(-0.00860346 0.121917 0)
(-0.0113552 0.121194 0)
(-0.0137126 0.120336 0)
(-0.0156932 0.119423 0)
(-0.0172804 0.118383 0)
(-0.018342 0.117164 0)
(-0.0190566 0.115838 0)
(-0.0193525 0.114384 0)
(-0.0192011 0.112887 0)
(-0.0186155 0.111293 0)
(-0.0175827 0.109539 0)
(-0.016058 0.107675 0)
(-0.0140271 0.105726 0)
(-0.0115016 0.1037 0)
(-0.00851034 0.101639 0)
(-0.00525673 0.0994536 0)
(-0.00227675 0.09702 0)
(7.25055e-05 0.0942145 0)
(0.00169216 0.0907986 0)
(0.00260555 0.0868526 0)
(-0.000282977 0.129303 0)
(-0.00289533 0.125816 0)
(-0.00631551 0.125229 0)
(-0.0091091 0.124398 0)
(-0.0120094 0.123484 0)
(-0.0146506 0.122413 0)
(-0.0170595 0.121193 0)
(-0.0191655 0.119821 0)
(-0.0209836 0.118318 0)
(-0.0224331 0.116685 0)
(-0.0234512 0.114902 0)
(-0.0240217 0.11295 0)
(-0.0240988 0.110867 0)
(-0.0237138 0.108647 0)
(-0.0229102 0.106314 0)
(-0.0217007 0.103883 0)
(-0.0200505 0.101391 0)
(-0.0179393 0.0988636 0)
(-0.0154148 0.0963544 0)
(-0.012569 0.0938513 0)
(-0.00951689 0.0914584 0)
(-0.0066136 0.0891203 0)
(-0.00437941 0.0862115 0)
(-0.000739435 0.132717 0)
(-0.00361134 0.130927 0)
(-0.0069631 0.13035 0)
(-0.00987985 0.129408 0)
(-0.012909 0.128299 0)
(-0.0157212 0.126926 0)
(-0.0183749 0.125325 0)
(-0.0207942 0.123499 0)
(-0.0229496 0.121457 0)
(-0.0248006 0.119216 0)
(-0.0263241 0.116787 0)
(-0.0274937 0.114173 0)
(-0.0282669 0.111396 0)
(-0.0285878 0.108544 0)
(-0.0284309 0.105493 0)
(-0.0277851 0.102412 0)
(-0.0267452 0.0992731 0)
(-0.025335 0.0961005 0)
(-0.0235746 0.0930101 0)
(-0.0215702 0.0900461 0)
(-0.0193365 0.087257 0)
(-0.0169636 0.0847758 0)
(-0.0145264 0.0825908 0)
)
;

boundaryField
{
    leftWall
    {
        type            calculated;
        value           uniform (0 0 0);
    }
    rightWall
    {
        type            calculated;
        value           nonuniform 0();
    }
    lowerWall
    {
        type            calculated;
        value           nonuniform 0();
    }
    atmosphere
    {
        type            calculated;
        value           nonuniform List<vector> 
23
(
(-0.000739435 0.132715 0)
(-0.00361134 0.130923 0)
(-0.0069631 0.130346 0)
(-0.00987985 0.129403 0)
(-0.012909 0.128294 0)
(-0.0157212 0.126921 0)
(-0.0183749 0.125321 0)
(-0.0207942 0.123495 0)
(-0.0229496 0.121453 0)
(-0.0248006 0.119212 0)
(-0.0263241 0.116782 0)
(-0.0274937 0.114169 0)
(-0.0282669 0.111392 0)
(-0.0285878 0.10854 0)
(-0.0284309 0.10549 0)
(-0.0277851 0.102409 0)
(-0.0267452 0.0992704 0)
(-0.025335 0.0960982 0)
(-0.0235746 0.093008 0)
(-0.0215702 0.0900441 0)
(-0.0193365 0.0872547 0)
(-0.0169636 0.0847736 0)
(-0.0145264 0.0825888 0)
)
;
    }
    defaultFaces
    {
        type            empty;
    }
    procBoundary2to0
    {
        type            processor;
        value           nonuniform List<vector> 
24
(
(-0.039995 0.14856 0)
(-0.0527551 0.171201 0)
(-0.0592063 0.204457 0)
(-0.0570542 0.241427 0)
(-0.0501501 0.272912 0)
(-0.0266893 0.305812 0)
(0.00943073 0.340205 0)
(0.00419476 0.163958 0)
(0.0100436 0.143238 0)
(0.0138302 0.135471 0)
(0.0141598 0.129336 0)
(0.0120892 0.124084 0)
(0.00839264 0.12055 0)
(0.0034814 0.119121 0)
(-0.000636628 0.120768 0)
(-0.00438243 0.123187 0)
(-0.00616378 0.128981 0)
(-0.00375366 0.133055 0)
(-0.00090872 0.134384 0)
(-0.000959347 0.13411 0)
(-0.00439871 0.136549 0)
(-0.0111878 0.13891 0)
(-0.0202975 0.147073 0)
(-0.0202975 0.147073 0)
)
;
    }
    procBoundary2to3
    {
        type            processor;
        value           nonuniform List<vector> 
25
(
(0.0611111 0.316841 0)
(0.075873 0.278069 0)
(0.0884934 0.249685 0)
(0.088865 0.224136 0)
(0.0924564 0.200109 0)
(0.0901309 0.182484 0)
(0.089674 0.162831 0)
(0.0853875 0.147486 0)
(0.0803803 0.135716 0)
(0.0755778 0.124035 0)
(0.0694407 0.116041 0)
(0.0635952 0.108554 0)
(0.0575815 0.102921 0)
(0.0517046 0.0980452 0)
(0.0458891 0.0941069 0)
(0.0402098 0.0908328 0)
(0.0346185 0.0881535 0)
(0.0291021 0.0860191 0)
(0.0236427 0.084402 0)
(0.0182238 0.0832861 0)
(0.0129018 0.0826883 0)
(0.00773007 0.0827719 0)
(0.00276764 0.0833413 0)
(-0.00374921 0.0834555 0)
(-0.0134328 0.0806743 0)
)
;
    }
}


// ************************************************************************* //
