/*--------------------------------*- C++ -*----------------------------------*\
| =========                 |                                                 |
| \\      /  F ield         | OpenFOAM: The Open Source CFD Toolbox           |
|  \\    /   O peration     | Version:  2.4.0                                 |
|   \\  /    A nd           | Web:      www.OpenFOAM.org                      |
|    \\/     M anipulation  |                                                 |
\*---------------------------------------------------------------------------*/
FoamFile
{
    version     2.0;
    format      ascii;
    class       volVectorField;
    location    "0.7";
    object      U.oil;
}
// * * * * * * * * * * * * * * * * * * * * * * * * * * * * * * * * * * * * * //

dimensions      [0 1 -1 0 0 0 0];

internalField   nonuniform List<vector> 
559
(
(-0.0321552 0.159174 0)
(-0.0373352 0.178601 0)
(-0.0373659 0.20407 0)
(-0.0322991 0.235268 0)
(-0.0199892 0.259524 0)
(-8.57085e-05 0.280143 0)
(0.0330237 0.30351 0)
(0.0026735 0.158459 0)
(0.00718627 0.13878 0)
(0.0102111 0.133607 0)
(0.0102532 0.129589 0)
(0.00889153 0.126391 0)
(0.00564934 0.124257 0)
(0.00174478 0.123538 0)
(-0.00183115 0.124652 0)
(-0.00512525 0.126479 0)
(-0.00674588 0.129143 0)
(-0.00710399 0.131599 0)
(-0.0063031 0.133821 0)
(-0.0081724 0.13597 0)
(-0.0101268 0.138717 0)
(-0.0145158 0.144348 0)
(-0.0192454 0.154646 0)
(-0.0240024 0.163881 0)
(-0.024641 0.176752 0)
(-0.0215748 0.198247 0)
(-0.0139941 0.22272 0)
(0.00234229 0.240388 0)
(0.0233623 0.251993 0)
(0.0526312 0.268337 0)
(0.00221303 0.153973 0)
(0.00523458 0.135481 0)
(0.00651108 0.132917 0)
(0.00674618 0.130672 0)
(0.0059184 0.12869 0)
(0.00427552 0.127514 0)
(0.002098 0.126903 0)
(-0.000240649 0.127667 0)
(-0.00257712 0.12877 0)
(-0.00438332 0.130405 0)
(-0.00554134 0.132818 0)
(-0.00571568 0.135762 0)
(-0.00756067 0.138626 0)
(-0.00921523 0.142579 0)
(-0.0108941 0.148684 0)
(-0.0115137 0.156374 0)
(-0.00910844 0.16437 0)
(-0.00778487 0.176255 0)
(-0.00415567 0.193098 0)
(0.00682534 0.210249 0)
(0.0233122 0.221647 0)
(0.0428999 0.229339 0)
(0.0683843 0.240587 0)
(0.00160098 0.150883 0)
(0.00343562 0.133975 0)
(0.00461137 0.13218 0)
(0.00531055 0.130466 0)
(0.00517493 0.129323 0)
(0.00475783 0.128807 0)
(0.00392582 0.12874 0)
(0.00283084 0.12959 0)
(0.00171983 0.130985 0)
(0.000511967 0.132481 0)
(-0.00108816 0.133542 0)
(-0.00198899 0.135697 0)
(-0.00279409 0.139721 0)
(-0.00377734 0.143294 0)
(-0.00362245 0.148011 0)
(-0.00238014 0.153696 0)
(0.000299625 0.163216 0)
(0.00260554 0.173922 0)
(0.00862065 0.185041 0)
(0.0194829 0.196967 0)
(0.0337689 0.204773 0)
(0.0513245 0.208515 0)
(0.0714324 0.215623 0)
(0.00114563 0.148881 0)
(0.00260275 0.132225 0)
(0.0041637 0.130912 0)
(0.00476838 0.12981 0)
(0.00491607 0.129271 0)
(0.00484738 0.129001 0)
(0.00451417 0.12921 0)
(0.00426484 0.129975 0)
(0.00427951 0.131084 0)
(0.00446372 0.132963 0)
(0.00413573 0.134675 0)
(0.00353537 0.136906 0)
(0.00429494 0.140416 0)
(0.00501086 0.143374 0)
(0.00585943 0.147131 0)
(0.00684972 0.152091 0)
(0.00907702 0.1587 0)
(0.014736 0.166849 0)
(0.0224962 0.175307 0)
(0.0331459 0.184205 0)
(0.0467224 0.189109 0)
(0.0629509 0.190824 0)
(0.0784968 0.195426 0)
(0.00102881 0.147009 0)
(0.00229599 0.131034 0)
(0.0029999 0.13021 0)
(0.00355922 0.129761 0)
(0.00380814 0.129294 0)
(0.00391711 0.129032 0)
(0.00388972 0.12922 0)
(0.00392116 0.129878 0)
(0.0041278 0.131155 0)
(0.00448222 0.133052 0)
(0.00513304 0.135119 0)
(0.00516668 0.136892 0)
(0.00608103 0.138915 0)
(0.007711 0.142476 0)
(0.00983769 0.146395 0)
(0.0123318 0.151484 0)
(0.0150432 0.156472 0)
(0.019897 0.161407 0)
(0.0273465 0.167873 0)
(0.036877 0.173419 0)
(0.0493213 0.175977 0)
(0.0630384 0.17764 0)
(0.0774339 0.18073 0)
(0.000792139 0.145568 0)
(0.00188293 0.130072 0)
(0.00260042 0.129462 0)
(0.00335652 0.12906 0)
(0.00379516 0.128925 0)
(0.00411008 0.12905 0)
(0.00425768 0.129299 0)
(0.00441496 0.129731 0)
(0.00472482 0.130508 0)
(0.00514114 0.132242 0)
(0.00595807 0.133972 0)
(0.00693637 0.135226 0)
(0.00775056 0.13745 0)
(0.0093264 0.139757 0)
(0.0114355 0.142854 0)
(0.0147802 0.146866 0)
(0.0204726 0.150335 0)
(0.0264354 0.154354 0)
(0.0332955 0.158267 0)
(0.0425891 0.161226 0)
(0.0541332 0.162474 0)
(0.0641951 0.162723 0)
(0.0781183 0.163607 0)
(0.000880079 0.144036 0)
(0.00205067 0.129091 0)
(0.00284797 0.128723 0)
(0.00363269 0.12871 0)
(0.00422823 0.128724 0)
(0.00475601 0.128752 0)
(0.00530197 0.129044 0)
(0.0058368 0.129602 0)
(0.00637167 0.130442 0)
(0.00691542 0.131312 0)
(0.00815884 0.132763 0)
(0.00987323 0.134725 0)
(0.0116371 0.136547 0)
(0.0135753 0.138336 0)
(0.0156524 0.140587 0)
(0.0194144 0.142832 0)
(0.0229192 0.14569 0)
(0.0280863 0.149175 0)
(0.0347559 0.151034 0)
(0.043994 0.152875 0)
(0.0529912 0.153242 0)
(0.0632071 0.153074 0)
(0.0752577 0.150158 0)
(0.000691278 0.142902 0)
(0.00164281 0.128245 0)
(0.00247052 0.127914 0)
(0.00337262 0.127871 0)
(0.00409171 0.127897 0)
(0.00475551 0.128039 0)
(0.00541409 0.128303 0)
(0.00608815 0.128743 0)
(0.00685502 0.129467 0)
(0.00779166 0.130613 0)
(0.00896628 0.131689 0)
(0.0101534 0.132838 0)
(0.0120539 0.134323 0)
(0.0145166 0.136307 0)
(0.017099 0.137857 0)
(0.0203241 0.139089 0)
(0.0247694 0.141172 0)
(0.0307802 0.141802 0)
(0.0379622 0.142932 0)
(0.0445113 0.14352 0)
(0.0532276 0.144242 0)
(0.0621263 0.141513 0)
(0.0727762 0.138067 0)
(0.000703782 0.14151 0)
(0.00176804 0.127179 0)
(0.00260166 0.126795 0)
(0.00357392 0.126805 0)
(0.00442125 0.127016 0)
(0.00531274 0.127367 0)
(0.00616047 0.127678 0)
(0.00703733 0.128108 0)
(0.00802439 0.128684 0)
(0.00929654 0.129412 0)
(0.0106183 0.130204 0)
(0.0119465 0.131169 0)
(0.0136991 0.131812 0)
(0.0157547 0.132982 0)
(0.0192806 0.133798 0)
(0.0232104 0.135319 0)
(0.0273384 0.13591 0)
(0.0318157 0.136855 0)
(0.0367888 0.137554 0)
(0.0430815 0.13665 0)
(0.0514639 0.134147 0)
(0.0599069 0.132312 0)
(0.0680953 0.129135 0)
(0.000679359 0.140485 0)
(0.00171807 0.126439 0)
(0.00257801 0.126156 0)
(0.00354179 0.126189 0)
(0.00434941 0.126256 0)
(0.00526325 0.126399 0)
(0.0061672 0.126621 0)
(0.00708665 0.126954 0)
(0.00805839 0.127345 0)
(0.00924286 0.12786 0)
(0.0107888 0.128808 0)
(0.0130534 0.129394 0)
(0.0151016 0.130128 0)
(0.0174722 0.130618 0)
(0.0196004 0.131501 0)
(0.0223569 0.131591 0)
(0.0261994 0.131751 0)
(0.0309711 0.131846 0)
(0.0369947 0.130256 0)
(0.0435277 0.12915 0)
(0.0492502 0.128281 0)
(0.0557512 0.124871 0)
(0.0638612 0.11985 0)
(0.000677669 0.139053 0)
(0.00178995 0.125275 0)
(0.00274978 0.125029 0)
(0.00385399 0.125149 0)
(0.00485212 0.125331 0)
(0.00588455 0.125519 0)
(0.00691953 0.125778 0)
(0.00800742 0.126079 0)
(0.00915869 0.126417 0)
(0.0103499 0.126774 0)
(0.0115397 0.126988 0)
(0.0127971 0.12753 0)
(0.0146747 0.128013 0)
(0.0170109 0.128286 0)
(0.0199632 0.128014 0)
(0.023697 0.127539 0)
(0.0274885 0.127296 0)
(0.0314992 0.126432 0)
(0.0356366 0.126245 0)
(0.0400948 0.124367 0)
(0.0462478 0.120851 0)
(0.0526367 0.117495 0)
(0.0586584 0.113368 0)
(0.000637905 0.13803 0)
(0.00170556 0.12443 0)
(0.00262805 0.124069 0)
(0.00370454 0.124141 0)
(0.00468385 0.124251 0)
(0.00569185 0.124383 0)
(0.00669358 0.12458 0)
(0.00774494 0.124849 0)
(0.00888544 0.125161 0)
(0.0101694 0.125501 0)
(0.011737 0.125835 0)
(0.0137058 0.125978 0)
(0.0157434 0.125831 0)
(0.0179711 0.125651 0)
(0.0204112 0.125446 0)
(0.0227625 0.125117 0)
(0.0256195 0.124363 0)
(0.0292074 0.123221 0)
(0.0335242 0.120733 0)
(0.0385746 0.118377 0)
(0.0432517 0.116007 0)
(0.0481029 0.112069 0)
(0.0535977 0.107184 0)
(0.000658178 0.136642 0)
(0.00189494 0.123269 0)
(0.00295848 0.122932 0)
(0.00415615 0.123071 0)
(0.00522988 0.123226 0)
(0.00631885 0.123406 0)
(0.00736416 0.123589 0)
(0.00840458 0.12373 0)
(0.00947434 0.123822 0)
(0.0106116 0.123859 0)
(0.0118126 0.123845 0)
(0.0131063 0.123838 0)
(0.0147162 0.123737 0)
(0.0166413 0.123329 0)
(0.0189438 0.122683 0)
(0.0217522 0.121553 0)
(0.0249584 0.120258 0)
(0.0282994 0.118891 0)
(0.0316897 0.117242 0)
(0.0353296 0.114616 0)
(0.0394866 0.110975 0)
(0.0439466 0.107036 0)
(0.0483114 0.102358 0)
(0.00064432 0.135523 0)
(0.00182705 0.122239 0)
(0.00285308 0.121852 0)
(0.00402456 0.122016 0)
(0.00507131 0.122207 0)
(0.00615586 0.12244 0)
(0.00721651 0.122688 0)
(0.00828791 0.122906 0)
(0.00938588 0.123063 0)
(0.0105587 0.123105 0)
(0.0118365 0.123027 0)
(0.0132658 0.122697 0)
(0.0148971 0.122195 0)
(0.0166954 0.121582 0)
(0.0186678 0.120726 0)
(0.0207914 0.119593 0)
(0.0231095 0.11812 0)
(0.0258026 0.116093 0)
(0.0289379 0.113473 0)
(0.0323965 0.110545 0)
(0.0358724 0.1072 0)
(0.0394064 0.103025 0)
(0.0430885 0.0982186 0)
(0.000710065 0.134096 0)
(0.00201905 0.120951 0)
(0.00309635 0.120563 0)
(0.00433397 0.120765 0)
(0.00540897 0.120951 0)
(0.00652389 0.121166 0)
(0.00759195 0.121366 0)
(0.00863451 0.121517 0)
(0.00964452 0.121582 0)
(0.0106896 0.12152 0)
(0.0117637 0.121328 0)
(0.012881 0.121019 0)
(0.0141361 0.120463 0)
(0.0156088 0.119619 0)
(0.0172953 0.118514 0)
(0.0192318 0.117069 0)
(0.0214296 0.115257 0)
(0.0237982 0.113142 0)
(0.0263205 0.110667 0)
(0.029028 0.107592 0)
(0.0319358 0.10389 0)
(0.0349209 0.0996601 0)
(0.0379096 0.0948517 0)
(0.00073776 0.132783 0)
(0.00201415 0.119965 0)
(0.00301782 0.119556 0)
(0.00421678 0.119817 0)
(0.00524789 0.120051 0)
(0.00634777 0.120296 0)
(0.0074586 0.120537 0)
(0.00861698 0.12074 0)
(0.00976161 0.120861 0)
(0.0108446 0.120879 0)
(0.0118805 0.120636 0)
(0.0128494 0.120077 0)
(0.0138401 0.119211 0)
(0.0149249 0.118179 0)
(0.016179 0.116913 0)
(0.0176349 0.11535 0)
(0.0193343 0.113401 0)
(0.0212347 0.111047 0)
(0.0233241 0.10822 0)
(0.0256008 0.104971 0)
(0.0279783 0.10123 0)
(0.0303629 0.0969341 0)
(0.0327547 0.0921059 0)
(0.000893873 0.131242 0)
(0.00204153 0.118694 0)
(0.00279747 0.118262 0)
(0.0038762 0.118524 0)
(0.00478271 0.118744 0)
(0.00580245 0.118975 0)
(0.00687821 0.119236 0)
(0.00801221 0.119476 0)
(0.00916292 0.119627 0)
(0.0103058 0.119698 0)
(0.0114088 0.119588 0)
(0.0124736 0.119199 0)
(0.0135023 0.118541 0)
(0.0144446 0.117456 0)
(0.0153555 0.115865 0)
(0.0162481 0.113882 0)
(0.0173189 0.111651 0)
(0.01867 0.109154 0)
(0.0202892 0.106305 0)
(0.0220503 0.102951 0)
(0.0239184 0.0990925 0)
(0.0258024 0.0947524 0)
(0.0276561 0.0899352 0)
(0.000982801 0.129894 0)
(0.00186788 0.118143 0)
(0.0021741 0.117749 0)
(0.00294003 0.117984 0)
(0.00353218 0.118159 0)
(0.00430903 0.118305 0)
(0.00513004 0.118348 0)
(0.00606733 0.118413 0)
(0.0071217 0.118508 0)
(0.00828283 0.118544 0)
(0.00949454 0.118463 0)
(0.0106967 0.118166 0)
(0.0118336 0.117541 0)
(0.012882 0.116549 0)
(0.0138505 0.115217 0)
(0.0148092 0.113445 0)
(0.0157494 0.111071 0)
(0.0165045 0.108063 0)
(0.0172843 0.104751 0)
(0.0184447 0.101286 0)
(0.0198196 0.0974579 0)
(0.0212279 0.0931191 0)
(0.0225866 0.0882989 0)
(0.00100058 0.128448 0)
(0.0012737 0.117815 0)
(0.000730122 0.117344 0)
(0.000854444 0.117424 0)
(0.000820478 0.117515 0)
(0.00110392 0.117519 0)
(0.00144406 0.117478 0)
(0.00201 0.117401 0)
(0.0028031 0.11733 0)
(0.00384519 0.117212 0)
(0.00509541 0.117042 0)
(0.00645627 0.116725 0)
(0.00782273 0.116139 0)
(0.0092446 0.115258 0)
(0.0106377 0.113988 0)
(0.0119035 0.112271 0)
(0.0129684 0.110146 0)
(0.0138858 0.107644 0)
(0.0147762 0.104418 0)
(0.0153801 0.100454 0)
(0.0158261 0.0962514 0)
(0.0166815 0.0918938 0)
(0.0175502 0.0871497 0)
(0.000823606 0.127575 0)
(0.000237668 0.118308 0)
(-0.00157817 0.117978 0)
(-0.00242678 0.117799 0)
(-0.00341502 0.117682 0)
(-0.00396309 0.117522 0)
(-0.00435313 0.117287 0)
(-0.00442153 0.116952 0)
(-0.00417548 0.116518 0)
(-0.00354336 0.116049 0)
(-0.0024701 0.115602 0)
(-0.000963877 0.115127 0)
(0.000820408 0.114509 0)
(0.00268913 0.11362 0)
(0.00456168 0.112436 0)
(0.00629215 0.110845 0)
(0.00785967 0.108822 0)
(0.00944975 0.106331 0)
(0.0107532 0.103439 0)
(0.0117183 0.100205 0)
(0.012448 0.0961602 0)
(0.0125854 0.091396 0)
(0.0126187 0.0865055 0)
(0.000477472 0.12741 0)
(-0.00127547 0.119929 0)
(-0.00413375 0.119558 0)
(-0.00609096 0.119112 0)
(-0.00814928 0.118711 0)
(-0.0097299 0.118276 0)
(-0.0110172 0.117765 0)
(-0.0119572 0.117177 0)
(-0.0125673 0.116518 0)
(-0.0127261 0.115656 0)
(-0.0124389 0.114663 0)
(-0.0116447 0.113598 0)
(-0.0102398 0.112527 0)
(-0.0082589 0.111401 0)
(-0.00579062 0.11012 0)
(-0.00299247 0.108689 0)
(-0.000149033 0.106959 0)
(0.00229871 0.104778 0)
(0.0042911 0.102082 0)
(0.00602531 0.098921 0)
(0.00737964 0.0954598 0)
(0.00820115 0.0916441 0)
(0.00807018 0.0868832 0)
(9.90013e-05 0.128095 0)
(-0.0023896 0.123013 0)
(-0.00592623 0.122578 0)
(-0.00860432 0.121917 0)
(-0.0113563 0.121194 0)
(-0.0137139 0.120337 0)
(-0.0156948 0.119425 0)
(-0.0172822 0.118386 0)
(-0.018344 0.117167 0)
(-0.0190588 0.115842 0)
(-0.0193549 0.114388 0)
(-0.0192036 0.112893 0)
(-0.018618 0.1113 0)
(-0.017585 0.109547 0)
(-0.0160601 0.107684 0)
(-0.014029 0.105737 0)
(-0.0115032 0.103711 0)
(-0.00851209 0.101651 0)
(-0.00525877 0.0994666 0)
(-0.00227913 0.0970338 0)
(7.01321e-05 0.0942296 0)
(0.00169027 0.0908147 0)
(0.00260397 0.0868702 0)
(-0.000283058 0.129303 0)
(-0.00289556 0.125816 0)
(-0.00631588 0.125229 0)
(-0.00910962 0.124399 0)
(-0.0120101 0.123485 0)
(-0.0146514 0.122414 0)
(-0.0170605 0.121195 0)
(-0.0191666 0.119823 0)
(-0.0209848 0.118321 0)
(-0.0224344 0.116689 0)
(-0.0234526 0.114907 0)
(-0.0240231 0.112956 0)
(-0.0241002 0.110874 0)
(-0.0237151 0.108655 0)
(-0.0229113 0.106323 0)
(-0.0217017 0.103893 0)
(-0.0200514 0.101401 0)
(-0.0179402 0.0988747 0)
(-0.0154159 0.0963662 0)
(-0.0125702 0.093864 0)
(-0.00951812 0.0914721 0)
(-0.00661426 0.089135 0)
(-0.00437938 0.0862271 0)
(-0.000739464 0.132717 0)
(-0.00361142 0.130927 0)
(-0.00696322 0.130351 0)
(-0.00988002 0.129408 0)
(-0.0129092 0.1283 0)
(-0.0157215 0.126927 0)
(-0.0183752 0.125327 0)
(-0.0207945 0.123502 0)
(-0.02295 0.121461 0)
(-0.024801 0.119221 0)
(-0.0263245 0.116792 0)
(-0.0274942 0.114179 0)
(-0.0282674 0.111403 0)
(-0.0285882 0.108552 0)
(-0.0284313 0.105502 0)
(-0.0277854 0.102421 0)
(-0.0267455 0.0992828 0)
(-0.0253353 0.0961108 0)
(-0.023575 0.093021 0)
(-0.0215706 0.0900578 0)
(-0.0193368 0.0872693 0)
(-0.0169637 0.0847889 0)
(-0.0145259 0.0826037 0)
)
;

boundaryField
{
    leftWall
    {
        type            fixedValue;
        value           uniform (0 0 0);
    }
    rightWall
    {
        type            fixedValue;
        value           nonuniform 0();
    }
    lowerWall
    {
        type            fixedValue;
        value           nonuniform 0();
    }
    atmosphere
    {
        type            fluxCorrectedVelocity;
        value           nonuniform List<vector> 
23
(
(-0.000739464 0.132715 0)
(-0.00361142 0.130923 0)
(-0.00696322 0.130346 0)
(-0.00988002 0.129403 0)
(-0.0129092 0.128294 0)
(-0.0157215 0.126921 0)
(-0.0183752 0.125321 0)
(-0.0207945 0.123495 0)
(-0.02295 0.121453 0)
(-0.024801 0.119212 0)
(-0.0263245 0.116782 0)
(-0.0274942 0.114169 0)
(-0.0282674 0.111392 0)
(-0.0285882 0.10854 0)
(-0.0284313 0.10549 0)
(-0.0277854 0.102409 0)
(-0.0267455 0.0992704 0)
(-0.0253353 0.0960982 0)
(-0.023575 0.0930081 0)
(-0.0215706 0.0900441 0)
(-0.0193368 0.0872548 0)
(-0.0169637 0.0847736 0)
(-0.0145259 0.0825888 0)
)
;
    }
    defaultFaces
    {
        type            empty;
    }
    procBoundary2to0
    {
        type            processor;
        value           nonuniform List<vector> 
24
(
(-0.0400314 0.146851 0)
(-0.0528009 0.170126 0)
(-0.0592481 0.203935 0)
(-0.0570782 0.24117 0)
(-0.0501594 0.272757 0)
(-0.0266891 0.305682 0)
(0.00942501 0.340074 0)
(0.00419469 0.163941 0)
(0.0100435 0.14322 0)
(0.0138302 0.135453 0)
(0.0141598 0.129316 0)
(0.0120889 0.124062 0)
(0.0083917 0.120527 0)
(0.00347961 0.119096 0)
(-0.0006396 0.120741 0)
(-0.00438694 0.123157 0)
(-0.00617022 0.128947 0)
(-0.00376244 0.133017 0)
(-0.000920316 0.134335 0)
(-0.000972859 0.133916 0)
(-0.00441428 0.135833 0)
(-0.0112117 0.137679 0)
(-0.02034 0.145548 0)
(-0.02034 0.145548 0)
)
;
    }
    procBoundary2to3
    {
        type            processor;
        value           nonuniform List<vector> 
25
(
(0.0610943 0.316738 0)
(0.0758565 0.278 0)
(0.0884694 0.249634 0)
(0.0888399 0.224097 0)
(0.092427 0.200081 0)
(0.0901027 0.182464 0)
(0.0896435 0.162817 0)
(0.0853595 0.147479 0)
(0.0803517 0.135714 0)
(0.0755525 0.124038 0)
(0.0694155 0.116047 0)
(0.0635738 0.108564 0)
(0.0575607 0.102934 0)
(0.0516876 0.0980607 0)
(0.0458727 0.094124 0)
(0.0401971 0.0908515 0)
(0.0346066 0.0881735 0)
(0.0290935 0.0860398 0)
(0.0236348 0.0844226 0)
(0.0182191 0.0833066 0)
(0.0128975 0.0827084 0)
(0.00772848 0.0827913 0)
(0.00276635 0.0833597 0)
(-0.0037487 0.0834721 0)
(-0.0134325 0.0806871 0)
)
;
    }
}


// ************************************************************************* //
