/*--------------------------------*- C++ -*----------------------------------*\
| =========                 |                                                 |
| \\      /  F ield         | OpenFOAM: The Open Source CFD Toolbox           |
|  \\    /   O peration     | Version:  2.4.0                                 |
|   \\  /    A nd           | Web:      www.OpenFOAM.org                      |
|    \\/     M anipulation  |                                                 |
\*---------------------------------------------------------------------------*/
FoamFile
{
    version     2.0;
    format      ascii;
    class       volScalarField;
    location    "0.5";
    object      alpha.mercury;
}
// * * * * * * * * * * * * * * * * * * * * * * * * * * * * * * * * * * * * * //

dimensions      [0 0 0 0 0 0 0];

internalField   nonuniform List<scalar> 
559
(
0.999986
0.999984
0.999985
0.999985
0.999984
0.999982
0.999978
0.999976
0.0038837
0.00398309
0.00511121
0.0114351
0.0200099
0.0326631
0.0503294
0.0675631
0.0801741
0.0935631
0.107484
0.124557
0.168217
0.233785
0.334049
0.384937
0.387772
0.389369
0.390154
0.00315726
0.0025733
0.00199604
0.00157698
0.0016216
0.0038608
0.0088773
0.0157613
0.0190521
0.0147226
0.0106953
0.000668374
0.000107181
0.00041639
0.00790283
0.0558145
0.198821
0.389027
0.390936
0.00769357
0.0130136
0.01162
0.00941585
0.0114601
0.0206278
0.0332082
0.0476601
0.0589617
0.0513999
0.0210282
0.00225304
0.000133811
0.000284593
0.00265391
0.0422319
0.0686155
0.251886
0.391716
0.021142
0.0353831
0.0332584
0.0316065
0.0392635
0.0555899
0.071111
0.0842716
0.098926
0.108611
0.0756628
0.0155484
0.0012596
0.000290094
0.00373639
0.059497
0.068633
0.092198
0.392497
0.0476552
0.0787494
0.0799793
0.0805942
0.093757
0.114416
0.120307
0.119365
0.12479
0.140589
0.126955
0.0432572
0.00350478
0.000375377
0.00499198
0.0483882
0.0800027
0.0585247
0.346562
0.102165
0.148759
0.157667
0.160734
0.177846
0.189451
0.178013
0.155434
0.146534
0.157656
0.166076
0.0768087
0.004144
0.000392236
0.00574541
0.0424761
0.0851229
0.0507307
0.291489
0.21276
0.245286
0.25554
0.255343
0.261924
0.249801
0.22005
0.183604
0.157344
0.162076
0.166898
0.0749994
0.00179916
0.000390561
0.00171295
0.0732078
0.0852388
0.0397846
0.235983
0.440768
0.390448
0.34254
0.341292
0.318995
0.279633
0.236466
0.193796
0.161155
0.163915
0.166374
0.122603
0.013753
0.00106425
0.00214166
0.0681843
0.076994
0.0255542
0.183565
0.9999
0.982536
0.405317
0.013572
0.00112513
9.08222e-06
5.97744e-07
1.61235e-07
0.999371
0.997631
0.994094
0.987884
0.98798
0.981682
0.964021
0.933335
0.480101
0.50649
0.483998
0.433968
0.0157151
0.0166715
0.0174481
0.0183574
0.000892409
0.000666931
0.000499904
0.000377455
9.78567e-06
9.92663e-06
1.04946e-05
1.16493e-05
1.10373e-06
1.52823e-06
1.94891e-06
2.29986e-06
1.89066e-07
1.81335e-07
1.72666e-07
1.7134e-07
5.61399e-10
4.08757e-10
1.67075e-10
6.22749e-11
2.20489e-14
3.98632e-14
7.21663e-14
1.36176e-13
1.6946e-14
4.48579e-14
1.11923e-13
2.74332e-13
4.14999e-14
1.13457e-13
2.78585e-13
6.76173e-13
8.31216e-14
1.92e-13
4.23071e-13
1.00511e-12
1.30869e-13
2.61108e-13
5.11545e-13
9.93955e-13
5.80452e-14
1.03845e-13
1.85599e-13
3.45335e-13
9.43051e-15
1.68181e-14
3.14986e-14
6.60123e-14
8.0255e-16
1.3788e-15
2.51526e-15
5.35303e-15
0.781012
0.600399
0.445784
0.397082
0.327154
0.260713
0.215166
0.185379
0.158015
0.156057
0.167251
0.166549
0.166819
0.157924
0.156603
0.128569
0.0490243
0.0100745
0.129098
0.834405
0.653465
0.478235
0.287142
0.173704
0.121482
0.103792
0.0993417
0.0979838
0.0979254
0.116783
0.147187
0.145838
0.124843
0.0737442
0.029421
0.00893177
0.00317365
0.0818378
0.311611
0.190112
0.124843
0.084159
0.0408547
0.0279031
0.0228741
0.026692
0.0359945
0.0427073
0.0417817
0.0362451
0.0262476
0.0141781
0.00661386
0.00348109
0.00212797
0.00152563
0.0495592
0.0189441
0.0154234
0.0117294
0.00842952
0.00481982
0.00309872
0.00344002
0.00679936
0.0129534
0.0195607
0.0195005
0.0160768
0.0103646
0.00451711
0.00173451
0.00149888
0.00135702
0.000902278
0.026657
0.000284213
0.000286183
0.000367983
0.00051353
0.000495279
0.000446454
0.000565633
0.00151692
0.00565987
0.007125
0.00758348
0.00633907
0.00341371
0.0011061
0.00133587
0.00138837
0.000779402
0.000505331
0.0122642
1.57232e-05
3.02439e-05
3.49878e-05
3.0861e-05
2.66144e-05
2.94127e-05
9.3947e-05
0.000726172
0.00171711
0.00282521
0.00236029
0.0012577
0.0005307
0.000264722
0.000433813
0.00146513
0.00170516
0.000394267
0.00463942
2.52084e-06
1.88066e-06
7.3957e-07
2.06547e-07
1.62124e-07
3.46571e-07
2.55352e-06
2.67428e-05
7.65312e-05
9.26642e-05
8.75724e-05
5.44023e-05
4.4477e-05
8.69248e-05
0.000315237
0.0010731
0.00106339
0.000418059
0.00148061
1.12811e-07
2.52499e-08
1.47611e-09
5.10584e-10
9.59972e-10
2.37295e-09
6.7647e-09
3.17044e-08
7.85793e-08
4.2746e-07
2.46107e-06
1.20816e-05
2.81458e-05
4.30922e-05
9.38665e-05
0.00015982
0.000193037
0.000342656
0.000720781
1.14228e-11
9.08402e-12
4.01894e-11
1.82504e-10
8.68666e-10
2.45045e-09
4.31929e-09
1.14882e-08
1.87791e-08
3.42923e-08
1.23475e-06
9.38632e-06
2.00464e-05
2.91082e-05
3.57698e-05
3.87297e-05
7.25024e-05
0.000284511
0.000788952
7.5499e-13
5.58088e-12
4.3519e-11
4.17538e-10
2.63444e-09
7.2291e-09
1.54665e-08
2.83371e-08
3.33479e-08
3.24476e-08
2.02902e-07
3.75898e-06
1.46102e-05
2.47829e-05
3.04406e-05
3.62294e-05
5.55725e-05
0.00018152
0.000462619
1.51877e-12
1.08549e-11
1.35594e-10
1.08261e-09
4.82818e-09
1.13224e-08
2.30251e-08
3.86382e-08
5.17172e-08
3.98718e-08
4.1936e-08
5.31806e-07
5.40194e-06
1.52898e-05
2.23373e-05
2.67317e-05
3.08954e-05
5.03794e-05
9.66424e-05
2.76418e-12
2.26645e-11
1.70629e-10
1.18754e-09
4.13694e-09
8.78277e-09
1.64732e-08
2.91645e-08
4.04526e-08
5.15988e-08
3.25427e-08
2.44983e-08
5.09498e-07
3.70053e-06
8.25563e-06
9.99336e-06
8.38484e-06
5.70124e-06
5.32048e-06
3.2632e-12
1.44694e-11
7.68537e-11
4.26968e-10
2.42982e-09
5.25632e-09
8.17616e-09
1.22359e-08
1.9069e-08
3.37342e-08
4.32224e-08
1.01429e-08
1.07386e-08
1.54254e-07
8.30973e-07
1.33539e-06
1.44013e-06
1.13459e-06
1.10596e-06
2.06062e-12
8.41924e-12
4.17955e-11
2.1153e-10
9.49688e-10
1.84771e-09
3.36604e-09
6.15311e-09
1.09541e-08
1.92333e-08
4.32779e-08
1.10416e-08
7.47154e-09
7.47159e-09
1.43148e-08
4.06311e-08
8.86486e-08
1.70471e-07
2.2217e-07
7.23487e-13
2.99086e-12
1.41132e-11
5.93046e-11
1.97418e-10
5.52454e-10
1.41583e-09
3.34431e-09
7.14986e-09
1.36124e-08
2.96074e-08
2.70475e-08
8.55574e-09
7.47144e-09
7.47153e-09
8.43315e-09
6.89379e-09
1.27294e-08
3.12815e-08
1.61055e-13
7.53683e-13
3.50007e-12
1.46187e-11
5.50522e-11
1.9271e-10
6.39176e-10
1.91086e-09
4.8949e-09
1.05024e-08
2.05467e-08
3.25499e-08
1.55434e-08
7.74872e-09
1.06499e-08
1.98226e-08
5.39994e-09
3.12628e-09
1.5541e-08
1.38645e-14
7.38049e-14
4.05169e-13
2.15045e-12
1.12161e-11
5.72105e-11
2.65038e-10
1.03659e-09
3.25002e-09
8.02752e-09
1.66255e-08
3.23192e-08
2.05741e-08
7.68813e-09
9.8921e-09
2.21143e-08
1.32598e-08
1.94198e-09
1.08802e-08
)
;

boundaryField
{
    leftWall
    {
        type            zeroGradient;
    }
    rightWall
    {
        type            zeroGradient;
    }
    lowerWall
    {
        type            zeroGradient;
    }
    atmosphere
    {
        type            inletOutlet;
        inletValue      nonuniform 0();
        value           nonuniform 0();
    }
    defaultFaces
    {
        type            empty;
    }
    procBoundary1to0
    {
        type            processor;
        value           nonuniform List<scalar> 
26
(
0.999999
0.999999
0.999999
0.999999
0.999999
0.999998
0.999996
0.999996
0.99914
0.907471
0.226865
0.0102371
0.00121776
6.57233e-06
1.12961e-07
5.49067e-08
4.25957e-10
4.25957e-10
1.34457e-14
6.92935e-15
1.34279e-14
2.60072e-14
4.22099e-14
2.10265e-14
3.60083e-15
3.21507e-16
)
;
    }
    procBoundary1to3
    {
        type            processor;
        value           nonuniform List<scalar> 
23
(
3.0963e-17
4.99417e-17
9.65043e-17
2.56808e-16
8.96152e-16
6.69772e-15
4.96539e-14
3.56459e-13
2.49029e-12
1.64674e-11
9.84357e-11
4.84083e-10
1.87936e-09
5.48814e-09
1.22514e-08
2.38002e-08
1.88772e-08
7.68354e-09
1.03815e-08
2.0416e-08
1.33849e-08
1.16796e-09
7.39241e-09
)
;
    }
}


// ************************************************************************* //
