/*--------------------------------*- C++ -*----------------------------------*\
| =========                 |                                                 |
| \\      /  F ield         | OpenFOAM: The Open Source CFD Toolbox           |
|  \\    /   O peration     | Version:  2.4.0                                 |
|   \\  /    A nd           | Web:      www.OpenFOAM.org                      |
|    \\/     M anipulation  |                                                 |
\*---------------------------------------------------------------------------*/
FoamFile
{
    version     2.0;
    format      ascii;
    class       volScalarField;
    location    "0.5";
    object      alpha.water;
}
// * * * * * * * * * * * * * * * * * * * * * * * * * * * * * * * * * * * * * //

dimensions      [0 0 0 0 0 0 0];

internalField   nonuniform List<scalar> 
559
(
1.73145e-10
3.2969e-10
1.70328e-09
6.79392e-09
2.53875e-08
5.34121e-08
2.94098e-07
8.63501e-07
1.23884e-07
6.77165e-07
1.12763e-06
1.3278e-06
1.43005e-06
1.68869e-06
1.96252e-06
2.24379e-06
2.90625e-06
7.7616e-06
3.69366e-05
0.000196904
0.000851357
0.00246269
0.00432478
0.00383811
0.00175637
0.000844261
0.000378846
6.44346e-08
3.2682e-07
4.90134e-07
4.37775e-07
4.35602e-07
4.61064e-07
5.9411e-07
7.06777e-07
7.019e-07
1.33562e-06
1.10667e-05
1.87465e-05
5.11198e-05
0.000606989
0.00487783
0.00989069
0.00805463
0.00239707
0.000551331
2.45091e-08
2.01196e-07
5.77734e-07
7.41875e-07
7.41803e-07
7.28894e-07
8.48532e-07
1.11504e-06
1.18173e-06
1.17979e-06
2.2743e-06
7.99209e-06
1.91899e-05
5.08874e-05
0.000443319
0.00989826
0.0133298
0.00613189
0.00106182
9.14491e-09
6.29869e-08
2.99328e-07
5.78784e-07
5.12989e-07
4.01842e-07
5.15347e-07
9.02745e-07
1.33742e-06
1.41924e-06
8.24541e-07
3.34879e-07
2.39342e-07
1.36445e-06
0.000104011
0.00994349
0.0153136
0.0112534
0.00182834
6.51125e-09
2.0297e-08
8.8028e-08
2.04205e-07
1.66003e-07
1.25674e-07
1.64297e-07
3.55696e-07
3.4689e-06
1.1596e-05
8.00114e-06
6.81664e-07
1.71504e-07
6.71744e-07
6.0348e-05
0.00465369
0.0235248
0.0169325
0.00279466
8.42246e-08
3.24443e-08
3.14162e-08
2.97534e-08
2.94979e-08
3.07013e-08
4.43244e-08
1.48514e-07
1.81451e-05
0.000124739
0.000505443
5.55857e-05
3.98372e-07
3.83679e-07
4.34668e-05
0.00362249
0.0281936
0.022862
0.00408647
5.57702e-06
2.15034e-05
2.83853e-06
3.36884e-08
2.34984e-07
2.16473e-06
9.43379e-07
2.14339e-07
3.62486e-05
0.000671379
0.00532547
0.000740811
1.92758e-06
4.10856e-07
1.99262e-05
0.00816409
0.0345696
0.0288671
0.006136
5.57535e-06
0.00307327
0.00154223
1.79841e-05
0.000679513
0.00147976
0.000926072
0.000236056
5.36661e-05
0.00338061
0.0231744
0.00515791
7.51088e-05
1.64563e-06
5.58754e-05
0.0112342
0.0469083
0.0388011
0.00875447
7.37806e-05
0.0171091
0.588018
0.983117
0.978506
0.590799
0.0627468
0.0004318
0.000360198
0.000940278
0.00158102
0.0025716
0.0112359
0.0166721
0.0325123
0.0580901
0.511215
0.484487
0.506313
0.554257
0.979107
0.976081
0.972565
0.968151
0.967079
0.953498
0.934773
0.913552
0.552461
0.521994
0.490044
0.45847
0.073108
0.0834118
0.0848631
0.0785656
0.000403179
0.000342535
0.000242937
0.000163756
5.512e-07
4.67541e-07
2.53769e-07
9.84862e-08
1.4232e-11
3.7418e-11
7.18961e-11
1.41641e-10
1.1961e-12
7.30292e-13
5.39355e-13
7.71268e-13
2.62082e-13
2.23043e-13
3.72149e-13
1.36559e-12
8.73928e-14
1.65732e-13
4.63227e-13
2.06046e-12
8.8827e-14
2.23936e-13
5.79479e-13
1.3985e-12
1.13591e-14
2.44441e-14
5.43454e-14
1.16215e-13
8.31506e-16
1.14397e-15
1.91128e-15
3.8507e-15
1.92254e-16
2.16195e-16
2.50049e-16
3.20079e-16
0.0216297
0.0718252
0.104451
0.101651
0.11556
0.12443
0.115275
0.0969858
0.0808381
0.0811075
0.0847045
0.0701092
0.031301
0.0239576
0.031512
0.0687441
0.0803834
0.0560626
0.0137837
0.134706
0.270812
0.384722
0.475304
0.505367
0.507533
0.482863
0.437697
0.393298
0.359803
0.321316
0.278787
0.259165
0.240415
0.21203
0.181007
0.126589
0.0622178
0.0190786
0.671234
0.779252
0.812584
0.800789
0.791459
0.766185
0.752281
0.728321
0.694894
0.662505
0.625817
0.576044
0.514232
0.433915
0.314477
0.213475
0.127849
0.0606361
0.0214987
0.954973
0.917961
0.854224
0.756363
0.703515
0.709554
0.722136
0.725663
0.72353
0.716348
0.679401
0.611601
0.539102
0.433454
0.275288
0.181304
0.106793
0.0535555
0.0197914
0.845468
0.690376
0.544193
0.413686
0.36238
0.372408
0.409472
0.476379
0.53054
0.527407
0.516027
0.47587
0.408374
0.279014
0.198276
0.101558
0.0421813
0.0352978
0.0146113
0.368565
0.278332
0.150257
0.0638084
0.0481592
0.0625184
0.125936
0.223278
0.254775
0.25613
0.228585
0.162374
0.109714
0.0647703
0.0447342
0.0330266
0.0312124
0.0149193
0.00813295
0.0514937
0.0158122
0.00174704
7.43728e-05
2.89914e-05
0.000146226
0.00295469
0.0177577
0.023688
0.021009
0.0147266
0.00658896
0.00844609
0.00812705
0.0103722
0.0121484
0.00804615
0.00653055
0.0032158
0.000102805
1.03661e-05
2.58537e-07
9.33594e-09
1.33887e-08
3.90493e-08
2.45336e-07
1.99425e-06
5.78008e-06
2.2136e-05
0.000167666
0.000469994
0.000739151
0.000488362
0.000519566
0.000680547
0.000666493
0.00157027
0.000768574
2.11502e-08
1.53883e-09
1.00631e-09
3.19487e-09
1.24225e-08
3.08821e-08
5.95648e-08
8.205e-08
6.74151e-08
1.69265e-06
2.97285e-05
6.47963e-05
5.76516e-05
2.01018e-05
5.71384e-06
4.97956e-06
1.76918e-05
0.000175514
0.000389134
1.15427e-10
1.16165e-10
7.83739e-10
7.18415e-09
3.79197e-08
9.44238e-08
1.35501e-07
1.23934e-07
4.35934e-08
9.06857e-08
1.52617e-06
7.03012e-06
1.10014e-05
4.42821e-06
1.404e-07
2.88432e-08
4.68023e-07
1.50591e-05
7.63702e-05
1.8192e-11
2.36187e-10
3.11912e-09
1.54202e-08
5.92087e-08
1.16571e-07
1.15861e-07
4.36173e-08
2.06194e-08
1.80263e-08
3.22284e-08
2.15135e-07
5.05848e-07
4.81882e-07
4.40388e-09
2.21909e-09
1.01197e-08
5.32318e-07
5.06119e-06
3.66474e-11
4.87185e-10
3.40913e-09
6.99248e-09
8.58338e-09
1.72794e-08
2.37104e-08
7.05845e-09
4.32654e-09
1.08524e-08
9.82573e-09
2.78698e-09
3.66326e-09
7.00378e-09
4.78984e-10
6.13611e-10
6.00172e-10
2.33812e-09
2.83477e-08
1.18291e-11
5.06534e-11
2.87552e-10
8.58292e-10
1.52404e-09
1.77347e-09
1.39777e-09
8.48256e-10
1.41839e-09
4.39515e-09
1.50783e-08
2.28943e-09
1.78162e-10
1.50683e-10
1.6664e-10
2.68769e-10
3.49936e-10
3.50307e-10
3.43827e-10
3.06764e-12
9.66385e-12
2.58511e-11
6.42766e-11
1.61056e-10
2.02855e-10
2.10594e-10
2.79882e-10
6.6402e-10
1.89109e-09
1.20287e-08
7.16401e-09
6.60429e-10
1.37202e-10
1.07579e-10
1.08814e-10
1.58438e-10
2.59207e-10
2.68615e-10
2.35179e-13
7.03522e-13
1.94147e-12
4.81549e-12
1.0488e-11
2.06132e-11
4.65625e-11
1.38197e-10
4.35498e-10
1.25577e-09
5.5068e-09
1.10236e-08
2.36699e-09
3.10881e-10
2.03421e-10
7.62767e-11
3.95389e-11
1.46886e-10
2.27314e-10
8.88656e-15
3.61824e-14
1.37085e-13
4.45078e-13
1.32162e-12
4.49222e-12
1.91861e-11
8.36924e-11
3.16751e-10
1.00565e-09
3.04805e-09
1.10264e-08
6.45064e-09
9.88974e-10
8.48264e-10
3.12701e-10
3.69941e-11
6.54445e-11
1.80814e-10
5.13489e-16
1.72973e-15
7.36256e-15
3.31996e-14
1.79725e-13
1.2211e-12
8.32717e-12
4.79212e-11
2.18547e-10
7.94673e-10
2.55364e-09
8.76808e-09
8.17762e-09
2.721e-09
2.20116e-09
8.42768e-10
5.07545e-11
4.65422e-11
1.58135e-10
)
;

boundaryField
{
    leftWall
    {
        type            zeroGradient;
    }
    rightWall
    {
        type            zeroGradient;
    }
    lowerWall
    {
        type            zeroGradient;
    }
    atmosphere
    {
        type            inletOutlet;
        inletValue      nonuniform 0();
        value           nonuniform 0();
    }
    defaultFaces
    {
        type            empty;
    }
    procBoundary1to0
    {
        type            processor;
        value           nonuniform List<scalar> 
26
(
9.91955e-10
1.60487e-09
5.09229e-09
4.04611e-08
1.09424e-07
3.36652e-07
1.69097e-06
1.35171e-06
0.000813569
0.0914023
0.769184
0.987643
0.985503
0.629929
0.0460124
0.000358701
5.25373e-07
5.25373e-07
6.02593e-12
1.83226e-12
3.98387e-13
7.39281e-14
3.94923e-14
7.21559e-15
1.0319e-15
1.88805e-16
)
;
    }
    procBoundary1to3
    {
        type            processor;
        value           nonuniform List<scalar> 
23
(
5.00866e-17
5.55829e-17
6.01602e-17
6.47189e-17
7.38661e-17
1.38508e-16
5.70395e-16
3.95074e-15
3.63069e-14
3.58305e-13
3.14019e-12
2.2419e-11
1.24677e-10
5.24604e-10
1.73075e-09
5.20545e-09
7.33971e-09
4.49852e-09
2.65014e-09
8.63953e-10
5.20459e-11
2.96635e-11
1.31513e-10
)
;
    }
}


// ************************************************************************* //
