/*--------------------------------*- C++ -*----------------------------------*\
| =========                 |                                                 |
| \\      /  F ield         | OpenFOAM: The Open Source CFD Toolbox           |
|  \\    /   O peration     | Version:  2.4.0                                 |
|   \\  /    A nd           | Web:      www.OpenFOAM.org                      |
|    \\/     M anipulation  |                                                 |
\*---------------------------------------------------------------------------*/
FoamFile
{
    version     2.0;
    format      ascii;
    class       volScalarField;
    location    "0.5";
    object      alpha.air;
}
// * * * * * * * * * * * * * * * * * * * * * * * * * * * * * * * * * * * * * //

dimensions      [0 0 0 0 0 0 0];

internalField   nonuniform List<scalar> 
559
(
3.64047e-16
2.6089e-15
1.35969e-14
2.78603e-14
5.08249e-14
7.63166e-14
1.26037e-13
2.0556e-13
1.55633e-05
2.19172e-06
1.41327e-06
4.99629e-06
6.27818e-06
5.98364e-06
1.24382e-05
6.13413e-05
0.000115661
0.000120425
0.00010703
0.000280742
0.000429525
0.000103128
6.76918e-06
2.23876e-06
2.21292e-06
8.62315e-06
0.000181511
2.23361e-05
6.79654e-06
5.75729e-06
2.50384e-05
4.62218e-05
5.43687e-05
6.1192e-05
0.000123413
0.000347619
0.00115288
0.00350158
0.0129428
0.0146607
0.0142935
0.00303005
7.41319e-05
1.0976e-05
1.68509e-05
0.000217902
2.23361e-05
7.91221e-06
6.56663e-06
1.66631e-05
4.7004e-05
0.000240111
0.000422037
0.000531399
0.000642738
0.00089991
0.00894096
0.388431
0.673504
0.410994
0.0369731
0.0034525
0.000135137
2.1268e-05
0.00021801
8.04624e-06
1.44326e-06
1.44326e-06
1.4574e-06
6.60649e-06
3.86957e-05
0.000307643
0.000976287
0.00209079
0.011791
0.253177
0.848159
0.990872
0.998258
0.919451
0.210809
0.00418675
0.000118953
7.97378e-05
1.61048e-06
1.60362e-06
1.44326e-06
1.44326e-06
1.44326e-06
3.10601e-06
4.30824e-05
0.000408552
0.00199351
0.0264446
0.423949
0.900899
0.994502
0.998567
0.993782
0.840537
0.0742328
0.000950145
1.61795e-05
5.66206e-05
0.000398436
7.17432e-05
4.51722e-06
1.50215e-06
1.69465e-06
1.96815e-05
0.000592997
0.00390413
0.0141287
0.145533
0.742626
0.990723
0.998561
0.993168
0.913033
0.201885
0.00389698
3.38914e-05
0.0255498
0.0290471
0.00638972
0.000455323
7.62313e-06
1.74141e-06
2.75876e-06
8.13038e-06
6.88885e-05
0.00140351
0.0678071
0.734105
0.995899
0.998562
0.997225
0.80889
0.195863
0.00484059
7.90583e-05
0.142918
0.14294
0.0745131
0.0128831
0.000208852
2.03367e-06
2.11515e-06
2.20131e-06
3.14985e-05
0.00126407
0.0517298
0.564081
0.976441
0.997891
0.996581
0.787883
0.174785
0.00431693
9.66626e-05
5.68265e-13
3.73344e-12
8.63534e-11
4.3489e-10
8.57532e-09
5.32706e-05
0.0220876
0.504643
1.99912e-09
6.98306e-06
9.13961e-05
0.000617593
8.39879e-09
5.27437e-07
1.09452e-05
0.000587926
2.75631e-10
2.18625e-09
5.56406e-06
9.70719e-05
1.1194e-09
4.34039e-09
1.96466e-08
3.05853e-08
3.52255e-08
1.08495e-07
3.09533e-07
7.35243e-07
0.000133335
0.000250032
0.000479001
0.0011862
0.0329725
0.044739
0.0645031
0.0941929
0.551174
0.60718
0.695687
0.78952
0.998806
0.999306
0.999787
0.999963
1
1
1
1
1
1
1
1
1
1
1
1
1
1
1
1
1
1
1
1
1
1
1
1
1
1
1
0.999999
1
1
0.999999
0.999999
0.0988576
0.139492
0.13968
0.0686194
0.0136059
0.00184982
0.000156684
7.66893e-05
0.000166986
0.00148517
0.0219887
0.168674
0.475936
0.588414
0.561196
0.344801
0.0715889
0.00173759
6.69552e-05
0.00918525
0.0262945
0.0404046
0.0672063
0.0668343
0.0281693
0.0036008
0.00064035
0.000311146
0.00083158
0.00087643
0.000555356
0.0019031
0.0109801
0.0206814
0.0139524
0.00397025
0.000155527
1.93724e-05
5.01407e-05
8.24498e-05
0.000297107
0.00753148
0.0260504
0.0276579
0.0153892
0.00203577
0.000149378
4.25619e-05
4.25622e-05
4.25619e-05
4.25622e-05
4.55048e-05
6.02336e-05
0.000431733
0.000821618
0.00016834
6.38925e-05
6.74906e-07
6.63609e-06
4.79167e-05
0.000476752
0.000633481
0.000680875
0.0028203
0.00227086
0.000521497
7.39733e-05
4.35524e-05
0.000117677
0.000175831
6.12333e-05
4.77751e-05
0.0013825
0.0284672
0.00406545
0.000666728
5.21279e-05
0.00149629
0.0106152
0.0445656
0.0466783
0.0369092
0.0150995
0.00372381
0.00154201
0.00159219
0.00498162
0.0226682
0.0262276
0.00880099
0.00960608
0.10445
0.170687
0.0315647
0.0022465
0.0124777
0.0892391
0.218031
0.430369
0.459433
0.357105
0.228975
0.130258
0.101737
0.120262
0.194679
0.341177
0.237318
0.0866985
0.169446
0.180151
0.180405
0.0954264
0.00287572
0.197235
0.455441
0.878365
0.988281
0.989166
0.962558
0.864777
0.737001
0.744252
0.807174
0.755628
0.406186
0.0755855
0.041968
0.160869
0.180605
0.176154
0.0535972
0.00193882
0.92551
0.995084
0.999963
0.999999
0.999999
0.999998
0.999978
0.99961
0.998864
0.984663
0.544778
0.0665316
0.00412243
0.00459379
0.0416692
0.106678
0.0453938
0.00905122
0.000872513
0.999995
0.999999
1
1
1
1
1
1
0.998358
0.852821
0.241076
0.0070945
0.00106699
0.00105564
0.00524777
0.014875
0.00871925
0.00189817
0.00102496
1
1
1
1
1
1
1
1
0.998681
0.913503
0.421272
0.0381743
0.00214388
0.000897426
0.000922126
0.00300183
0.00411418
0.00281245
0.00199159
1
1
1
1
1
1
1
1
0.999905
0.991414
0.859904
0.413971
0.0686539
0.00214005
0.000483121
0.000414659
0.001077
0.0014564
0.000978898
1
1
1
1
1
1
1
1
1
0.999857
0.993363
0.922967
0.614681
0.146841
0.00189494
0.000153625
0.000138322
0.000147086
0.000103218
1
1
1
1
1
1
1
1
1
1
0.999946
0.998279
0.976572
0.8011
0.322614
0.0387118
0.000685899
2.83987e-05
1.5916e-05
1
1
1
1
1
1
1
1
1
1
1
0.999996
0.999784
0.993879
0.931685
0.704187
0.304413
0.0188159
0.000369407
1
1
1
1
1
1
1
1
1
1
1
1
1
0.999983
0.999425
0.993296
0.941878
0.541998
0.0425139
0.999999
0.999999
0.999999
1
1
1
1
1
1
1
1
1
1
1
1
0.999994
0.997961
0.867235
0.139998
0.999999
0.999999
0.999999
0.999999
0.999999
1
1
1
1
1
1
1
1
1
1
1
0.997503
0.719363
0.092333
)
;

boundaryField
{
    leftWall
    {
        type            alphaContactAngle;
        thetaProperties 
6
(

(
water
mercury
)
 90 0 0 0

(
water
air
)
 90 0 0 0

(
water
oil
)
 90 0 0 0

(
mercury
air
)
 90 0 0 0

(
oil
mercury
)
 90 0 0 0

(
oil
air
)
 90 0 0 0
);
        value           nonuniform 0();
    }
    rightWall
    {
        type            alphaContactAngle;
        thetaProperties 
6
(

(
water
mercury
)
 90 0 0 0

(
water
air
)
 90 0 0 0

(
water
oil
)
 90 0 0 0

(
mercury
air
)
 90 0 0 0

(
oil
mercury
)
 90 0 0 0

(
oil
air
)
 90 0 0 0
);
        value           nonuniform List<scalar> 
25
(
0.000181511
0.000217902
0.00021801
7.97378e-05
1.61795e-05
3.38914e-05
7.90583e-05
9.66626e-05
6.69552e-05
1.93724e-05
6.38925e-05
0.000666728
0.0022465
0.00287572
0.00193882
0.000872513
0.00102496
0.00199159
0.000978898
0.000103218
1.5916e-05
0.000369407
0.0425139
0.139998
0.092333
)
;
    }
    lowerWall
    {
        type            alphaContactAngle;
        thetaProperties 
6
(

(
water
mercury
)
 90 0 0 0

(
water
air
)
 90 0 0 0

(
water
oil
)
 90 0 0 0

(
mercury
air
)
 90 0 0 0

(
oil
mercury
)
 90 0 0 0

(
oil
air
)
 90 0 0 0
);
        value           nonuniform List<scalar> 
40
(
3.64047e-16
3.64047e-16
2.6089e-15
1.35969e-14
2.78603e-14
5.08249e-14
7.63166e-14
1.26037e-13
2.0556e-13
1.99912e-09
6.98306e-06
9.13961e-05
0.000617593
1.55633e-05
2.23361e-05
2.23361e-05
8.04624e-06
1.61048e-06
5.66206e-05
0.0255498
0.142918
1.55633e-05
2.19172e-06
1.41327e-06
4.99629e-06
6.27818e-06
5.98364e-06
1.24382e-05
6.13413e-05
0.000115661
0.000120425
0.00010703
0.000280742
0.000429525
0.000103128
6.76918e-06
2.23876e-06
2.21292e-06
8.62315e-06
0.000181511
)
;
    }
    atmosphere
    {
        type            inletOutlet;
        inletValue      nonuniform 0();
        value           nonuniform 0();
    }
    defaultFaces
    {
        type            empty;
    }
    procBoundary1to0
    {
        type            processor;
        value           nonuniform List<scalar> 
26
(
1.57402e-15
1.06004e-14
4.44592e-14
1.12143e-13
2.15688e-13
3.6263e-13
5.39618e-13
6.89144e-13
1.28812e-12
1.06841e-11
3.21909e-10
9.14432e-10
3.26224e-09
1.5022e-05
0.0132031
0.447033
0.998393
0.998393
1
1
1
1
0.999999
0.999999
1
0.999999
)
;
    }
    procBoundary1to3
    {
        type            processor;
        value           nonuniform List<scalar> 
23
(
0.999999
0.999999
0.999999
0.999999
0.999999
0.999998
0.999998
0.999998
0.999999
0.999999
1
1
1
1
1
1
1
1
1
1
0.999698
0.456722
0.0448854
)
;
    }
}


// ************************************************************************* //
