/*--------------------------------*- C++ -*----------------------------------*\
| =========                 |                                                 |
| \\      /  F ield         | OpenFOAM: The Open Source CFD Toolbox           |
|  \\    /   O peration     | Version:  2.4.0                                 |
|   \\  /    A nd           | Web:      www.OpenFOAM.org                      |
|    \\/     M anipulation  |                                                 |
\*---------------------------------------------------------------------------*/
FoamFile
{
    version     2.0;
    format      ascii;
    class       surfaceScalarField;
    location    "0.5";
    object      phi.oil;
}
// * * * * * * * * * * * * * * * * * * * * * * * * * * * * * * * * * * * * * //

dimensions      [0 3 -1 0 0 0 0];

internalField   nonuniform List<scalar> 
1061
(
5.35932e-06
8.61942e-06
1.48914e-05
2.03549e-05
2.5209e-05
2.81873e-05
3.08931e-05
3.42818e-05
-1.37796e-05
1.42928e-05
-2.16044e-05
8.29845e-06
-2.7292e-05
6.28005e-06
-3.16338e-05
5.37137e-06
-3.11217e-05
1.05144e-06
-2.36484e-05
-4.76897e-06
-1.46215e-05
-4.52816e-06
-4.78816e-06
-3.13049e-06
6.06541e-06
-2.20888e-06
1.37359e-05
2.91031e-06
8.0377e-06
1.79322e-05
6.57778e-06
1.45461e-05
7.27095e-06
1.36665e-05
1.19878e-05
2.38575e-05
9.74543e-06
3.54478e-05
1.94876e-05
2.44967e-05
2.34304e-05
2.8349e-05
1.23992e-05
3.77897e-05
4.79479e-05
-9.41748e-06
2.38975e-05
-1.16842e-05
1.10908e-05
-1.23549e-05
7.28908e-06
-1.52295e-05
7.93096e-06
-1.63611e-05
1.28876e-06
-8.75455e-06
-1.37955e-05
1.16356e-06
-1.65197e-05
8.98163e-06
-1.33855e-05
1.73841e-05
-1.30364e-05
1.99829e-05
-3.44428e-06
1.41179e-05
1.54821e-05
6.3923e-06
-3.08261e-06
6.01067e-06
-3.95198e-05
6.80487e-06
-2.12387e-05
4.55212e-06
3.73127e-07
2.38607e-05
-2.36608e-05
4.01729e-05
-1.38654e-06
2.87108e-05
4.80601e-05
8.16676e-05
-2.75659e-06
2.76617e-05
1.40465e-06
8.84003e-06
3.73833e-06
6.75058e-06
7.9334e-06
5.35207e-06
1.8111e-05
-7.33748e-06
2.7715e-05
-2.13815e-05
3.62194e-05
-2.27526e-05
4.71084e-05
-2.13623e-05
6.22083e-05
-2.44696e-05
8.37369e-05
-2.17815e-05
7.55257e-05
-2.2673e-05
4.61224e-05
-6.88326e-05
2.55111e-05
-0.000130177
1.53818e-05
-0.000145994
5.68429e-06
-9.1536e-05
1.93471e-05
-5.55279e-05
2.64374e-05
-2.11078e-05
1.86589e-05
5.11413e-05
0.000107845
5.5583e-06
2.4035e-05
1.96663e-05
-2.24626e-06
3.10824e-05
-1.69418e-06
4.0546e-05
-1.15622e-06
5.37869e-05
-1.71588e-05
6.71464e-05
-3.11596e-05
7.46951e-05
-2.64908e-05
8.05052e-05
-2.35137e-05
9.12325e-05
-3.0877e-05
0.000115396
-4.66604e-05
0.000138343
-8.55056e-05
0.000129829
-0.000107538
0.0001088
-0.000119836
9.30522e-05
-0.000169898
7.02234e-05
-0.000143883
3.74136e-05
-0.000150575
3.26791e-05
-2.59148e-05
1.14944e-05
5.92128e-05
0.000126947
9.82013e-06
1.73158e-05
2.84347e-05
-1.6788e-05
4.39854e-05
-1.27919e-05
5.73092e-05
-9.97957e-06
6.96423e-05
-2.50253e-05
7.62465e-05
-3.3663e-05
8.04126e-05
-2.73952e-05
8.23987e-05
-2.30477e-05
8.30997e-05
-2.98981e-05
8.67182e-05
-5.96715e-05
8.47228e-05
-0.000112859
7.93364e-05
-0.00012046
9.33503e-05
-0.000124591
0.000136654
-0.000179434
0.000123439
-0.000246554
7.80965e-05
-0.000202229
3.6431e-05
-5.32912e-05
7.06367e-06
8.04178e-05
0.000139232
1.46585e-05
7.22911e-06
3.01239e-05
-2.79382e-05
4.49131e-05
-2.22346e-05
5.86946e-05
-1.83243e-05
6.76743e-05
-2.89868e-05
7.16561e-05
-3.3616e-05
7.43579e-05
-2.72986e-05
7.46315e-05
-2.149e-05
7.24635e-05
-2.64336e-05
6.71035e-05
-5.41249e-05
6.7479e-05
-9.53107e-05
6.95728e-05
-0.000108437
8.19669e-05
-0.000110292
0.000152531
-0.000173165
0.000153811
-0.00026057
0.000106625
-0.000177813
4.31401e-05
-5.76638e-05
9.48252e-06
0.000105212
0.000154597
2.10839e-05
-8.74052e-06
3.10267e-05
-3.42423e-05
4.16327e-05
-2.97335e-05
5.25516e-05
-2.47624e-05
5.88649e-05
-3.09464e-05
6.10948e-05
-3.29167e-05
6.37837e-05
-2.7911e-05
6.66709e-05
-2.27498e-05
6.65486e-05
-2.54287e-05
6.02274e-05
-4.71989e-05
5.5411e-05
-7.37252e-05
5.54618e-05
-8.60633e-05
7.05578e-05
-9.91448e-05
0.000166595
-0.000177257
0.000187427
-0.00023093
0.0001087
-0.000127834
5.288e-05
-3.2059e-05
1.64585e-05
0.000133286
0.000175723
2.34381e-05
-2.97772e-05
3.24754e-05
-3.87408e-05
3.92084e-05
-3.47377e-05
4.76352e-05
-3.08368e-05
5.27416e-05
-3.35583e-05
5.4342e-05
-3.35595e-05
5.6338e-05
-2.93501e-05
5.95712e-05
-2.558e-05
6.08396e-05
-2.65595e-05
5.59249e-05
-4.229e-05
4.91479e-05
-5.7378e-05
5.08606e-05
-6.07547e-05
6.07891e-05
-9.04835e-05
0.000169205
-0.000170154
0.000210109
-0.00018034
0.000119267
-7.22411e-05
5.8764e-05
1.2091e-05
2.00393e-05
0.00016622
0.000198399
2.10331e-05
3.29153e-05
2.6423e-05
2.41934e-05
4.72634e-06
5.00836e-05
-6.46304e-06
0.000127545
-1.52117e-05
0.000126175
-2.53227e-05
9.8076e-05
-5.91842e-05
5.50369e-05
1.4116e-05
2.31613e-05
8.57723e-06
2.80437e-05
1.20988e-05
3.8599e-05
6.8215e-06
-3.36e-06
5.6746e-05
3.38683e-05
6.82784e-06
4.65362e-05
2.08796e-06
5.68451e-05
-4.66003e-06
-1.12999e-05
6.02226e-05
5.15286e-05
-7.73901e-06
5.72352e-05
-1.40355e-05
6.33229e-05
-1.87002e-05
-2.18254e-05
6.67941e-05
0.000128224
-1.21289e-05
0.000128704
-1.76857e-05
0.00012927
-2.17122e-05
-2.53614e-05
0.000128876
0.000129117
-1.32444e-05
0.000131148
-1.72292e-05
0.000131424
-2.07789e-05
-2.39479e-05
0.000132866
0.0001007
-1.70889e-05
0.000101522
-2.00718e-05
0.000103116
-2.42865e-05
-2.84676e-05
0.000105882
5.89466e-05
-3.31174e-05
6.30448e-05
-3.77602e-05
6.65609e-05
-4.45886e-05
-4.99535e-05
6.82181e-05
1.91162e-05
-7.13009e-05
2.54061e-05
-7.79393e-05
3.19668e-05
-8.69023e-05
-8.41109e-05
3.37322e-05
3.15995e-05
-4.38744e-05
3.64983e-05
-4.74743e-05
3.75895e-05
-5.13636e-05
-4.72035e-05
2.96803e-05
0.000100537
-2.36473e-05
9.92862e-05
-2.45435e-05
9.95234e-05
-2.65475e-05
-2.95626e-05
0.000104495
3.69966e-05
-2.13402e-05
3.80173e-05
-2.2877e-05
3.90492e-05
-2.49023e-05
-2.74229e-05
3.89343e-05
2.04453e-05
-1.80422e-05
1.72815e-05
-2.02157e-05
1.38872e-05
-2.19065e-05
-2.39402e-05
1.0117e-05
1.00174e-06
-1.72122e-05
-2.0633e-07
-1.88286e-05
-2.17875e-06
-1.98274e-05
-2.08355e-05
-5.25201e-06
-1.46215e-05
-1.68323e-05
-1.53855e-05
-1.80522e-05
-1.64815e-05
-1.87302e-05
-1.94905e-05
-1.78051e-05
-1.68018e-05
-1.63029e-05
-1.77995e-05
-1.70569e-05
-1.89434e-05
-1.75877e-05
-1.82514e-05
-2.01819e-05
-1.80222e-05
-1.58219e-05
-1.90043e-05
-1.60695e-05
-2.01652e-05
-1.64139e-05
-1.70566e-05
-2.13432e-05
-1.99107e-05
-2.07407e-05
-2.16263e-05
-2.27407e-05
5.61801e-05
-3.42091e-05
7.0161e-05
-4.61393e-05
8.59367e-05
-4.59249e-05
9.93002e-05
-4.96749e-05
0.000104439
-5.16797e-05
0.000104977
-4.39719e-05
0.000107019
-3.62416e-05
0.000114099
-3.5002e-05
0.000119759
-3.24261e-05
0.000112127
-3.59421e-05
9.63248e-05
-3.68163e-05
0.000105979
-2.44026e-05
0.000152814
-1.45639e-05
0.000206475
-7.50121e-06
0.000243973
2.78475e-05
0.000226032
5.64019e-05
0.000138614
0.000107356
5.35093e-05
0.00024654
0.000255799
6.1188e-05
-5.57492e-05
6.61936e-05
-7.48999e-05
8.15541e-05
-7.54295e-05
9.39876e-05
-6.48631e-05
9.7996e-05
-5.31646e-05
9.8454e-05
-4.28586e-05
0.000100936
-3.88611e-05
0.000108162
-4.19438e-05
0.000121446
-4.43184e-05
0.000130403
-4.36333e-05
0.000135708
-4.26348e-05
0.000151856
-3.32251e-05
0.000183905
-9.23627e-06
0.000216796
1.63588e-05
0.000211762
6.2603e-05
0.000175541
9.89338e-05
0.000115013
0.000168488
5.46622e-05
0.000305118
0.000312317
7.36044e-05
-6.69954e-05
8.52022e-05
-7.44412e-05
9.5684e-05
-7.43972e-05
0.000103677
-6.60397e-05
0.000110111
-5.59149e-05
0.000116867
-4.84709e-05
0.000124321
-4.60485e-05
0.000132701
-4.83294e-05
0.000144556
-5.20554e-05
0.000157571
-5.03261e-05
0.000168662
-4.7162e-05
0.000183399
-4.34653e-05
0.000197565
-2.16432e-05
0.000198334
1.44572e-05
0.000197002
6.032e-05
0.000176102
0.000120808
0.000128317
0.000214562
6.82493e-05
0.000364767
0.000381039
0.000134635
-7.91461e-05
0.000132698
-8.73479e-05
0.000134074
-8.33878e-05
0.000135517
-7.70682e-05
0.000141187
-6.89078e-05
0.000148027
-6.02415e-05
0.000154627
-5.69884e-05
0.000162166
-6.01087e-05
0.000172413
-6.49998e-05
0.000178486
-5.94786e-05
0.000191209
-6.30809e-05
0.000200286
-5.79241e-05
0.000211698
-3.95233e-05
0.00022502
-5.57744e-06
0.000217498
6.63917e-05
0.000184129
0.000142668
0.000131687
0.00024626
7.09086e-05
0.000421568
0.000450476
0.000132496
-7.1511e-05
0.000132567
-8.68096e-05
0.0001375
-0.000102195
0.000135593
-0.000107946
0.000134791
-0.000103606
0.000139673
-9.22903e-05
0.000150189
-8.64879e-05
0.000162599
-8.52667e-05
0.000174791
-8.86056e-05
0.000191287
-8.90447e-05
0.000215531
-0.000105339
0.000222278
-0.000100138
0.000237153
-7.58837e-05
0.000211119
7.03336e-06
0.000174015
8.02784e-05
0.000140096
0.000165321
9.81026e-05
0.000279999
4.82395e-05
0.000459831
0.000495509
0.000109778
-8.5496e-05
0.000110914
-0.000111018
0.00010399
-0.000153894
9.57943e-05
-0.000177771
9.42109e-05
-0.000188688
0.000102932
-0.00017901
0.00012017
-0.000163681
0.000138829
-0.000153749
0.000157643
-0.000159655
0.000179881
-0.000172445
0.000194449
-0.00016047
0.000180131
-6.77553e-05
0.000129072
-5.35428e-06
6.79397e-05
6.95384e-05
3.39327e-05
0.000124574
3.37934e-05
0.000188743
2.56151e-05
0.000306548
1.23296e-05
0.00046934
0.000502307
7.05283e-05
-0.000140771
5.16867e-05
-0.000169896
3.00499e-05
-0.000191039
1.60038e-05
-0.000112025
1.56568e-05
-0.000131458
4.2417e-05
-0.000164727
7.56543e-05
-0.000398808
0.000107968
-0.000314463
0.000129852
-0.000247514
0.000117174
-0.000135509
4.66177e-05
-5.08738e-05
-2.36936e-05
3.30755e-05
-6.15356e-05
6.2761e-05
-7.27458e-05
8.77013e-05
-6.86119e-05
0.000134995
-5.35644e-05
0.000195609
-3.78436e-05
0.000300709
-1.70164e-05
0.000444833
0.000482164
3.47312e-05
-0.000146504
3.25154e-05
-0.000105545
2.23834e-05
-9.82539e-05
7.7387e-05
-9.0952e-05
0.000127558
-0.000110473
0.000131696
-0.000137704
0.000168968
-0.000291448
0.000121704
-0.000215761
-4.15017e-05
-9.63217e-05
-0.000139068
7.25052e-06
-0.000120714
6.46437e-05
-0.000120398
5.94505e-05
-0.00012776
6.98739e-05
-0.000134075
9.16787e-05
-0.000137297
0.000132758
-0.00012761
0.000184251
-9.79828e-05
0.000265351
-4.54541e-05
0.000390059
0.00043621
8.62189e-06
-7.7492e-05
4.02406e-05
-0.000111859
8.13206e-05
-0.000117213
9.55937e-05
-0.000106287
9.28219e-05
-0.000106307
7.32942e-05
-9.99374e-05
3.33046e-05
-7.85703e-05
-0.000117947
-5.26184e-05
-0.000170331
0.000110743
-0.000158209
7.39866e-05
-0.000158155
6.76977e-05
-0.00015826
6.57015e-05
-0.000161752
7.34222e-05
-0.000167441
9.72662e-05
-0.000172276
0.000136082
-0.000171104
0.000178637
-0.000138705
0.000230787
-7.52449e-05
0.000325912
0.000360924
9.34386e-05
-8.54594e-05
7.86476e-05
-9.73653e-05
5.65789e-05
-9.36071e-05
3.23898e-05
-8.38029e-05
7.45483e-06
-8.71864e-05
-1.92181e-05
-8.37506e-05
-6.58721e-05
-6.63195e-05
-0.000134438
-2.95136e-05
-0.000204574
0.000105116
-0.000177134
9.98089e-05
-0.000165138
8.04319e-05
-0.000171691
7.34261e-05
-0.000174465
7.81891e-05
-0.00017941
0.000102264
-0.000179298
0.000135835
-0.000175538
0.000174419
-0.000147212
0.000202183
-8.39806e-05
0.000262343
0.000276644
2.78144e-05
-7.35288e-05
5.30627e-06
-7.68987e-05
-1.46049e-05
-7.62984e-05
-2.72858e-05
-7.54891e-05
-3.79454e-05
-8.3106e-05
-5.19292e-05
-7.6798e-05
-7.01744e-05
-5.8905e-05
-0.000164566
-3.40816e-05
-0.000244129
8.39695e-05
-0.000219692
0.00012761
-0.000182378
0.000111721
-0.000182147
8.47393e-05
-0.000177361
7.92003e-05
-0.000175814
9.7627e-05
-0.000173048
0.000133053
-0.000158748
0.00016008
-0.000130869
0.000174293
-6.73541e-05
0.000198721
0.000209195
-3.63972e-06
-6.05013e-05
-1.69894e-05
-6.40711e-05
-2.78543e-05
-6.67779e-05
-3.66876e-05
-6.48804e-05
-4.72161e-05
-6.89021e-05
-5.76653e-05
-6.42619e-05
-6.42102e-05
-5.46517e-05
-8.61443e-05
-4.20781e-05
-0.000172638
2.9573e-06
-0.000250086
9.59938e-05
-0.000221495
0.000130921
-0.000213169
0.000113259
-0.000180082
8.72841e-05
-0.000159361
8.665e-05
-0.000162172
0.000109577
-0.000143138
0.000140213
-0.000110271
0.000141423
-5.39064e-05
0.000142371
0.000155306
-1.5009e-05
-5.11013e-05
-2.35961e-05
-5.46539e-05
-2.99543e-05
-5.87925e-05
-3.55579e-05
-5.86006e-05
-4.41869e-05
-6.07464e-05
-5.05782e-05
-5.7525e-05
-5.19544e-05
-5.1965e-05
-4.81361e-05
-4.52475e-05
-5.18344e-05
-2.49693e-05
-0.000149644
3.18405e-05
-0.000267292
0.000132233
-0.000274062
0.000130092
-0.000206247
0.000107565
-0.000146356
9.19803e-05
-0.0001244
8.91999e-05
-0.000119428
8.75529e-05
-9.68945e-05
9.45093e-05
-5.70167e-05
0.000101921
9.8285e-05
-2.13567e-05
-4.74245e-05
-2.61876e-05
-4.99242e-05
-3.20821e-05
-5.305e-05
-3.71864e-05
-5.38373e-05
-4.30097e-05
-5.50265e-05
-4.62375e-05
-5.39762e-05
-4.62338e-05
-5.15058e-05
-4.16854e-05
-4.91973e-05
-2.67932e-05
-4.01933e-05
-1.55947e-05
-8.48687e-06
-6.53389e-05
0.000103192
-0.000234054
0.000285475
-0.000243374
0.00013388
-0.000161071
9.74915e-05
-0.000120373
9.20331e-05
-9.51123e-05
7.42943e-05
-6.66134e-05
3.65058e-05
-5.39501e-05
3.40832e-05
4.25122e-05
-2.32585e-05
-4.43374e-05
-2.59414e-05
-4.71457e-05
-3.02049e-05
-4.86831e-05
-3.43922e-05
-4.96256e-05
-3.91501e-05
-5.02605e-05
-4.24942e-05
-5.0579e-05
-4.39428e-05
-4.97197e-05
-4.06034e-05
-5.19162e-05
-2.86773e-05
-5.10338e-05
-1.02222e-05
-3.16987e-05
3.13884e-05
4.58335e-05
1.52298e-05
0.000313231
-0.000133875
0.000347288
-0.00015715
0.00015661
-0.000137139
8.05626e-05
-7.69651e-05
5.81114e-05
-3.74271e-05
-2.15913e-05
-1.82582e-05
-2.52103e-05
-1.20468e-05
-2.4424e-05
-4.12049e-05
-2.80528e-05
-4.34606e-05
-3.25607e-05
-4.41052e-05
-3.75256e-05
-4.45667e-05
-4.21842e-05
-4.55012e-05
-4.57064e-05
-4.69079e-05
-4.72225e-05
-4.77698e-05
-4.61487e-05
-5.25167e-05
-4.02188e-05
-5.65851e-05
-2.71864e-05
-4.87842e-05
2.58913e-05
4.36821e-06
6.39025e-05
0.000278225
-7.05121e-06
0.000416137
-8.45516e-05
0.000293075
-9.95184e-05
0.000146615
-3.36189e-05
4.54097e-05
5.40453e-06
-5.55339e-05
4.59251e-06
-5.24893e-05
-3.76826e-05
-2.54913e-05
-2.88331e-05
-3.228e-05
-3.57475e-05
-3.95238e-05
-4.44475e-05
-4.91128e-05
-5.33507e-05
-5.61778e-05
-5.30717e-05
-2.23119e-05
4.17927e-05
3.34783e-05
1.07397e-06
-1.14002e-06
7.67394e-06
7.37207e-06
6.13839e-06
)
;

boundaryField
{
    leftWall
    {
        type            fixedValue;
        value           nonuniform 0();
    }
    rightWall
    {
        type            fixedValue;
        value           uniform 0;
    }
    lowerWall
    {
        type            fixedValue;
        value           uniform 0;
    }
    atmosphere
    {
        type            calculated;
        value           nonuniform 0();
    }
    defaultFaces
    {
        type            empty;
        value           nonuniform 0();
    }
    procBoundary1to0
    {
        type            processor;
        value           nonuniform List<scalar> 
26
(
-2.69111e-06
-3.09737e-06
-6.08003e-06
-5.17239e-06
-4.5871e-06
-2.65746e-06
-2.44397e-06
-3.3603e-06
-1.56013e-05
-6.81175e-06
-5.05904e-05
-0.000120926
-0.00011593
-8.982e-05
-4.6053e-05
-1.49576e-06
-0.0001416
-2.59574e-05
-0.000102497
-3.72721e-05
-2.44376e-05
-1.67994e-06
1.42694e-05
1.62704e-05
1.75443e-05
1.92376e-05
)
;
    }
    procBoundary1to3
    {
        type            processor;
        value           nonuniform List<scalar> 
23
(
-1.51478e-05
-1.52384e-05
-1.55266e-05
-1.59401e-05
-3.84469e-05
-4.01092e-05
-4.06422e-05
-4.10842e-05
-4.1709e-05
-4.20064e-05
-4.29384e-05
-4.78655e-05
-5.38889e-05
-5.43102e-05
-1.03851e-05
0.000213926
0.000428306
0.000334667
0.000173632
5.44868e-05
-6.01719e-05
-5.82183e-05
-3.84199e-05
)
;
    }
}


// ************************************************************************* //
