/*--------------------------------*- C++ -*----------------------------------*\
| =========                 |                                                 |
| \\      /  F ield         | OpenFOAM: The Open Source CFD Toolbox           |
|  \\    /   O peration     | Version:  2.4.0                                 |
|   \\  /    A nd           | Web:      www.OpenFOAM.org                      |
|    \\/     M anipulation  |                                                 |
\*---------------------------------------------------------------------------*/
FoamFile
{
    version     2.0;
    format      ascii;
    class       surfaceScalarField;
    location    "0.5";
    object      phi.mercury;
}
// * * * * * * * * * * * * * * * * * * * * * * * * * * * * * * * * * * * * * //

dimensions      [0 3 -1 0 0 0 0];

internalField   nonuniform List<scalar> 
1061
(
2.85294e-06
6.16374e-06
1.24773e-05
1.78744e-05
2.26325e-05
2.5424e-05
2.79982e-05
3.14905e-05
-2.32117e-05
-0.00012079
-2.98411e-05
-0.000136062
-3.86931e-05
-0.000144386
-4.01084e-05
-0.000146795
-3.21888e-05
-0.000153107
-2.0601e-05
-0.000161221
-1.08793e-05
-0.000159593
-4.67223e-06
-0.000158776
-2.093e-06
-0.000161716
-3.83077e-06
-0.000172768
-4.2413e-06
-0.000195296
3.53058e-06
-0.000221847
1.20346e-05
-0.000183379
2.05652e-05
-0.000238533
2.79088e-05
-0.000181058
3.84743e-05
-0.000133741
4.16826e-05
-8.07775e-05
3.22026e-05
-3.25015e-05
-2.32345e-05
1.2563e-05
-0.000109858
2.1875e-05
-0.000118819
2.86232e-05
-0.000120542
3.91066e-05
-0.000117417
5.262e-05
-0.000132535
6.10807e-05
-0.000151642
6.39149e-05
-0.000151167
6.72717e-05
-0.000148129
7.27418e-05
-0.00015113
7.91039e-05
-0.00016939
8.95602e-05
-0.000224563
8.8035e-05
-0.000335642
9.77065e-05
-0.000290632
0.000106503
-0.000383455
7.96138e-05
-0.000298686
7.13919e-05
-0.000210233
6.63371e-05
-0.000152202
4.78188e-05
-3.30584e-05
1.68893e-05
1.46993e-05
-0.000105102
2.40601e-05
-0.000116013
3.29413e-05
-0.000113293
4.2254e-05
-0.00010955
5.72245e-05
-0.000113741
6.2147e-05
-0.000126596
6.89403e-05
-0.000128372
6.84121e-05
-0.000127781
6.78577e-05
-0.000129737
7.57286e-05
-0.000135379
9.94346e-05
-0.000159857
0.000121175
-0.000243677
0.000129022
-0.000310922
0.000115631
-0.000443976
8.72016e-05
-0.000332082
8.03726e-05
-0.000214612
6.93775e-05
-0.000174883
4.22958e-05
-7.69593e-05
4.34503e-05
1.52811e-05
-9.57683e-05
2.54514e-05
-0.000106808
3.62678e-05
-0.000101216
4.81601e-05
-9.76642e-05
5.69024e-05
-0.000107328
6.55174e-05
-0.000117568
6.91626e-05
-0.000120465
6.99766e-05
-0.000122851
6.9232e-05
-0.00013142
7.34977e-05
-0.000146927
8.82746e-05
-0.000184407
0.000104634
-0.000258035
0.000133944
-0.0002767
0.000132027
-0.000380898
0.000103279
-0.000300374
8.87778e-05
-0.000221799
8.41338e-05
-0.000164891
4.76848e-05
-0.000116782
6.17825e-05
1.66731e-05
-8.48507e-05
2.69167e-05
-0.000100083
3.66368e-05
-9.37207e-05
4.82184e-05
-9.04681e-05
5.84146e-05
-9.93082e-05
6.45347e-05
-0.000107648
6.78465e-05
-0.00010872
6.82371e-05
-0.000112902
6.51265e-05
-0.00012105
6.2125e-05
-0.000137989
6.65574e-05
-0.000156692
7.88403e-05
-0.000192762
9.1172e-05
-0.000212208
0.000107314
-0.000315601
0.000104842
-0.000268369
9.5363e-05
-0.000208249
9.1721e-05
-0.000166781
5.20038e-05
-0.000119599
7.61036e-05
1.91689e-05
-7.71039e-05
2.75982e-05
-9.58942e-05
3.73409e-05
-9.11686e-05
4.83996e-05
-8.85112e-05
5.6178e-05
-9.60103e-05
6.0505e-05
-0.000103426
6.38029e-05
-0.000103754
6.50208e-05
-0.000106957
6.27422e-05
-0.000115801
5.83676e-05
-0.000132492
6.07412e-05
-0.000152015
6.64408e-05
-0.000171462
9.25025e-05
-0.000192869
0.000127795
-0.000337474
0.000120861
-0.000288451
0.000102063
-0.000187674
9.56571e-05
-0.000156879
5.59039e-05
-0.00011391
8.63814e-05
2.31367e-05
-7.36109e-05
2.87701e-05
-9.20421e-05
3.72479e-05
-9.09669e-05
4.57202e-05
-8.73866e-05
5.10268e-05
-9.58273e-05
5.39015e-05
-0.000103083
5.68478e-05
-0.000104924
6.00543e-05
-0.000109626
6.09878e-05
-0.000117285
5.96728e-05
-0.000131649
6.03561e-05
-0.000141172
6.36391e-05
-0.00014971
9.43608e-05
-0.000182466
0.000153339
-0.000331525
0.000146204
-0.00030643
0.000102766
-0.000166734
9.72257e-05
-0.000140746
6.03453e-05
-0.000106246
9.74448e-05
2.55961e-05
-7.35865e-05
3.02386e-05
-8.93042e-05
3.58132e-05
-9.09302e-05
4.2372e-05
-9.09798e-05
4.70588e-05
-9.95793e-05
4.99321e-05
-0.000105897
5.28362e-05
-0.000108556
5.6821e-05
-0.000113319
5.96832e-05
-0.000120086
5.9553e-05
-0.00013178
5.96808e-05
-0.000134799
6.27708e-05
-0.000136358
9.43601e-05
-0.000162105
0.000150537
-0.000260318
0.000147909
-0.000247219
0.000104154
-0.000140911
9.70082e-05
-0.000128003
6.27808e-05
-0.000101755
0.000112304
1.48123e-05
3.24349e-05
-7.96127e-06
2.54915e-05
-3.36747e-05
4.8148e-05
-5.36694e-05
9.45229e-05
-3.88554e-05
9.99484e-05
-2.2238e-05
9.98026e-05
-5.67137e-05
5.48498e-05
1.46363e-05
3.01075e-05
2.29342e-06
2.9043e-05
9.48426e-07
3.39814e-05
-5.23573e-06
-1.55105e-05
4.78652e-05
3.32993e-05
-9.27215e-06
4.33607e-05
-1.2331e-05
5.32002e-05
-1.87335e-05
-2.36697e-05
5.7114e-05
5.20875e-05
-2.15916e-05
5.71255e-05
-2.62941e-05
6.03746e-05
-3.16954e-05
-3.48742e-05
6.35676e-05
0.000102705
-3.04782e-05
0.000110347
-3.4525e-05
0.000115366
-3.71872e-05
-3.88115e-05
0.000120695
0.00010514
-2.27899e-05
0.000113165
-2.58851e-05
0.000119667
-2.82317e-05
-3.12449e-05
0.000126654
0.000103444
-1.52763e-05
0.000106305
-1.862e-05
0.000108292
-2.27108e-05
-2.66254e-05
0.000109271
5.92268e-05
-2.92571e-05
6.28241e-05
-3.05466e-05
6.57794e-05
-3.2553e-05
-3.57649e-05
6.74539e-05
1.97484e-05
-5.81416e-05
2.63465e-05
-6.36823e-05
3.35314e-05
-7.05664e-05
-6.63706e-05
3.51745e-05
1.9867e-05
-2.7174e-05
1.0761e-05
-2.66336e-05
-5.11363e-06
-2.5357e-05
-2.25043e-05
-1.42988e-05
0.00010148
-2.20528e-05
9.9877e-05
-2.21478e-05
0.000100092
-2.4086e-05
-2.76143e-05
0.000105465
3.68435e-05
-2.17453e-05
3.7885e-05
-2.31888e-05
3.89359e-05
-2.51362e-05
-2.75198e-05
3.88417e-05
2.05053e-05
-1.78187e-05
1.73202e-05
-2.00036e-05
1.39362e-05
-2.17514e-05
-2.37956e-05
1.02119e-05
9.91324e-07
-1.71726e-05
-2.04283e-07
-1.88074e-05
-2.15766e-06
-1.97979e-05
-2.07891e-05
-5.16425e-06
-1.46194e-05
-1.68273e-05
-1.53824e-05
-1.80445e-05
-1.64677e-05
-1.87125e-05
-1.94651e-05
-1.77917e-05
-1.68006e-05
-1.62965e-05
-1.77966e-05
-1.70485e-05
-1.89389e-05
-1.75701e-05
-1.82297e-05
-2.01746e-05
-1.80216e-05
-1.58193e-05
-1.90036e-05
-1.60665e-05
-2.01636e-05
-1.64105e-05
-1.70521e-05
-2.13411e-05
-1.99105e-05
-2.07404e-05
-2.16259e-05
-2.27402e-05
5.69872e-05
-6.54033e-05
6.71155e-05
-8.79313e-05
7.78637e-05
-9.72885e-05
8.89164e-05
-0.000105373
9.58714e-05
-0.000117024
0.000101305
-0.000122575
0.000107342
-0.000125091
0.0001168
-0.000131159
0.000125265
-0.000135525
0.000127345
-0.000139707
0.000125262
-0.00013611
0.000134577
-0.000124332
0.000162634
-0.000118263
0.00019758
-0.000115481
0.000220656
-0.000116584
0.000214769
-0.000127252
0.000205025
-0.00012797
0.000134507
-8.98949e-05
0.000149567
6.16778e-05
-7.94627e-05
6.82495e-05
-0.0001034
8.01647e-05
-0.000119601
9.07057e-05
-0.000130636
9.82778e-05
-0.000145478
0.000104713
-0.000152348
0.000112997
-0.000157921
0.000123362
-0.000163795
0.000135295
-0.000164888
0.000144845
-0.000166315
0.000152643
-0.000166368
0.000165461
-0.0001682
0.000185601
-0.000171667
0.000201801
-0.000170152
0.00020448
-0.000165708
0.000190025
-0.000163242
0.000173353
-0.000136592
0.000118298
-6.2281e-05
0.000179247
7.63419e-05
-0.000103082
8.97025e-05
-0.000124688
0.000102013
-0.000139611
0.000118352
-0.000150019
0.000137845
-0.000161788
0.000156304
-0.000171671
0.00017162
-0.000184578
0.000176705
-0.000186835
0.000175449
-0.000185676
0.000176529
-0.000183685
0.000180333
-0.000189131
0.000185939
-0.000205203
0.000189189
-0.000216135
0.00018954
-0.00021321
0.000187456
-0.000204097
0.000172836
-0.000175454
0.000153213
-0.000124164
0.000111016
-1.66655e-05
0.000209116
0.000136637
-0.00010382
0.000147738
-0.000125189
0.000153287
-0.000142787
0.000160033
-0.000154674
0.000178804
-0.000159828
0.000209219
-0.000168771
0.000223409
-0.000194943
0.000215544
-0.000205691
0.000201815
-0.000198947
0.000192447
-0.00020044
0.000191499
-0.000207252
0.000190395
-0.00022276
0.000188158
-0.00022704
0.000184558
-0.000213018
0.000176088
-0.0001747
0.000157873
-0.00014417
0.000135431
-9.60783e-05
9.96478e-05
3.84686e-05
0.000243832
0.000146014
-8.61586e-05
0.000155204
-0.000111244
0.000158009
-0.0001354
0.000162389
-0.000147527
0.000177714
-0.000146566
0.000206283
-0.000148563
0.000225863
-0.00021239
0.000218682
-0.000238328
0.000200772
-0.000230806
0.000196398
-0.000231822
0.000195336
-0.000242252
0.000187252
-0.000249784
0.000172043
-0.000232122
0.000143731
-0.000125524
0.000122748
-8.44677e-05
0.000131808
-9.65888e-05
0.000117669
-5.54307e-05
8.95337e-05
0.000121577
0.000276253
0.000112279
-7.60222e-05
0.00011815
-9.12626e-05
0.000115013
-0.000114935
0.000112708
-0.000106667
0.00012077
-0.000107297
0.000150474
-0.000135779
0.000183104
-0.000195352
0.000191529
-0.000266691
0.000184731
-0.000283159
0.00018098
-0.000282156
0.000170095
-0.000280678
0.000144289
-0.000144602
7.2785e-05
-8.48833e-05
1.50655e-05
1.737e-05
4.79995e-05
7.43852e-06
8.54686e-05
-4.45683e-05
6.95794e-05
-6.03042e-07
7.19707e-05
0.000198853
0.000295863
6.88475e-05
-9.13133e-05
5.48235e-05
-0.000104876
3.72161e-05
-0.00012676
2.08863e-05
-5.91128e-05
1.95387e-05
-7.35175e-05
5.94856e-05
-0.000115751
0.000112901
-0.000192844
0.000154812
-0.000174195
0.000160627
-0.000180943
0.000129981
-0.000151596
2.28131e-05
-0.000143194
-7.20896e-05
2.01217e-05
-8.30966e-05
7.35703e-05
-4.68115e-05
7.63737e-05
4.88645e-06
6.07307e-05
3.70189e-05
3.15744e-05
2.6525e-05
8.30983e-05
5.53062e-05
0.000256079
0.000295987
3.39936e-05
-0.000121028
2.12557e-05
-6.9063e-05
1.67214e-05
-7.77864e-05
7.86452e-05
-9.60613e-05
0.000136345
-0.000117823
0.000164889
-0.000130126
0.00014294
-0.000125238
0.000117196
-0.000124902
1.06007e-05
-0.000122894
-0.000127308
-5.72394e-06
-0.000121364
6.1567e-05
-0.000120231
6.42116e-05
-0.000127307
7.67274e-05
-0.000110797
9.83776e-05
-8.27568e-05
0.000117564
-5.3641e-05
0.000129518
-2.12281e-05
0.000196988
4.43435e-05
0.000284344
0.000277144
8.30524e-07
-9.62365e-05
4.54315e-05
-0.00011152
8.16134e-05
-0.000117067
9.59635e-05
-0.000110371
9.36673e-05
-0.000114161
7.72034e-05
-0.000108431
4.55184e-05
-8.77262e-05
-1.81746e-05
-7.51729e-05
-0.00014801
-1.72297e-05
-0.00011599
6.84572e-05
-0.000121976
5.83185e-05
-0.00014511
6.25407e-05
-0.00015412
7.91938e-05
-0.000153951
0.00010675
-0.000148071
0.000142299
-0.00012661
0.000181152
-5.32464e-05
0.000226101
2.62107e-05
0.00027339
0.000257748
9.34398e-05
-8.42456e-05
7.90797e-05
-9.71672e-05
5.93577e-05
-9.74568e-05
3.43376e-05
-8.65725e-05
7.55358e-06
-9.0257e-05
-1.76197e-05
-8.83423e-05
-4.59402e-05
-6.92461e-05
-8.1813e-05
-5.10175e-05
-0.000192181
1.18386e-05
-0.000166302
9.33376e-05
-0.000118723
7.61475e-05
-0.000142778
5.84816e-05
-0.000161322
7.38664e-05
-0.000165686
0.000103337
-0.000158242
0.000137993
-0.000140513
0.000176546
-7.55797e-05
0.000203237
-1.45899e-06
0.000238177
0.000236381
2.79746e-05
-7.33823e-05
7.52606e-06
-7.67681e-05
-1.38158e-05
-7.63201e-05
-2.72015e-05
-7.3389e-05
-3.76739e-05
-8.01004e-05
-5.117e-05
-7.5395e-05
-6.1644e-05
-6.01765e-05
-7.69523e-05
-4.23823e-05
-0.000155506
-6.11772e-07
-0.000199032
0.000111173
-0.000158399
0.000119092
-0.00012945
6.93721e-05
-0.000152407
6.2606e-05
-0.000163545
8.5385e-05
-0.000158064
0.000122367
-0.000138807
0.000149026
-0.000100194
0.000158212
-3.24363e-05
0.000178992
0.000178567
-2.88265e-06
-6.02915e-05
-1.63477e-05
-6.33278e-05
-2.75923e-05
-6.51941e-05
-3.65245e-05
-6.45716e-05
-4.69177e-05
-6.94877e-05
-5.70386e-05
-6.44133e-05
-6.20115e-05
-5.38791e-05
-6.2011e-05
-4.18614e-05
-5.69686e-05
-1.35723e-05
-0.000114314
6.23986e-05
-0.000185004
0.000181212
-0.0001722
0.000135151
-0.000139366
6.36229e-05
-0.00014528
6.32832e-05
-0.000155802
8.34599e-05
-0.000136212
0.00010907
-0.000103136
0.000117747
-4.99435e-05
0.000130488
0.000156947
-1.46267e-05
-5.08308e-05
-2.34062e-05
-5.45503e-05
-2.98278e-05
-5.87621e-05
-3.55491e-05
-5.87978e-05
-4.40891e-05
-6.07891e-05
-5.0479e-05
-5.73238e-05
-5.1991e-05
-5.13707e-05
-4.80902e-05
-4.40165e-05
-3.39996e-05
-2.37817e-05
-1.0239e-06
2.26523e-05
-2.89809e-05
0.000157874
-0.00018647
0.00025925
-0.00018003
0.000136198
-0.000135262
8.04682e-05
-0.000121621
6.89814e-05
-0.000117911
7.17998e-05
-9.7498e-05
8.49966e-05
-5.54977e-05
9.65489e-05
9.53437e-05
-2.12897e-05
-4.73332e-05
-2.60973e-05
-4.9744e-05
-3.20348e-05
-5.28353e-05
-3.71837e-05
-5.36757e-05
-4.29469e-05
-5.48827e-05
-4.62518e-05
-5.38239e-05
-4.63552e-05
-5.11146e-05
-4.18191e-05
-4.82715e-05
-2.63713e-05
-3.82913e-05
1.80156e-06
-6.4458e-06
3.82337e-05
0.000104956
-4.57289e-06
0.000312396
-0.000149244
0.000256877
-0.000160774
0.000131236
-0.000125995
0.000100569
-9.58289e-05
7.92512e-05
-6.6413e-05
4.1089e-05
-5.32813e-05
3.90305e-05
4.42977e-05
-2.324e-05
-4.42677e-05
-2.59215e-05
-4.70627e-05
-3.01766e-05
-4.85771e-05
-3.43635e-05
-4.94779e-05
-3.91034e-05
-5.00938e-05
-4.25111e-05
-5.03764e-05
-4.41067e-05
-4.94025e-05
-4.07727e-05
-5.12421e-05
-2.82885e-05
-4.95463e-05
-7.58881e-06
-2.89458e-05
4.69052e-05
5.06137e-05
5.615e-05
0.000322131
-5.66069e-05
0.00036278
-0.000143052
0.000221624
-0.000157014
0.000118322
-0.00010128
6.03134e-05
-4.59101e-05
4.22512e-07
-2.03739e-05
-2.14634e-05
-1.1473e-05
-2.44185e-05
-4.11908e-05
-2.80419e-05
-4.34388e-05
-3.25471e-05
-4.40719e-05
-3.74983e-05
-4.45234e-05
-4.21471e-05
-4.54336e-05
-4.56946e-05
-4.67995e-05
-4.74233e-05
-4.75684e-05
-4.64102e-05
-5.20433e-05
-3.96264e-05
-5.56139e-05
-2.44371e-05
-4.66541e-05
2.99248e-05
6.89223e-06
7.00507e-05
0.000279875
1.49695e-05
0.000422201
-6.79555e-05
0.000300918
-9.43962e-05
0.000152428
-7.69373e-05
5.17807e-05
-1.67466e-05
1.65522e-05
1.37875e-06
-5.04782e-05
-3.75891e-05
-2.54892e-05
-2.88299e-05
-3.2275e-05
-3.57387e-05
-3.9499e-05
-4.43781e-05
-4.91759e-05
-5.3611e-05
-5.57782e-05
-5.01415e-05
-2.08566e-05
3.78126e-05
3.89901e-05
4.50607e-06
-5.55605e-06
-6.90462e-06
-8.82788e-08
5.61004e-06
)
;

boundaryField
{
    leftWall
    {
        type            fixedValue;
        value           nonuniform 0();
    }
    rightWall
    {
        type            fixedValue;
        value           uniform 0;
    }
    lowerWall
    {
        type            fixedValue;
        value           uniform 0;
    }
    atmosphere
    {
        type            calculated;
        value           nonuniform 0();
    }
    defaultFaces
    {
        type            empty;
        value           nonuniform 0();
    }
    procBoundary1to0
    {
        type            processor;
        value           nonuniform List<scalar> 
26
(
-2.85297e-06
-3.3108e-06
-6.31355e-06
-5.39712e-06
-4.75808e-06
-2.79157e-06
-2.57419e-06
-3.49232e-06
-1.58333e-05
-1.31808e-05
-4.01928e-05
-7.91098e-05
-8.88779e-05
-9.03007e-05
-4.59411e-05
-2.31685e-06
-0.000117113
-2.30859e-05
-0.000103274
-3.71511e-05
-2.4431e-05
-1.63697e-06
1.42742e-05
1.62698e-05
1.7544e-05
1.92374e-05
)
;
    }
    procBoundary1to3
    {
        type            processor;
        value           nonuniform List<scalar> 
23
(
-1.51462e-05
-1.52369e-05
-1.5525e-05
-1.59382e-05
-3.84414e-05
-4.00985e-05
-4.06259e-05
-4.10595e-05
-4.16725e-05
-4.19283e-05
-4.27762e-05
-4.75408e-05
-5.32918e-05
-5.34844e-05
-1.09206e-05
0.00021454
0.000430477
0.000332423
0.00017008
5.93473e-05
2.95511e-05
-5.79313e-05
-3.84187e-05
)
;
    }
}


// ************************************************************************* //
