/*--------------------------------*- C++ -*----------------------------------*\
| =========                 |                                                 |
| \\      /  F ield         | OpenFOAM: The Open Source CFD Toolbox           |
|  \\    /   O peration     | Version:  2.4.0                                 |
|   \\  /    A nd           | Web:      www.OpenFOAM.org                      |
|    \\/     M anipulation  |                                                 |
\*---------------------------------------------------------------------------*/
FoamFile
{
    version     2.0;
    format      ascii;
    class       surfaceScalarField;
    location    "0.5";
    object      phi.air;
}
// * * * * * * * * * * * * * * * * * * * * * * * * * * * * * * * * * * * * * //

dimensions      [0 3 -1 0 0 0 0];

internalField   nonuniform List<scalar> 
1061
(
2.85302e-06
6.16397e-06
1.24776e-05
1.78747e-05
2.26328e-05
2.54243e-05
2.79984e-05
3.14907e-05
-1.5925e-05
-1.33203e-05
-2.36005e-05
-2.17697e-05
-3.08235e-05
-2.67487e-05
-3.49047e-05
-3.7071e-05
-3.15903e-05
-4.87306e-05
-2.2056e-05
-6.35418e-05
-1.24664e-05
-7.05944e-05
-4.69521e-06
-6.99848e-05
9.78017e-07
-5.85168e-05
2.65496e-06
-1.39923e-05
1.57284e-06
3.30711e-05
5.9483e-06
0.00012725
1.12228e-05
0.000124857
1.99102e-05
0.000126775
2.63462e-05
-4.86536e-06
3.49495e-05
-7.4181e-05
3.82688e-05
-5.28551e-05
2.2526e-05
-1.79606e-05
2.18434e-05
-5.10651e-06
-9.66779e-06
-5.60829e-06
-2.81139e-05
-5.2735e-06
-2.89682e-05
-5.63758e-06
-2.4658e-05
-1.11527e-06
-3.56113e-05
1.22785e-05
-6.30054e-05
2.47514e-05
-8.01679e-05
3.36215e-05
-9.34028e-05
4.57802e-05
-0.00011572
6.43296e-05
-0.00017794
6.67377e-05
-5.82051e-05
2.07286e-05
5.87385e-05
6.46669e-06
7.09987e-05
1.40288e-05
4.41079e-05
7.23837e-06
-1.03091e-05
5.41725e-05
-0.000156049
5.99684e-05
-0.000104265
3.8549e-05
-1.4793e-05
5.41723e-05
3.11039e-06
-2.16004e-05
9.58293e-06
-4.59109e-05
1.37884e-05
-4.41831e-05
2.0125e-05
-4.13465e-05
3.50977e-05
-5.27064e-05
4.50602e-05
-6.43798e-05
5.60881e-05
-5.31947e-05
6.25209e-05
-2.60804e-05
6.73358e-05
1.30948e-06
0.000111988
8.82699e-05
0.000187925
0.000175489
8.07962e-05
0.000113511
2.77092e-05
7.01129e-05
1.00838e-05
6.82858e-05
-5.68112e-05
0.000114887
2.29583e-05
7.67519e-05
5.5654e-05
-3.98476e-05
3.10725e-05
-3.72744e-05
7.56687e-05
1.00544e-05
-3.44084e-05
2.25082e-05
-6.11448e-05
3.3594e-05
-5.64297e-05
4.43939e-05
-5.36588e-05
5.5739e-05
-6.82908e-05
6.71238e-05
-8.32422e-05
7.35275e-05
-7.87127e-05
7.52505e-05
-6.11302e-05
8.5639e-05
-3.04197e-05
0.000153526
2.16577e-05
0.000239204
-3.47698e-05
0.00027036
-7.96532e-06
0.000165212
0.000132508
3.52231e-05
0.000132704
-2.7231e-05
3.63419e-05
-1.03249e-05
1.12615e-05
2.459e-05
6.79262e-05
3.4289e-05
-3.61963e-05
7.72424e-05
1.37972e-05
-5.58051e-05
2.75115e-05
-7.28211e-05
3.95856e-05
-7.44113e-05
5.18009e-05
-6.42211e-05
6.25491e-05
-7.41793e-05
6.8538e-05
-8.38152e-05
7.21015e-05
-8.15771e-05
7.44047e-05
-5.4931e-05
8.0203e-05
1.36476e-05
0.000126422
2.95222e-05
0.000130622
-4.36256e-05
0.000166907
-5.81768e-05
0.000119423
0.000175831
-4.22802e-06
0.000255931
-3.28575e-05
4.65598e-05
-6.12676e-05
-9.18973e-05
4.65811e-06
-6.53541e-06
2.04453e-05
4.92635e-05
8.48758e-05
1.83491e-05
4.51406e-05
2.86082e-05
8.86442e-06
3.8935e-05
7.35667e-06
5.13274e-05
-6.32044e-05
5.95768e-05
-7.84231e-05
6.37718e-05
-8.41443e-05
6.80414e-05
-8.14279e-05
7.27734e-05
-5.98921e-05
7.38173e-05
2.37078e-06
9.0974e-05
1.32483e-05
6.89398e-05
-4.45502e-05
8.84231e-05
-7.98352e-05
9.08069e-05
0.000170399
5.94248e-05
0.00028703
1.63841e-05
8.40511e-05
-5.92019e-06
-0.000118784
2.91324e-06
-5.20519e-06
-2.75791e-06
0.000144879
9.79416e-05
2.05718e-05
2.48924e-05
3.66309e-05
-1.56777e-06
4.46572e-05
1.23755e-05
4.84462e-05
1.23783e-05
5.29378e-05
-7.83938e-05
5.57959e-05
-9.08108e-05
5.84721e-05
-8.51612e-05
6.1163e-05
-8.86182e-05
6.27533e-05
-9.63124e-05
7.23047e-05
-5.43023e-05
2.1376e-05
-1.17513e-05
3.92989e-06
-3.77295e-05
5.70274e-05
0.000126142
0.000139247
0.000204895
0.000126213
9.23054e-05
5.05941e-05
-5.97127e-05
1.37068e-05
3.20117e-05
-1.86723e-06
0.000193596
0.000115778
2.07248e-05
-7.88577e-06
3.58206e-05
-6.36049e-06
4.29012e-05
4.36383e-06
5.12546e-05
1.12025e-05
4.82849e-05
7.26882e-07
5.06853e-05
-4.68492e-05
5.37341e-05
-8.90985e-05
5.75843e-05
-8.7683e-05
5.97791e-05
-8.59283e-05
5.85824e-05
-4.29626e-05
2.30569e-05
1.48754e-05
-5.13903e-07
3.24472e-05
8.27681e-05
8.88901e-05
0.000209703
0.000119497
0.000223007
0.000129212
9.37384e-05
0.000107062
3.10102e-05
0.000125218
3.27152e-06
0.000219754
0.000136693
1.49533e-05
3.24362e-05
-6.53505e-07
2.54751e-05
-1.66072e-05
4.90049e-05
-1.60053e-05
0.000117631
-1.87245e-05
0.000126562
1.98471e-05
0.000100802
2.47887e-05
6.3398e-05
1.94496e-05
2.94125e-05
2.37165e-06
2.86758e-05
1.98285e-06
3.93649e-05
-5.06687e-07
6.78859e-07
7.46195e-05
3.33459e-05
-6.41456e-06
4.37239e-05
-1.02331e-05
5.80312e-05
-1.63844e-05
-1.24109e-05
6.60227e-05
5.29067e-05
-1.48872e-05
5.82594e-05
-2.00567e-05
6.16172e-05
-2.54624e-05
-3.03438e-05
6.4609e-05
0.000120994
-1.5196e-05
0.000124046
-2.02445e-05
0.000125795
-2.36822e-05
-2.65797e-05
0.000128037
0.000130811
-1.36808e-05
0.000134368
-1.67255e-05
0.000137436
-1.89486e-05
-1.78411e-05
0.000140128
0.000104392
5.41321e-06
0.000106682
2.78219e-06
0.000112151
-1.17535e-06
-4.43344e-06
0.000126509
6.59352e-05
5.12221e-06
6.94187e-05
1.87256e-06
7.53347e-05
-1.37023e-06
-5.4441e-06
7.69047e-05
2.77543e-05
-1.70512e-05
3.72627e-05
-2.32308e-05
4.718e-05
-2.95923e-05
-2.2945e-05
4.41913e-05
1.66932e-05
-2.3834e-05
6.4564e-06
-2.37416e-05
-7.97665e-06
-2.38687e-05
-2.22429e-05
-1.51085e-05
0.000101483
-2.20513e-05
9.98802e-05
-2.2147e-05
0.000100094
-2.40855e-05
-2.76144e-05
0.000105465
3.68446e-05
-2.17445e-05
3.78859e-05
-2.31883e-05
3.89362e-05
-2.51359e-05
-2.75197e-05
3.88416e-05
2.0506e-05
-1.78187e-05
1.73211e-05
-2.00036e-05
1.39368e-05
-2.17516e-05
-2.3796e-05
1.02131e-05
9.90914e-07
-1.7173e-05
-2.04765e-07
-1.88079e-05
-2.15792e-06
-1.97986e-05
-2.07898e-05
-5.1641e-06
-1.46203e-05
-1.68279e-05
-1.53832e-05
-1.80452e-05
-1.64685e-05
-1.87133e-05
-1.94661e-05
-1.77923e-05
-1.6802e-05
-1.62972e-05
-1.7798e-05
-1.70492e-05
-1.89405e-05
-1.7571e-05
-1.82306e-05
-2.0176e-05
-1.80234e-05
-1.58198e-05
-1.90056e-05
-1.60671e-05
-2.01655e-05
-1.64112e-05
-1.70529e-05
-2.13433e-05
-1.99129e-05
-2.07427e-05
-2.16284e-05
-2.27427e-05
5.42685e-05
-1.28645e-05
7.28797e-05
-1.33509e-05
9.34086e-05
1.1022e-06
0.00010612
1.43257e-05
0.000107625
6.61911e-05
0.000103027
9.78782e-05
0.000107027
6.59212e-06
0.000115419
-7.49726e-05
0.000120014
-8.12212e-05
0.000102607
-4.492e-05
6.85623e-05
3.8987e-05
7.82661e-05
7.41345e-05
0.000151802
0.00012166
0.000205735
0.000162818
0.000247508
0.000149493
0.000229916
0.00013771
0.000103571
0.000246909
5.37386e-05
0.000229458
0.000188739
6.32769e-05
-4.04999e-05
6.6772e-05
-6.02063e-05
8.72463e-05
-6.36101e-05
0.000100078
-3.87236e-05
9.90354e-05
-7.02297e-06
9.41894e-05
2.57236e-05
9.84992e-05
3.9226e-05
0.000115289
-4.40893e-05
0.000127799
-0.000103112
0.000137707
-9.92556e-05
0.000144112
-0.000108431
0.00015489
-0.00012156
0.000169104
-8.12061e-05
0.000214781
5.95008e-05
0.000199931
0.000156667
0.000120637
0.000200386
8.26976e-05
0.000250217
7.68887e-05
0.000264675
0.000231688
7.59815e-05
-9.33191e-05
8.68308e-05
-0.000110968
8.05029e-05
-0.000110132
9.17558e-05
-3.39791e-05
0.000100439
-2.68198e-06
0.000109192
8.18342e-06
0.00011957
1.23018e-05
0.000146786
-3.01195e-06
0.000161052
-9.38767e-05
0.000167766
-0.000121986
0.000174786
-0.000127391
0.000184893
-0.00013138
0.00019335
-0.000119104
0.000193137
-8.63335e-05
0.000181308
-2.16768e-05
0.000145817
0.000170942
0.0001119
0.000373378
8.78843e-05
0.0004906
0.000314103
0.00013385
-7.82093e-05
0.00013815
-5.48936e-05
0.000138298
-1.84728e-05
0.000138203
1.77494e-05
0.000143807
3.8875e-05
0.000145775
4.32325e-05
0.000156385
3.35653e-05
0.000170027
1.0231e-05
0.000185436
-3.31726e-05
0.000185895
-4.57537e-05
0.000190986
8.09853e-06
0.000192694
5.81955e-05
0.000201068
0.000117316
0.000214908
0.000188401
0.000203021
0.000248224
0.000157203
0.000355313
8.61931e-05
0.00045351
3.08313e-05
0.000590898
0.00049316
0.000141471
-3.13892e-05
0.000136367
-2.08982e-05
0.000150388
-1.10577e-05
0.000135493
1.72659e-05
0.000120189
3.03169e-05
0.000123883
3.14406e-05
0.00014546
3.44061e-05
0.000166717
3.18864e-05
0.000186668
2.8996e-05
0.000208114
2.54905e-05
0.000238017
2.57231e-05
0.000240419
6.69904e-05
0.000268081
7.2923e-05
0.000214587
0.000128248
0.000149498
0.000246417
9.41495e-05
0.000320929
3.75198e-05
0.00043
-2.15853e-05
0.000584216
0.000582998
0.000133739
-2.29487e-05
0.000128305
-2.97903e-05
0.000120609
-3.73532e-05
9.21939e-05
-2.12901e-05
7.86589e-05
-2.22433e-05
9.31012e-05
-3.49023e-05
0.000117663
-3.51934e-05
0.000144191
-2.69561e-05
0.000162024
-2.80492e-05
0.00019803
-3.41491e-05
0.000262006
-8.26404e-05
0.000262206
-6.53733e-05
0.000188818
2.98131e-05
9.53957e-05
0.000117641
1.92941e-05
0.000148669
-3.09871e-05
0.000214492
-6.23667e-05
0.000345574
-7.91855e-05
0.000513471
0.000530566
8.75378e-05
-4.6176e-05
8.21175e-05
-5.66233e-05
6.19605e-05
-7.18455e-05
2.6735e-05
-3.43087e-05
1.57711e-05
-5.86639e-05
2.27483e-05
-9.53996e-05
6.571e-05
-0.00012464
0.000121506
-0.000131291
0.000167842
-0.000135567
0.000206704
-0.000142591
0.000157049
-5.49872e-05
9.54489e-05
3.80404e-05
-8.54006e-07
2.06386e-05
-6.88713e-05
-5.88064e-06
-8.89329e-05
5.25041e-05
-0.00012341
0.000128766
-0.000130103
0.000246622
-0.000119855
0.000408956
0.000427273
3.53988e-05
-7.77753e-05
1.48545e-05
-6.68221e-05
1.67781e-05
-8.09021e-05
7.81522e-05
-9.6138e-05
0.000136497
-0.000117403
0.000169488
-0.000129691
0.000153155
-0.000126541
0.000121315
-0.000123618
0.000121306
-0.000149994
6.07386e-05
-4.05403e-05
-3.48769e-05
3.82466e-05
-7.69355e-05
3.36949e-05
-8.65428e-05
2.86191e-05
-0.000115496
3.37371e-05
-0.000148282
5.29412e-05
-0.000174919
9.3299e-05
-0.000166575
0.000178398
-0.000135151
0.000302308
0.000354598
8.27336e-07
-9.62661e-05
4.54209e-05
-0.000111511
8.15745e-05
-0.000117056
9.60064e-05
-0.00011057
9.46469e-05
-0.000116044
7.86843e-05
-0.000113728
5.10424e-05
-9.8901e-05
1.07513e-05
-8.32387e-05
-6.37497e-05
-6.78588e-05
-0.000130889
2.97592e-05
-0.000108769
5.36077e-05
-0.000128842
1.77081e-05
-0.000138065
2.63918e-05
-0.000163512
3.97611e-05
-0.00018712
6.61265e-05
-0.000221331
0.000103109
-0.000210986
0.000160513
-0.000144907
0.000246903
0.000282386
9.34432e-05
-8.4244e-05
7.91003e-05
-9.71677e-05
5.95305e-05
-9.74863e-05
3.54848e-05
-8.65241e-05
9.50189e-06
-9.00605e-05
-1.55406e-05
-8.86854e-05
-4.37315e-05
-7.07098e-05
-7.18988e-05
-5.50298e-05
-0.000126863
-9.33999e-06
-0.000143029
5.69883e-05
-0.000154251
6.61691e-05
-0.000137704
7.14652e-05
-0.000166328
3.87479e-05
-0.000190938
4.55811e-05
-0.000210755
9.38078e-05
-0.000234537
0.00013358
-0.000235522
0.0001695
-0.000146342
0.00024512
0.00027674
2.79794e-05
-7.33818e-05
7.5776e-06
-7.67659e-05
-1.36009e-05
-7.63078e-05
-2.68426e-05
-7.32824e-05
-3.73816e-05
-7.95213e-05
-5.16276e-05
-7.44393e-05
-6.31168e-05
-5.92203e-05
-7.72044e-05
-4.09378e-05
-8.60657e-05
2.80462e-07
-0.000112043
9.21629e-05
-0.000164406
0.000123009
-0.000166149
7.81547e-05
-0.000203918
7.21969e-05
-0.000193277
0.000125649
-0.000194231
0.000110609
-0.000210963
0.000155986
-0.000221353
0.000176352
-0.000121443
0.000220969
0.000247584
-2.87596e-06
-6.02928e-05
-1.6316e-05
-6.33259e-05
-2.74604e-05
-6.51634e-05
-3.6332e-05
-6.44107e-05
-4.67549e-05
-6.90983e-05
-5.74969e-05
-6.36972e-05
-6.36741e-05
-5.30431e-05
-6.40155e-05
-4.05962e-05
-5.3357e-05
-1.0365e-05
-2.69333e-05
6.66398e-05
-8.36996e-05
0.000184133
-0.000174933
0.000177162
-0.000180086
6.94795e-05
-0.000241793
8.34261e-05
-0.000173848
0.000233712
-0.00015969
0.000182547
-0.000134277
0.000150788
-6.49582e-05
0.000151839
0.000164544
-1.4624e-05
-5.0833e-05
-2.33969e-05
-5.4553e-05
-2.97981e-05
-5.87623e-05
-3.54416e-05
-5.87671e-05
-4.39612e-05
-6.05787e-05
-5.05547e-05
-5.71036e-05
-5.23502e-05
-5.12475e-05
-4.91825e-05
-4.3764e-05
-3.66376e-05
-2.291e-05
4.03838e-06
2.59705e-05
2.23252e-05
0.000165922
-7.44765e-05
0.000273824
-0.000146915
0.000150146
-0.000168889
9.0473e-05
-0.000157789
0.000108229
-0.000187146
0.000205505
-0.000113247
0.000245647
-5.84519e-05
0.000162083
0.000121859
-2.12895e-05
-4.73359e-05
-2.60949e-05
-4.97476e-05
-3.20216e-05
-5.28356e-05
-3.71298e-05
-5.36589e-05
-4.29049e-05
-5.48036e-05
-4.62746e-05
-5.3734e-05
-4.65615e-05
-5.09606e-05
-4.23953e-05
-4.79303e-05
-2.79245e-05
-3.73809e-05
2.48225e-06
-4.43643e-06
5.79396e-05
0.000110464
9.81425e-07
0.000330683
-0.000107806
0.000258847
-0.000154992
0.000137734
-0.00016299
0.000101471
-0.000128564
9.05806e-05
-0.000137273
0.000112108
-8.86649e-05
0.000193335
0.000112201
-2.32415e-05
-4.42705e-05
-2.5923e-05
-4.70662e-05
-3.01774e-05
-4.85813e-05
-3.43589e-05
-4.94775e-05
-3.90849e-05
-5.00776e-05
-4.24971e-05
-5.03218e-05
-4.41861e-05
-4.92717e-05
-4.11067e-05
-5.10098e-05
-2.94943e-05
-4.89936e-05
-6.48765e-06
-2.74432e-05
4.833e-05
5.56462e-05
4.98849e-05
0.000329128
-5.72606e-05
0.000365979
-0.000142542
0.000222896
-0.000162183
0.000120704
-0.000143273
6.71794e-05
-0.00014002
5.84446e-05
-0.000122621
3.03705e-05
6.78862e-05
-2.44209e-05
-4.1193e-05
-2.80453e-05
-4.34419e-05
-3.25512e-05
-4.40753e-05
-3.75019e-05
-4.45269e-05
-4.21464e-05
-4.54331e-05
-4.5683e-05
-4.67854e-05
-4.74416e-05
-4.75131e-05
-4.65886e-05
-5.1863e-05
-4.03427e-05
-5.52397e-05
-2.2086e-05
-4.57002e-05
2.48056e-05
8.75459e-06
7.06207e-05
0.000283313
1.07329e-05
0.000425867
-6.74661e-05
0.000301094
-0.000101098
0.000154324
-8.85209e-05
5.45153e-05
-8.73971e-05
4.89513e-05
-6.6666e-05
-3.15711e-05
-2.36013e-05
-2.54925e-05
-2.88339e-05
-3.22806e-05
-3.57455e-05
-3.9505e-05
-4.43678e-05
-4.91373e-05
-5.35787e-05
-5.58001e-05
-4.83216e-05
-2.71794e-05
4.17952e-05
3.57741e-05
5.43603e-06
-9.58745e-06
-1.52122e-05
-2.54039e-05
-1.44167e-05
)
;

boundaryField
{
    leftWall
    {
        type            fixedValue;
        value           nonuniform 0();
    }
    rightWall
    {
        type            fixedValue;
        value           uniform 0;
    }
    lowerWall
    {
        type            fixedValue;
        value           uniform 0;
    }
    atmosphere
    {
        type            calculated;
        value           nonuniform 0();
    }
    defaultFaces
    {
        type            empty;
        value           nonuniform 0();
    }
    procBoundary1to0
    {
        type            processor;
        value           nonuniform List<scalar> 
26
(
-2.853e-06
-3.31082e-06
-6.31358e-06
-5.39715e-06
-4.75812e-06
-2.79162e-06
-2.57424e-06
-3.49242e-06
-1.58269e-05
-1.28278e-05
-4.25029e-05
-0.000111422
-0.000113541
-9.16291e-05
-5.36049e-05
-4.22175e-06
-2.18486e-05
-2.21055e-05
-0.000103278
-3.71516e-05
-2.4432e-05
-1.63665e-06
1.42751e-05
1.62711e-05
1.7546e-05
1.92395e-05
)
;
    }
    procBoundary1to3
    {
        type            processor;
        value           nonuniform List<scalar> 
23
(
-1.51466e-05
-1.52373e-05
-1.55255e-05
-1.59387e-05
-3.84432e-05
-4.01005e-05
-4.06287e-05
-4.10619e-05
-4.16737e-05
-4.19225e-05
-4.27437e-05
-4.74216e-05
-5.30184e-05
-5.31787e-05
-1.23878e-05
0.000214338
0.000431888
0.000331432
0.000169348
6.01115e-05
5.44551e-05
-5.18184e-05
-3.59538e-05
)
;
    }
}


// ************************************************************************* //
