/*--------------------------------*- C++ -*----------------------------------*\
| =========                 |                                                 |
| \\      /  F ield         | OpenFOAM: The Open Source CFD Toolbox           |
|  \\    /   O peration     | Version:  2.4.0                                 |
|   \\  /    A nd           | Web:      www.OpenFOAM.org                      |
|    \\/     M anipulation  |                                                 |
\*---------------------------------------------------------------------------*/
FoamFile
{
    version     2.0;
    format      ascii;
    class       volScalarField;
    location    "0.5";
    object      rho;
}
// * * * * * * * * * * * * * * * * * * * * * * * * * * * * * * * * * * * * * //

dimensions      [1 -3 0 0 0 0 0];

internalField   nonuniform List<scalar> 
559
(
13528.8
13528.8
13528.8
13528.8
13528.8
13528.8
13528.7
13528.7
550.593
551.895
566.594
648.987
760.707
925.566
1155.74
1380.25
1544.53
1718.98
1900.37
2122.81
2691.91
3547.17
4854.48
5517.27
5553.15
5573.5
5583.42
541.125
533.525
526.004
520.535
521.106
550.276
615.633
705.294
748.057
691.247
637.608
502.26
494.107
498.597
603.894
1232.12
3094.46
5569.82
5593.67
600.229
669.551
651.395
622.672
649.292
768.642
932.46
1120.7
1267.89
1169.24
769.517
335.531
165.674
298.648
516.351
1053.47
1400.59
3784.88
5604.09
775.456
961.006
933.324
911.802
1011.56
1224.26
1426.35
1597.49
1787.87
1909.21
1359.48
279.349
21.9667
5.65079
89.9289
1174.97
1399.79
1706.82
5614.71
1120.9
1526.03
1542.05
1550.06
1721.56
1990.73
2067.46
2055
2124.9
2318.54
1942.56
614.051
49.4075
6.60754
69.1754
713.351
1517.08
1270.51
5016.75
1831.08
2437.98
2554.21
2594.2
2817.15
2968.36
2819.32
2524.86
2407.25
2547.11
2591.43
1130.2
59.6217
6.82981
79.29
599.63
1522.42
1170.46
4299.84
3259.3
3681.34
3826.25
3826.64
3912.61
3754.66
3367.04
2892.17
2550.02
2611.33
2643.34
1111.22
26.4883
6.80726
24.7137
1054.27
1530.13
1030.37
3577.65
6171.45
5517.36
4926.54
4940.27
4656.42
4144.08
3581.38
3025.08
2599.71
2636.7
2653.47
1818.5
191.981
15.9201
30.6391
1000.84
1439.39
850.194
2896
13527.7
13310
6074.89
1168.39
1003.91
795.492
520.36
248.401
13521
13498.6
13452.8
13372.1
13378
13298.7
13076.5
12689.2
7010.85
7341.3
7059.17
6431.25
1194.31
1205.25
1213.61
1223.25
995.167
985.439
973.9
961.693
776.291
761.002
744.92
728.795
520.115
519.401
510.27
492.311
225.168
197.191
152.976
106.114
1.59658
1.347
1.10705
1.01887
1.00006
1.0001
1.00011
1.00009
1.00005
1.00004
1.00003
1.00003
1.00003
1.00003
1.00002
1.00002
1.00001
1.00001
1.00001
1.00002
1
1.00001
1.00001
1.00002
1
1
1
1.00001
1
1
1
1
1
1
1
1
10637.3
8288.91
6290.64
5690.17
4813.47
3958.13
3360.95
2963.76
2599.12
2573.07
2710.49
2620.86
2451.65
2275.95
2276.1
2037.44
1143.21
658.426
2188.88
11434.2
9136.28
6903.12
4445.29
2982.53
2322.5
2091.95
2012.85
1973.13
1955.36
2181.78
2556.82
2528.75
2241.31
1556.51
966.868
677.686
572.382
1575.8
4895.58
3366.55
2532.72
1993.14
1415.03
1232.84
1166.49
1210.91
1316.35
1387.67
1357.26
1260.24
1099.08
901.661
743.381
651.878
591.24
550.112
1156.43
1224.31
1159.93
1079.91
987.772
914.239
894.811
904.481
950.287
1030.28
1112.99
1093.75
1015.21
904.503
775.55
660.22
609.492
556.873
536.506
856.878
926.411
848.17
771.594
691.295
664.35
673.603
704.571
756.095
838.243
855.741
854.333
809.216
735.577
649.527
611.75
516.748
446.073
508.483
665.975
678.261
595.03
466.787
317.552
295.169
353.447
449.934
556.101
598.993
604.864
547.9
427.327
443.35
492.572
443.466
445.708
447.801
464.979
563.079
427.359
280.666
62.579
6.8877
6.42258
19.7612
69.9869
141.464
141.46
108.933
131.446
301.317
467.086
484.255
429.02
429.934
429.978
481.968
519.932
38.2233
3.4586
1.01821
1.00026
1.00034
1.00088
1.01127
1.19624
1.57118
8.67059
228.272
467.194
498.68
498.514
480.69
449.191
480.198
500.734
509.341
1.00274
1.00014
1.00004
1.00005
1.00009
1.00014
1.00025
1.00067
1.82022
74.4442
379.735
496.615
499.758
499.863
497.851
493.085
496.603
502.848
509.963
1.00004
1.00003
1.00004
1.00013
1.00028
1.00046
1.00081
1.00173
1.66013
44.1634
289.789
481.004
499.127
499.878
499.937
498.975
498.672
500.97
505.073
1.00003
1.00004
1.00016
1.00036
1.00067
1.00095
1.00135
1.0019
1.04979
5.28601
70.9096
293.436
465.813
499.132
500.051
500.142
499.866
499.931
500.774
1.00003
1.0001
1.00029
1.00044
1.00047
1.00056
1.00072
1.00103
1.00245
1.07363
4.31317
39.4406
193.282
426.775
499.163
500.054
500.041
500.001
500.018
1.00004
1.0001
1.00016
1.00019
1.00021
1.00026
1.00035
1.00049
1.00076
1.00237
1.02895
1.85989
12.6916
100.254
339.028
480.701
499.677
500.001
500.007
1.00003
1.00004
1.00007
1.00008
1.00008
1.00011
1.00018
1.00029
1.00047
1.00081
1.00231
1.00319
1.10905
4.05583
35.0907
148.613
348.1
490.614
499.819
1.00001
1.00001
1.00002
1.00002
1.00003
1.00005
1.00009
1.00019
1.00035
1.00061
1.00125
1.0016
1.00123
1.00988
1.28843
4.34711
30.0044
229.544
478.787
1
1
1
1.00001
1.00001
1.00002
1.00005
1.00013
1.00028
1.00052
1.0009
1.00143
1.00124
1.00124
1.00141
1.00445
2.01887
67.251
430.142
1
1
1
1
1
1.00001
1.00003
1.00008
1.00021
1.00044
1.00079
1.00132
1.00124
1.00109
1.00117
1.0016
2.24773
141.039
453.927
)
;

boundaryField
{
    leftWall
    {
        type            calculated;
        value           nonuniform 0();
    }
    rightWall
    {
        type            calculated;
        value           nonuniform List<scalar> 
25
(
5583.42
5593.67
5604.09
5614.71
5016.75
4299.84
3577.65
2896
2188.88
1575.8
1156.43
856.878
665.975
563.079
519.932
509.341
509.963
505.073
500.774
500.018
500.007
499.819
478.787
430.142
453.927
)
;
    }
    lowerWall
    {
        type            calculated;
        value           nonuniform List<scalar> 
40
(
13528.8
13528.8
13528.8
13528.8
13528.8
13528.8
13528.8
13528.7
13528.7
13521
13498.6
13452.8
13372.1
550.593
541.125
600.229
775.456
1120.9
1831.08
3259.3
6171.45
550.593
551.895
566.594
648.987
760.707
925.566
1155.74
1380.25
1544.53
1718.98
1900.37
2122.81
2691.91
3547.17
4854.48
5517.27
5553.15
5573.5
5583.42
)
;
    }
    atmosphere
    {
        type            calculated;
        value           nonuniform 0();
    }
    defaultFaces
    {
        type            empty;
    }
    procBoundary1to0
    {
        type            processor;
        value           nonuniform List<scalar> 
26
(
13529
13529
13529
13529
13529
13529
13529
13528.9
13518.2
12369.1
3840.42
1127.2
1008.62
815.042
516.419
277.111
1.80235
1.80235
1.00004
1.00004
1.00005
1.00004
1.00001
1
1
1
)
;
    }
    procBoundary1to3
    {
        type            processor;
        value           nonuniform List<scalar> 
23
(
1
1
1
0.999999
0.999999
0.999999
0.999999
0.999999
1
1
1.00002
1.00005
1.00015
1.00035
1.00067
1.00109
1.00116
1.00101
1.00108
1.00134
1.15256
272.097
477.603
)
;
    }
}


// ************************************************************************* //
