/*--------------------------------*- C++ -*----------------------------------*\
| =========                 |                                                 |
| \\      /  F ield         | OpenFOAM: The Open Source CFD Toolbox           |
|  \\    /   O peration     | Version:  2.4.0                                 |
|   \\  /    A nd           | Web:      www.OpenFOAM.org                      |
|    \\/     M anipulation  |                                                 |
\*---------------------------------------------------------------------------*/
FoamFile
{
    version     2.0;
    format      ascii;
    class       volVectorField;
    location    "0.5";
    object      U;
}
// * * * * * * * * * * * * * * * * * * * * * * * * * * * * * * * * * * * * * //

dimensions      [0 1 -1 0 0 0 0];

internalField   nonuniform List<vector> 
559
(
(-0.00345895 0.00696 0)
(-0.00362204 0.0214335 0)
(0.0406486 0.0496726 0)
(0.0277534 0.0818927 0)
(0.0381703 0.105069 0)
(0.0214079 0.136805 0)
(0.0206265 0.141821 0)
(0.0272143 0.167085 0)
(-0.0893803 0.058119 0)
(-0.206377 0.0143963 0)
(-0.302057 -0.0334354 0)
(-0.360292 -0.0942149 0)
(-0.383229 -0.149814 0)
(-0.296581 -0.206792 0)
(-0.207536 -0.264195 0)
(-0.107274 -0.318769 0)
(0.0165973 -0.352764 0)
(0.128632 -0.405297 0)
(0.0940775 -0.453364 0)
(0.0554815 -0.421699 0)
(0.084834 -0.524924 0)
(0.120134 -0.508589 0)
(0.175005 -0.476877 0)
(0.252095 -0.337993 0)
(0.356128 -0.0830754 0)
(0.286227 -0.107799 0)
(0.269674 -0.120115 0)
(-0.0647351 0.0807972 0)
(-0.129214 0.0518648 0)
(-0.145363 0.0706844 0)
(-0.163438 0.111533 0)
(-0.197315 0.129333 0)
(-0.147625 0.104697 0)
(-0.0229341 0.14527 0)
(0.0679143 0.194301 0)
(0.178981 0.219288 0)
(0.249786 0.304851 0)
(0.182107 0.488599 0)
(0.116584 0.474904 0)
(0.0632269 0.559378 0)
(0.0909628 0.671078 0)
(0.0172683 0.633061 0)
(0.147132 0.219052 0)
(0.5138 -0.0892383 0)
(0.550617 0.10304 0)
(0.397442 0.213405 0)
(-0.0394179 0.134865 0)
(-0.00689995 0.0555169 0)
(0.0439736 0.0164332 0)
(0.0402185 -0.00561628 0)
(0.134544 -0.105226 0)
(0.299166 -0.19491 0)
(0.383324 -0.250521 0)
(0.485456 -0.276092 0)
(0.654165 -0.297902 0)
(0.842164 -0.281367 0)
(0.905699 -0.246622 0)
(1.16013 -0.23539 0)
(0.490187 -0.531955 0)
(0.237116 -0.682331 0)
(0.00916917 -0.595346 0)
(0.192658 -0.379509 0)
(0.245576 -0.0426051 0)
(0.372857 0.141307 0)
(0.345549 0.363139 0)
(0.0227451 0.130983 0)
(0.132115 0.00986767 0)
(0.312208 0.00635341 0)
(0.36804 0.0126416 0)
(0.527942 -0.0227508 0)
(0.744664 -0.103911 0)
(0.82462 -0.0910369 0)
(0.893766 -0.0775621 0)
(0.953936 -0.110086 0)
(1.06101 -0.118011 0)
(1.44861 -0.0332561 0)
(2.30376 0.280958 0)
(3.48653 1.0362 0)
(0.588664 1.15808 0)
(-0.257645 0.491431 0)
(0.371291 -0.242234 0)
(0.501683 -0.198717 0)
(0.18751 0.204728 0)
(0.311649 0.418372 0)
(0.0548607 0.0897503 0)
(0.20986 -0.0775915 0)
(0.419397 -0.0641439 0)
(0.544999 -0.0598742 0)
(0.741783 -0.15724 0)
(0.855431 -0.220183 0)
(0.894511 -0.208316 0)
(0.926589 -0.204802 0)
(0.934347 -0.243546 0)
(0.898221 -0.355014 0)
(1.06568 -0.448436 0)
(1.20776 -0.299844 0)
(2.44885 0.616641 0)
(0.470925 0.706956 0)
(-1.11238 0.152582 0)
(-0.10284 -0.391956 0)
(0.713418 -0.201396 0)
(0.0336282 0.339816 0)
(0.286388 0.532331 0)
(0.121332 0.0347752 0)
(0.258435 -0.158055 0)
(0.413935 -0.140167 0)
(0.572605 -0.119028 0)
(0.733175 -0.190247 0)
(0.794996 -0.230575 0)
(0.828695 -0.200136 0)
(0.847847 -0.162028 0)
(0.841561 -0.18854 0)
(0.771947 -0.328668 0)
(0.704305 -0.477034 0)
(0.606461 -0.395777 0)
(1.29595 0.680416 0)
(0.524265 1.32491 0)
(0.0044461 0.292291 0)
(0.0986911 -0.495764 0)
(0.780857 -0.278566 0)
(0.0558676 0.410208 0)
(0.27819 0.622559 0)
(0.22289 -0.062326 0)
(0.300555 -0.227587 0)
(0.383306 -0.212643 0)
(0.532144 -0.18989 0)
(0.635448 -0.237914 0)
(0.681006 -0.258514 0)
(0.701218 -0.22827 0)
(0.740992 -0.186636 0)
(0.762399 -0.194155 0)
(0.724553 -0.301811 0)
(0.596031 -0.41918 0)
(0.244034 -0.32598 0)
(-0.231597 1.20567 0)
(1.08526 1.03535 0)
(0.990328 0.0836407 0)
(0.772163 -0.510075 0)
(0.973999 -0.240575 0)
(0.156729 0.484517 0)
(0.301582 0.707154 0)
(0.276951 -0.220458 0)
(0.318275 -0.274208 0)
(0.387327 -0.251196 0)
(0.487436 -0.248167 0)
(0.567964 -0.269506 0)
(0.613703 -0.27063 0)
(0.629765 -0.241734 0)
(0.658099 -0.20152 0)
(0.688329 -0.198778 0)
(0.675256 -0.279728 0)
(0.572517 -0.340109 0)
(0.317855 -0.16613 0)
(-0.242707 0.650199 0)
(1.56422 1.8562 0)
(2.3103 1.58881 0)
(1.23923 0.0261776 0)
(1.11991 -0.0136313 0)
(0.206489 0.691987 0)
(0.301878 0.835063 0)
(0.118991 0.154674 0)
(0.100399 0.015673 0)
(0.242399 -0.00402639 0)
(0.671526 0.0297788 0)
(0.656663 -0.0871173 0)
(0.508309 -0.14404 0)
(0.282218 -0.170173 0)
(0.0591402 -0.327702 0)
(0.179969 0.105179 0)
(0.167446 0.0931565 0)
(0.143888 0.0253291 0)
(0.218509 -0.170417 0)
(0.158121 -0.0405324 0)
(0.195353 -0.0637179 0)
(0.260473 -0.133308 0)
(0.308367 -0.186083 0)
(0.285533 -0.109132 0)
(0.302891 -0.164753 0)
(0.334122 -0.238972 0)
(0.353151 -0.284752 0)
(0.683383 -0.0447918 0)
(0.691607 -0.106885 0)
(0.692217 -0.15101 0)
(0.692143 -0.195307 0)
(0.679868 -0.176534 0)
(0.714689 -0.229813 0)
(0.732531 -0.272823 0)
(0.742097 -0.314156 0)
(0.528172 -0.198379 0)
(0.560474 -0.238236 0)
(0.560067 -0.282358 0)
(0.565244 -0.316273 0)
(0.313185 -0.23994 0)
(0.34102 -0.270781 0)
(0.334997 -0.318401 0)
(0.368269 -0.365119 0)
(0.114003 -0.359065 0)
(0.149995 -0.403112 0)
(0.202204 -0.446173 0)
(0.239468 -0.411046 0)
(0.108456 0.347372 0)
(0.0703726 0.28596 0)
(0.00396158 0.225567 0)
(-0.087062 0.221571 0)
(0.557498 -0.63306 0)
(0.538881 -0.597672 0)
(0.536124 -0.582544 0)
(0.547972 -0.596675 0)
(0.200338 -0.058949 0)
(0.199783 -0.0815353 0)
(0.203782 -0.12227 0)
(0.213384 -0.168602 0)
(0.119653 -0.29343 0)
(0.0995115 -0.313723 0)
(0.084774 -0.329596 0)
(0.0662665 -0.353607 0)
(0.00750078 -0.198658 0)
(0.00153331 -0.223818 0)
(-0.00348669 -0.240471 0)
(-0.0198819 -0.254593 0)
(-0.0765221 -0.175948 0)
(-0.0804078 -0.193697 0)
(-0.0835847 -0.204513 0)
(-0.093515 -0.216632 0)
(-0.0877842 -0.197875 0)
(-0.0926693 -0.208414 0)
(-0.0968647 -0.214171 0)
(-0.105937 -0.220491 0)
(-0.0940223 -0.180933 0)
(-0.0993714 -0.185135 0)
(-0.103347 -0.18902 0)
(-0.112808 -0.195957 0)
(-0.1043 -0.179039 0)
(-0.109756 -0.180447 0)
(-0.112527 -0.184549 0)
(-0.120363 -0.191564 0)
(0.325206 -0.28629 0)
(0.337135 -0.332312 0)
(0.399229 -0.292361 0)
(0.471606 -0.307229 0)
(0.534169 -0.323961 0)
(0.566159 -0.30614 0)
(0.571462 -0.268408 0)
(0.590058 -0.255208 0)
(0.63356 -0.237515 0)
(0.6431 -0.271665 0)
(0.584822 -0.285172 0)
(0.532887 -0.14737 0)
(0.631206 0.0700821 0)
(0.943116 0.11058 0)
(1.22623 0.117361 0)
(1.28818 0.0871086 0)
(1.21148 0.236666 0)
(0.311615 0.982084 0)
(0.301844 1.04985 0)
(0.327724 -0.305041 0)
(0.356755 -0.397959 0)
(0.402773 -0.418192 0)
(0.467942 -0.365254 0)
(0.525286 -0.304038 0)
(0.541688 -0.25766 0)
(0.552416 -0.242405 0)
(0.573702 -0.254141 0)
(0.631338 -0.25804 0)
(0.693837 -0.265525 0)
(0.738002 -0.2782 0)
(0.777087 -0.249145 0)
(0.879798 -0.195023 0)
(1.0491 -0.0998618 0)
(1.19913 0.222518 0)
(1.05972 0.457254 0)
(0.952175 0.721312 0)
(0.335002 1.32466 0)
(0.327662 1.31605 0)
(0.399871 -0.356628 0)
(0.462962 -0.393425 0)
(0.504791 -0.397284 0)
(0.532986 -0.360018 0)
(0.581017 -0.290278 0)
(0.625905 -0.254557 0)
(0.668595 -0.25556 0)
(0.719696 -0.286735 0)
(0.764884 -0.319233 0)
(0.815524 -0.309448 0)
(0.871253 -0.27427 0)
(0.935755 -0.208311 0)
(1.02906 -0.0603 0)
(1.07095 0.110767 0)
(1.12145 0.311445 0)
(0.991828 0.498939 0)
(0.96491 0.865374 0)
(0.478108 1.5375 0)
(0.349123 1.59081 0)
(0.715667 -0.303335 0)
(0.729184 -0.391227 0)
(0.732324 -0.411917 0)
(0.74239 -0.39186 0)
(0.761079 -0.364145 0)
(0.79214 -0.335468 0)
(0.82684 -0.324021 0)
(0.868978 -0.338247 0)
(0.907721 -0.359789 0)
(0.948454 -0.354395 0)
(0.983818 -0.339565 0)
(1.05225 -0.342055 0)
(1.12126 -0.283732 0)
(1.17657 -0.0919645 0)
(1.2461 0.213605 0)
(1.03987 0.518881 0)
(0.964794 1.05217 0)
(0.517194 1.85016 0)
(0.34743 1.95164 0)
(0.770917 -0.385073 0)
(0.767508 -0.446244 0)
(0.759197 -0.485766 0)
(0.764031 -0.467109 0)
(0.746137 -0.43444 0)
(0.75675 -0.387581 0)
(0.797513 -0.367487 0)
(0.860703 -0.37833 0)
(0.913443 -0.413485 0)
(0.99534 -0.388991 0)
(1.08751 -0.45709 0)
(1.17753 -0.434492 0)
(1.2317 -0.323905 0)
(1.23931 -0.145766 0)
(1.06912 0.193319 0)
(0.765762 0.766351 0)
(0.692112 1.40944 0)
(0.332906 2.21419 0)
(0.270739 2.34732 0)
(0.595531 -0.397316 0)
(0.619253 -0.456362 0)
(0.603105 -0.482459 0)
(0.561984 -0.405833 0)
(0.484654 -0.35562 0)
(0.506274 -0.367731 0)
(0.604202 -0.438915 0)
(0.718399 -0.497347 0)
(0.808232 -0.523023 0)
(0.926387 -0.527022 0)
(1.06837 -0.584124 0)
(1.15678 -0.494293 0)
(1.01736 -0.348021 0)
(0.491826 0.214464 0)
(0.254244 0.659845 0)
(0.0855864 1.00175 0)
(0.190318 1.57274 0)
(-0.0139284 2.38238 0)
(0.13983 2.48196 0)
(0.405152 -0.426196 0)
(0.40574 -0.490628 0)
(0.33196 -0.321886 0)
(0.320921 0.429954 0)
(0.0211888 0.460272 0)
(0.0843602 0.0642793 0)
(0.277062 -0.317948 0)
(0.499444 -0.474471 0)
(0.745557 -0.519167 0)
(1.01784 -0.591133 0)
(0.965602 -0.585018 0)
(0.204418 0.0177394 0)
(-0.242912 0.365555 0)
(-0.359815 0.479897 0)
(-0.41049 0.669795 0)
(-0.401706 0.982045 0)
(-0.264577 1.56453 0)
(-0.256367 2.29617 0)
(0.0990067 2.44168 0)
(0.196127 -0.228562 0)
(0.157428 0.275943 0)
(0.0441454 -0.0169052 0)
(0.184206 -0.507088 0)
(0.623789 -0.666919 0)
(0.818301 -0.520413 0)
(0.89886 -0.0923937 0)
(0.780142 0.00536909 0)
(0.471657 -0.23062 0)
(1.18578 -0.440279 0)
(-0.448118 0.298099 0)
(-0.625147 0.295662 0)
(-0.67198 0.318052 0)
(-0.713599 0.450973 0)
(-0.72613 0.659216 0)
(-0.771042 0.920036 0)
(-0.617031 1.42061 0)
(-0.420171 2.1223 0)
(0.0150891 2.30597 0)
(-0.0730093 -0.253294 0)
(0.0938291 -0.685632 0)
(0.335331 -0.733964 0)
(0.49247 -0.688783 0)
(0.535584 -0.751732 0)
(0.458826 -0.825848 0)
(0.405676 -0.886163 0)
(0.165413 -0.828898 0)
(0.013234 -0.810183 0)
(-0.64775 0.196674 0)
(-0.802983 0.29774 0)
(-0.830755 0.313605 0)
(-0.848916 0.346975 0)
(-0.882561 0.458782 0)
(-0.895285 0.661155 0)
(-0.954527 0.877633 0)
(-0.890649 1.20567 0)
(-0.519169 1.74544 0)
(-0.221122 1.97489 0)
(0.534431 -0.631771 0)
(0.480223 -0.566535 0)
(0.390915 -0.508676 0)
(0.275554 -0.389391 0)
(0.119306 -0.394359 0)
(-0.0338816 -0.383705 0)
(-0.149034 -0.262982 0)
(-0.315039 -0.198288 0)
(-0.465972 -0.064891 0)
(-0.808985 0.227453 0)
(-0.936346 0.337475 0)
(-0.899069 0.344868 0)
(-0.907134 0.377614 0)
(-0.94626 0.492497 0)
(-0.953667 0.664967 0)
(-0.963626 0.862166 0)
(-0.921712 1.04228 0)
(-0.566894 1.40633 0)
(-0.304539 1.51818 0)
(0.198877 -0.269302 0)
(0.106645 -0.332847 0)
(-0.0271403 -0.370951 0)
(-0.112226 -0.396902 0)
(-0.176892 -0.424693 0)
(-0.247591 -0.380686 0)
(-0.309141 -0.297979 0)
(-0.381623 -0.204401 0)
(-0.444483 0.0353332 0)
(-0.382815 0.397419 0)
(-0.95088 0.414995 0)
(-0.950087 0.393871 0)
(-0.930432 0.385175 0)
(-0.945714 0.497072 0)
(-0.950484 0.666429 0)
(-0.905359 0.823123 0)
(-0.788657 0.905254 0)
(-0.540178 1.11254 0)
(-0.161961 1.14496 0)
(0.0255119 -0.373108 0)
(-0.0530234 -0.37839 0)
(-0.120069 -0.366527 0)
(-0.17287 -0.338253 0)
(-0.22657 -0.352869 0)
(-0.288507 -0.343435 0)
(-0.329234 -0.293713 0)
(-0.349862 -0.231338 0)
(-0.323944 -0.051331 0)
(-0.1961 0.423107 0)
(-0.102382 0.794841 0)
(-0.777886 0.478179 0)
(-0.928307 0.381915 0)
(-0.92034 0.461284 0)
(-0.879284 0.593639 0)
(-0.839583 0.733817 0)
(-0.700299 0.775643 0)
(-0.421152 0.813716 0)
(-0.147274 0.86388 0)
(-0.0498623 -0.261124 0)
(-0.104869 -0.269579 0)
(-0.145798 -0.28351 0)
(-0.174607 -0.288954 0)
(-0.21288 -0.312503 0)
(-0.261429 -0.296687 0)
(-0.277871 -0.253216 0)
(-0.278883 -0.195071 0)
(-0.246331 -0.0627203 0)
(-0.11467 0.203348 0)
(0.174647 0.903352 0)
(-0.0154767 1.11124 0)
(-0.672533 0.374864 0)
(-0.829683 0.399036 0)
(-0.78464 0.582181 0)
(-0.663324 0.539392 0)
(-0.595166 0.542026 0)
(-0.392169 0.575805 0)
(-0.222473 0.611884 0)
(-0.101345 -0.230832 0)
(-0.129526 -0.256721 0)
(-0.155836 -0.281436 0)
(-0.185262 -0.278444 0)
(-0.218359 -0.27973 0)
(-0.24184 -0.266644 0)
(-0.249809 -0.24906 0)
(-0.242238 -0.226631 0)
(-0.208709 -0.158634 0)
(-0.0624531 0.0447043 0)
(0.0977916 0.666254 0)
(0.443559 1.54381 0)
(-0.402596 0.925077 0)
(-0.820523 0.47381 0)
(-0.884754 0.494398 0)
(-0.661156 0.671656 0)
(-0.487014 0.472291 0)
(-0.315021 0.332452 0)
(-0.208314 0.332706 0)
(-0.116642 -0.22692 0)
(-0.134797 -0.234723 0)
(-0.149043 -0.240294 0)
(-0.170382 -0.249638 0)
(-0.195899 -0.256024 0)
(-0.221129 -0.257908 0)
(-0.233902 -0.248206 0)
(-0.231163 -0.242979 0)
(-0.20662 -0.212493 0)
(-0.0670832 -0.0913992 0)
(-0.0207092 0.36612 0)
(0.529334 1.62261 0)
(0.0458729 1.53176 0)
(-0.712445 0.784287 0)
(-0.848064 0.445239 0)
(-0.815237 0.384815 0)
(-0.867024 0.547592 0)
(-0.333882 0.295598 0)
(-0.0580802 0.0565762 0)
(-0.123045 -0.202245 0)
(-0.140563 -0.215944 0)
(-0.162704 -0.22187 0)
(-0.186578 -0.223929 0)
(-0.214977 -0.229566 0)
(-0.235224 -0.233263 0)
(-0.249974 -0.232578 0)
(-0.249837 -0.253081 0)
(-0.235994 -0.259117 0)
(-0.1393 -0.186905 0)
(-0.164174 0.112247 0)
(0.456987 1.54438 0)
(0.310768 1.97091 0)
(-0.222606 1.36068 0)
(-0.549252 0.658309 0)
(-0.435638 0.245481 0)
(-0.610212 0.163121 0)
(-0.309736 0.0269415 0)
(0.00458103 -0.117713 0)
(-0.130491 -0.197005 0)
(-0.145108 -0.207884 0)
(-0.1646 -0.211668 0)
(-0.183004 -0.214151 0)
(-0.200216 -0.215551 0)
(-0.220591 -0.219389 0)
(-0.251853 -0.221737 0)
(-0.271352 -0.240995 0)
(-0.28621 -0.264804 0)
(-0.27947 -0.247803 0)
(-0.331038 -0.0240465 0)
(0.0650056 1.20677 0)
(0.360047 2.12186 0)
(0.0778477 1.63588 0)
(-0.0685536 0.857067 0)
(-8.54342e-05 0.287185 0)
(-0.203738 0.274096 0)
(-0.0491965 -0.242462 0)
(0.0155631 -0.186566 0)
)
;

boundaryField
{
    leftWall
    {
        type            calculated;
        value           nonuniform 0();
    }
    rightWall
    {
        type            calculated;
        value           uniform (0 0 0);
    }
    lowerWall
    {
        type            calculated;
        value           uniform (0 0 0);
    }
    atmosphere
    {
        type            calculated;
        value           nonuniform 0();
    }
    defaultFaces
    {
        type            empty;
    }
    procBoundary1to0
    {
        type            processor;
        value           nonuniform List<vector> 
26
(
(0.0653031 0.0161399 0)
(0.0758197 0.040683 0)
(0.102351 0.0683315 0)
(0.0929278 0.0874941 0)
(0.0672504 0.0964982 0)
(0.038989 0.121812 0)
(0.0338976 0.129633 0)
(0.047536 0.150034 0)
(0.0527575 0.139777 0)
(0.0466408 0.0088521 0)
(0.260353 0.133786 0)
(0.618059 0.127811 0)
(0.562838 -0.00194355 0)
(0.455949 -0.0946569 0)
(0.219108 -0.11179 0)
(-0.0214123 -0.307578 0)
(0.132203 0.43048 0)
(0.132203 0.43048 0)
(0.554484 -0.653736 0)
(0.201901 -0.031152 0)
(0.157222 -0.285415 0)
(0.01593 -0.17364 0)
(-0.0724987 -0.15309 0)
(-0.0856158 -0.187306 0)
(-0.0929341 -0.17514 0)
(-0.0996049 -0.177697 0)
)
;
    }
    procBoundary1to3
    {
        type            processor;
        value           nonuniform List<vector> 
23
(
(-0.10832 -0.16636 0)
(-0.112192 -0.167211 0)
(-0.114152 -0.169475 0)
(-0.119707 -0.172795 0)
(-0.128748 -0.17579 0)
(-0.143066 -0.18075 0)
(-0.163093 -0.180805 0)
(-0.190112 -0.180663 0)
(-0.21211 -0.18492 0)
(-0.238783 -0.18524 0)
(-0.268334 -0.191124 0)
(-0.298279 -0.211216 0)
(-0.338555 -0.235927 0)
(-0.396742 -0.244402 0)
(-0.486001 -0.0783281 0)
(-0.328105 0.87049 0)
(0.32716 2.08505 0)
(0.201836 1.6514 0)
(0.242196 0.894017 0)
(0.272343 0.342919 0)
(-0.134354 0.288319 0)
(0.031886 -0.289632 0)
(0.00808968 -0.1794 0)
)
;
    }
}


// ************************************************************************* //
