/*--------------------------------*- C++ -*----------------------------------*\
| =========                 |                                                 |
| \\      /  F ield         | OpenFOAM: The Open Source CFD Toolbox           |
|  \\    /   O peration     | Version:  2.4.0                                 |
|   \\  /    A nd           | Web:      www.OpenFOAM.org                      |
|    \\/     M anipulation  |                                                 |
\*---------------------------------------------------------------------------*/
FoamFile
{
    version     2.0;
    format      ascii;
    class       volVectorField;
    location    "0.5";
    object      U.mercury;
}
// * * * * * * * * * * * * * * * * * * * * * * * * * * * * * * * * * * * * * //

dimensions      [0 1 -1 0 0 0 0];

internalField   nonuniform List<vector> 
559
(
(-0.00345894 0.00695983 0)
(-0.00362203 0.0214333 0)
(0.0406487 0.0496724 0)
(0.0277534 0.0818925 0)
(0.0381703 0.105068 0)
(0.0214079 0.136805 0)
(0.0206265 0.14182 0)
(0.0272143 0.167085 0)
(-0.240335 -0.618363 0)
(-0.288555 -0.726925 0)
(-0.408698 -0.807575 0)
(-0.501375 -0.843024 0)
(-0.427816 -0.83835 0)
(-0.288838 -0.832377 0)
(-0.165497 -0.821275 0)
(-0.0769757 -0.82146 0)
(-0.024248 -0.820209 0)
(-0.0193649 -0.81791 0)
(-0.0786251 -0.786584 0)
(-0.0148286 -0.742733 0)
(0.0961117 -0.763412 0)
(0.180494 -0.700363 0)
(0.283695 -0.619892 0)
(0.380741 -0.513077 0)
(0.480741 -0.270352 0)
(0.431657 -0.251532 0)
(0.362963 -0.26697 0)
(0.083419 -0.546193 0)
(0.20295 -0.583739 0)
(0.291828 -0.575467 0)
(0.355372 -0.551229 0)
(0.529513 -0.603601 0)
(0.667992 -0.69933 0)
(0.71075 -0.698614 0)
(0.731341 -0.682776 0)
(0.756743 -0.699383 0)
(0.834958 -0.784133 0)
(0.894629 -0.984669 0)
(1.18837 -1.19126 0)
(0.83845 -0.70598 0)
(1.40996 -1.57573 0)
(1.01066 -1.2042 0)
(0.816478 -0.884151 0)
(0.794385 -0.603482 0)
(0.697061 -0.109177 0)
(0.476079 0.00642342 0)
(0.11747 -0.529768 0)
(0.218713 -0.565214 0)
(0.312748 -0.561838 0)
(0.407398 -0.545093 0)
(0.566257 -0.612612 0)
(0.702782 -0.686149 0)
(0.754702 -0.688063 0)
(0.779425 -0.675576 0)
(0.786462 -0.678854 0)
(0.811036 -0.71929 0)
(0.976641 -0.931453 0)
(1.4652 -1.52176 0)
(1.44067 -1.82979 0)
(1.53625 -2.10172 0)
(1.10799 -1.63721 0)
(0.897796 -1.0673 0)
(0.902229 -0.835365 0)
(0.612549 -0.200838 0)
(0.43562 0.171177 0)
(0.126764 -0.478831 0)
(0.237617 -0.517385 0)
(0.345484 -0.497396 0)
(0.448983 -0.480244 0)
(0.611806 -0.549609 0)
(0.744804 -0.60607 0)
(0.799073 -0.611231 0)
(0.81421 -0.607978 0)
(0.805532 -0.618606 0)
(0.784306 -0.660563 0)
(0.878133 -0.804548 0)
(1.2363 -1.27153 0)
(1.29889 -1.54716 0)
(1.76369 -2.22224 0)
(1.23673 -1.60462 0)
(0.995203 -1.05212 0)
(1.06201 -0.822771 0)
(0.763189 -0.544173 0)
(0.406994 0.234471 0)
(0.145401 -0.424373 0)
(0.253382 -0.484668 0)
(0.357925 -0.458823 0)
(0.483853 -0.441172 0)
(0.641753 -0.512811 0)
(0.736959 -0.5609 0)
(0.78284 -0.573717 0)
(0.797257 -0.589491 0)
(0.780002 -0.621517 0)
(0.718251 -0.701682 0)
(0.716535 -0.831177 0)
(0.872434 -1.05872 0)
(0.906942 -1.12592 0)
(1.17429 -1.4754 0)
(1.27239 -1.30342 0)
(1.06968 -1.07305 0)
(1.12927 -0.811869 0)
(0.863571 -0.547212 0)
(0.385813 0.333094 0)
(0.184472 -0.374262 0)
(0.271414 -0.464577 0)
(0.358378 -0.442567 0)
(0.492338 -0.424421 0)
(0.629519 -0.473106 0)
(0.691118 -0.510124 0)
(0.727718 -0.510512 0)
(0.751203 -0.521131 0)
(0.74898 -0.564398 0)
(0.693387 -0.6573 0)
(0.651492 -0.738988 0)
(0.702737 -0.853779 0)
(0.757595 -0.9349 0)
(1.34545 -1.58988 0)
(1.55388 -1.29115 0)
(1.1785 -0.931498 0)
(1.16216 -0.78881 0)
(0.937128 -0.566961 0)
(0.384985 0.397186 0)
(0.248241 -0.355864 0)
(0.296484 -0.455219 0)
(0.354768 -0.439013 0)
(0.483381 -0.421314 0)
(0.574379 -0.468442 0)
(0.61768 -0.509752 0)
(0.64062 -0.515458 0)
(0.674795 -0.522736 0)
(0.702611 -0.563133 0)
(0.690609 -0.636005 0)
(0.648651 -0.694903 0)
(0.653256 -0.773459 0)
(0.728865 -0.937766 0)
(1.42098 -1.68799 0)
(2.06632 -1.50607 0)
(1.1984 -0.867944 0)
(1.18057 -0.727223 0)
(0.999143 -0.550173 0)
(0.417155 0.440071 0)
(0.288166 -0.370859 0)
(0.319222 -0.446356 0)
(0.363075 -0.444277 0)
(0.454464 -0.43847 0)
(0.526625 -0.478786 0)
(0.573141 -0.514096 0)
(0.596653 -0.526854 0)
(0.62715 -0.536636 0)
(0.667646 -0.572089 0)
(0.681881 -0.630586 0)
(0.65507 -0.650249 0)
(0.658087 -0.66809 0)
(0.722832 -0.840181 0)
(1.39899 -1.53192 0)
(2.02255 -1.46971 0)
(1.23216 -0.738573 0)
(1.17282 -0.640916 0)
(1.02779 -0.504643 0)
(0.429362 0.510084 0)
(0.118991 0.154671 0)
(0.100794 0.0133787 0)
(0.230509 -0.108959 0)
(0.472382 -0.229081 0)
(0.511349 -0.335847 0)
(0.511186 -0.167217 0)
(0.281323 -0.18893 0)
(0.0501188 -0.487038 0)
(0.179973 0.105126 0)
(0.167491 0.0928007 0)
(0.143835 0.0244215 0)
(0.217939 -0.172249 0)
(0.158051 -0.0419971 0)
(0.195027 -0.0660447 0)
(0.259596 -0.137936 0)
(0.306624 -0.194627 0)
(0.276065 -0.192983 0)
(0.291529 -0.240275 0)
(0.31726 -0.318732 0)
(0.329671 -0.374208 0)
(0.531043 -0.268414 0)
(0.576449 -0.326476 0)
(0.609837 -0.371429 0)
(0.628759 -0.392206 0)
(0.540191 -0.409325 0)
(0.583218 -0.449063 0)
(0.632345 -0.471113 0)
(0.65387 -0.504239 0)
(0.532932 -0.222153 0)
(0.570376 -0.261696 0)
(0.575841 -0.300901 0)
(0.58396 -0.338373 0)
(0.312139 -0.262557 0)
(0.34091 -0.297373 0)
(0.331069 -0.35045 0)
(0.359524 -0.410595 0)
(0.0955596 -0.526407 0)
(0.119477 -0.591398 0)
(0.158829 -0.684633 0)
(0.194859 -0.719452 0)
(0.118907 0.0176786 0)
(0.0915009 0.0321637 0)
(0.0219513 0.096894 0)
(-0.0805325 0.190322 0)
(0.557476 -0.63311 0)
(0.538861 -0.597699 0)
(0.536112 -0.582552 0)
(0.547966 -0.596671 0)
(0.200334 -0.058966 0)
(0.199778 -0.081548 0)
(0.203778 -0.122279 0)
(0.213384 -0.168607 0)
(0.119648 -0.293432 0)
(0.099507 -0.313722 0)
(0.0847696 -0.329593 0)
(0.0662623 -0.353604 0)
(0.00750276 -0.198659 0)
(0.0015357 -0.223818 0)
(-0.00348462 -0.240468 0)
(-0.0198811 -0.254589 0)
(-0.0765173 -0.175941 0)
(-0.0804031 -0.193689 0)
(-0.0835803 -0.204504 0)
(-0.093511 -0.216622 0)
(-0.087777 -0.197868 0)
(-0.0926617 -0.208406 0)
(-0.0968567 -0.214161 0)
(-0.105929 -0.22048 0)
(-0.0940122 -0.180927 0)
(-0.0993612 -0.185128 0)
(-0.103336 -0.189012 0)
(-0.112797 -0.195948 0)
(-0.104288 -0.179034 0)
(-0.109743 -0.180441 0)
(-0.112514 -0.184543 0)
(-0.12035 -0.191557 0)
(0.313986 -0.331562 0)
(0.334304 -0.434896 0)
(0.378865 -0.456426 0)
(0.43915 -0.485325 0)
(0.499049 -0.532173 0)
(0.540485 -0.56211 0)
(0.56309 -0.569105 0)
(0.596272 -0.592679 0)
(0.648139 -0.614613 0)
(0.688531 -0.641121 0)
(0.686472 -0.636429 0)
(0.682125 -0.577476 0)
(0.760194 -0.55218 0)
(0.950284 -0.549804 0)
(1.14022 -0.555852 0)
(1.17624 -0.58521 0)
(1.16943 -0.58785 0)
(1.0377 -0.478061 0)
(0.433024 0.641915 0)
(0.324532 -0.32699 0)
(0.354918 -0.456074 0)
(0.397988 -0.528665 0)
(0.451271 -0.577056 0)
(0.510263 -0.635086 0)
(0.548365 -0.653588 0)
(0.585559 -0.667187 0)
(0.631637 -0.701018 0)
(0.694268 -0.722407 0)
(0.758747 -0.743092 0)
(0.798668 -0.719456 0)
(0.838505 -0.672221 0)
(0.914782 -0.65812 0)
(1.02692 -0.63514 0)
(1.08628 -0.6192 0)
(1.05972 -0.681844 0)
(1.01542 -0.676848 0)
(0.862692 -0.409457 0)
(0.45898 0.790073 0)
(0.375912 -0.482753 0)
(0.458393 -0.585199 0)
(0.513997 -0.660988 0)
(0.573268 -0.700271 0)
(0.683646 -0.768195 0)
(0.795705 -0.814837 0)
(0.88527 -0.861211 0)
(0.958907 -0.890145 0)
(0.939786 -0.884167 0)
(0.938698 -0.8778 0)
(0.947184 -0.887339 0)
(0.979998 -0.938771 0)
(1.00127 -0.985058 0)
(1.01051 -0.99817 0)
(1.02522 -0.976035 0)
(0.979822 -0.895932 0)
(0.893519 -0.658782 0)
(0.770738 -0.210822 0)
(0.486204 0.932566 0)
(0.692434 -0.477046 0)
(0.779355 -0.573223 0)
(0.808944 -0.639729 0)
(0.836861 -0.703139 0)
(0.882448 -0.762601 0)
(1.03818 -0.82605 0)
(1.20706 -0.914244 0)
(1.19108 -0.914829 0)
(1.12276 -0.910969 0)
(1.0393 -0.889636 0)
(1.0244 -0.923054 0)
(1.02278 -1.01763 0)
(1.01352 -1.07816 0)
(1.00356 -1.05708 0)
(0.98981 -1.00287 0)
(0.882005 -0.810588 0)
(0.814712 -0.552793 0)
(0.637735 0.0563791 0)
(0.508088 1.11466 0)
(0.742263 -0.544942 0)
(0.829991 -0.661008 0)
(0.842953 -0.756195 0)
(0.855521 -0.80061 0)
(0.888923 -0.797824 0)
(1.02139 -0.828475 0)
(1.19903 -0.986848 0)
(1.24538 -1.07534 0)
(1.10082 -1.00942 0)
(1.05629 -1.04157 0)
(1.05302 -1.07006 0)
(1.03563 -1.13622 0)
(0.968359 -1.1365 0)
(0.89117 -1.02895 0)
(0.655178 -0.703721 0)
(0.64265 -0.587056 0)
(0.764236 -0.366716 0)
(0.487501 0.373652 0)
(0.514147 1.30207 0)
(0.607575 -0.414314 0)
(0.645218 -0.52619 0)
(0.629513 -0.690062 0)
(0.605424 -0.78413 0)
(0.611751 -0.783755 0)
(0.691423 -0.798136 0)
(1.00013 -1.14367 0)
(1.05184 -1.24128 0)
(1.01057 -1.22126 0)
(0.973311 -1.19793 0)
(0.962833 -1.26549 0)
(0.855396 -1.26187 0)
(0.705108 -1.1095 0)
(0.0645114 -0.142225 0)
(0.101585 -0.0724682 0)
(0.406156 -0.327536 0)
(0.497142 -0.147489 0)
(0.223134 0.855499 0)
(0.516653 1.42932 0)
(0.38554 -0.501106 0)
(0.348488 -0.631852 0)
(0.228098 -0.783528 0)
(0.201419 -0.482169 0)
(0.0305991 -0.518273 0)
(0.160583 -0.828629 0)
(0.504517 -1.0544 0)
(0.818707 -1.48493 0)
(0.863666 -1.57207 0)
(0.859363 -1.55426 0)
(0.534544 -1.4921 0)
(-0.324434 -0.0788184 0)
(-0.481102 0.386746 0)
(-0.412707 0.336454 0)
(-0.122174 0.163472 0)
(0.169399 -0.0737827 0)
(0.230056 0.147277 0)
(0.0446198 1.13032 0)
(0.517626 1.49809 0)
(0.177903 -0.752521 0)
(0.175209 -0.285779 0)
(0.0478715 -0.0342623 0)
(0.184443 -0.50826 0)
(0.623349 -0.667485 0)
(0.81317 -0.519833 0)
(0.893226 -0.163752 0)
(0.800248 -0.329669 0)
(0.513981 -0.506493 0)
(-0.322646 -0.162634 0)
(-0.727311 0.348546 0)
(-0.6996 0.327586 0)
(-0.709113 0.374682 0)
(-0.67187 0.464586 0)
(-0.531242 0.512704 0)
(-0.342111 0.484217 0)
(-0.242262 0.846945 0)
(-0.0259551 1.41215 0)
(0.480843 1.43442 0)
(-0.072761 -0.255228 0)
(0.0937968 -0.686462 0)
(0.335266 -0.734191 0)
(0.492344 -0.689087 0)
(0.534739 -0.752584 0)
(0.454814 -0.825551 0)
(0.398275 -0.880012 0)
(0.151618 -0.811657 0)
(-0.320673 -0.424311 0)
(-0.857379 0.325847 0)
(-0.854775 0.326767 0)
(-0.850448 0.340937 0)
(-0.84756 0.396019 0)
(-0.850102 0.522021 0)
(-0.796639 0.691537 0)
(-0.778777 0.868791 0)
(-0.608955 1.12491 0)
(-0.0625885 1.40894 0)
(0.323274 1.34438 0)
(0.53442 -0.63179 0)
(0.480198 -0.566565 0)
(0.390818 -0.508718 0)
(0.275106 -0.389597 0)
(0.117873 -0.395462 0)
(-0.0376051 -0.386297 0)
(-0.154894 -0.26839 0)
(-0.317979 -0.204658 0)
(-0.684103 0.0814388 0)
(-1.03142 0.396672 0)
(-0.945601 0.364848 0)
(-0.914619 0.361153 0)
(-0.913011 0.413578 0)
(-0.904256 0.535053 0)
(-0.864942 0.706329 0)
(-0.822916 0.895765 0)
(-0.687842 1.08213 0)
(-0.178794 1.36097 0)
(0.155202 1.34261 0)
(0.198871 -0.269308 0)
(0.106623 -0.332856 0)
(-0.0271927 -0.370999 0)
(-0.112342 -0.397305 0)
(-0.177228 -0.426367 0)
(-0.248049 -0.382995 0)
(-0.307765 -0.295788 0)
(-0.371598 -0.193398 0)
(-0.480062 0.0615967 0)
(-0.982633 0.546652 0)
(-1.09488 0.468896 0)
(-0.970634 0.396213 0)
(-0.931936 0.408322 0)
(-0.917773 0.513522 0)
(-0.887006 0.680327 0)
(-0.808372 0.848076 0)
(-0.668642 0.94617 0)
(-0.347029 1.22203 0)
(0.0318308 1.32419 0)
(0.0255029 -0.373105 0)
(-0.0530424 -0.378389 0)
(-0.120106 -0.366582 0)
(-0.173003 -0.338788 0)
(-0.226943 -0.354899 0)
(-0.288921 -0.347498 0)
(-0.328612 -0.301115 0)
(-0.345537 -0.245218 0)
(-0.314477 -0.0756062 0)
(-0.290806 0.417593 0)
(-0.808848 0.766538 0)
(-1.06533 0.488463 0)
(-0.970144 0.420894 0)
(-0.889642 0.462863 0)
(-0.849951 0.593109 0)
(-0.797084 0.725762 0)
(-0.656368 0.772089 0)
(-0.389282 0.85793 0)
(-0.104366 0.983273 0)
(-0.0498651 -0.261117 0)
(-0.104877 -0.26957 0)
(-0.145813 -0.283528 0)
(-0.174657 -0.289205 0)
(-0.213069 -0.313736 0)
(-0.261674 -0.299344 0)
(-0.277814 -0.257704 0)
(-0.277936 -0.202619 0)
(-0.243498 -0.0760864 0)
(-0.115991 0.175438 0)
(0.100697 0.87686 0)
(-0.472981 0.998448 0)
(-0.995118 0.462969 0)
(-0.899961 0.442694 0)
(-0.761412 0.486904 0)
(-0.652995 0.528899 0)
(-0.584839 0.539539 0)
(-0.384448 0.562071 0)
(-0.218399 0.601816 0)
(-0.101342 -0.23082 0)
(-0.129525 -0.256704 0)
(-0.155835 -0.281426 0)
(-0.185269 -0.278514 0)
(-0.218415 -0.280253 0)
(-0.241942 -0.267767 0)
(-0.249942 -0.251144 0)
(-0.242417 -0.230706 0)
(-0.208826 -0.167146 0)
(-0.0647754 0.0274073 0)
(0.0744183 0.626976 0)
(0.424685 1.53024 0)
(-0.480134 0.905134 0)
(-0.926933 0.493876 0)
(-0.812257 0.463853 0)
(-0.599821 0.418346 0)
(-0.4152 0.336741 0)
(-0.30772 0.319631 0)
(-0.206671 0.329017 0)
(-0.116634 -0.226906 0)
(-0.134787 -0.234704 0)
(-0.149028 -0.240274 0)
(-0.17036 -0.249643 0)
(-0.195875 -0.256153 0)
(-0.221137 -0.258259 0)
(-0.234002 -0.24911 0)
(-0.231581 -0.245216 0)
(-0.207425 -0.21784 0)
(-0.0713845 -0.102806 0)
(-0.0343699 0.334806 0)
(0.520577 1.59978 0)
(0.0473024 1.52221 0)
(-0.718249 0.777258 0)
(-0.852507 0.448041 0)
(-0.743762 0.383278 0)
(-0.369822 0.168313 0)
(-0.13592 0.041028 0)
(-0.0472087 0.0412248 0)
(-0.123032 -0.202233 0)
(-0.140547 -0.215927 0)
(-0.162682 -0.221849 0)
(-0.186546 -0.223912 0)
(-0.214939 -0.229574 0)
(-0.2352 -0.23336 0)
(-0.250018 -0.23296 0)
(-0.250209 -0.254264 0)
(-0.237133 -0.262178 0)
(-0.146484 -0.194692 0)
(-0.177314 0.0914529 0)
(0.451186 1.51884 0)
(0.311804 1.955 0)
(-0.222965 1.35683 0)
(-0.541092 0.649077 0)
(-0.408937 0.23231 0)
(-0.412679 0.0346196 0)
(-0.0182122 -0.188018 0)
(0.0208214 -0.148812 0)
(-0.130476 -0.196996 0)
(-0.145088 -0.207871 0)
(-0.164574 -0.211653 0)
(-0.182969 -0.214135 0)
(-0.200172 -0.215544 0)
(-0.220546 -0.219414 0)
(-0.251848 -0.221891 0)
(-0.271599 -0.241604 0)
(-0.287451 -0.266408 0)
(-0.286103 -0.251455 0)
(-0.339835 -0.0244663 0)
(0.0640535 1.19661 0)
(0.36008 2.11026 0)
(0.0765739 1.63762 0)
(-0.0659138 0.85414 0)
(0.0179322 0.279425 0)
(-0.122323 0.100199 0)
(0.0334716 -0.268409 0)
(0.0203131 -0.190136 0)
)
;

boundaryField
{
    leftWall
    {
        type            fixedValue;
        value           nonuniform 0();
    }
    rightWall
    {
        type            fixedValue;
        value           uniform (0 0 0);
    }
    lowerWall
    {
        type            fixedValue;
        value           uniform (0 0 0);
    }
    atmosphere
    {
        type            fluxCorrectedVelocity;
        value           nonuniform 0();
    }
    defaultFaces
    {
        type            empty;
    }
    procBoundary1to0
    {
        type            processor;
        value           nonuniform List<vector> 
26
(
(0.0653031 0.0161399 0)
(0.0758197 0.040683 0)
(0.102351 0.0683315 0)
(0.0929278 0.0874941 0)
(0.0672504 0.0964982 0)
(0.038989 0.121812 0)
(0.0338976 0.129633 0)
(0.047536 0.150034 0)
(0.0527756 0.13967 0)
(0.0496711 -0.00341869 0)
(0.212898 -0.040989 0)
(0.370385 -0.145994 0)
(0.43382 -0.273818 0)
(0.455728 -0.115152 0)
(0.219422 -0.126768 0)
(-0.0290927 -0.451302 0)
(0.126538 0.0384892 0)
(0.126538 0.0384892 0)
(0.554478 -0.653774 0)
(0.201902 -0.0311739 0)
(0.15722 -0.285418 0)
(0.0159339 -0.173645 0)
(-0.0724932 -0.153086 0)
(-0.0856081 -0.187301 0)
(-0.0929241 -0.175135 0)
(-0.0995935 -0.177694 0)
)
;
    }
    procBoundary1to3
    {
        type            processor;
        value           nonuniform List<vector> 
23
(
(-0.108307 -0.166357 0)
(-0.112178 -0.167207 0)
(-0.114138 -0.16947 0)
(-0.119692 -0.17279 0)
(-0.12873 -0.175783 0)
(-0.143044 -0.180741 0)
(-0.163066 -0.180794 0)
(-0.190077 -0.180653 0)
(-0.212066 -0.184913 0)
(-0.238737 -0.185248 0)
(-0.268299 -0.191184 0)
(-0.298374 -0.211476 0)
(-0.339387 -0.236686 0)
(-0.40078 -0.24502 0)
(-0.491839 -0.0702226 0)
(-0.326389 0.876097 0)
(0.332259 2.0899 0)
(0.202882 1.6582 0)
(0.243435 0.898726 0)
(0.281569 0.340138 0)
(-0.115522 0.242298 0)
(0.0568931 -0.296013 0)
(0.00973803 -0.179861 0)
)
;
    }
}


// ************************************************************************* //
