/*--------------------------------*- C++ -*----------------------------------*\
| =========                 |                                                 |
| \\      /  F ield         | OpenFOAM: The Open Source CFD Toolbox           |
|  \\    /   O peration     | Version:  2.4.0                                 |
|   \\  /    A nd           | Web:      www.OpenFOAM.org                      |
|    \\/     M anipulation  |                                                 |
\*---------------------------------------------------------------------------*/
FoamFile
{
    version     2.0;
    format      ascii;
    class       volVectorField;
    location    "0.5";
    object      U.oil;
}
// * * * * * * * * * * * * * * * * * * * * * * * * * * * * * * * * * * * * * //

dimensions      [0 1 -1 0 0 0 0];

internalField   nonuniform List<vector> 
559
(
(-0.00379855 0.0199418 0)
(-0.00402641 0.0348675 0)
(0.0401728 0.0628017 0)
(0.0272902 0.09508 0)
(0.0377262 0.118665 0)
(0.0209644 0.151166 0)
(0.0201638 0.157095 0)
(0.0267861 0.182374 0)
(-0.0887912 0.0607587 0)
(-0.206048 0.0173613 0)
(-0.301508 -0.0294578 0)
(-0.358659 -0.0855514 0)
(-0.382318 -0.135753 0)
(-0.296842 -0.185665 0)
(-0.209764 -0.234666 0)
(-0.10947 -0.282324 0)
(0.0201606 -0.311986 0)
(0.143923 -0.362683 0)
(0.114894 -0.413216 0)
(0.0655072 -0.37598 0)
(0.0825339 -0.476592 0)
(0.10161 -0.450065 0)
(0.12036 -0.405412 0)
(0.171466 -0.228552 0)
(0.277086 0.0357004 0)
(0.19335 -0.0160257 0)
(0.209909 -0.0260442 0)
(-0.065205 0.0827857 0)
(-0.130071 0.0535054 0)
(-0.146238 0.0719773 0)
(-0.16426 0.112583 0)
(-0.198501 0.130528 0)
(-0.150797 0.107823 0)
(-0.0295211 0.152846 0)
(0.0572556 0.208391 0)
(0.167654 0.237262 0)
(0.240555 0.321581 0)
(0.172316 0.505079 0)
(0.111107 0.469582 0)
(0.0619458 0.550568 0)
(0.0900495 0.664103 0)
(0.00809761 0.650365 0)
(0.106248 0.286209 0)
(0.444199 0.0381278 0)
(0.457335 0.238297 0)
(0.34688 0.34646 0)
(-0.0406353 0.140022 0)
(-0.00987538 0.0637032 0)
(0.040813 0.0232332 0)
(0.0367261 -0.000485315 0)
(0.129531 -0.0993354 0)
(0.290617 -0.184515 0)
(0.370474 -0.235419 0)
(0.47063 -0.256038 0)
(0.645795 -0.273974 0)
(0.843706 -0.257512 0)
(0.896707 -0.235772 0)
(0.834665 -0.45178 0)
(0.328615 -0.869755 0)
(0.246648 -0.809853 0)
(0.0213815 -0.60389 0)
(0.15951 -0.346844 0)
(0.195525 0.0169299 0)
(0.29203 0.256469 0)
(0.287439 0.487015 0)
(0.0204981 0.144156 0)
(0.128245 0.0292082 0)
(0.311063 0.0236841 0)
(0.365398 0.0287289 0)
(0.524513 -0.001217 0)
(0.744653 -0.0743412 0)
(0.826572 -0.0511244 0)
(0.901119 -0.0285553 0)
(0.970418 -0.054255 0)
(1.09211 -0.0574006 0)
(1.31254 -0.135751 0)
(1.49421 -0.305419 0)
(1.3463 -0.470298 0)
(1.13624 -0.700965 0)
(0.9143 -0.326986 0)
(0.487518 -0.34494 0)
(0.457894 -0.151064 0)
(0.128348 0.280956 0)
(0.249987 0.537421 0)
(0.0503299 0.115477 0)
(0.206139 -0.0427938 0)
(0.424741 -0.0298332 0)
(0.550358 -0.0264495 0)
(0.75213 -0.120453 0)
(0.870736 -0.176161 0)
(0.909784 -0.158331 0)
(0.944159 -0.15259 0)
(0.956533 -0.189938 0)
(0.919706 -0.310722 0)
(0.890967 -0.529277 0)
(0.870559 -0.67583 0)
(0.880256 -0.696738 0)
(1.22025 -0.946064 0)
(1.8358 -1.14261 0)
(0.976147 -0.970219 0)
(0.749172 -0.173774 0)
(-0.0211711 0.396857 0)
(0.233622 0.638175 0)
(0.114143 0.0813275 0)
(0.256159 -0.104456 0)
(0.424338 -0.0835549 0)
(0.587978 -0.0605384 0)
(0.755597 -0.129059 0)
(0.819274 -0.165234 0)
(0.850563 -0.132913 0)
(0.865668 -0.0958129 0)
(0.857474 -0.12488 0)
(0.783982 -0.273506 0)
(0.679903 -0.473543 0)
(0.693747 -0.5429 0)
(0.762072 -0.544258 0)
(1.0636 -0.811663 0)
(2.32039 -1.24458 0)
(1.35056 -0.9348 0)
(0.921379 -0.279731 0)
(0.00372775 0.466046 0)
(0.234282 0.715527 0)
(0.215577 0.0106664 0)
(0.300851 -0.161087 0)
(0.392662 -0.136647 0)
(0.54887 -0.11052 0)
(0.657119 -0.156103 0)
(0.702092 -0.174856 0)
(0.718314 -0.147243 0)
(0.755878 -0.111045 0)
(0.773568 -0.125235 0)
(0.731072 -0.237166 0)
(0.591283 -0.386114 0)
(0.522031 -0.427869 0)
(0.61986 -0.520828 0)
(0.966097 -0.873496 0)
(2.78893 -1.30747 0)
(1.34117 -0.725252 0)
(1.07349 -0.256813 0)
(0.114292 0.531513 0)
(0.265674 0.790277 0)
(0.270823 -0.145763 0)
(0.316003 -0.206033 0)
(0.395352 -0.174729 0)
(0.503668 -0.15367 0)
(0.587336 -0.171332 0)
(0.629499 -0.175902 0)
(0.640044 -0.15325 0)
(0.665543 -0.120897 0)
(0.692302 -0.12703 0)
(0.673964 -0.210546 0)
(0.562957 -0.298629 0)
(0.481428 -0.296012 0)
(0.502897 -0.381244 0)
(0.854029 -0.797731 0)
(2.99266 -0.913039 0)
(1.53344 -0.452997 0)
(1.17319 -0.0372356 0)
(0.174978 0.730298 0)
(0.272805 0.909156 0)
(0.121575 0.181807 0)
(0.0852594 0.098356 0)
(0.251408 0.0884493 0)
(0.682003 0.0265951 0)
(0.656403 -0.0769204 0)
(0.501466 -0.114453 0)
(0.280859 -0.173978 0)
(0.0485696 -0.498611 0)
(0.171954 0.181901 0)
(0.148635 0.245539 0)
(0.153144 0.179584 0)
(0.263646 -0.0232057 0)
(0.156517 0.0762936 0)
(0.20581 0.073183 0)
(0.278311 0.00087175 0)
(0.329644 -0.0591354 0)
(0.278165 -0.0163114 0)
(0.289829 -0.0754208 0)
(0.32569 -0.155766 0)
(0.349055 -0.207588 0)
(0.689764 -0.0581116 0)
(0.698016 -0.124163 0)
(0.695288 -0.162046 0)
(0.692269 -0.203431 0)
(0.658344 -0.171994 0)
(0.691281 -0.225223 0)
(0.699513 -0.269766 0)
(0.704051 -0.310191 0)
(0.519051 -0.174985 0)
(0.551662 -0.21691 0)
(0.547929 -0.264273 0)
(0.554447 -0.30213 0)
(0.311001 -0.247206 0)
(0.337966 -0.28214 0)
(0.331509 -0.339208 0)
(0.364448 -0.396108 0)
(0.0928159 -0.53921 0)
(0.115352 -0.607383 0)
(0.153011 -0.708753 0)
(0.186726 -0.758607 0)
(0.152253 -1.03397 0)
(0.186892 -1.10965 0)
(0.204807 -1.20007 0)
(0.192594 -1.06614 0)
(0.55386 -0.63751 0)
(0.535895 -0.601845 0)
(0.533297 -0.586439 0)
(0.545615 -0.601024 0)
(0.201127 -0.0617369 0)
(0.200612 -0.0841424 0)
(0.204505 -0.124231 0)
(0.213952 -0.170152 0)
(0.119337 -0.293756 0)
(0.0991832 -0.314116 0)
(0.0845268 -0.330028 0)
(0.0660226 -0.35416 0)
(0.00754992 -0.199377 0)
(0.00154009 -0.224324 0)
(-0.00348665 -0.241003 0)
(-0.019905 -0.255334 0)
(-0.0765221 -0.176137 0)
(-0.0804103 -0.193871 0)
(-0.0835937 -0.20479 0)
(-0.0935377 -0.217116 0)
(-0.0877811 -0.197954 0)
(-0.0926667 -0.208515 0)
(-0.096867 -0.214349 0)
(-0.105944 -0.220762 0)
(-0.0940143 -0.180968 0)
(-0.0993637 -0.185177 0)
(-0.10334 -0.189087 0)
(-0.112802 -0.196044 0)
(-0.104289 -0.179055 0)
(-0.109744 -0.180463 0)
(-0.112515 -0.184567 0)
(-0.120351 -0.191587 0)
(0.354163 -0.187696 0)
(0.340175 -0.240386 0)
(0.409445 -0.212467 0)
(0.488918 -0.216943 0)
(0.550841 -0.227044 0)
(0.575446 -0.213334 0)
(0.573033 -0.182342 0)
(0.587883 -0.174584 0)
(0.629321 -0.163176 0)
(0.632749 -0.200426 0)
(0.562698 -0.222708 0)
(0.529619 -0.154953 0)
(0.637129 -0.121168 0)
(0.936257 -0.114437 0)
(1.2555 -0.141726 0)
(1.30622 -0.0761757 0)
(1.21781 0.238479 0)
(0.287758 1.01342 0)
(0.281132 1.11218 0)
(0.339533 -0.191918 0)
(0.355077 -0.288616 0)
(0.402687 -0.314223 0)
(0.472727 -0.277247 0)
(0.52857 -0.228697 0)
(0.536164 -0.173491 0)
(0.538324 -0.148513 0)
(0.554994 -0.164069 0)
(0.613382 -0.170319 0)
(0.678165 -0.181325 0)
(0.720863 -0.195888 0)
(0.757974 -0.160192 0)
(0.86466 -0.101512 0)
(1.04759 -0.0159634 0)
(1.20832 0.296676 0)
(1.05292 0.512898 0)
(0.942875 0.758806 0)
(0.318001 1.35029 0)
(0.313914 1.36581 0)
(0.386437 -0.283686 0)
(0.443631 -0.309141 0)
(0.494165 -0.295482 0)
(0.526707 -0.249701 0)
(0.568963 -0.189001 0)
(0.610833 -0.158368 0)
(0.648174 -0.156908 0)
(0.694759 -0.180436 0)
(0.743368 -0.210697 0)
(0.801913 -0.197778 0)
(0.865804 -0.161924 0)
(0.930061 -0.0940446 0)
(1.02717 0.0551616 0)
(1.06545 0.210636 0)
(1.11758 0.388374 0)
(0.977327 0.552506 0)
(0.958079 0.902344 0)
(0.466667 1.5609 0)
(0.339217 1.62953 0)
(0.710874 -0.302611 0)
(0.704742 -0.371435 0)
(0.708911 -0.366755 0)
(0.720821 -0.338701 0)
(0.739201 -0.30371 0)
(0.775346 -0.270352 0)
(0.812524 -0.254499 0)
(0.853399 -0.261696 0)
(0.895135 -0.274706 0)
(0.945664 -0.261925 0)
(0.983486 -0.243762 0)
(1.05928 -0.250222 0)
(1.12374 -0.190902 0)
(1.18122 -0.00301013 0)
(1.24884 0.283779 0)
(1.03402 0.569297 0)
(0.967587 1.06788 0)
(0.511018 1.87026 0)
(0.340885 1.9797 0)
(0.737239 -0.384036 0)
(0.735486 -0.437017 0)
(0.736434 -0.469283 0)
(0.739903 -0.461352 0)
(0.725569 -0.428431 0)
(0.738156 -0.366629 0)
(0.781126 -0.332441 0)
(0.848142 -0.33415 0)
(0.905129 -0.361571 0)
(0.990826 -0.331758 0)
(1.09922 -0.403453 0)
(1.18118 -0.385761 0)
(1.24547 -0.277908 0)
(1.25029 -0.0971298 0)
(1.0747 0.236065 0)
(0.772528 0.712401 0)
(0.734928 1.28252 0)
(0.339012 2.20747 0)
(0.26658 2.364 0)
(0.591529 -0.387665 0)
(0.605143 -0.476254 0)
(0.574154 -0.575139 0)
(0.540507 -0.602426 0)
(0.503174 -0.584395 0)
(0.524176 -0.553281 0)
(0.605405 -0.549967 0)
(0.707782 -0.54615 0)
(0.796901 -0.558045 0)
(0.913083 -0.575563 0)
(1.02329 -0.646242 0)
(1.01971 -0.604273 0)
(0.932996 -0.429968 0)
(0.478341 0.189992 0)
(0.237273 0.594729 0)
(0.115874 0.935094 0)
(0.257035 1.50583 0)
(0.0292957 2.34865 0)
(0.137515 2.48776 0)
(0.392734 -0.490386 0)
(0.358661 -0.622172 0)
(0.184766 -0.842301 0)
(0.135508 -1.01592 0)
(0.0378573 -1.13619 0)
(0.132864 -1.05956 0)
(0.333972 -0.924439 0)
(0.489923 -0.855541 0)
(0.664808 -0.885999 0)
(0.712408 -0.973358 0)
(0.542636 -0.798793 0)
(-0.0225241 0.0108731 0)
(-0.278122 0.367287 0)
(-0.368075 0.485932 0)
(-0.406761 0.695833 0)
(-0.362478 1.00464 0)
(-0.191177 1.57381 0)
(-0.229741 2.29666 0)
(0.0985267 2.44326 0)
(0.173172 -0.868271 0)
(0.191149 -0.961061 0)
(0.169221 -0.938278 0)
(0.201435 -0.522549 0)
(0.59211 -0.665151 0)
(0.787741 -0.923928 0)
(0.973135 -2.83746 0)
(0.918285 -2.0612 0)
(0.388676 -1.38758 0)
(-0.826285 -0.274891 0)
(-0.683549 0.329818 0)
(-0.646624 0.298934 0)
(-0.672945 0.31892 0)
(-0.714368 0.452685 0)
(-0.72704 0.675445 0)
(-0.754453 0.960645 0)
(-0.603108 1.4359 0)
(-0.416706 2.12512 0)
(0.0148403 2.3068 0)
(0.0589294 -0.613812 0)
(0.0947268 -0.696041 0)
(0.334425 -0.735909 0)
(0.491028 -0.693224 0)
(0.531861 -0.756803 0)
(0.443271 -0.820477 0)
(0.373526 -0.823097 0)
(0.0752399 -0.695718 0)
(-1.02287 0.442712 0)
(-0.887342 0.346936 0)
(-0.843052 0.321534 0)
(-0.83208 0.314891 0)
(-0.849064 0.347201 0)
(-0.882642 0.459079 0)
(-0.895143 0.663065 0)
(-0.95195 0.883615 0)
(-0.887786 1.209 0)
(-0.518589 1.74627 0)
(-0.221438 1.9757 0)
(0.533715 -0.635585 0)
(0.479835 -0.568988 0)
(0.387641 -0.510018 0)
(0.26739 -0.393247 0)
(0.115017 -0.40154 0)
(-0.0428592 -0.391735 0)
(-0.164754 -0.273995 0)
(-0.531944 -0.0789104 0)
(-1.35002 0.536143 0)
(-1.07716 0.431372 0)
(-0.940251 0.365043 0)
(-0.901771 0.349234 0)
(-0.907352 0.378053 0)
(-0.946247 0.492743 0)
(-0.953564 0.665216 0)
(-0.962901 0.863012 0)
(-0.9201 1.04331 0)
(-0.56583 1.407 0)
(-0.304425 1.51862 0)
(0.199141 -0.270299 0)
(0.105929 -0.334497 0)
(-0.0275957 -0.375804 0)
(-0.113085 -0.406167 0)
(-0.177733 -0.439018 0)
(-0.248247 -0.391757 0)
(-0.308579 -0.291874 0)
(-0.453812 -0.132521 0)
(-1.57674 0.63406 0)
(-1.47518 0.660032 0)
(-1.1163 0.476021 0)
(-0.95947 0.392451 0)
(-0.92525 0.391539 0)
(-0.945423 0.497225 0)
(-0.950433 0.666503 0)
(-0.905279 0.823164 0)
(-0.788245 0.905329 0)
(-0.539623 1.11251 0)
(-0.161834 1.14484 0)
(0.0252369 -0.374046 0)
(-0.0535704 -0.38132 0)
(-0.120986 -0.374821 0)
(-0.174689 -0.352735 0)
(-0.228713 -0.36735 0)
(-0.289849 -0.357899 0)
(-0.328423 -0.309702 0)
(-0.358223 -0.238602 0)
(-0.594847 0.0980841 0)
(-1.58787 0.810791 0)
(-1.47118 0.731453 0)
(-1.13244 0.493182 0)
(-0.959897 0.416375 0)
(-0.88585 0.451436 0)
(-0.878776 0.593162 0)
(-0.83957 0.733801 0)
(-0.700283 0.775638 0)
(-0.421138 0.813704 0)
(-0.147271 0.863866 0)
(-0.0499127 -0.262479 0)
(-0.105089 -0.273067 0)
(-0.146287 -0.289401 0)
(-0.175344 -0.295837 0)
(-0.213688 -0.319262 0)
(-0.26212 -0.304049 0)
(-0.277863 -0.262665 0)
(-0.277319 -0.208797 0)
(-0.247997 -0.0788372 0)
(-0.35 0.273154 0)
(-1.33737 0.863839 0)
(-1.41834 0.750163 0)
(-1.14372 0.505273 0)
(-0.903042 0.446359 0)
(-0.75206 0.479657 0)
(-0.652377 0.524807 0)
(-0.595007 0.541757 0)
(-0.392168 0.5758 0)
(-0.222473 0.611882 0)
(-0.101414 -0.231754 0)
(-0.129711 -0.258404 0)
(-0.156164 -0.284304 0)
(-0.185603 -0.281434 0)
(-0.21875 -0.282643 0)
(-0.242284 -0.270203 0)
(-0.250299 -0.254495 0)
(-0.242858 -0.235986 0)
(-0.209338 -0.176129 0)
(-0.072825 0.0204018 0)
(-0.118039 0.639458 0)
(-0.60787 1.19956 0)
(-1.30865 0.734519 0)
(-1.06517 0.521826 0)
(-0.791374 0.457804 0)
(-0.593135 0.395132 0)
(-0.410249 0.32963 0)
(-0.309682 0.322521 0)
(-0.208279 0.332621 0)
(-0.11666 -0.227347 0)
(-0.134833 -0.235316 0)
(-0.149093 -0.241226 0)
(-0.170452 -0.250709 0)
(-0.19601 -0.257214 0)
(-0.221385 -0.259627 0)
(-0.234455 -0.251393 0)
(-0.232606 -0.249448 0)
(-0.209098 -0.225725 0)
(-0.0773331 -0.115811 0)
(-0.0568861 0.316724 0)
(0.358202 1.52511 0)
(-0.203263 1.37431 0)
(-1.11157 0.703219 0)
(-0.946836 0.518669 0)
(-0.64886 0.395836 0)
(-0.245093 0.0741535 0)
(-0.120376 0.0213729 0)
(-0.0465905 0.0410151 0)
(-0.12304 -0.202366 0)
(-0.140561 -0.216118 0)
(-0.162707 -0.222118 0)
(-0.186589 -0.224263 0)
(-0.215021 -0.230033 0)
(-0.235376 -0.234078 0)
(-0.250456 -0.23439 0)
(-0.251388 -0.257378 0)
(-0.239993 -0.268099 0)
(-0.157868 -0.205907 0)
(-0.191144 0.0727032 0)
(0.420032 1.49955 0)
(0.257687 1.9033 0)
(-0.337542 1.2668 0)
(-0.586774 0.613159 0)
(-0.49213 0.271532 0)
(0.0397091 -0.256762 0)
(0.0289985 -0.222861 0)
(0.0217553 -0.150495 0)
(-0.130478 -0.197034 0)
(-0.145093 -0.20793 0)
(-0.164582 -0.21174 0)
(-0.182984 -0.214257 0)
(-0.200203 -0.215731 0)
(-0.22064 -0.219771 0)
(-0.252163 -0.222731 0)
(-0.272733 -0.243644 0)
(-0.291003 -0.270372 0)
(-0.298126 -0.258156 0)
(-0.353077 -0.0274475 0)
(0.0696724 1.19382 0)
(0.351349 2.09065 0)
(0.0470588 1.62969 0)
(-0.0583134 0.846126 0)
(0.0583749 0.219101 0)
(0.0418916 -0.270029 0)
(0.0421957 -0.271187 0)
(0.0205039 -0.190277 0)
)
;

boundaryField
{
    leftWall
    {
        type            fixedValue;
        value           nonuniform 0();
    }
    rightWall
    {
        type            fixedValue;
        value           uniform (0 0 0);
    }
    lowerWall
    {
        type            fixedValue;
        value           uniform (0 0 0);
    }
    atmosphere
    {
        type            fluxCorrectedVelocity;
        value           nonuniform 0();
    }
    defaultFaces
    {
        type            empty;
    }
    procBoundary1to0
    {
        type            processor;
        value           nonuniform List<vector> 
26
(
(0.0648937 0.0177843 0)
(0.075349 0.0423099 0)
(0.101826 0.0698688 0)
(0.0923927 0.0890694 0)
(0.0666942 0.0983295 0)
(0.0383766 0.124168 0)
(0.0329704 0.132516 0)
(0.0466669 0.156588 0)
(0.0451217 0.185503 0)
(0.0166503 0.127859 0)
(0.276887 0.212388 0)
(0.621592 0.137884 0)
(0.571823 0.0212235 0)
(0.450365 -0.0602982 0)
(0.218138 -0.11311 0)
(-0.0298865 -0.46151 0)
(0.111723 -0.978622 0)
(0.111723 -0.978622 0)
(0.552373 -0.660426 0)
(0.202375 -0.0344232 0)
(0.156803 -0.285567 0)
(0.0160763 -0.175569 0)
(-0.0725035 -0.15356 0)
(-0.0856132 -0.187451 0)
(-0.0929273 -0.175194 0)
(-0.0995949 -0.177724 0)
)
;
    }
    procBoundary1to3
    {
        type            processor;
        value           nonuniform List<vector> 
23
(
(-0.108307 -0.166366 0)
(-0.112178 -0.167216 0)
(-0.114138 -0.169478 0)
(-0.119692 -0.172799 0)
(-0.12873 -0.175793 0)
(-0.143045 -0.180759 0)
(-0.163069 -0.180822 0)
(-0.190083 -0.180695 0)
(-0.212081 -0.184986 0)
(-0.23881 -0.185433 0)
(-0.268463 -0.191624 0)
(-0.299138 -0.212631 0)
(-0.342351 -0.238942 0)
(-0.410094 -0.246542 0)
(-0.503706 -0.0629921 0)
(-0.33193 0.878675 0)
(0.33538 2.09099 0)
(0.204666 1.68144 0)
(0.24764 0.927053 0)
(0.302551 0.348993 0)
(0.0463658 -0.2733 0)
(0.0585111 -0.296456 0)
(0.00979601 -0.179876 0)
)
;
    }
}


// ************************************************************************* //
