/*--------------------------------*- C++ -*----------------------------------*\
| =========                 |                                                 |
| \\      /  F ield         | OpenFOAM: The Open Source CFD Toolbox           |
|  \\    /   O peration     | Version:  2.4.0                                 |
|   \\  /    A nd           | Web:      www.OpenFOAM.org                      |
|    \\/     M anipulation  |                                                 |
\*---------------------------------------------------------------------------*/
FoamFile
{
    version     2.0;
    format      ascii;
    class       volVectorField;
    location    "0.5";
    object      U.water;
}
// * * * * * * * * * * * * * * * * * * * * * * * * * * * * * * * * * * * * * //

dimensions      [0 1 -1 0 0 0 0];

internalField   nonuniform List<vector> 
559
(
(-0.00345889 0.00696064 0)
(-0.00362202 0.0214357 0)
(0.0406484 0.0496803 0)
(0.0277508 0.0819196 0)
(0.038163 0.105138 0)
(0.0213885 0.137051 0)
(0.0205497 0.142422 0)
(0.0271811 0.174248 0)
(-0.116136 -0.0617363 0)
(-0.221456 -0.120957 0)
(-0.324327 -0.194224 0)
(-0.401557 -0.312892 0)
(-0.399097 -0.394036 0)
(-0.293454 -0.464568 0)
(-0.188208 -0.521381 0)
(-0.0924321 -0.566839 0)
(-0.0043949 -0.591554 0)
(0.0514401 -0.62183 0)
(0.00620968 -0.625941 0)
(0.0195013 -0.583468 0)
(0.0899817 -0.614326 0)
(0.131679 -0.459947 0)
(0.139223 -0.363352 0)
(0.189843 -0.20664 0)
(0.316797 -0.0195213 0)
(0.295625 -0.101723 0)
(0.294263 -0.16259 0)
(-0.0416763 -0.0168202 0)
(-0.0808287 -0.0407521 0)
(-0.0884 -0.013577 0)
(-0.102808 0.0339782 0)
(-0.106375 0.0375363 0)
(0.0139983 -0.0546917 0)
(0.185351 -0.0943705 0)
(0.302064 -0.115319 0)
(0.397638 -0.128436 0)
(0.457062 -0.0805887 0)
(0.409474 0.0158673 0)
(0.212158 0.290622 0)
(0.0738518 0.505053 0)
(0.183651 0.406258 0)
(0.189446 0.263456 0)
(0.230136 0.106198 0)
(0.440829 0.0635049 0)
(0.465061 0.206643 0)
(0.411564 0.179075 0)
(-0.0012038 -0.0270567 0)
(0.0614013 -0.132427 0)
(0.121362 -0.150092 0)
(0.137687 -0.14887 0)
(0.259267 -0.251849 0)
(0.443532 -0.37063 0)
(0.536436 -0.430931 0)
(0.61778 -0.455914 0)
(0.715782 -0.475318 0)
(0.827907 -0.481902 0)
(0.928553 -0.504879 0)
(0.962172 -0.681391 0)
(0.387351 -0.924256 0)
(0.344329 -0.916033 0)
(0.35387 -0.890691 0)
(0.403899 -0.546886 0)
(0.309643 -0.0583646 0)
(0.306352 0.262077 0)
(0.330322 0.369227 0)
(0.0598898 -0.086821 0)
(0.176045 -0.209709 0)
(0.325692 -0.197752 0)
(0.400262 -0.183594 0)
(0.563995 -0.249281 0)
(0.744717 -0.340287 0)
(0.811758 -0.352858 0)
(0.851984 -0.356133 0)
(0.873266 -0.386751 0)
(0.903588 -0.426561 0)
(1.04881 -0.54224 0)
(1.35675 -0.892087 0)
(1.7514 -0.867676 0)
(1.16777 -0.763095 0)
(1.18287 -0.982218 0)
(0.834199 -0.678885 0)
(0.654966 -0.270325 0)
(0.182573 0.272576 0)
(0.265556 0.467434 0)
(0.0957583 -0.142523 0)
(0.231687 -0.28182 0)
(0.388497 -0.262558 0)
(0.514336 -0.251089 0)
(0.690068 -0.341059 0)
(0.791578 -0.403815 0)
(0.833336 -0.408508 0)
(0.855547 -0.416258 0)
(0.848723 -0.452838 0)
(0.793246 -0.553755 0)
(0.776628 -0.731157 0)
(0.886826 -0.967227 0)
(1.16902 -0.826127 0)
(0.893107 -0.621807 0)
(1.30474 -1.16982 0)
(1.13448 -1.04263 0)
(0.964734 -0.297653 0)
(0.142501 0.309759 0)
(0.241575 0.598409 0)
(0.155038 -0.1832 0)
(0.26568 -0.328855 0)
(0.382539 -0.310966 0)
(0.526978 -0.292644 0)
(0.673481 -0.353151 0)
(0.734582 -0.393076 0)
(0.770065 -0.380318 0)
(0.792504 -0.368083 0)
(0.788905 -0.401603 0)
(0.727269 -0.510352 0)
(0.716122 -0.61209 0)
(0.729469 -0.756742 0)
(0.846862 -0.669264 0)
(1.02054 -0.458706 0)
(1.85168 -1.26751 0)
(1.36445 -1.00164 0)
(1.10356 -0.378639 0)
(0.199081 0.322221 0)
(0.230462 0.674872 0)
(0.23779 -0.239265 0)
(0.299397 -0.35566 0)
(0.366296 -0.34252 0)
(0.502689 -0.328551 0)
(0.597766 -0.370286 0)
(0.642132 -0.40059 0)
(0.664514 -0.392284 0)
(0.701978 -0.379919 0)
(0.728899 -0.403855 0)
(0.691974 -0.450804 0)
(0.611634 -0.361223 0)
(0.646789 -0.530005 0)
(0.540874 -0.453408 0)
(1.24908 -0.603379 0)
(2.56978 -1.46809 0)
(1.31743 -0.694513 0)
(1.18088 -0.290044 0)
(0.374914 0.346786 0)
(0.29397 0.715515 0)
(0.306849 -0.341318 0)
(0.324255 -0.239757 0)
(0.40813 -0.261681 0)
(0.510039 -0.372313 0)
(0.579514 -0.304178 0)
(0.604502 -0.282583 0)
(0.619478 -0.302936 0)
(0.649134 -0.346723 0)
(0.68951 -0.405189 0)
(0.667728 -0.299926 0)
(0.595947 -0.289275 0)
(0.597482 -0.360434 0)
(0.652809 -0.576337 0)
(1.42978 -0.598917 0)
(3.05317 -1.3138 0)
(1.49837 -0.570932 0)
(1.26334 -0.107161 0)
(0.428274 0.523634 0)
(0.312403 0.816545 0)
(0.121008 0.193411 0)
(0.078024 0.145715 0)
(0.250492 0.0672551 0)
(0.67424 0.0333631 0)
(0.656836 -0.0870435 0)
(0.513047 -0.16454 0)
(0.287491 -0.232221 0)
(0.0576363 -0.554385 0)
(0.173853 0.194889 0)
(0.148666 0.240139 0)
(0.151385 0.178658 0)
(0.25995 -0.0245694 0)
(0.164373 0.0801126 0)
(0.213515 0.059775 0)
(0.284577 -0.0103676 0)
(0.333092 -0.0677315 0)
(0.294549 -0.0319608 0)
(0.315012 -0.0874651 0)
(0.350403 -0.164318 0)
(0.371624 -0.216336 0)
(0.685794 -0.0411321 0)
(0.693526 -0.103006 0)
(0.693664 -0.146942 0)
(0.693344 -0.191461 0)
(0.68071 -0.17647 0)
(0.715906 -0.22988 0)
(0.734871 -0.272929 0)
(0.745718 -0.314451 0)
(0.535555 -0.217353 0)
(0.568533 -0.257817 0)
(0.57266 -0.301301 0)
(0.577779 -0.33341 0)
(0.322279 -0.298384 0)
(0.355256 -0.328595 0)
(0.341424 -0.364236 0)
(0.356115 -0.431887 0)
(0.106339 -0.588671 0)
(0.1305 -0.635162 0)
(0.166633 -0.708293 0)
(0.223952 -0.730986 0)
(0.121976 -0.0104768 0)
(0.0966779 0.00981725 0)
(0.0268731 0.0858258 0)
(-0.0782795 0.189794 0)
(0.557473 -0.63456 0)
(0.538857 -0.599115 0)
(0.536108 -0.583645 0)
(0.547963 -0.597306 0)
(0.200334 -0.0589661 0)
(0.199778 -0.0815483 0)
(0.203778 -0.122279 0)
(0.213384 -0.168608 0)
(0.119648 -0.293432 0)
(0.0995071 -0.313722 0)
(0.0847696 -0.329593 0)
(0.0662624 -0.353604 0)
(0.00750276 -0.198659 0)
(0.0015357 -0.223818 0)
(-0.00348461 -0.240468 0)
(-0.0198811 -0.254588 0)
(-0.0765173 -0.175941 0)
(-0.0804031 -0.193689 0)
(-0.0835802 -0.204504 0)
(-0.093511 -0.216621 0)
(-0.087777 -0.197868 0)
(-0.0926617 -0.208406 0)
(-0.0968567 -0.214161 0)
(-0.105929 -0.22048 0)
(-0.0940122 -0.180927 0)
(-0.0993612 -0.185128 0)
(-0.103336 -0.189012 0)
(-0.112797 -0.195948 0)
(-0.104288 -0.179034 0)
(-0.109743 -0.180441 0)
(-0.112514 -0.184543 0)
(-0.12035 -0.191557 0)
(0.354037 -0.199373 0)
(0.342837 -0.255534 0)
(0.406741 -0.234818 0)
(0.487308 -0.235209 0)
(0.550043 -0.243632 0)
(0.57403 -0.23218 0)
(0.577963 -0.206963 0)
(0.594264 -0.206539 0)
(0.64496 -0.199825 0)
(0.653265 -0.230726 0)
(0.605532 -0.24039 0)
(0.592192 -0.193237 0)
(0.672861 -0.17183 0)
(0.966547 -0.197857 0)
(1.29853 -0.190526 0)
(1.31783 -0.132036 0)
(1.26474 0.107578 0)
(0.574058 0.723773 0)
(0.361259 0.995983 0)
(0.34388 -0.200922 0)
(0.361629 -0.299758 0)
(0.40773 -0.334735 0)
(0.472566 -0.311621 0)
(0.527071 -0.284668 0)
(0.544857 -0.249135 0)
(0.557479 -0.232643 0)
(0.58031 -0.247763 0)
(0.638857 -0.255592 0)
(0.699694 -0.262029 0)
(0.745822 -0.261644 0)
(0.78395 -0.208917 0)
(0.895022 -0.150597 0)
(1.06647 -0.0734916 0)
(1.2131 0.195709 0)
(1.10327 0.347261 0)
(1.01936 0.549058 0)
(0.563566 1.02789 0)
(0.412123 1.2276 0)
(0.411337 -0.299935 0)
(0.464836 -0.349939 0)
(0.504209 -0.364557 0)
(0.530341 -0.341651 0)
(0.58024 -0.296995 0)
(0.625511 -0.271938 0)
(0.668864 -0.273481 0)
(0.719081 -0.300473 0)
(0.76414 -0.331945 0)
(0.813634 -0.322479 0)
(0.869074 -0.292988 0)
(0.936801 -0.239228 0)
(1.03216 -0.116242 0)
(1.07992 0.0200042 0)
(1.13184 0.172478 0)
(1.04541 0.324837 0)
(1.01356 0.636176 0)
(0.647571 1.22005 0)
(0.460896 1.43629 0)
(0.716259 -0.299909 0)
(0.730115 -0.389605 0)
(0.734944 -0.415881 0)
(0.748031 -0.405107 0)
(0.769306 -0.38678 0)
(0.797863 -0.360025 0)
(0.830493 -0.348973 0)
(0.871618 -0.362045 0)
(0.908391 -0.380871 0)
(0.946997 -0.373854 0)
(0.982798 -0.365266 0)
(1.04875 -0.380168 0)
(1.12127 -0.346026 0)
(1.17235 -0.197267 0)
(1.24054 0.0369414 0)
(1.06825 0.298025 0)
(0.995916 0.704034 0)
(0.64225 1.47053 0)
(0.446378 1.73194 0)
(0.777069 -0.385214 0)
(0.781766 -0.450814 0)
(0.777391 -0.506718 0)
(0.794171 -0.530453 0)
(0.78739 -0.517252 0)
(0.79585 -0.474771 0)
(0.822686 -0.435589 0)
(0.873272 -0.428048 0)
(0.918563 -0.453428 0)
(0.99827 -0.431402 0)
(1.0763 -0.50217 0)
(1.16997 -0.509844 0)
(1.20575 -0.429474 0)
(1.20927 -0.291649 0)
(1.05225 -0.0141985 0)
(0.901626 0.347878 0)
(0.879412 0.816988 0)
(0.48099 1.78188 0)
(0.359071 2.06524 0)
(0.598273 -0.422032 0)
(0.620404 -0.514594 0)
(0.633005 -0.621277 0)
(0.634074 -0.737371 0)
(0.625721 -0.790441 0)
(0.626071 -0.778646 0)
(0.655581 -0.722358 0)
(0.749032 -0.653178 0)
(0.829551 -0.644863 0)
(0.936023 -0.656187 0)
(1.02823 -0.785268 0)
(1.00852 -0.799037 0)
(0.875259 -0.66979 0)
(0.375177 0.011959 0)
(0.483667 0.274766 0)
(0.357283 0.565859 0)
(0.476777 1.08192 0)
(0.211192 2.01698 0)
(0.273473 2.26409 0)
(0.366108 -0.521823 0)
(0.298131 -0.691135 0)
(0.346084 -0.900361 0)
(0.457615 -1.23425 0)
(0.403142 -1.69147 0)
(0.4263 -2.12653 0)
(0.424893 -1.66569 0)
(0.479589 -1.24446 0)
(0.713783 -1.18563 0)
(0.768158 -1.33485 0)
(0.719078 -1.20796 0)
(-0.285883 -0.356326 0)
(-0.349958 0.311482 0)
(-0.269309 0.363638 0)
(-0.0808335 0.492518 0)
(-0.0125294 0.768679 0)
(0.155009 1.32924 0)
(-0.0453845 2.11413 0)
(0.206687 2.41171 0)
(0.234198 -0.815137 0)
(0.218693 -0.56031 0)
(0.0733334 -0.0418712 0)
(0.185136 -0.509706 0)
(0.623479 -0.668901 0)
(0.814435 -0.521229 0)
(0.911134 -0.229223 0)
(1.23732 -1.79855 0)
(1.09808 -2.27912 0)
(-0.0486069 -1.01679 0)
(-0.786678 0.313546 0)
(-0.676103 0.318181 0)
(-0.628654 0.298407 0)
(-0.634749 0.437314 0)
(-0.546635 0.647793 0)
(-0.467434 0.974343 0)
(-0.34909 1.57307 0)
(-0.255048 2.1877 0)
(0.156117 2.40532 0)
(-0.0729078 -0.256568 0)
(0.0937175 -0.68895 0)
(0.335249 -0.735322 0)
(0.492324 -0.68916 0)
(0.53471 -0.752639 0)
(0.454851 -0.825374 0)
(0.395116 -0.8762 0)
(0.139549 -0.797624 0)
(-0.317661 -0.412916 0)
(-0.860653 0.331116 0)
(-0.850976 0.32359 0)
(-0.838815 0.321574 0)
(-0.84419 0.347756 0)
(-0.872573 0.453872 0)
(-0.888944 0.662165 0)
(-0.94208 0.900635 0)
(-0.863273 1.28261 0)
(-0.424398 1.95584 0)
(-0.0563115 2.18425 0)
(0.534421 -0.631972 0)
(0.4802 -0.566581 0)
(0.390772 -0.508725 0)
(0.275142 -0.389619 0)
(0.118112 -0.395442 0)
(-0.0372368 -0.385988 0)
(-0.15316 -0.265776 0)
(-0.315999 -0.198927 0)
(-0.701 0.0950574 0)
(-1.03137 0.395836 0)
(-0.941457 0.361831 0)
(-0.90298 0.347784 0)
(-0.908621 0.377607 0)
(-0.964281 0.501343 0)
(-0.953451 0.663788 0)
(-0.962785 0.861547 0)
(-0.920256 1.04626 0)
(-0.547769 1.45903 0)
(-0.251985 1.6447 0)
(0.198871 -0.269309 0)
(0.106623 -0.33286 0)
(-0.027192 -0.371028 0)
(-0.112293 -0.397281 0)
(-0.1771 -0.42612 0)
(-0.247774 -0.38212 0)
(-0.308326 -0.297036 0)
(-0.380786 -0.203493 0)
(-0.503959 0.067654 0)
(-0.99013 0.543688 0)
(-1.09367 0.467259 0)
(-0.95914 0.391342 0)
(-0.925663 0.389676 0)
(-0.952482 0.499757 0)
(-0.950349 0.666429 0)
(-0.905138 0.823112 0)
(-0.788267 0.905245 0)
(-0.537594 1.11697 0)
(-0.16634 1.17533 0)
(0.0255031 -0.373105 0)
(-0.053043 -0.378394 0)
(-0.120105 -0.366622 0)
(-0.172923 -0.338524 0)
(-0.226636 -0.353477 0)
(-0.288554 -0.344559 0)
(-0.329139 -0.295013 0)
(-0.349753 -0.231765 0)
(-0.324078 -0.0512328 0)
(-0.301478 0.452505 0)
(-0.813793 0.762206 0)
(-1.06799 0.490399 0)
(-0.957476 0.4136 0)
(-0.887739 0.451881 0)
(-0.8788 0.59319 0)
(-0.839521 0.733759 0)
(-0.700249 0.77556 0)
(-0.421146 0.813622 0)
(-0.147327 0.864097 0)
(-0.049865 -0.261116 0)
(-0.104877 -0.269567 0)
(-0.145808 -0.283516 0)
(-0.174614 -0.288984 0)
(-0.212874 -0.31254 0)
(-0.261401 -0.296781 0)
(-0.27782 -0.253342 0)
(-0.278821 -0.195033 0)
(-0.246242 -0.0626692 0)
(-0.11483 0.203228 0)
(0.118651 0.901608 0)
(-0.46068 0.996687 0)
(-0.994292 0.4639 0)
(-0.894555 0.44089 0)
(-0.754014 0.485827 0)
(-0.653113 0.525769 0)
(-0.595013 0.541739 0)
(-0.392148 0.575746 0)
(-0.222462 0.611843 0)
(-0.101342 -0.230819 0)
(-0.129524 -0.2567 0)
(-0.155831 -0.281406 0)
(-0.185248 -0.278403 0)
(-0.218329 -0.279681 0)
(-0.241794 -0.266584 0)
(-0.24975 -0.248987 0)
(-0.242173 -0.226552 0)
(-0.208636 -0.158573 0)
(-0.0623963 0.0446519 0)
(0.0970589 0.665564 0)
(0.439948 1.54253 0)
(-0.477438 0.909233 0)
(-0.927674 0.494777 0)
(-0.811551 0.465726 0)
(-0.59916 0.419738 0)
(-0.41504 0.338593 0)
(-0.310078 0.323241 0)
(-0.208274 0.332603 0)
(-0.116634 -0.226906 0)
(-0.134787 -0.234702 0)
(-0.149027 -0.240265 0)
(-0.170355 -0.249599 0)
(-0.195858 -0.255975 0)
(-0.221076 -0.257853 0)
(-0.23384 -0.24815 0)
(-0.231097 -0.242924 0)
(-0.206551 -0.212458 0)
(-0.0670322 -0.0914215 0)
(-0.0208367 0.365696 0)
(0.529255 1.62222 0)
(0.0459684 1.5316 0)
(-0.71501 0.783641 0)
(-0.856497 0.451498 0)
(-0.744887 0.38945 0)
(-0.369761 0.169106 0)
(-0.135987 0.0415072 0)
(-0.0473525 0.0420412 0)
(-0.123032 -0.202233 0)
(-0.140547 -0.215927 0)
(-0.162682 -0.221847 0)
(-0.186545 -0.2239 0)
(-0.214932 -0.229534 0)
(-0.235169 -0.233231 0)
(-0.249911 -0.232548 0)
(-0.249772 -0.253057 0)
(-0.235927 -0.259106 0)
(-0.139276 -0.186941 0)
(-0.164272 0.111974 0)
(0.457153 1.54405 0)
(0.310965 1.97051 0)
(-0.222614 1.3606 0)
(-0.549151 0.658151 0)
(-0.435612 0.245318 0)
(-0.413421 0.03595 0)
(-0.0182446 -0.187963 0)
(0.0207977 -0.148646 0)
(-0.130476 -0.196996 0)
(-0.145088 -0.207871 0)
(-0.164574 -0.211653 0)
(-0.182969 -0.214133 0)
(-0.200171 -0.215534 0)
(-0.220536 -0.219373 0)
(-0.251793 -0.221726 0)
(-0.271289 -0.240988 0)
(-0.28615 -0.26481 0)
(-0.279452 -0.247837 0)
(-0.33105 -0.0239893 0)
(0.0653986 1.20674 0)
(0.360223 2.12153 0)
(0.0779845 1.63603 0)
(-0.0684468 0.856965 0)
(1.00532e-05 0.28705 0)
(-0.124481 0.098415 0)
(0.0334742 -0.268431 0)
(0.0203084 -0.190124 0)
)
;

boundaryField
{
    leftWall
    {
        type            fixedValue;
        value           nonuniform 0();
    }
    rightWall
    {
        type            fixedValue;
        value           uniform (0 0 0);
    }
    lowerWall
    {
        type            fixedValue;
        value           uniform (0 0 0);
    }
    atmosphere
    {
        type            fluxCorrectedVelocity;
        value           nonuniform 0();
    }
    defaultFaces
    {
        type            empty;
    }
    procBoundary1to0
    {
        type            processor;
        value           nonuniform List<vector> 
26
(
(0.0653029 0.0161432 0)
(0.075819 0.0406898 0)
(0.102349 0.0683652 0)
(0.0929059 0.0876164 0)
(0.0672026 0.0968483 0)
(0.0387732 0.123009 0)
(0.0322008 0.131273 0)
(0.044009 0.170485 0)
(0.0309655 0.269678 0)
(0.016924 0.129214 0)
(0.274265 0.184931 0)
(0.620619 0.130627 0)
(0.562877 -0.00191978 0)
(0.459229 -0.114843 0)
(0.228104 -0.183333 0)
(-0.0176403 -0.516538 0)
(0.127021 0.0130731 0)
(0.127021 0.0130731 0)
(0.554476 -0.655123 0)
(0.201902 -0.031174 0)
(0.15722 -0.285418 0)
(0.0159339 -0.173645 0)
(-0.0724932 -0.153086 0)
(-0.0856081 -0.187301 0)
(-0.0929241 -0.175135 0)
(-0.0995935 -0.177694 0)
)
;
    }
    procBoundary1to3
    {
        type            processor;
        value           nonuniform List<vector> 
23
(
(-0.108307 -0.166357 0)
(-0.112178 -0.167207 0)
(-0.114138 -0.16947 0)
(-0.119692 -0.17279 0)
(-0.12873 -0.175783 0)
(-0.143044 -0.180741 0)
(-0.163066 -0.180794 0)
(-0.190077 -0.180653 0)
(-0.212066 -0.184911 0)
(-0.238732 -0.185234 0)
(-0.268278 -0.191125 0)
(-0.298221 -0.211223 0)
(-0.338501 -0.235949 0)
(-0.396714 -0.244436 0)
(-0.486002 -0.0782127 0)
(-0.327901 0.870633 0)
(0.327506 2.08534 0)
(0.201953 1.65158 0)
(0.242262 0.894027 0)
(0.272391 0.34283 0)
(-0.1182 0.237991 0)
(0.0568987 -0.29603 0)
(0.00973667 -0.179857 0)
)
;
    }
}


// ************************************************************************* //
