/*--------------------------------*- C++ -*----------------------------------*\
| =========                 |                                                 |
| \\      /  F ield         | OpenFOAM: The Open Source CFD Toolbox           |
|  \\    /   O peration     | Version:  2.4.0                                 |
|   \\  /    A nd           | Web:      www.OpenFOAM.org                      |
|    \\/     M anipulation  |                                                 |
\*---------------------------------------------------------------------------*/
FoamFile
{
    version     2.0;
    format      ascii;
    class       volScalarField;
    location    "0.85";
    object      alpha.air;
}
// * * * * * * * * * * * * * * * * * * * * * * * * * * * * * * * * * * * * * //

dimensions      [0 0 0 0 0 0 0];

internalField   nonuniform List<scalar> 
559
(
2.42295e-14
2.4465e-13
1.9161e-12
1.1163e-11
3.78836e-10
6.05269e-09
4.93018e-06
0.000291647
6.03472e-06
5.94797e-06
1.87045e-05
4.16168e-05
4.2351e-05
3.72129e-05
2.78995e-05
2.78419e-05
8.39909e-05
0.000248662
0.000258652
0.000163468
1.77442e-05
1.35755e-06
1.35749e-06
1.37186e-06
6.69245e-05
2.0585e-05
1.19e-05
6.01777e-06
3.43053e-05
5.99483e-05
5.98348e-05
5.99929e-05
0.000128268
0.000850925
0.00237258
0.0031662
0.00317377
0.00317376
0.00317376
0.00317368
0.00148048
0.000136358
1.67709e-05
3.66633e-05
3.24056e-05
1.19e-05
0.000306064
0.000261668
7.52834e-05
4.1377e-05
4.13785e-05
4.13783e-05
4.13808e-05
4.13808e-05
0.000460296
0.0027478
0.00140104
0.000229935
0.000531378
0.00144947
0.000901516
0.00012028
1.7357e-05
1.23854e-05
1.19e-05
0.0422365
0.0051535
0.000395686
4.15146e-05
4.13783e-05
4.13809e-05
4.13808e-05
0.000130681
0.00120406
0.00124532
0.000541035
5.80093e-05
0.000189487
0.000570988
0.000495547
7.28819e-05
1.18382e-05
1.18351e-05
1.98547e-05
0.31989
0.026508
0.00140354
0.000104252
4.1381e-05
4.13808e-05
4.13819e-05
0.000116342
0.000326728
0.000114953
4.25134e-05
2.91567e-05
2.94073e-05
3.22299e-05
2.79371e-05
1.18392e-05
1.1835e-05
1.18322e-05
2.0563e-05
0.31989
0.0339404
0.00138746
0.00019895
4.75774e-05
4.13819e-05
5.5787e-05
5.60841e-05
7.19771e-05
0.00012002
9.20858e-05
2.91548e-05
2.91663e-05
2.91966e-05
7.0443e-05
0.000141468
1.18321e-05
1.18321e-05
2.54469e-05
0.31989
0.0594117
0.00343113
0.000148616
5.00311e-05
4.13819e-05
4.56136e-05
4.58383e-05
0.000140717
0.00333
0.0383762
0.000151714
5.27088e-05
6.61836e-05
0.000470913
0.00107498
3.40422e-05
1.18292e-05
2.50543e-05
0.193841
0.15008
0.00720544
0.00117466
0.0010389
0.000282651
4.58384e-05
5.03024e-05
0.000411103
0.0296934
0.0502586
0.0322813
0.000279923
0.000124247
0.00100634
0.00132118
0.00116953
4.93735e-05
2.87068e-05
0.00182002
0.0196246
0.118253
0.41682
0.490844
0.395798
0.724075
0.999607
0.0190079
0.023783
0.0242132
0.0246475
0.116314
0.0756363
0.0548114
0.0583349
0.160024
0.188973
0.322472
0.597039
0.871826
0.929781
0.968199
0.988933
0.477403
0.60363
0.918231
0.986786
0.320293
0.320352
0.542582
0.888664
0.350694
0.320116
0.319804
0.545917
0.996932
0.980304
0.884886
0.617309
0.999998
0.99999
0.999978
0.999989
1
1
1
1
1
1
1
1
1
1
1
1
1
1
1
1
1
1
1
1
1
1
1
1
1
1
0.999999
0.999999
1
0.999999
0.999999
0.999999
0.0435456
0.0982137
0.00908663
0.00932124
0.00944463
0.00663819
0.000465967
6.80897e-05
0.00519867
0.0298997
0.0255145
0.0395124
0.011677
0.000628582
0.000500072
0.00132251
0.00314454
0.0031497
0.00147584
0.131137
0.169224
0.0413703
0.0126294
0.012572
0.0125749
0.0105213
0.00148724
0.00424073
0.00250118
0.00233757
0.0138837
0.0154602
0.0030853
0.000161707
0.000113
0.00102183
0.00315479
0.00335232
0.791484
0.846713
0.741738
0.314554
0.0435079
0.0182641
0.0115043
0.002787
0.000759669
0.000548033
0.00106603
0.00284628
0.0115682
0.0110967
0.000330436
0.000101529
0.00134194
0.00207843
0.000293845
0.990151
0.990303
0.990299
0.958989
0.617105
0.117078
0.0177501
0.00440667
0.000499928
0.000225062
0.000155894
0.00022447
0.00236584
0.00414724
0.00021483
4.42647e-05
0.000343464
0.000199208
0.000199249
0.98951
0.990298
0.990284
0.987625
0.784179
0.187969
0.00649118
0.00133014
0.000345635
7.77861e-05
1.9668e-05
1.97399e-05
0.000101994
0.000366803
8.48958e-05
9.39193e-06
2.2473e-05
0.000287211
0.000605892
0.977325
0.990293
0.989653
0.864153
0.335626
0.0471109
0.00365867
0.000570917
0.000446902
0.000446166
0.000625885
0.000114708
1.31906e-05
7.55415e-06
7.67558e-06
1.92341e-05
0.000616782
0.00340532
0.00182791
0.878582
0.956966
0.869611
0.515652
0.0948836
0.0339567
0.00452909
0.00343685
0.0215896
0.0510036
0.0664189
0.011434
9.75858e-05
7.44772e-06
4.84773e-05
0.0010628
0.00525253
0.00583792
0.00215806
0.298652
0.209546
0.206517
0.170525
0.0944234
0.0539411
0.0103004
0.011922
0.11907
0.312265
0.317834
0.142273
0.00642155
0.00098999
0.000704771
0.00252256
0.00503161
0.00340599
0.00122607
0.928364
0.690627
0.596301
0.602641
0.529212
0.196139
0.0486094
0.0133124
0.0915771
0.293355
0.317888
0.317903
0.159001
0.0051627
0.00242309
0.00185308
0.00199346
0.0019881
0.00122607
0.999953
0.998251
0.990631
0.986802
0.981184
0.787172
0.269023
0.0639342
0.031368
0.0255514
0.0212946
0.0100634
0.0104651
0.0061504
0.00264422
0.00769926
0.0261417
0.0313283
0.0177156
1
1
1
1
0.999969
0.994456
0.865498
0.38377
0.125254
0.109613
0.155431
0.04269
0.00461116
0.00461429
0.021448
0.137314
0.313395
0.354026
0.140198
1
1
1
1
1
0.999995
0.998629
0.951491
0.667974
0.336588
0.222964
0.10635
0.0211293
0.0286569
0.173627
0.737775
0.959981
0.954885
0.790447
1
1
0.999999
1
1
1
1
0.999844
0.980376
0.704196
0.191188
0.094004
0.0873583
0.176803
0.777731
0.999741
1
0.999974
0.999508
0.999999
0.999999
0.999999
0.999999
1
1
1
1
0.999918
0.980002
0.710131
0.331282
0.318966
0.768329
0.997225
1
1
1
1
0.999999
0.999999
0.999999
0.999999
0.999999
0.999999
1
1
1
0.999886
0.997221
0.984268
0.976398
0.994971
0.999996
1
1
1
1
0.999999
1
1
0.999999
0.999999
0.999999
0.999999
1
1
1
0.999995
0.999959
0.999946
0.999988
0.999997
0.999997
0.999995
0.999999
1
0.999999
1
1
0.999999
0.999999
0.999999
0.999999
1
1
1
1
1
1
0.999996
0.999994
0.999981
0.999978
0.999996
1
)
;

boundaryField
{
    leftWall
    {
        type            alphaContactAngle;
        thetaProperties 
6
(

(
water
mercury
)
 90 0 0 0

(
water
air
)
 90 0 0 0

(
water
oil
)
 90 0 0 0

(
mercury
air
)
 90 0 0 0

(
oil
mercury
)
 90 0 0 0

(
oil
air
)
 90 0 0 0
);
        value           nonuniform 0();
    }
    rightWall
    {
        type            alphaContactAngle;
        thetaProperties 
6
(

(
water
mercury
)
 90 0 0 0

(
water
air
)
 90 0 0 0

(
water
oil
)
 90 0 0 0

(
mercury
air
)
 90 0 0 0

(
oil
mercury
)
 90 0 0 0

(
oil
air
)
 90 0 0 0
);
        value           nonuniform List<scalar> 
25
(
1.19e-05
1.19e-05
1.19e-05
1.98547e-05
2.0563e-05
2.54469e-05
2.50543e-05
2.87068e-05
0.00147584
0.00335232
0.000293845
0.000199249
0.000605892
0.00182791
0.00215806
0.00122607
0.00122607
0.0177156
0.140198
0.790447
0.999508
1
1
1
1
)
;
    }
    lowerWall
    {
        type            alphaContactAngle;
        thetaProperties 
6
(

(
water
mercury
)
 90 0 0 0

(
water
air
)
 90 0 0 0

(
water
oil
)
 90 0 0 0

(
mercury
air
)
 90 0 0 0

(
oil
mercury
)
 90 0 0 0

(
oil
air
)
 90 0 0 0
);
        value           nonuniform List<scalar> 
40
(
2.42295e-14
2.42295e-14
2.4465e-13
1.9161e-12
1.1163e-11
3.78836e-10
6.05269e-09
4.93018e-06
0.000291647
0.0190079
0.023783
0.0242132
0.0246475
6.03472e-06
6.01777e-06
0.000306064
0.0422365
0.31989
0.31989
0.31989
0.193841
6.03472e-06
5.94797e-06
1.87045e-05
4.16168e-05
4.2351e-05
3.72129e-05
2.78995e-05
2.78419e-05
8.39909e-05
0.000248662
0.000258652
0.000163468
1.77442e-05
1.35755e-06
1.35749e-06
1.37186e-06
6.69245e-05
2.0585e-05
1.19e-05
)
;
    }
    atmosphere
    {
        type            inletOutlet;
        inletValue      nonuniform 0();
        value           nonuniform 0();
    }
    defaultFaces
    {
        type            empty;
    }
    procBoundary1to0
    {
        type            processor;
        value           nonuniform List<scalar> 
26
(
7.96891e-15
9.61245e-14
9.70988e-13
8.42278e-12
4.74659e-11
5.96224e-09
2.58804e-06
2.76914e-05
2.10916e-05
0.0014163
0.0215147
0.205156
0.43627
0.810467
0.97758
0.999898
1
1
1
1
1
1
1
0.999998
1
1
)
;
    }
    procBoundary1to3
    {
        type            processor;
        value           nonuniform List<scalar> 
23
(
1
1
0.999999
0.999999
1
1
0.999999
0.999999
0.999998
0.999999
0.999999
0.999999
1
1
1
1
0.999999
0.999997
0.999982
0.999978
0.999978
0.999995
1
)
;
    }
}


// ************************************************************************* //
