/*--------------------------------*- C++ -*----------------------------------*\
| =========                 |                                                 |
| \\      /  F ield         | OpenFOAM: The Open Source CFD Toolbox           |
|  \\    /   O peration     | Version:  2.4.0                                 |
|   \\  /    A nd           | Web:      www.OpenFOAM.org                      |
|    \\/     M anipulation  |                                                 |
\*---------------------------------------------------------------------------*/
FoamFile
{
    version     2.0;
    format      ascii;
    class       volScalarField;
    location    "0.85";
    object      alpha.mercury;
}
// * * * * * * * * * * * * * * * * * * * * * * * * * * * * * * * * * * * * * //

dimensions      [0 0 0 0 0 0 0];

internalField   nonuniform List<scalar> 
559
(
0.999992
0.999989
0.999988
0.999988
0.999389
0.933847
0.354233
0.0458747
0.867508
0.805537
0.83403
0.861094
0.873887
0.878451
0.880571
0.900966
0.907566
0.907736
0.908305
0.909057
0.910845
0.912042
0.912765
0.913099
0.913246
0.913135
0.913056
0.827014
0.327468
0.224639
0.196995
0.206479
0.23594
0.296127
0.325134
0.342359
0.398334
0.43738
0.440382
0.481556
0.61673
0.802916
0.910454
0.913347
0.913289
0.913134
0.139391
0.029705
0.00212618
0.000118888
5.09222e-05
4.21506e-05
4.31733e-05
4.51891e-05
5.5702e-05
6.25231e-05
8.47335e-05
0.00139227
0.0582033
0.279291
0.616269
0.887298
0.913556
0.913512
0.913142
0.018016
0.00850266
0.000695407
4.0114e-05
3.78764e-05
3.78356e-05
3.90314e-05
3.90926e-05
3.91077e-05
5.18446e-05
7.40164e-05
0.00223418
0.0635428
0.288223
0.586834
0.856521
0.913737
0.913688
0.908919
0.0172655
0.00803974
0.00029978
3.75386e-05
3.79173e-05
3.77953e-05
3.96444e-05
4.41442e-05
5.07887e-05
5.74731e-05
7.71986e-05
0.00215974
0.0672154
0.310523
0.642943
0.870144
0.906874
0.911656
0.908806
0.0500391
0.00713563
9.20228e-05
3.50788e-05
3.33421e-05
3.1446e-05
3.63528e-05
3.91394e-05
4.11186e-05
4.29403e-05
5.87315e-05
0.000814447
0.0350755
0.20168
0.420181
0.779811
0.905765
0.903349
0.897204
0.0481614
0.00180229
5.94629e-05
4.71961e-05
3.94693e-05
3.12328e-05
3.42476e-05
3.92428e-05
3.76348e-05
3.76117e-05
4.45e-05
0.000179897
0.0112934
0.0844008
0.14867
0.426282
0.879062
0.900405
0.887952
0.00691086
0.000368197
4.04752e-05
6.69164e-05
6.68504e-05
4.47418e-05
3.41391e-05
3.92075e-05
3.87525e-05
3.80138e-05
5.2085e-05
7.09421e-05
0.00264493
0.036083
0.0917964
0.102703
0.51084
0.7869
0.610741
0.00613776
2.69449e-05
5.78754e-05
3.9474e-05
6.52303e-05
4.67385e-05
1.37041e-05
7.91475e-08
0.0889109
0.107559
0.096491
0.0620588
5.31418e-05
3.37326e-05
3.83246e-05
3.04135e-05
3.42071e-05
2.49148e-05
2.90133e-05
1.53069e-05
1.62472e-05
1.53923e-05
1.2827e-05
2.17082e-06
6.65717e-05
6.65647e-05
5.26072e-05
1.09939e-05
6.65424e-05
6.65745e-05
6.65847e-05
2.67018e-05
4.59336e-05
5.78588e-05
4.94612e-05
3.66845e-05
2.37741e-07
3.53508e-07
4.92107e-07
3.49401e-06
8.22557e-11
8.86133e-11
5.18246e-11
5.14356e-11
5.58374e-11
5.52132e-11
5.40632e-11
5.10629e-11
5.46167e-11
5.47991e-11
5.58918e-11
1.16286e-10
5.82249e-11
5.76701e-11
5.95261e-11
8.41268e-11
7.72e-11
7.2931e-11
7.36404e-11
7.74512e-11
9.54167e-11
9.38979e-11
9.79089e-11
1.02012e-10
9.53069e-11
9.65385e-11
9.81424e-11
9.93984e-11
7.34057e-11
8.22146e-11
8.48988e-11
8.73349e-11
4.83118e-11
5.4967e-11
6.90032e-11
7.24832e-11
0.00785213
0.000103553
3.10264e-05
3.86473e-05
3.87016e-05
4.35046e-05
4.08281e-05
3.40741e-05
3.77294e-05
3.46451e-05
3.96267e-05
5.56681e-05
0.000800849
0.00760982
0.00956001
0.0121935
0.0378932
0.0614622
0.0676554
1.43853e-05
1.21561e-05
1.64587e-05
1.56071e-05
1.87429e-05
2.55526e-05
2.73386e-05
3.09399e-05
3.45622e-05
3.46618e-05
3.46442e-05
4.0103e-05
0.000336003
0.000881081
0.000866087
0.000408683
0.000571511
0.00298195
0.0107132
5.56984e-06
2.09925e-06
2.88279e-06
5.7401e-06
8.36295e-06
1.14666e-05
1.65124e-05
2.36031e-05
3.09821e-05
3.55384e-05
3.67625e-05
3.88648e-05
5.99142e-05
0.000144072
0.000137127
7.62591e-05
0.000248425
0.00203436
0.0138968
7.13958e-07
3.61184e-07
3.62564e-07
4.08934e-07
3.63447e-06
1.33618e-05
1.86323e-05
2.29118e-05
3.1546e-05
3.78501e-05
3.86731e-05
3.8672e-05
4.15363e-05
4.9517e-05
4.93891e-05
5.47395e-05
0.000367505
0.00162561
0.0190994
2.28717e-06
3.73517e-07
4.4482e-07
5.0984e-06
4.29632e-05
7.88463e-05
5.89326e-05
3.23066e-05
3.17393e-05
3.50554e-05
3.50774e-05
3.58996e-05
3.62284e-05
4.2011e-05
5.02497e-05
6.03098e-05
0.000122246
0.00159482
0.0224536
3.81928e-06
3.82955e-07
2.55746e-06
4.93269e-05
0.000148582
0.000161795
0.000143034
6.87165e-05
3.21138e-05
3.09413e-05
3.04948e-05
3.24649e-05
3.68817e-05
4.76348e-05
7.24244e-05
0.000215674
0.00108245
0.0034222
0.023348
2.24095e-05
1.62273e-05
4.18231e-05
0.000121047
0.00017764
0.000178695
0.000176827
0.000131188
5.86863e-05
3.15672e-05
3.00746e-05
3.32438e-05
5.16608e-05
0.00011698
0.000362829
0.00116051
0.00295785
0.00639204
0.0228295
4.70196e-05
0.000120773
0.000120123
0.000112508
9.4734e-05
0.000148201
0.000168155
0.000160288
0.000119736
4.25816e-05
3.00574e-05
3.76118e-05
0.000162919
0.00055058
0.0010796
0.0018345
0.00357529
0.00713186
0.012659
1.67031e-06
8.92712e-06
1.65523e-05
1.15649e-05
1.28893e-05
4.31898e-05
0.000120997
0.000173024
0.000178318
0.000138261
8.21917e-05
0.00014773
0.000565604
0.000979612
0.00123061
0.0017573
0.00296704
0.0044241
0.00449221
8.40725e-09
1.13965e-07
3.27308e-07
2.9875e-07
2.54279e-07
3.9146e-06
3.52097e-05
0.000116831
0.000206452
0.00030475
0.000402188
0.000607349
0.000855721
0.000956449
0.00100577
0.00179869
0.00251851
0.00213601
0.00234779
7.95409e-10
1.9989e-09
4.0368e-09
5.92913e-09
7.5473e-09
3.54085e-08
1.96954e-06
2.74197e-05
0.000115314
0.000286354
0.000412478
0.000643037
0.00062845
0.000615167
0.00104628
0.000993442
0.000557243
0.00030982
0.000386773
2.13646e-10
3.99871e-10
1.47287e-09
5.2849e-09
8.20033e-09
8.17744e-09
1.52229e-08
5.8406e-07
1.2826e-05
7.39897e-05
0.00020234
0.000358067
0.000405757
0.000497872
0.000311414
6.32795e-05
9.55811e-06
4.46368e-06
1.13751e-05
7.90778e-11
1.43063e-10
5.70163e-10
2.95636e-09
9.45839e-09
1.50746e-08
1.49803e-08
1.5037e-08
3.9851e-07
9.42868e-06
4.26866e-05
7.20392e-05
7.77624e-05
6.72305e-05
1.48772e-05
5.79551e-08
6.3955e-09
1.03949e-08
2.79087e-08
8.88565e-11
5.60955e-11
4.78918e-11
2.44283e-10
2.84391e-09
1.51487e-08
2.61394e-08
2.67013e-08
3.85364e-08
3.79125e-07
4.57588e-06
1.06659e-05
1.16336e-05
4.14701e-06
1.12541e-07
1.65865e-09
6.39654e-10
9.89492e-10
1.25655e-09
9.52172e-11
6.65998e-11
3.89075e-11
4.61226e-11
1.48607e-10
9.66882e-10
1.45602e-08
4.41136e-08
4.97098e-08
2.24781e-08
7.37254e-08
3.91045e-07
4.69667e-07
9.6339e-08
3.70759e-09
6.71023e-10
6.89654e-10
9.51667e-10
6.72892e-10
8.23826e-11
6.06145e-11
3.4979e-11
3.8384e-11
9.65858e-11
1.71879e-10
6.42454e-10
2.1532e-08
5.00086e-08
1.37467e-08
2.51437e-09
2.95632e-09
2.61635e-09
6.72343e-10
6.76244e-10
1.09632e-09
1.9138e-09
1.54992e-09
8.86472e-10
6.59096e-11
4.39081e-11
2.58343e-11
2.75381e-11
7.10316e-11
1.21671e-10
1.83579e-10
6.83529e-09
3.35956e-08
4.13368e-09
8.3752e-10
7.80686e-10
7.80601e-10
8.44789e-10
1.46653e-09
3.39739e-09
3.99408e-09
2.5142e-09
1.09223e-09
)
;

boundaryField
{
    leftWall
    {
        type            zeroGradient;
    }
    rightWall
    {
        type            zeroGradient;
    }
    lowerWall
    {
        type            zeroGradient;
    }
    atmosphere
    {
        type            inletOutlet;
        inletValue      nonuniform 0();
        value           nonuniform 0();
    }
    defaultFaces
    {
        type            empty;
    }
    procBoundary1to0
    {
        type            processor;
        value           nonuniform List<scalar> 
26
(
0.999994
0.999994
0.999996
0.999994
0.999932
0.98726
0.689862
0.0684672
0.00165473
1.80598e-05
5.79733e-05
5.80038e-05
5.27721e-05
9.89826e-06
7.02448e-07
7.18236e-09
6.27471e-11
6.27471e-11
5.67421e-11
6.13983e-11
6.95732e-11
8.74055e-11
9.91029e-11
8.59464e-11
5.40903e-11
4.36888e-11
)
;
    }
    procBoundary1to3
    {
        type            processor;
        value           nonuniform List<scalar> 
23
(
3.98895e-11
4.2037e-11
4.61341e-11
4.95668e-11
4.14787e-11
2.58109e-11
1.68474e-11
1.90761e-11
4.13923e-11
9.21007e-11
1.38427e-10
1.80595e-10
6.5462e-09
2.98871e-08
3.23104e-09
7.80767e-10
1.06249e-09
5.48288e-09
7.37191e-09
8.31125e-09
5.56369e-09
2.75445e-09
1.25031e-09
)
;
    }
}


// ************************************************************************* //
