/*--------------------------------*- C++ -*----------------------------------*\
| =========                 |                                                 |
| \\      /  F ield         | OpenFOAM: The Open Source CFD Toolbox           |
|  \\    /   O peration     | Version:  2.4.0                                 |
|   \\  /    A nd           | Web:      www.OpenFOAM.org                      |
|    \\/     M anipulation  |                                                 |
\*---------------------------------------------------------------------------*/
FoamFile
{
    version     2.0;
    format      ascii;
    class       volScalarField;
    location    "0.85";
    object      p;
}
// * * * * * * * * * * * * * * * * * * * * * * * * * * * * * * * * * * * * * //

dimensions      [1 -1 -2 0 0 0 0];

internalField   nonuniform List<scalar> 
559
(
5756.56
4946.04
4126.97
3296.29
2467.77
1474.64
929.145
671.791
2059
1627.69
1327.71
1228.23
1232.2
1297.19
1418.91
1539.28
1630.26
1790.72
1970.28
2162.3
2472.86
3180.64
3991.49
4984.98
5782.35
6036.13
6078.05
1122.45
805.649
674.51
610.904
617.651
659.36
724.365
815.06
917.19
1019.97
1135.81
1299.12
1484.67
1993.12
2729.39
3777.27
4676.07
4915.14
5039.87
717.358
670.28
677.774
705.999
723.628
749.844
792.102
865.675
963.498
1070.86
1185.93
1307.88
1408.42
1692.51
2243.45
3235.63
4028.93
4424.17
4515.32
613.355
600.469
581.771
573.427
575.369
598.827
650.457
732.692
831.955
934.578
1054.47
1193.48
1287.95
1454.94
1852.6
2608.73
3245.95
3648.09
3731.45
551.75
539.602
531.279
547.498
564.125
594.28
649.839
732.05
832.764
924.388
1014.75
1113.07
1146.72
1197.5
1462.81
2080.18
2614.32
2973.61
3148.49
491.345
490.092
492.569
508.401
512.898
527.27
563.994
642.356
745.957
843.242
934.665
1023.9
1020.42
966.844
1078.99
1430.52
2062.18
2368.55
2536.17
429.811
445.57
454.16
473.57
485.579
505.324
534.646
598.656
700.892
789.036
865.687
937.427
934.336
846.568
901.225
1015.89
1474.83
1804.79
1977.57
391.931
409.768
416.586
437.689
452.46
468.811
495.658
546.766
648.467
737.522
809.784
863.587
874.802
790.468
834.454
869.694
1028.49
1221.93
1436.78
560.712
355.023
288.446
195.988
106.5
35.1106
3.42081
4.14327
539.439
525.45
517.795
476.586
304.15
286.152
272.902
245.995
225.68
214.112
195.155
177.627
169.77
164.782
162.083
161.42
146.889
162.315
162.045
161.782
83.062
126.381
155.578
158.239
11.687
29.6464
77.1077
128.488
4.55645
5.06656
6.72876
19.7235
4.04774
3.84012
3.05276
1.76271
3.02613
3.01043
2.97335
2.83113
2.44209
2.35965
2.35521
2.3954
1.99612
1.92561
1.90813
1.91562
1.5267
1.37283
1.29018
1.31376
1.31858
1.15508
1.08671
1.11382
1.68897
1.56807
1.50526
1.49815
2.06736
1.99735
1.95327
1.94517
2.31052
2.28384
2.26969
2.26524
359.507
366.938
363.331
383.666
402.267
419.242
441.885
475.403
565.084
655.982
723.566
766.815
790.664
751.911
813.972
850.356
848.04
879.218
958.85
213.81
216.581
221.833
301.671
342.738
363.424
370.979
401.465
477.342
563.166
619.825
653.871
698.792
716.006
795.197
804.131
833.401
888.094
955.943
165.756
163.955
167.646
192.15
272.551
321.045
313.551
336.787
411.47
483.719
533.699
565.348
602.175
642.3
708.527
719.8
748.056
770.557
828.766
161.363
161.834
162.115
163.427
175.736
245.72
273.86
293.995
357.516
414.721
461.646
487.19
518.353
583.693
660.127
692.939
705.88
715.775
742.974
161.188
161.656
162.385
163.696
161.316
181.931
262.133
270.434
312.319
354.819
393.765
421.11
452.641
530.972
612.895
650.396
659.098
658.846
668.463
158.883
159.87
160.725
159.244
151.06
160.709
199.075
223.893
263.471
297.989
326.784
354.229
405.467
484.956
572.35
617.64
618.27
601.908
594.459
155.691
158.91
155.264
136.351
119.088
130.12
140.612
164.381
196.423
225.274
260.604
307.976
371.152
446.844
523.101
550.575
555.695
533.189
510.663
68.0276
107.59
93.7435
58.2373
53.915
78.5239
90.0203
117.575
151.932
190.886
223.054
263.606
337.704
395.771
435.35
453.846
467.915
450.534
418.437
2.08645
7.34475
11.402
12.1426
14.4839
23.6967
48.9359
81.9577
123.135
165.938
201.337
233.854
274.743
326.612
344.859
357.212
373.19
357.981
321.719
2.54108
2.48764
2.44883
2.41998
2.52465
3.30199
13.4767
41.7846
75.4051
117.258
162.976
202.577
219.058
237.699
236.884
239.353
241.883
225.01
199.913
2.53339
3.03173
3.43791
3.62782
3.54802
3.29293
3.57879
8.66017
29.249
60.8048
95.2127
133.004
145.657
139.254
117.915
77.5039
93.1973
97.797
58.5163
2.02863
2.45537
2.80714
2.98262
3.11265
3.24031
3.2259
3.21691
5.09365
21.369
44.4513
59.5976
76.8951
58.6731
26.564
20.8012
1.11785
3.89461
12.6393
1.52414
2.211
2.68995
2.94336
3.03886
3.10605
3.20035
3.28907
3.27357
3.34764
14.4885
27.284
28.9872
15.6831
8.759
-0.208043
3.6086
3.64922
3.09495
1.3056
2.07669
2.58999
2.86838
2.99473
3.02923
3.06591
3.15662
3.27427
3.04192
2.78275
5.82869
8.01577
4.2558
2.19872
2.56594
3.12976
3.53412
3.75656
1.57546
2.10535
2.57261
2.80575
2.89541
2.91447
2.90485
2.92606
2.85612
2.30554
1.79602
1.79415
1.28509
1.31527
1.48308
1.53481
2.10611
2.55448
2.81476
1.97574
2.27994
2.57862
2.74525
2.80521
2.81984
2.80374
2.78806
2.69882
2.27826
2.05049
2.03338
1.75909
1.43931
1.08554
1.28437
1.6146
1.94529
2.31945
2.27417
2.40818
2.57467
2.67699
2.71774
2.72641
2.71809
2.74487
2.58316
2.23595
2.00814
1.75253
1.28794
0.908697
0.909511
1.04997
1.30684
1.64628
2.0598
)
;

boundaryField
{
    leftWall
    {
        type            fixedFluxPressure;
        gradient        nonuniform 0();
        value           nonuniform 0();
    }
    rightWall
    {
        type            fixedFluxPressure;
        gradient        uniform 0;
        value           nonuniform List<scalar> 
25
(
6078.05
5039.87
4515.32
3731.45
3148.49
2536.17
1977.57
1436.78
958.85
955.943
828.766
742.974
668.463
594.459
510.663
418.437
321.719
199.913
58.5163
12.6393
3.09495
3.75656
2.81476
2.31945
2.0598
)
;
    }
    lowerWall
    {
        type            fixedFluxPressure;
        gradient        nonuniform List<scalar> 
40
(
132718
0
0
0
0
0
0
0
0
6183.06
4331.02
3378.55
3297.72
0
0
0
0
0
0
0
0
47068.6
39138.6
42352.6
46873.4
49560.6
50774.6
51473.5
58711
61473.9
61842.8
62301.7
62475
63700.2
65050
65144.7
64667.5
63388.3
63242
62777.6
)
;
        value           nonuniform List<scalar> 
40
(
6154.71
5756.56
4946.04
4126.97
3296.29
2467.77
1474.64
929.145
671.791
578.893
553.086
539.354
497.629
2059
1122.45
717.358
613.355
551.75
491.345
429.811
391.931
2200.2
1745.11
1454.76
1368.84
1380.88
1449.51
1573.33
1715.41
1814.68
1976.25
2157.18
2349.72
2663.96
3375.79
4186.92
5178.98
5972.51
6225.85
6266.38
)
;
    }
    atmosphere
    {
        type            totalPressure;
        U               U.air;
        phi             phi.air;
        rho             rho;
        psi             none;
        gamma           1;
        p0              nonuniform 0();
        value           nonuniform 0();
    }
    defaultFaces
    {
        type            empty;
    }
    procBoundary1to0
    {
        type            processor;
        value           nonuniform List<scalar> 
26
(
5786.82
4986.7
4186.42
3382.35
2574.78
1753.81
970.963
605.727
656.225
429.032
423.851
292.023
106.68
15.9569
3.55298
4.37573
4.00736
4.00736
3.08349
2.59711
2.16358
1.8047
1.67155
1.9349
2.19629
2.35323
)
;
    }
    procBoundary1to3
    {
        type            processor;
        value           nonuniform List<scalar> 
23
(
2.43332
2.43264
2.43497
2.43344
2.44512
2.48979
2.55892
2.60435
2.62263
2.62235
2.609
2.58093
2.49106
2.29235
2.00184
1.62949
1.09681
0.842823
0.955734
1.18786
1.47079
1.81402
2.10943
)
;
    }
}


// ************************************************************************* //
