/*--------------------------------*- C++ -*----------------------------------*\
| =========                 |                                                 |
| \\      /  F ield         | OpenFOAM: The Open Source CFD Toolbox           |
|  \\    /   O peration     | Version:  2.4.0                                 |
|   \\  /    A nd           | Web:      www.OpenFOAM.org                      |
|    \\/     M anipulation  |                                                 |
\*---------------------------------------------------------------------------*/
FoamFile
{
    version     2.0;
    format      ascii;
    class       surfaceScalarField;
    location    "0.85";
    object      phi.mercury;
}
// * * * * * * * * * * * * * * * * * * * * * * * * * * * * * * * * * * * * * //

dimensions      [0 3 -1 0 0 0 0];

internalField   nonuniform List<scalar> 
1061
(
-3.5863e-06
-5.39619e-06
-6.50414e-06
-8.32845e-06
-1.2348e-05
-3.1261e-05
-8.97566e-05
-0.000154344
4.43343e-06
-1.23725e-05
2.2778e-05
-4.45051e-05
2.96492e-05
-3.95218e-05
3.18588e-05
-3.77096e-05
3.33561e-05
-3.70016e-05
3.47473e-05
-3.47051e-05
3.66999e-05
-3.15069e-05
3.81664e-05
-2.91276e-05
3.99572e-05
-2.74183e-05
4.26186e-05
-2.51799e-05
4.49929e-05
-2.33232e-05
4.68141e-05
-2.29494e-05
4.50963e-05
-1.88317e-05
4.2127e-05
-1.21998e-05
3.39495e-05
3.90523e-07
2.14865e-05
7.94133e-06
4.98412e-06
1.19131e-05
-3.08136e-06
3.47655e-06
-7.25892e-06
4.72251e-06
-4.66781e-05
2.65092e-05
-0.000133358
3.7762e-05
-0.00012536
4.33225e-05
-6.85789e-05
4.59639e-05
-3.38267e-05
4.69176e-05
-2.7463e-05
4.68825e-05
-2.52668e-05
4.68065e-05
-2.438e-05
4.72425e-05
-2.57754e-05
4.76233e-05
-2.58704e-05
4.78047e-05
-2.63062e-05
4.88328e-05
-4.28729e-05
4.62904e-05
-3.70168e-05
4.11431e-05
-1.87646e-05
3.25965e-05
6.44578e-06
2.04776e-05
2.11118e-05
7.9877e-06
2.5518e-05
-3.03555e-06
1.64704e-05
-8.76343e-06
2.21647e-05
-0.000169254
2.0154e-05
-0.00021696
2.2549e-05
-0.000197332
3.95913e-05
-7.84309e-05
5.1468e-05
-3.66589e-05
5.55813e-05
-2.69269e-05
5.59066e-05
-2.08761e-05
5.44873e-05
-1.82696e-05
5.21952e-05
-1.84991e-05
4.60476e-05
-1.79381e-05
1.29633e-05
-1.74493e-05
-1.51023e-05
-5.8453e-05
-2.21745e-05
-5.53272e-05
-1.12492e-05
-4.05733e-05
8.20899e-06
-2.21211e-05
1.4926e-05
1.06965e-05
7.49838e-06
3.19721e-05
-2.36791e-07
2.29234e-05
-1.00946e-05
1.26867e-05
-0.000239307
9.76994e-06
-0.000227766
1.47989e-05
-0.000182491
3.72596e-05
-5.9074e-05
4.4952e-05
-3.74828e-05
4.77475e-05
-2.59437e-05
4.61253e-05
-1.52331e-05
4.10037e-05
-8.66146e-06
3.46637e-05
-6.86103e-06
2.91483e-05
-4.9243e-06
1.06158e-06
1.80773e-06
-2.7851e-05
-4.68751e-05
-3.4421e-05
-4.18961e-05
-3.29847e-05
-3.71393e-05
-1.74593e-05
-3.95464e-05
3.33577e-06
-1.24409e-05
6.21141e-06
2.90649e-05
3.15101e-06
2.61352e-05
-6.35808e-06
1.1581e-05
-0.00023893
8.74237e-06
-0.000226282
8.83805e-06
-0.000143979
1.91422e-05
-5.94386e-05
2.81452e-05
-4.52615e-05
3.32884e-05
-3.09519e-05
3.48481e-05
-1.81237e-05
3.25705e-05
-8.66951e-06
2.71358e-05
-5.83876e-06
2.18866e-05
-4.08667e-06
-2.9919e-06
5.84816e-06
-2.79222e-05
-3.77159e-05
-3.33499e-05
-4.07066e-05
-3.36957e-05
-4.07694e-05
-2.8925e-05
-5.14372e-05
-1.04132e-05
-3.42031e-05
2.1679e-06
1.62972e-05
3.61586e-06
2.44774e-05
-3.35881e-06
1.1499e-05
-0.000233989
6.00402e-06
-0.000229492
1.47164e-06
-0.000104401
7.72348e-06
-6.84694e-05
1.81429e-05
-5.57079e-05
2.37763e-05
-3.42529e-05
2.2415e-05
-1.4443e-05
1.81181e-05
2.5233e-07
1.36884e-05
4.52786e-06
1.18717e-05
2.80333e-06
-3.71856e-07
9.06367e-06
-1.74603e-05
-1.80631e-05
-2.31929e-05
-4.74731e-05
-2.65072e-05
-5.13381e-05
-2.58313e-05
-7.23977e-05
-1.40058e-05
-5.75152e-05
4.70529e-07
3.59439e-07
4.7705e-06
2.0019e-05
1.17442e-06
1.17566e-05
-0.000240998
5.53201e-06
-0.000224868
-4.82228e-07
-7.95667e-05
1.51509e-06
-7.56859e-05
9.41133e-06
-6.7955e-05
1.94005e-05
-4.65314e-05
2.01543e-05
-1.59745e-05
1.37071e-05
2.79821e-06
6.55264e-06
1.05291e-05
3.0611e-06
7.2322e-06
6.65024e-07
1.03501e-05
-7.61355e-06
1.25692e-05
-1.54084e-05
-4.84052e-05
-2.23254e-05
-5.98626e-05
-2.3896e-05
-8.71336e-05
-1.96699e-05
-8.3634e-05
-6.26296e-06
-2.36489e-05
4.36155e-06
6.60621e-06
-1.64313e-06
1.10331e-05
-0.000239096
4.90843e-06
-0.000192411
1.58372e-07
-7.19111e-05
-2.04803e-07
-7.52834e-05
2.03492e-06
-7.02221e-05
1.0458e-05
-5.52912e-05
1.58188e-05
-2.01925e-05
1.0377e-05
7.89504e-06
3.07242e-06
1.57332e-05
-1.65753e-07
9.25211e-06
5.6964e-07
9.88633e-06
-3.18005e-07
2.57151e-05
-5.79161e-06
-3.83419e-05
-1.36967e-05
-5.81666e-05
-1.74156e-05
-8.47883e-05
-2.21734e-05
-0.000104945
-1.38668e-05
-6.16937e-05
1.21885e-06
-2.62438e-05
-2.58339e-05
-9.49371e-05
-1.77371e-05
-4.29613e-05
-2.56121e-05
-0.000132072
-7.79053e-05
-0.000213123
-0.000249253
-0.000204748
-0.000258318
-0.000199502
-0.000288496
-0.000115172
-0.000289838
-0.000263172
-7.89132e-06
-4.40606e-05
-3.42569e-07
-4.66236e-05
1.14952e-05
-6.02772e-05
-5.92309e-05
2.48425e-05
-3.83043e-05
-6.29008e-06
-4.62295e-05
-1.79217e-05
-4.53796e-05
-5.12416e-05
-6.09608e-05
-4.20671e-05
-5.66896e-05
-6.87699e-05
-7.41884e-05
-8.90735e-05
-9.75412e-05
-0.000103708
-0.000110811
-0.000101702
-0.000238625
-0.000101949
-0.000231961
-0.000108753
-0.000237857
-0.000111161
-0.0001142
-0.000237325
-0.00024885
-9.84751e-05
-0.000248077
-0.000100604
-0.000256003
-0.000106146
-0.000110901
-0.000263094
-0.000286115
-8.95184e-05
-0.00027923
-8.77333e-05
-0.000276922
-8.64858e-05
-8.98763e-05
-0.000282925
-0.000291296
-6.33951e-05
-0.00029076
-5.60687e-05
-0.000286665
-5.34636e-05
-5.58778e-05
-0.000288111
-0.00029557
-7.74726e-06
-0.000315861
-3.60216e-05
-0.000340362
-5.21668e-05
-8.83523e-05
-0.00021327
-0.000263523
-5.56943e-06
-0.000234341
-2.30816e-06
-0.000220642
-1.49823e-06
-8.41776e-06
-9.74254e-05
-0.000291679
-1.42465e-05
-0.000268902
-2.5213e-05
-0.000236685
-3.37135e-05
-3.93649e-05
-0.000194261
-0.000249041
2.90261e-06
-0.000267365
-6.87598e-06
-0.000269822
-3.14177e-05
-4.349e-05
-0.000265458
-0.000185368
1.80993e-05
-0.000195865
3.5064e-06
-0.000207745
-1.95914e-05
-3.15801e-05
-0.000219682
-8.38677e-05
4.91535e-05
-0.000110113
2.98136e-05
-0.000131802
2.07647e-06
-1.84152e-05
-0.000144976
0.000105577
7.21069e-05
8.0688e-05
5.46649e-05
5.03251e-05
3.24286e-05
1.04924e-05
2.13893e-05
0.000207863
7.57577e-05
0.000198002
6.45407e-05
0.000186491
4.39058e-05
2.89574e-05
0.000167994
0.000223244
7.33178e-05
0.000221861
6.58841e-05
0.000216078
4.96533e-05
3.8846e-05
0.000206157
0.000206834
0.000209514
0.000207449
0.000203603
1.83492e-05
-0.000131317
5.34373e-06
-9.4905e-05
-5.44614e-06
-6.55323e-05
-1.27e-05
-5.57211e-05
-1.39937e-05
-5.68274e-05
-5.60281e-06
-5.65757e-05
1.0335e-05
-3.11959e-05
1.12037e-05
1.25575e-05
-4.8246e-06
3.08456e-05
-1.13175e-05
1.52474e-05
-4.22576e-06
7.30043e-06
8.65243e-06
1.70362e-05
1.0419e-05
-1.08744e-05
3.97753e-06
-3.71043e-05
-7.74926e-06
-6.53807e-05
-3.15597e-05
-0.000102418
-4.42499e-05
-0.000110075
-2.06775e-05
-0.000128702
-0.000147658
-3.30838e-05
-0.000148256
-2.42541e-05
-0.000115971
-4.48737e-05
-9.91236e-05
-5.36534e-05
-5.87354e-05
-5.27416e-05
-4.87171e-05
-4.67178e-05
-5.3165e-05
-2.41983e-05
-4.18659e-05
-1.05555e-05
8.01181e-06
-1.93188e-05
3.90664e-05
-2.82682e-05
2.03964e-05
-2.23115e-05
1.46567e-06
-1.11654e-06
1.17199e-06
1.59492e-05
9.55995e-06
1.47721e-05
1.36154e-05
7.82116e-06
-1.48715e-05
1.47784e-06
-4.08164e-05
6.67834e-06
-9.62071e-05
1.77415e-05
-0.000186354
-0.000205696
-8.98088e-05
-0.000223621
-8.4859e-05
-0.000129095
-9.75937e-05
-0.000119709
-0.000102653
-0.000105734
-0.000117713
-0.00010664
-0.000101283
-9.2536e-05
-7.43182e-05
-6.32262e-05
-4.81905e-05
-2.8983e-06
-4.12664e-05
3.10485e-05
-4.56834e-05
2.03957e-05
-4.10837e-05
-6.98496e-06
-2.6599e-05
-1.15443e-05
-7.18163e-07
1.29087e-05
1.39422e-05
5.30385e-05
6.23592e-06
4.34292e-05
5.52059e-06
1.17201e-05
1.56977e-05
-8.19237e-05
2.03335e-05
-0.000193039
-0.000208237
-0.000189386
-0.000228529
-0.000193705
-0.000122325
-0.000225706
-0.00014361
-0.000211196
-0.000175534
-0.000182453
-0.000177745
-0.000149679
-0.000162245
-0.000115766
-0.000115488
-8.56596e-05
-2.667e-05
-6.79758e-05
1.22052e-05
-6.15189e-05
1.00485e-05
-5.85344e-05
-1.39046e-05
-4.90322e-05
-2.01109e-05
-2.90354e-05
1.11996e-06
-8.34341e-06
5.61119e-05
-5.86218e-06
5.50802e-05
-1.23745e-06
1.39003e-05
9.18266e-06
-8.3711e-05
1.70364e-05
-0.000201232
-0.00020421
-0.000196716
-0.000271923
-0.000235752
-0.000111877
-0.000209662
-0.000192163
-0.000197021
-0.000251008
-0.000192388
-0.000247039
-0.000174118
-0.000217547
-0.000145939
-0.000168905
-0.00011693
-7.15314e-05
-9.28335e-05
-1.40493e-05
-7.63617e-05
-9.9853e-06
-6.9392e-05
-2.22656e-05
-6.38635e-05
-2.44274e-05
-5.23813e-05
-3.40379e-07
-3.03853e-05
4.14312e-05
-2.20542e-05
3.75182e-05
-1.75314e-05
-4.0563e-05
-2.3025e-06
-0.000126258
1.34362e-05
-0.000217114
-0.000204599
-0.00023411
-0.000249768
-0.000214962
-0.000167425
-0.000186523
-0.000242677
-0.000177617
-0.000258264
-0.000163948
-0.000245787
-0.000166783
-0.000233303
-0.000156491
-0.000198775
-0.000134928
-0.000116014
-0.0001095
-4.68756e-05
-9.22889e-05
-3.19342e-05
-8.79098e-05
-2.85662e-05
-9.13686e-05
-1.42493e-05
-9.21341e-05
6.47413e-06
-7.7219e-05
4.58207e-06
-5.9539e-05
-4.88597e-05
-2.98884e-05
-0.000144645
-5.23257e-06
-0.000199999
1.0067e-05
-0.00022783
-0.000210103
-0.000279251
-0.000194967
-0.000233515
-0.000244754
-0.000184439
-0.000251947
-0.000162126
-0.000239844
-0.0001611
-0.000233624
-0.000168201
-0.000231777
-0.000169153
-0.00020458
-0.000149737
-0.000146731
-0.000132548
-7.45269e-05
-0.000128773
-4.27921e-05
-0.000135591
-2.8728e-05
-0.000142294
-1.61121e-05
-0.000131753
-3.92935e-05
-0.000101081
-8.97117e-05
-5.76967e-05
-0.000158536
-3.02195e-05
-0.000205551
-1.05922e-05
-0.000221526
3.99541e-06
-0.000234854
-0.000228798
-0.00022261
-0.000167532
-0.000200737
-0.00017783
-0.000175114
-0.000199187
-0.000165779
-0.000198462
-0.000168948
-0.000200499
-0.000176673
-0.000207233
-0.00018084
-0.000199175
-0.000170576
-0.000160935
-0.000151646
-0.000101402
-0.000152934
-5.78117e-05
-0.000161227
-4.38147e-05
-0.000140935
-6.90983e-05
-0.000104014
-0.000127929
-7.61338e-05
-0.000173078
-5.55496e-05
-0.000206151
-3.79574e-05
-0.000232017
-2.0206e-05
-0.000245358
-3.01971e-06
-0.000258211
-0.000271656
-0.000165743
-0.000103295
-0.000185634
-0.000158351
-0.000200902
-0.000187717
-0.000198308
-0.000227618
-0.000182783
-0.000181458
-0.000180383
-0.000201215
-0.000186479
-0.000181807
-0.000178365
-0.000166718
-0.000158104
-0.000132042
-0.000142629
-0.00010268
-0.000134557
-9.30984e-05
-0.000106234
-0.000123096
-8.95279e-05
-0.000170254
-7.74785e-05
-0.000199326
-6.90093e-05
-0.000221839
-5.63583e-05
-0.000250987
-3.21069e-05
-0.00027786
-1.00317e-05
-0.000301176
-0.000307323
-0.000129017
-0.000111989
-0.00015733
-7.46754e-05
-0.000199201
-0.000102135
-0.000225378
-0.000122702
-0.000168307
-0.000149334
-0.000180851
-0.000126544
-0.000181343
-0.000171248
-0.000182558
-0.00015878
-0.000165626
-0.000149164
-0.000143399
-0.000143055
-0.000124573
-0.000146871
-0.00010779
-0.000156571
-9.88889e-05
-0.00017913
-9.47199e-05
-0.0002047
-8.33704e-05
-0.000225162
-6.45925e-05
-0.000263372
-4.32657e-05
-0.000321414
-1.88396e-05
-0.000358778
-0.000333552
-0.000251089
-0.000136481
-0.000208019
-0.000148279
-0.000170445
-0.00013366
-0.000161799
-0.000108474
-0.000159891
-0.00010914
-0.000120582
-0.00014637
-0.000171734
-0.000100619
-0.000175077
-0.000125724
-0.000165621
-0.000141778
-0.000146714
-0.000144434
-0.00012853
-0.000162935
-0.000116884
-0.000171863
-0.000114564
-0.000178315
-0.000105755
-0.000201301
-8.63973e-05
-0.000227298
-6.42474e-05
-0.000315914
-4.96234e-05
-0.00043913
-3.47954e-05
-0.00047143
-0.000342757
-0.000229148
-0.000126567
-0.000204976
-0.000170778
-0.000177792
-0.000158992
-0.000156866
-0.000129716
-0.000142391
-0.000122486
-0.000147356
-0.00012757
-0.000115429
-0.000114219
-0.000135943
-0.000100416
-0.000154746
-0.000107762
-0.000146919
-0.000128554
-0.000133858
-0.000127619
-0.000127831
-0.000133508
-0.000121987
-0.000135548
-0.000116394
-0.000157171
-0.000123468
-0.000221563
-0.00011102
-0.000311951
-8.61165e-05
-0.000296207
-5.13465e-05
-0.000320433
-0.000265003
-0.000142002
-0.000129589
-0.000106659
-0.000206068
-8.81279e-05
-0.000177021
-9.88622e-05
-0.000116131
-0.000124038
-9.77975e-05
-0.000141761
-0.000111414
-0.000136462
-0.000110936
-0.000102505
-8.66836e-05
-0.000118066
-8.06518e-05
-0.000159973
-7.90573e-05
-0.000158659
-9.90639e-05
-0.000159047
-8.70722e-05
-0.000159505
-8.76121e-05
-0.000188724
-0.000110339
-0.000202702
-0.000175774
-0.000183884
-0.000249452
-0.000136725
-0.00010194
-4.73452e-05
-0.000296731
-0.000333419
-3.41014e-06
-0.000104789
-2.50962e-05
-0.000184513
-2.53864e-05
-0.000177367
-1.23074e-05
-0.000130495
-3.45838e-05
-7.89308e-05
-7.80541e-05
-6.48741e-05
-0.00010444
-8.71183e-05
-8.53978e-05
-9.98979e-05
-9.69634e-05
-7.19982e-05
-0.000121077
-5.87775e-05
-0.000167629
-7.24106e-05
-0.000174112
-8.63084e-05
-0.000182752
-9.56489e-05
-0.000172074
-7.72047e-05
-0.000180453
-0.000144811
-0.000252794
-0.000232795
-0.000139005
-0.000245769
-6.12152e-05
-0.000406611
-0.000451728
0.000109325
-4.61364e-05
6.53726e-05
-0.000140658
3.76924e-05
-0.000149784
2.70051e-05
-0.000119901
3.10369e-05
-8.36832e-05
1.74134e-05
-5.52415e-05
-5.67785e-06
-5.71685e-05
-1.79423e-05
-8.71102e-05
1.06814e-05
-0.000105296
1.44511e-05
-4.73058e-05
-8.0065e-05
-1.6222e-05
-0.000141821
-5.5527e-05
-0.000160808
-8.34301e-05
-0.000183855
-4.01485e-05
-0.000181212
-0.000128813
-0.000172562
-0.000239778
-0.000122508
-0.000296
-7.98051e-05
-0.000449662
-0.000531634
0.000161484
-1.49305e-06
0.000119048
-9.82821e-05
8.55898e-05
-0.000116402
6.17929e-05
-9.6165e-05
4.99247e-05
-7.18373e-05
4.55496e-05
-5.10408e-05
2.45506e-05
-4.45573e-05
-9.38913e-06
-5.37115e-05
-4.31026e-05
-6.28945e-05
-6.08504e-05
-3.61233e-05
-6.72283e-05
3.78662e-05
-9.87032e-05
8.34278e-05
-0.000135918
6.64063e-05
-9.02552e-05
-3.49054e-05
-9.03722e-05
-0.000130911
-0.000100848
-0.00022931
-5.77425e-05
-0.000339407
-4.46873e-05
-0.000462158
-0.00057623
0.00018333
0.000146054
0.000107746
8.22812e-05
6.51641e-05
5.24491e-05
3.09624e-05
-2.7203e-05
-6.71396e-05
-0.000118225
-0.000111771
-8.78967e-05
-6.10855e-05
-3.20045e-05
1.57806e-08
2.83765e-05
3.92269e-05
8.00337e-06
)
;

boundaryField
{
    leftWall
    {
        type            fixedValue;
        value           nonuniform 0();
    }
    rightWall
    {
        type            fixedValue;
        value           uniform 0;
    }
    lowerWall
    {
        type            fixedValue;
        value           uniform 0;
    }
    atmosphere
    {
        type            calculated;
        value           nonuniform 0();
    }
    defaultFaces
    {
        type            empty;
        value           nonuniform 0();
    }
    procBoundary1to0
    {
        type            processor;
        value           nonuniform List<scalar> 
26
(
3.58628e-06
1.80988e-06
1.10795e-06
1.81868e-06
2.87528e-06
3.31199e-06
8.55832e-06
1.46959e-05
1.9127e-05
2.23888e-06
0.000118084
0.000239801
0.000301373
0.000286363
0.000223708
0.000168558
-3.44351e-05
0.000289749
0.000300365
0.000231875
0.00017018
5.28545e-05
-0.000128521
-0.000211505
-0.000220817
-0.000200687
)
;
    }
    procBoundary1to3
    {
        type            processor;
        value           nonuniform List<scalar> 
23
(
6.7149e-05
6.31825e-05
5.16928e-05
4.26643e-05
1.87613e-05
-6.10321e-05
-7.81365e-05
-7.07327e-05
-5.47416e-05
-3.83369e-05
-2.49241e-05
-4.59528e-06
6.52189e-06
5.12295e-06
3.01909e-05
6.18778e-05
4.25374e-05
-6.16669e-05
-0.000161888
-0.000253582
-0.00034714
-0.000430514
-0.000568702
)
;
    }
}


// ************************************************************************* //
