/*--------------------------------*- C++ -*----------------------------------*\
| =========                 |                                                 |
| \\      /  F ield         | OpenFOAM: The Open Source CFD Toolbox           |
|  \\    /   O peration     | Version:  2.4.0                                 |
|   \\  /    A nd           | Web:      www.OpenFOAM.org                      |
|    \\/     M anipulation  |                                                 |
\*---------------------------------------------------------------------------*/
FoamFile
{
    version     2.0;
    format      ascii;
    class       surfaceScalarField;
    location    "0.85";
    object      phi.water;
}
// * * * * * * * * * * * * * * * * * * * * * * * * * * * * * * * * * * * * * //

dimensions      [0 3 -1 0 0 0 0];

internalField   nonuniform List<scalar> 
1061
(
-3.58584e-06
-5.39461e-06
-6.45508e-06
1.04605e-05
2.21515e-05
1.5984e-05
-6.31846e-06
-3.54784e-05
8.96599e-06
3.386e-05
2.64979e-05
1.40802e-05
3.1044e-05
2.78727e-05
3.20253e-05
3.37253e-05
3.28396e-05
3.54706e-05
3.36257e-05
3.57213e-05
3.56345e-05
3.60084e-05
3.74466e-05
3.72137e-05
3.86776e-05
3.64393e-05
4.11958e-05
3.58047e-05
4.34147e-05
3.7089e-05
4.41704e-05
3.85448e-05
3.87174e-05
4.64741e-05
3.56569e-05
4.89693e-05
3.11911e-05
5.16216e-05
2.08414e-05
4.97281e-05
3.68911e-06
1.88682e-05
-3.08946e-06
1.69045e-05
1.10224e-05
1.45664e-05
1.48651e-05
3.36649e-05
-2.64565e-05
4.23221e-05
-4.56398e-06
4.45969e-05
1.01158e-06
4.49946e-05
1.29065e-06
4.4729e-05
1.23656e-06
4.43972e-05
2.0836e-06
4.40968e-05
2.4182e-06
4.47842e-05
1.45023e-06
4.48228e-05
2.16686e-06
4.37065e-05
4.96954e-06
4.43632e-05
8.88657e-06
3.79811e-05
2.01023e-05
3.15202e-05
2.98513e-05
2.36427e-05
3.92355e-05
1.18047e-05
4.91015e-05
6.80334e-06
3.0191e-05
-3.68408e-06
2.33257e-05
5.05183e-06
2.91247e-05
-4.43922e-05
3.36652e-05
-5.50473e-05
3.84862e-05
-2.89598e-05
4.51907e-05
-1.6772e-05
5.21428e-05
-1.30798e-05
5.56294e-05
-9.47481e-06
5.43429e-05
-5.07245e-06
5.15187e-05
-3.70531e-06
4.68832e-05
-3.22975e-06
3.78585e-05
5.25657e-07
2.26474e-05
8.27853e-06
2.53515e-06
1.37915e-05
-1.823e-05
2.5679e-05
-1.96675e-05
1.89171e-05
-1.01162e-06
1.46077e-05
6.52635e-06
4.42882e-05
6.21372e-06
3.78034e-05
-7.71129e-07
3.29446e-05
1.00827e-05
1.91377e-05
-9.91007e-05
2.03759e-05
-7.07682e-05
2.99213e-05
-4.62552e-05
4.0327e-05
-3.51313e-05
4.55446e-05
-2.54231e-05
4.70151e-05
-1.34906e-05
4.38878e-05
-3.08583e-07
3.77255e-05
4.95569e-06
3.0969e-05
5.96826e-06
2.44713e-05
9.65486e-06
1.40848e-05
2.0766e-05
-6.78413e-06
3.71655e-05
-3.12243e-05
5.20223e-05
-3.75854e-05
2.08542e-05
-2.72161e-05
-3.31926e-06
-2.10676e-06
1.36919e-05
5.19051e-06
3.42488e-05
2.55282e-06
3.51501e-05
1.06013e-05
9.31518e-06
-0.000125654
6.78045e-06
-8.14488e-05
1.14401e-05
-5.7312e-05
2.08148e-05
-5.26865e-05
2.83151e-05
-4.00037e-05
3.20329e-05
-2.2351e-05
3.24228e-05
-5.82237e-06
2.88194e-05
6.56449e-06
2.28303e-05
1.05817e-05
1.75824e-05
1.36165e-05
9.75481e-06
2.80087e-05
-6.2795e-06
5.47535e-05
-2.78752e-05
7.35652e-05
-3.62037e-05
2.47255e-05
-2.94749e-05
-1.25438e-05
-1.39225e-05
-1.57584e-05
1.38579e-06
2.11383e-05
2.9942e-06
3.34714e-05
1.36434e-05
6.46718e-06
-0.000130054
-2.31513e-06
-8.41257e-05
-1.54145e-06
-6.31715e-05
6.86137e-06
-6.56984e-05
1.83498e-05
-5.54651e-05
2.30068e-05
-3.66435e-05
1.96902e-05
-6.83533e-06
1.46195e-05
1.16397e-05
1.00944e-05
1.6435e-05
8.20047e-06
1.6266e-05
6.16086e-06
2.86039e-05
-1.52484e-06
6.30067e-05
-1.8717e-05
8.72787e-05
-3.04975e-05
3.15168e-05
-2.51496e-05
-1.92963e-05
-1.83246e-05
-1.81729e-05
-1.48783e-07
1.39651e-05
4.27938e-06
2.83844e-05
1.62141e-05
6.95155e-06
-0.000129473
-2.39715e-06
-8.38958e-05
-2.50418e-06
-6.99455e-05
7.73956e-07
-7.0032e-05
9.10016e-06
-6.33654e-05
1.95942e-05
-4.74167e-05
1.79142e-05
-1.48105e-05
9.73243e-06
1.39332e-05
2.9902e-06
2.23992e-05
-3.3007e-07
1.93408e-05
5.12203e-07
2.71534e-05
2.03982e-06
6.01352e-05
-8.92958e-06
9.57899e-05
-2.80926e-05
4.81298e-05
-2.98732e-05
-1.72297e-05
-2.56331e-05
-2.40772e-05
-9.75998e-06
9.66131e-06
4.16728e-06
2.52208e-05
3.12224e-05
7.69985e-06
-0.000126521
-1.94942e-06
-7.62787e-05
-1.21581e-06
-7.25029e-05
-1.10968e-06
-7.05032e-05
1.44317e-06
-6.61626e-05
1.05933e-05
-5.35499e-05
1.44825e-05
-2.18087e-05
6.68736e-06
1.47372e-05
-6.23618e-07
2.70992e-05
-3.80071e-06
2.17495e-05
-2.75735e-06
2.64172e-05
4.55931e-06
5.19724e-05
3.42021e-06
9.77368e-05
-1.39257e-05
6.43998e-05
-2.37883e-05
-6.00044e-06
-2.93652e-05
-3.97525e-05
-1.86516e-05
-4.98628e-06
-2.31044e-06
2.18749e-05
3.90091e-05
-3.68874e-05
-1.44197e-05
-3.05243e-05
-7.61594e-06
-0.000129092
-6.20494e-05
-0.000233131
-0.000247551
-0.000215409
-0.000257173
-0.000221035
-0.000290774
-0.000120124
-0.000293615
-0.000256214
-8.15664e-06
-1.43877e-05
3.12382e-07
-2.02083e-05
2.31259e-05
-4.40271e-05
-4.83413e-05
4.91323e-05
-3.26116e-05
6.50602e-06
-5.32958e-05
-3.30549e-05
-6.09813e-05
-7.43017e-05
-8.98778e-05
-7.08573e-05
-6.99628e-05
-6.66603e-05
-0.000119702
-0.00011092
-0.000158065
-0.000117991
-0.000140949
-0.000174564
-0.000227558
-0.000114158
-0.000213715
-0.000119485
-0.000230111
-0.0001233
-0.000149369
-0.000249863
-0.000248194
-0.000101494
-0.000239989
-0.000106695
-0.000240803
-0.000114562
-0.000127936
-0.000247943
-0.000286025
-9.71053e-05
-0.000275463
-9.28956e-05
-0.00025815
-9.42585e-05
-9.88366e-05
-0.000254723
-0.000289311
-7.41594e-05
-0.000281215
-0.000104634
-0.000267812
-0.000101621
-9.93962e-05
-0.000256825
-0.000269044
-1.43551e-05
-0.000274791
-6.05398e-05
-0.000257807
-7.95034e-05
-7.24046e-05
-0.000287656
-0.000263681
-5.76723e-06
-0.000236371
-2.42733e-06
-0.000223746
-3.67351e-06
-1.14144e-05
-6.94218e-05
-0.000291717
-1.43454e-05
-0.000268889
-2.52828e-05
-0.000237157
-3.38192e-05
-3.96033e-05
-0.000129057
-0.000248972
3.01369e-06
-0.000267443
-6.67402e-06
-0.000269695
-3.13188e-05
-4.36605e-05
-0.00026467
-0.000185526
1.76992e-05
-0.000195946
2.90675e-06
-0.000207556
-2.02543e-05
-3.21355e-05
-0.000219457
-8.49535e-05
5.05908e-05
-0.000110499
2.91384e-05
-0.000131619
8.99012e-07
-1.90731e-05
-0.000144393
0.000104963
7.18044e-05
8.04636e-05
5.47509e-05
5.04647e-05
3.23831e-05
1.00955e-05
2.17752e-05
0.000207394
7.58774e-05
0.000197648
6.45808e-05
0.000186627
4.39553e-05
2.89813e-05
0.000167904
0.00022321
7.3375e-05
0.000221866
6.59349e-05
0.000216108
4.97004e-05
3.88847e-05
0.000206166
0.000206816
0.000209511
0.000207448
0.000203605
1.63123e-05
-0.000110437
-3.55867e-06
-7.45333e-05
-6.93112e-06
-7.83168e-05
-1.36511e-05
-6.13927e-05
-1.4509e-05
-5.81895e-05
-6.99378e-06
-5.34315e-05
9.99259e-06
-2.87434e-05
5.91724e-06
1.54899e-05
-1.32568e-05
3.54327e-05
-1.75213e-05
2.46751e-05
-9.36411e-06
1.97048e-05
1.11435e-05
3.30368e-05
3.3276e-05
7.79007e-05
1.24983e-05
8.25754e-05
-3.09625e-05
3.08807e-05
-5.50827e-05
-3.57873e-05
-5.89547e-05
-3.65996e-05
-3.8925e-05
-3.98707e-05
-4.67469e-05
-5.7682e-05
-0.000226165
-2.76988e-05
-0.000123632
-5.01469e-05
-0.000105962
-5.86049e-05
-6.56714e-05
-5.89684e-05
-5.95712e-05
-4.2342e-05
-7.81986e-05
-1.9509e-05
-3.39291e-05
-1.31986e-05
1.54182e-05
-2.59073e-05
3.9333e-05
-3.36034e-05
2.70149e-05
-2.57818e-05
1.13568e-05
-4.51871e-06
1.28557e-05
2.05557e-05
5.35275e-05
1.24629e-05
9.36359e-05
-2.30008e-05
6.10118e-05
-6.35558e-05
6.41547e-07
-6.30145e-05
-4.25595e-05
-3.85471e-05
-7.18293e-05
-9.49535e-05
-0.000134609
-0.000350597
-9.92996e-05
-0.000180588
-9.95314e-05
-0.000176197
-0.000115955
-0.000219651
-0.000146012
-0.000167527
-9.80881e-05
-0.000129901
-6.72945e-05
-6.54471e-05
-4.66567e-05
6.63395e-06
-4.65705e-05
3.02285e-05
-5.01281e-05
2.47866e-05
-4.39816e-05
1.96737e-06
-3.13639e-05
-1.35685e-06
-4.76658e-06
2.71697e-05
8.21673e-06
8.50898e-05
-1.30107e-06
6.86315e-05
-1.99455e-05
2.51327e-05
-3.17776e-05
-3.16396e-05
-1.71475e-05
-8.51345e-05
-0.000118884
-0.000204377
-0.000370241
-0.000225049
-0.000236079
-0.000279381
-0.000267859
-0.000267526
-0.000331327
-0.000207716
-0.000241503
-0.00015391
-0.000175792
-0.000110112
-0.000107872
-8.13603e-05
-2.12809e-05
-7.03527e-05
1.11015e-05
-6.53514e-05
1.25498e-05
-6.10697e-05
-6.53291e-06
-5.20061e-05
-1.21177e-05
-3.36847e-05
9.39932e-06
-1.21691e-05
6.77889e-05
-7.96146e-06
6.47507e-05
-1.25768e-05
2.54214e-05
-1.72558e-05
-2.75692e-05
-6.55726e-06
-8.8234e-05
-0.000127919
-0.000251637
-0.000367775
-0.000309612
-0.000332316
-0.000264897
-0.000320494
-0.000228621
-0.000298431
-0.000197806
-0.00024951
-0.000176327
-0.00021655
-0.000140595
-0.000141443
-0.000115745
-5.68838e-05
-9.31601e-05
-1.48634e-05
-7.79919e-05
-8.74006e-06
-7.1822e-05
-1.73314e-05
-6.70646e-05
-1.86043e-05
-5.94434e-05
2.10742e-06
-3.78181e-05
4.88178e-05
-2.47017e-05
5.17159e-05
-1.8976e-05
9.08188e-06
-1.34884e-05
-3.60052e-05
-1.68541e-06
-9.78833e-05
-0.000130178
-0.000274745
-0.000297026
-0.0002969
-0.000307675
-0.000206794
-0.000277851
-0.000182517
-0.000247325
-0.000171414
-0.000223046
-0.000168254
-0.000202417
-0.000157767
-0.00015858
-0.000133198
-8.49267e-05
-0.000109158
-3.94859e-05
-9.25153e-05
-2.93335e-05
-8.92352e-05
-2.62661e-05
-9.54545e-05
-1.36346e-05
-9.8897e-05
1.04619e-05
-8.31662e-05
3.47515e-05
-6.51275e-05
2.22486e-05
-3.4798e-05
-3.17276e-05
-7.29029e-06
-6.18934e-05
3.30743e-06
-0.000106757
-0.000126753
-0.000250801
-0.00021493
-0.00022527
-0.000247421
-0.000188629
-0.000238772
-0.000172112
-0.000221413
-0.000169194
-0.000206754
-0.00017376
-0.000196828
-0.000168982
-0.000163398
-0.00015128
-0.000101353
-0.000135273
-5.49343e-05
-0.000129801
-4.12758e-05
-0.000136609
-2.89967e-05
-0.000147316
-7.55597e-06
-0.000142943
5.44555e-06
-0.000118612
4.24564e-06
-7.63459e-05
-2.55857e-05
-3.39079e-05
-7.37147e-05
-8.99492e-06
-8.64865e-05
1.67088e-06
-0.000117389
-0.000125264
-0.000257891
-0.00025083
-0.000212237
-0.000231815
-0.000175072
-0.000219051
-0.000165052
-0.000227183
-0.000172799
-0.000233034
-0.000184304
-0.000196332
-0.000186635
-0.000160356
-0.00017164
-0.000111351
-0.000157808
-5.65616e-05
-0.000156467
-3.72426e-05
-0.000158508
-2.88938e-05
-0.000158325
-2.3711e-05
-0.000143115
-2.55725e-05
-0.000103609
-3.86575e-05
-6.5889e-05
-6.32913e-05
-4.67263e-05
-9.12174e-05
-2.77668e-05
-0.00010608
-1.00487e-05
-0.000136619
-0.000136422
-0.000182993
-0.000149303
-0.000195019
-0.000254765
-0.000200479
-0.00030505
-0.000199034
-0.000335122
-0.000201121
-0.000307488
-0.000199036
-0.000240633
-0.000197148
-0.000179706
-0.000182598
-0.000127057
-0.000162091
-7.08448e-05
-0.000154577
-3.84982e-05
-0.000148063
-3.14326e-05
-0.000135167
-3.69882e-05
-0.000118651
-5.05221e-05
-9.58451e-05
-6.55633e-05
-8.24915e-05
-7.71673e-05
-7.66807e-05
-9.98075e-05
-5.11391e-05
-0.000136673
-2.43559e-05
-0.000169218
-0.000163071
-0.000133
-9.77178e-05
-0.000178917
-0.00012934
-0.000223293
-0.000169575
-0.000250474
-0.000199266
-0.000216142
-0.000174412
-0.000210754
-0.000196342
-0.000209358
-0.00021646
-0.000200097
-0.000167884
-0.000175129
-0.000103912
-0.00015215
-6.04459e-05
-0.00014121
-4.43532e-05
-0.000134159
-4.10501e-05
-0.000130981
-5.10282e-05
-0.0001344
-6.64586e-05
-0.000132852
-8.51603e-05
-0.000114792
-0.000136181
-7.15968e-05
-0.00022188
-3.50548e-05
-0.000248063
-0.000215416
-0.000250724
-0.000137253
-0.000208353
-0.000149072
-0.000170923
-0.000133872
-0.000162515
-0.000109182
-0.000103907
-0.000111108
-0.000162616
-0.000105221
-0.000199663
-0.000140027
-0.000209378
-0.000191841
-0.000202114
-0.000153739
-0.000182879
-9.94041e-05
-0.000174748
-7.14494e-05
-0.000171115
-6.21326e-05
-0.00016604
-6.34518e-05
-0.000161029
-7.65267e-05
-0.000151617
-0.000117203
-0.000123248
-0.000313281
-8.33513e-05
-0.000451166
-4.357e-05
-0.000440852
-0.000349253
-0.000229058
-0.000127272
-0.000205103
-0.000171352
-0.000176808
-0.000158921
-0.000156209
-0.000129812
-0.000142107
-0.000122729
-0.000112881
-0.000128603
-0.000128187
-0.000101492
-0.000166443
-0.00011123
-0.000187639
-0.000149015
-0.000182877
-0.000134302
-0.000172843
-9.28247e-05
-0.000166154
-7.62618e-05
-0.000164318
-7.59064e-05
-0.000168644
-8.86857e-05
-0.00020564
-0.00016453
-0.000209608
-0.000227288
-0.000142099
-0.000323563
-5.84431e-05
-0.00029192
-0.000297695
-0.000141359
-0.00012974
-0.000106528
-0.000206491
-8.79387e-05
-0.000177269
-9.84083e-05
-0.000115677
-0.000124226
-9.77319e-05
-0.000141802
-0.000111641
-0.000118105
-0.000113694
-9.40939e-05
-8.2026e-05
-0.00013696
-8.7779e-05
-0.000163765
-0.000140826
-0.000159935
-0.000126295
-0.000158639
-9.66023e-05
-0.000161439
-8.97831e-05
-0.000215973
-0.000113945
-0.000122512
-0.000233341
-0.000194519
-0.000257129
-0.000125334
-0.000114077
-5.22093e-05
-0.000257276
-0.000314014
-2.41463e-06
-0.000105488
-2.42604e-05
-0.000185202
-2.53606e-05
-0.000177259
-1.21102e-05
-0.000130513
-3.38998e-05
-7.84813e-05
-7.67121e-05
-6.59214e-05
-0.000104323
-8.5886e-05
-8.78986e-05
-9.87812e-05
-9.9168e-05
-6.88862e-05
-0.000153038
-6.93213e-05
-0.000172675
-0.000106621
-0.00017752
-0.00014566
-0.000193884
-0.000159475
-0.000281958
-0.000165456
-0.000175689
-0.000178032
-0.000252301
-0.000233569
-0.000137915
-0.000245597
-6.07058e-05
-0.000406083
-0.000449873
0.000109693
-4.64029e-05
6.57242e-05
-0.000140678
3.79846e-05
-0.000149803
2.7016e-05
-0.000119917
3.09212e-05
-8.37091e-05
1.85789e-05
-5.51537e-05
-2.93691e-06
-5.87552e-05
-1.51443e-05
-8.63605e-05
1.37245e-05
-0.000100922
-8.32278e-06
-4.78595e-05
-9.29316e-05
-4.22783e-05
-0.000148025
-0.000100289
-0.000178669
-0.000124041
-0.000172506
-9.35913e-05
-0.000136392
-8.57376e-05
-0.000172293
-0.000240261
-0.000123011
-0.000295002
-7.98752e-05
-0.000448983
-0.000531114
0.000161402
-1.37309e-06
0.000119194
-9.83331e-05
8.57492e-05
-0.00011659
6.18745e-05
-9.62155e-05
4.98355e-05
-7.18418e-05
4.52601e-05
-5.11855e-05
2.92477e-05
-4.48003e-05
-4.93885e-06
-5.31808e-05
-4.62495e-05
-6.02555e-05
-6.0904e-05
-3.5559e-05
-6.7065e-05
3.77454e-05
-9.97272e-05
8.34056e-05
-0.000135642
6.61073e-05
-9.05298e-05
-3.42827e-05
-9.03501e-05
-0.000130792
-0.00010165
-0.000228486
-5.81743e-05
-0.000338472
-4.49267e-05
-0.000462209
-0.000576067
0.000183371
0.000146181
0.000107844
8.23279e-05
6.5141e-05
5.19579e-05
3.26857e-05
-1.87842e-05
-7.83546e-05
-0.000118901
-0.000111832
-8.76795e-05
-6.09557e-05
-3.24321e-05
-5.7808e-07
2.77274e-05
3.8278e-05
7.18434e-06
)
;

boundaryField
{
    leftWall
    {
        type            fixedValue;
        value           nonuniform 0();
    }
    rightWall
    {
        type            fixedValue;
        value           uniform 0;
    }
    lowerWall
    {
        type            fixedValue;
        value           uniform 0;
    }
    atmosphere
    {
        type            calculated;
        value           nonuniform 0();
    }
    defaultFaces
    {
        type            empty;
        value           nonuniform 0();
    }
    procBoundary1to0
    {
        type            processor;
        value           nonuniform List<scalar> 
26
(
3.58632e-06
1.80991e-06
1.10797e-06
1.81662e-06
1.82099e-06
1.59056e-06
7.6357e-06
1.58044e-05
9.0509e-06
-1.1442e-05
9.85746e-05
0.000265747
0.000289216
0.00029203
0.0002636
0.000199098
-3.98302e-05
0.000289805
0.000300414
0.000231729
0.000170533
5.30912e-05
-0.000126944
-0.000210662
-0.000220772
-0.000200661
)
;
    }
    procBoundary1to3
    {
        type            processor;
        value           nonuniform List<scalar> 
23
(
6.71415e-05
6.31835e-05
5.17049e-05
4.26824e-05
1.8817e-05
-6.10551e-05
-7.8185e-05
-7.07749e-05
-5.47425e-05
-3.83758e-05
-2.53671e-05
-3.56266e-06
9.76257e-06
2.87329e-06
3.11838e-05
6.19508e-05
4.27287e-05
-6.28922e-05
-0.000162758
-0.000256523
-0.000348639
-0.000431125
-0.0005689
)
;
    }
}


// ************************************************************************* //
