/*--------------------------------*- C++ -*----------------------------------*\
| =========                 |                                                 |
| \\      /  F ield         | OpenFOAM: The Open Source CFD Toolbox           |
|  \\    /   O peration     | Version:  2.4.0                                 |
|   \\  /    A nd           | Web:      www.OpenFOAM.org                      |
|    \\/     M anipulation  |                                                 |
\*---------------------------------------------------------------------------*/
FoamFile
{
    version     2.0;
    format      ascii;
    class       surfaceScalarField;
    location    "0.85";
    object      phi.air;
}
// * * * * * * * * * * * * * * * * * * * * * * * * * * * * * * * * * * * * * //

dimensions      [0 3 -1 0 0 0 0];

internalField   nonuniform List<scalar> 
1061
(
-3.58628e-06
-5.3964e-06
-6.50437e-06
-8.31271e-06
-1.07646e-05
-2.23968e-05
-4.35721e-05
-5.14746e-05
5.08425e-06
-7.52871e-06
2.33729e-05
-2.5523e-05
2.99555e-05
-1.42457e-05
3.1846e-05
-1.11412e-05
3.31688e-05
-1.17321e-05
3.4596e-05
-5.14511e-06
3.66286e-05
3.68769e-05
3.80799e-05
9.21014e-05
3.95114e-05
0.000124591
4.18759e-05
0.000142271
4.43764e-05
0.000133618
4.63965e-05
0.000113454
4.49677e-05
0.000107366
4.20631e-05
7.91949e-05
3.36678e-05
2.2203e-05
1.90625e-05
1.52449e-05
4.15267e-06
3.18513e-05
-3.16164e-06
1.84175e-05
2.39956e-06
6.37857e-06
-1.90223e-05
2.88357e-05
-8.70106e-05
3.94716e-05
-7.91481e-05
4.36041e-05
-4.64606e-05
4.52301e-05
-2.66228e-05
4.37811e-05
-2.56333e-05
3.81535e-05
-4.18469e-05
3.40457e-05
-4.89996e-05
3.45721e-05
-4.99486e-05
3.63237e-05
-5.2131e-05
3.57074e-05
-4.74998e-05
3.89175e-05
-4.0754e-05
2.80567e-05
-1.34099e-05
2.81898e-05
3.95972e-05
2.8965e-05
4.40062e-05
1.86799e-05
3.20827e-05
7.37229e-06
3.33692e-05
-3.32647e-06
2.29484e-05
-3.85601e-06
2.48853e-05
7.42548e-05
2.73162e-05
-4.35337e-07
3.56784e-05
2.3787e-06
4.45944e-05
4.74612e-06
5.12606e-05
1.02143e-05
5.40122e-05
1.45864e-05
5.19174e-05
1.95882e-05
4.37343e-05
2.55797e-05
2.88299e-05
0.000108894
1.52365e-05
0.000133568
3.01508e-06
0.000117258
-1.18486e-05
3.90013e-05
-3.89005e-05
1.31876e-05
-3.08599e-05
2.36549e-05
-6.87668e-06
2.15179e-05
1.18325e-05
2.60947e-05
6.77791e-06
3.95538e-05
-3.96054e-07
3.02417e-05
-1.1956e-06
2.26009e-05
5.43214e-05
2.51939e-05
5.87183e-05
3.00927e-05
2.93618e-05
4.03519e-05
-2.18896e-05
4.50231e-05
-1.83435e-05
4.56772e-05
-9.25261e-06
4.04236e-05
1.43033e-06
2.18767e-05
6.63004e-06
1.24345e-05
8.05571e-06
8.86271e-06
1.9534e-05
3.90828e-06
3.79422e-05
-1.98278e-05
3.79335e-05
-3.9668e-05
1.21031e-05
-4.24533e-05
-1.81835e-06
-2.68698e-05
-1.22831e-05
1.20976e-06
-3.73219e-06
5.55337e-06
3.50863e-05
2.97701e-06
3.26053e-05
1.42541e-06
1.45005e-05
1.9792e-05
1.00568e-05
4.1798e-05
6.51391e-06
3.61548e-05
1.97331e-05
-1.18651e-05
2.70088e-05
-1.50665e-05
3.00941e-05
-2.18055e-06
2.8694e-05
1.297e-05
1.94643e-05
2.91989e-05
1.44995e-05
4.76432e-05
1.40003e-05
3.30953e-05
6.58786e-06
3.94822e-05
-1.80923e-05
5.69269e-05
-3.31217e-05
2.17463e-05
-3.47981e-05
-2.36333e-05
-3.00759e-05
-4.07472e-05
-1.11787e-05
-2.01539e-05
1.51171e-06
2.19542e-05
3.23897e-06
3.06186e-05
5.63452e-06
6.38554e-06
1.4565e-05
-3.98332e-06
4.24647e-05
-4.47968e-06
3.29695e-05
7.98334e-06
-2.15459e-05
1.75669e-05
-2.61083e-05
2.07526e-05
-1.22405e-05
1.66755e-05
6.19259e-06
1.14224e-05
2.04428e-05
6.78487e-06
2.69108e-05
5.34106e-06
7.47412e-05
3.78653e-06
0.000114569
-8.52363e-06
7.82446e-05
-2.175e-05
4.08102e-05
-2.79527e-05
-2.07755e-05
-2.78617e-05
-3.91891e-05
-1.67787e-05
-7.11682e-06
-9.62645e-08
4.75749e-06
4.36408e-06
2.59462e-05
1.0573e-05
-3.09627e-06
-1.48312e-05
-8.06212e-06
4.34465e-05
-7.60903e-06
3.05889e-05
7.81197e-07
6.93988e-06
8.20904e-06
8.13645e-06
1.61375e-05
-1.42663e-07
1.43057e-05
1.2827e-05
5.12176e-06
2.74641e-05
-1.48997e-05
4.51921e-05
-1.82846e-05
8.5108e-05
-1.57867e-05
0.000100502
-8.48271e-08
0.000157729
-1.15655e-05
7.58739e-05
-2.60543e-05
-9.97325e-06
-2.91604e-05
-3.82395e-05
-2.89032e-05
-2.59956e-05
-6.71293e-06
2.69918e-05
3.90583e-06
1.25762e-05
4.97608e-06
-4.74261e-06
-3.09217e-05
-6.0062e-06
3.08444e-05
-8.13265e-06
2.1229e-05
-6.82558e-06
2.43851e-05
-3.86789e-06
2.48371e-05
5.78434e-06
2.86008e-05
1.04042e-05
2.5868e-05
-2.17653e-06
3.41154e-05
-2.05441e-05
9.83848e-05
-2.0695e-05
8.89265e-05
-1.58878e-05
9.90088e-05
1.4543e-06
0.000137456
3.25822e-06
0.000180969
-2.0132e-05
1.47346e-05
-2.57016e-05
-5.20681e-05
-3.31149e-05
-7.51453e-05
-1.80033e-05
-8.17e-06
8.38313e-07
3.40291e-05
2.96011e-05
6.69079e-05
-4.05128e-06
2.84861e-05
4.45626e-05
3.58062e-06
1.81745e-05
-4.31822e-05
-9.54973e-05
-4.54309e-05
-0.000387428
-8.849e-05
-0.000392632
-0.000128116
-0.000345208
-0.000282951
5.7262e-06
6.38844e-05
1.06437e-05
5.86473e-05
7.90393e-05
4.13798e-05
2.82897e-05
0.000144583
3.06297e-08
3.90257e-05
-2.14131e-05
2.74208e-05
-4.93834e-06
8.08944e-07
1.00938e-05
-1.05796e-05
-6.84726e-06
4.82413e-05
5.41457e-06
5.21163e-05
7.95163e-06
1.0824e-05
8.37178e-06
-2.2171e-05
-6.77889e-05
-2.98726e-05
-2.20601e-05
-3.5363e-05
-4.11586e-05
-4.87206e-06
2.8337e-05
-8.39e-05
-0.000372676
-3.27529e-05
-0.000323104
-4.08751e-05
-0.000249126
-6.98419e-05
-1.47375e-05
-0.000204704
-0.000411313
-2.49228e-05
-0.000418647
-1.71693e-05
-0.000425708
-1.06902e-05
-1.22377e-05
-0.000394901
-0.000374609
-1.82741e-05
-0.000416733
-9.73335e-06
-0.000449862
1.47069e-05
3.55651e-05
-0.000449022
-0.000343601
2.06088e-05
-0.000410947
2.73692e-05
-0.000472462
1.82603e-05
-4.30797e-05
-0.000420251
-0.000262617
-5.8282e-06
-0.000233568
-2.66283e-06
-0.000219218
-1.64978e-06
-8.59713e-06
-0.000272655
-0.000291701
-1.44202e-05
-0.00026892
-2.54435e-05
-0.000236552
-3.40184e-05
-3.95936e-05
-0.000205558
-0.000249088
2.73564e-06
-0.000267462
-7.06915e-06
-0.000269887
-3.15941e-05
-4.3655e-05
-0.000265826
-0.000185521
1.79775e-05
-0.00019598
3.39053e-06
-0.000207856
-1.97184e-05
-3.17157e-05
-0.000219796
-8.39925e-05
4.90232e-05
-0.000110279
2.9677e-05
-0.00013194
1.9422e-06
-1.85475e-05
-0.000145108
0.000105447
7.20004e-05
8.05665e-05
5.45576e-05
5.019e-05
3.23187e-05
1.03847e-05
2.12578e-05
0.000207753
7.56657e-05
0.000197865
6.44462e-05
0.000186367
4.38166e-05
2.887e-05
0.000167881
0.000223124
7.32519e-05
0.000221749
6.58214e-05
0.000215974
4.95915e-05
3.87825e-05
0.000206061
0.000206731
0.000209414
0.000207359
0.000203523
1.02308e-05
4.71657e-05
6.49866e-07
8.72892e-05
-2.04571e-05
4.05942e-05
-2.87739e-05
2.64694e-05
-3.09171e-05
2.05254e-05
-2.72802e-05
2.16786e-05
-5.31723e-06
5.63295e-05
-5.07271e-05
7.87759e-05
-6.19391e-05
0.000120951
-5.23485e-05
8.382e-05
-3.18123e-05
8.61049e-05
-1.49924e-06
0.000106572
5.73173e-05
0.000153677
-2.17444e-05
0.000106314
-5.70107e-05
1.15593e-05
-4.52725e-05
-1.32537e-05
-7.3943e-05
-3.62584e-05
-6.8155e-05
-6.17766e-05
-8.52525e-05
-3.13974e-05
3.09469e-05
-2.62025e-05
6.62688e-05
-8.74823e-05
0.000107846
-8.49489e-05
6.67249e-05
-7.54024e-05
5.44485e-06
-5.56577e-05
-4.826e-08
-5.32291e-05
2.97944e-05
-8.04021e-05
8.80332e-05
-9.16643e-05
0.000111723
-6.73516e-05
8.14908e-05
-4.50527e-05
7.0528e-05
-3.14111e-05
7.76388e-05
7.45493e-06
0.000132569
-5.11942e-05
0.000178011
-3.56995e-05
8.39432e-05
-9.11265e-05
2.23311e-05
-0.000115872
5.49711e-05
-0.000101572
4.50755e-05
-1.03249e-05
-6.51657e-05
7.72106e-06
-0.000111666
4.33745e-05
-0.000148675
3.57435e-05
-0.000170148
3.13758e-05
-0.000150187
9.13943e-05
-9.77199e-05
-5.60143e-06
-9.90318e-05
-4.44731e-06
-0.000112036
5.46424e-05
-8.09039e-05
7.43536e-05
-7.42107e-05
5.47808e-05
-6.6014e-05
4.11027e-05
-5.74665e-05
5.79103e-05
-3.59982e-05
0.000102545
-4.73601e-05
0.000151584
-1.12474e-05
8.82097e-05
-4.86557e-05
3.36869e-05
-5.58626e-05
2.11825e-05
-4.7607e-05
-3.58112e-05
-0.000145504
-0.000162496
6.09337e-05
-0.00023162
9.38835e-05
-0.000299023
7.58666e-05
-0.000387265
3.24842e-05
-0.000300334
-0.000133598
-0.000186131
-7.97342e-05
-0.000145148
-7.59204e-05
-0.000148839
1.34165e-05
-9.60739e-05
4.54271e-05
-7.66244e-05
3.24965e-05
-6.63521e-05
5.4659e-06
-7.20819e-05
1.84818e-06
-9.23153e-05
6.53896e-05
-7.32531e-05
0.000121162
-2.04045e-05
8.11203e-05
-2.37621e-05
3.5391e-05
-2.33676e-05
3.09602e-06
-5.56468e-06
-7.86202e-05
-0.000141155
-0.000225842
8.25147e-05
-0.00030245
0.000170216
-0.000353453
0.000127256
-0.000282976
-3.48134e-05
-0.000290539
-0.000158339
-0.000263928
-0.000162606
-0.00016286
-6.81462e-05
-0.000156171
-1.57477e-06
-0.000111118
2.06043e-05
-8.30637e-05
1.81433e-05
-7.38475e-05
1.3266e-05
-7.06069e-05
-6.63303e-06
-7.86996e-05
1.21058e-05
-6.42512e-05
6.67717e-05
-3.49031e-05
6.28077e-05
-2.31751e-05
1.90891e-05
-1.35624e-05
-1.05268e-05
4.70905e-07
-4.5123e-05
-0.000112509
-0.000355592
6.10114e-05
-0.000331775
0.000152497
-0.000261587
7.08634e-05
-0.000167041
-9.43064e-05
-0.000191778
-0.000129294
-0.000220404
-0.000145289
-0.000181753
-8.61007e-05
-0.000153984
-1.03726e-05
-0.000124908
5.16716e-05
-0.000105962
6.85885e-05
-9.9346e-05
6.39231e-05
-0.000102929
4.79811e-05
-0.000107788
2.18156e-05
-9.44874e-05
4.2084e-05
-7.25643e-05
3.19717e-05
-3.53993e-05
1.01343e-05
8.10724e-06
2.55426e-06
1.2263e-05
-3.72321e-05
-9.14706e-05
-0.000387277
0.000115927
-0.000240492
0.000115792
-0.000126215
5.26163e-05
-0.000131533
-3.47203e-05
-0.000179209
-9.96936e-05
-0.000189842
-0.000116017
-0.000198746
-9.06351e-05
-0.000187303
-2.93663e-05
-0.000168893
2.22287e-05
-0.000171464
3.94239e-05
-0.000192581
5.67527e-05
-0.000207093
6.2184e-05
-0.00015724
4.71436e-05
-0.000128607
3.91505e-05
-9.11952e-05
1.09361e-05
-3.88341e-05
1.18132e-05
1.11622e-05
2.71401e-06
2.1486e-05
-4.24325e-05
-9.62522e-05
-0.000305499
5.35701e-06
-0.000215756
3.18865e-05
-0.000151718
-1.61825e-05
-0.000158596
-6.64948e-05
-0.000197622
-8.53374e-05
-0.000202334
-0.000102315
-0.000224234
-9.74345e-05
-0.000221413
-5.47103e-05
-0.000226736
-1.98485e-06
-0.000227409
2.61102e-05
-0.000234555
3.07013e-05
-0.00024911
4.28475e-05
-0.00020029
6.52568e-05
-0.000128114
3.52427e-05
-7.94523e-05
1.22966e-05
-5.89976e-05
-4.07748e-06
-1.31513e-05
-2.18841e-05
1.62712e-05
-6.53373e-05
-0.000107098
-0.00026638
-8.16542e-05
-0.000213606
-8.59541e-05
-0.000198712
-7.59536e-05
-0.000196382
-0.000100929
-0.000206785
-0.00011391
-0.000229082
-0.000109266
-0.000237916
-9.57589e-05
-0.000239016
-6.24294e-05
-0.000231829
7.01105e-06
-0.000224052
6.15039e-05
-0.00021692
5.4834e-05
-0.000205128
3.47565e-05
-0.000178234
2.83421e-05
-0.000113173
3.01514e-05
-9.31919e-05
2.87728e-05
-8.86573e-05
7.06587e-06
-3.79805e-05
-2.4988e-05
4.66192e-06
-5.97559e-05
-5.95573e-05
-0.000169049
-0.000123142
-0.000172099
-0.000106515
-0.000186328
-9.38392e-05
-0.00021938
-9.70456e-05
-0.000264292
-0.000105122
-0.000253386
-0.00017832
-0.000245901
-0.000135672
-0.000241789
-5.76212e-05
-0.0002231
-2.49301e-05
-0.00019865
3.07655e-05
-0.000181542
5.88264e-05
-0.000153056
4.7454e-05
-0.000149059
4.11494e-05
-0.000133036
4.03855e-05
-0.0001317
3.24162e-05
-0.000113576
1.20509e-05
-5.9937e-05
-6.9411e-05
-1.58277e-05
-0.000106389
-8.1953e-05
-0.000252485
-0.000136483
-0.000211159
-0.000147878
-0.000171457
-0.000133833
-0.000161757
-0.000107225
-0.00016156
-0.000106543
-0.000209169
-0.000137049
-0.000253327
-0.000127276
-0.000240816
-0.000112409
-0.000244634
-2.53475e-05
-0.00023166
1.92375e-06
-0.000221451
3.17801e-05
-0.000186599
5.08958e-05
-0.000162303
3.25636e-05
-0.000145002
2.41316e-05
-0.000115084
5.06969e-06
-0.000117025
-4.48756e-05
-7.72886e-05
-0.00011142
-5.86394e-06
-0.000159448
-0.000130644
-0.000229338
-0.000126941
-0.000205922
-0.000171294
-0.00018051
-0.000159245
-0.000158888
-0.000128846
-0.000143043
-0.000122389
-0.000151016
-0.000129179
-0.000176349
-0.000107149
-0.00024084
-7.43202e-05
-0.000251154
-7.21341e-05
-0.000237889
-3.05343e-05
-0.000206413
-1.38845e-05
-0.000190192
-8.34675e-06
-0.000148814
7.07683e-06
-0.000127487
-1.23068e-05
-0.000126067
-6.37991e-05
1.79359e-05
-0.000217519
-0.000124289
-7.61975e-05
-0.000132971
-0.000238305
-0.000295908
-0.00014218
-0.000129869
-0.000107088
-0.000206386
-8.84207e-05
-0.000177912
-9.94275e-05
-0.000117839
-0.000124068
-9.77483e-05
-0.000143236
-0.000110011
-0.000137966
-0.000112428
-0.000134202
-7.99329e-05
-0.000181919
-3.9491e-05
-0.000213303
-4.20025e-05
-0.000187037
-4.32641e-05
-0.000166331
-2.27279e-05
-0.000143606
-2.61264e-05
-0.000140793
-3.70535e-05
-0.000135267
-8.45704e-05
-0.000187871
-0.000242176
-0.000139137
-0.000132445
-6.46599e-05
-0.000327159
-0.000389692
-3.57407e-06
-0.000105037
-2.52236e-05
-0.000184736
-2.55754e-05
-0.00017756
-1.26991e-05
-0.000130716
-3.07317e-05
-7.97157e-05
-7.58896e-05
-6.48535e-05
-0.000105013
-8.33044e-05
-8.89363e-05
-9.60112e-05
-6.94169e-05
-5.9187e-05
-0.000139706
1.92437e-05
-0.000182781
-2.13645e-05
-0.000179797
-2.41153e-05
-0.000167251
-2.84795e-05
-0.000214306
-2.15155e-06
-0.000242121
-8.64236e-05
-0.000252864
-0.000231458
-0.000140149
-0.000245161
-6.15214e-05
-0.000405792
-0.000451246
0.000109168
-4.6324e-05
6.52441e-05
-0.000140812
3.76006e-05
-0.000149916
2.69027e-05
-0.000120018
3.09652e-05
-8.37783e-05
2.15113e-05
-5.53997e-05
-2.82258e-06
-5.89706e-05
-1.4306e-05
-8.45278e-05
2.57338e-05
-9.92219e-05
8.96027e-05
-4.58103e-05
2.22582e-05
3.06764e-05
-9.44157e-05
5.66093e-05
-0.000193034
3.3004e-05
-0.000225337
1.23719e-05
-0.000181161
-0.000131086
-0.000172843
-0.000239776
-0.000123006
-0.000294998
-7.98387e-05
-0.00044896
-0.000531085
0.000161363
-1.62587e-06
0.000118934
-9.83835e-05
8.55059e-05
-0.000116488
6.17313e-05
-9.62433e-05
4.98556e-05
-7.19026e-05
4.55423e-05
-5.10864e-05
3.10736e-05
-4.45019e-05
-3.45489e-06
-4.99994e-05
-4.61443e-05
-5.65326e-05
-5.88468e-05
-3.31106e-05
-6.66437e-05
3.82737e-05
-9.76441e-05
8.59113e-05
-0.000136566
6.94395e-05
-9.01534e-05
-3.43984e-05
-9.04456e-05
-0.000130795
-0.000101719
-0.000228503
-5.82438e-05
-0.000338474
-4.49519e-05
-0.000462252
-0.000576036
0.000183234
0.000145957
0.000107672
8.22231e-05
6.51107e-05
5.24022e-05
3.28431e-05
-1.44494e-05
-8.41187e-05
-0.000118808
-0.000111665
-8.76864e-05
-6.09858e-05
-3.24821e-05
-7.22356e-07
2.75284e-05
3.81359e-05
7.10195e-06
)
;

boundaryField
{
    leftWall
    {
        type            fixedValue;
        value           nonuniform 0();
    }
    rightWall
    {
        type            fixedValue;
        value           uniform 0;
    }
    lowerWall
    {
        type            fixedValue;
        value           uniform 0;
    }
    atmosphere
    {
        type            calculated;
        value           nonuniform 0();
    }
    defaultFaces
    {
        type            empty;
        value           nonuniform 0();
    }
    procBoundary1to0
    {
        type            processor;
        value           nonuniform List<scalar> 
26
(
3.58632e-06
1.80991e-06
1.10799e-06
1.81874e-06
2.87443e-06
3.23825e-06
8.36836e-06
1.65941e-05
-1.92073e-05
-4.98111e-05
-2.08037e-05
0.000122505
0.000339578
0.000396333
0.000350106
0.000200176
-5.54725e-05
0.00028894
0.000300292
0.000231932
0.000170279
5.29469e-05
-0.000128425
-0.000211418
-0.00022071
-0.000200581
)
;
    }
    procBoundary1to3
    {
        type            processor;
        value           nonuniform List<scalar> 
23
(
6.71022e-05
6.31382e-05
5.16467e-05
4.26175e-05
1.86634e-05
-6.11062e-05
-7.82026e-05
-7.07943e-05
-5.47902e-05
-3.83779e-05
-2.4943e-05
-2.70691e-06
1.31368e-05
1.5787e-06
3.11301e-05
6.193e-05
4.27346e-05
-6.29025e-05
-0.000162555
-0.000256754
-0.000349082
-0.000431218
-0.000568934
)
;
    }
}


// ************************************************************************* //
