/*--------------------------------*- C++ -*----------------------------------*\
| =========                 |                                                 |
| \\      /  F ield         | OpenFOAM: The Open Source CFD Toolbox           |
|  \\    /   O peration     | Version:  2.4.0                                 |
|   \\  /    A nd           | Web:      www.OpenFOAM.org                      |
|    \\/     M anipulation  |                                                 |
\*---------------------------------------------------------------------------*/
FoamFile
{
    version     2.0;
    format      ascii;
    class       volVectorField;
    location    "0.85";
    object      U.air;
}
// * * * * * * * * * * * * * * * * * * * * * * * * * * * * * * * * * * * * * //

dimensions      [0 1 -1 0 0 0 0];

internalField   nonuniform List<vector> 
559
(
(-0.0333348 -0.0121354 0)
(-0.0125961 -0.0276828 0)
(-0.00629271 -0.0301227 0)
(-0.0111915 -0.0393059 0)
(-0.0166725 -0.0424226 0)
(-0.0332129 -0.0980474 0)
(-0.106084 -0.119745 0)
(-0.178194 -0.285376 0)
(-0.0972078 -0.165094 0)
(0.201024 -0.19101 0)
(0.317209 -0.21068 0)
(0.360247 -0.25132 0)
(0.376492 -0.277196 0)
(0.389745 -0.265658 0)
(0.408526 -0.15338 0)
(0.430584 -0.000332604 0)
(0.441163 0.105249 0)
(0.46649 0.18119 0)
(0.485088 0.169191 0)
(0.518232 0.104573 0)
(0.522589 0.0802165 0)
(0.504683 0.022772 0)
(0.448425 -0.0878877 0)
(0.336312 -0.0715392 0)
(0.13993 0.0155219 0)
(-0.0592969 -0.050739 0)
(-0.0219647 -0.113621 0)
(-0.093971 0.108248 0)
(0.243774 -0.13658 0)
(0.39788 -0.0332213 0)
(0.485985 0.0376117 0)
(0.517375 0.0585689 0)
(0.515929 0.0725862 0)
(0.472333 0.116872 0)
(0.414277 0.21484 0)
(0.391959 0.272903 0)
(0.40496 0.283763 0)
(0.409507 0.283405 0)
(0.421321 0.304718 0)
(0.386277 0.36545 0)
(0.320813 0.410789 0)
(0.36116 0.280965 0)
(0.292246 0.188225 0)
(0.151302 0.209231 0)
(-0.00239237 0.166582 0)
(-0.0748143 0.0891861 0)
(0.256551 -0.068389 0)
(0.308501 -0.329271 0)
(0.375005 -0.173809 0)
(0.463702 -0.129567 0)
(0.547708 -0.15836 0)
(0.611788 -0.16344 0)
(0.611047 -0.171321 0)
(0.557949 -0.168246 0)
(0.428717 0.043027 0)
(0.275159 0.117544 0)
(0.116799 0.120042 0)
(-0.00332588 0.00643505 0)
(-0.335423 -0.0236381 0)
(-0.47196 0.108615 0)
(-0.197914 0.139653 0)
(0.100808 0.153659 0)
(0.124436 0.171115 0)
(0.0143546 0.107226 0)
(-0.0271717 -0.0861104 0)
(0.261235 0.347467 0)
(0.238943 0.106828 0)
(0.307421 0.0731732 0)
(0.413775 0.027092 0)
(0.489876 0.0874586 0)
(0.527121 0.130732 0)
(0.503555 0.160373 0)
(0.378845 0.180936 0)
(0.193342 0.373409 0)
(0.12797 0.445545 0)
(0.0976524 0.428453 0)
(-0.0184913 0.202485 0)
(-0.380881 0.0571857 0)
(-0.496209 0.0562598 0)
(-0.479809 0.0262315 0)
(-0.0895853 0.0608706 0)
(0.0876018 0.189036 0)
(0.0339074 0.161757 0)
(0.0258992 0.0462309 0)
(0.188347 0.196901 0)
(0.101725 0.224675 0)
(0.0887276 0.168246 0)
(0.145834 -0.114833 0)
(0.274645 -0.138914 0)
(0.336297 -0.0936882 0)
(0.351891 -0.0345443 0)
(0.298642 0.0301711 0)
(0.200498 0.0873695 0)
(0.156557 0.101071 0)
(0.135709 0.189964 0)
(0.00304921 0.244119 0)
(-0.322208 0.0711643 0)
(-0.418492 -0.0692545 0)
(-0.411777 -0.136095 0)
(-0.276247 -0.0539652 0)
(0.016361 0.162028 0)
(0.0179796 0.160694 0)
(0.0566298 -0.0179526 0)
(0.14015 0.036073 0)
(-0.0438249 0.213832 0)
(-0.0617532 0.183514 0)
(0.00356876 -0.0707126 0)
(0.141626 -0.0742144 0)
(0.258266 -0.00154247 0)
(0.235327 0.0765747 0)
(0.173111 0.140772 0)
(0.107753 0.189534 0)
(0.0590396 0.254052 0)
(0.0583826 0.354891 0)
(0.0384811 0.327494 0)
(-0.180833 0.161369 0)
(-0.320858 -0.106362 0)
(-0.345111 -0.192679 0)
(-0.317631 -0.0920018 0)
(-0.0347917 0.0607211 0)
(0.0177339 0.141912 0)
(0.0841938 0.0669511 0)
(0.0969735 -0.0617047 0)
(-0.147861 0.194638 0)
(-0.0834673 0.149558 0)
(-0.041325 -0.0419939 0)
(0.0254623 -0.0495097 0)
(0.161623 -0.0286035 0)
(0.22052 0.0402122 0)
(0.12278 0.120851 0)
(-0.0499672 0.187489 0)
(-0.20764 0.406562 0)
(-0.201688 0.53734 0)
(-0.0711593 0.582657 0)
(-0.0283017 0.287186 0)
(-0.250885 -0.0801625 0)
(-0.32933 -0.185209 0)
(-0.376708 -0.073741 0)
(-0.208473 0.0984863 0)
(0.00140732 0.11905 0)
(0.0913155 0.0299578 0)
(0.123558 0.00516637 0)
(-0.145217 0.193966 0)
(-0.0540373 0.124866 0)
(-0.0930493 0.0751858 0)
(-0.0705344 0.0702368 0)
(-0.0155368 0.0494258 0)
(0.140086 0.0983916 0)
(0.0678219 0.137309 0)
(-0.131012 0.337917 0)
(-0.257243 0.416671 0)
(-0.210323 0.486975 0)
(-0.11547 0.738041 0)
(0.119459 0.614616 0)
(-0.123142 0.0147262 0)
(-0.269582 -0.256998 0)
(-0.349736 -0.228292 0)
(-0.364443 0.0284484 0)
(-0.0756332 0.112125 0)
(0.0815006 0.129699 0)
(0.0573798 -0.031906 0)
(0.320952 0.267478 0)
(-0.0144306 0.27333 0)
(-0.682681 -0.301477 0)
(-1.97252 -0.259168 0)
(-2.03167 -0.302008 0)
(-1.63203 -0.596381 0)
(-1.20223 -0.0930105 0)
(-0.0170992 -0.236283 0)
(0.0582659 -0.419071 0)
(0.198108 -0.430538 0)
(0.626327 -0.33219 0)
(0.112695 0.93513 0)
(-0.0658928 1.00326 0)
(-0.0892798 0.621912 0)
(-0.0337281 0.481601 0)
(0.0606689 0.487887 0)
(0.0407856 0.169313 0)
(0.0400797 -0.245032 0)
(-0.0508216 -0.270196 0)
(-0.431871 0.231764 0)
(-0.231815 0.566607 0)
(-0.153658 0.755115 0)
(-0.237365 1.05776 0)
(-1.97543 -0.454899 0)
(-1.72874 -0.634126 0)
(-1.48015 -0.493211 0)
(-1.24499 -0.00327382 0)
(-2.17357 -0.340708 0)
(-2.19944 -0.324599 0)
(-2.02753 -0.363584 0)
(-2.05132 0.00182924 0)
(-1.91785 -0.4113 0)
(-2.1403 -0.228641 0)
(-2.29831 0.0321011 0)
(-2.24871 0.130228 0)
(-1.66701 0.672458 0)
(-2.07493 0.53447 0)
(-2.18317 0.204178 0)
(-2.20167 0.120574 0)
(-1.46951 -0.0679235 0)
(-1.24315 0.281478 0)
(-1.27695 0.520241 0)
(-1.39275 0.609767 0)
(-1.63812 -0.151523 0)
(-1.48077 -0.366641 0)
(-1.31402 -0.465755 0)
(-1.14354 -0.524104 0)
(-1.3298 -0.124462 0)
(-1.41469 -0.187335 0)
(-1.42349 -0.419113 0)
(-1.41678 -0.552403 0)
(-0.980446 0.199046 0)
(-1.03992 0.0653229 0)
(-1.04472 -0.216399 0)
(-1.17725 -0.36658 0)
(-0.347901 0.147232 0)
(-0.56292 -0.026049 0)
(-0.674164 -0.328279 0)
(-0.745629 -0.480994 0)
(0.650926 0.865936 0)
(0.459582 0.619934 0)
(0.387123 0.353098 0)
(0.137146 0.00721104 0)
(1.12143 0.950569 0)
(1.07092 0.785426 0)
(1.0535 0.510731 0)
(0.925589 0.295097 0)
(1.18024 0.848119 0)
(1.1852 0.754176 0)
(1.17863 0.549185 0)
(1.12612 0.412848 0)
(1.08474 0.809708 0)
(1.1137 0.748107 0)
(1.12362 0.597399 0)
(1.08853 0.487488 0)
(0.493255 0.0086211 0)
(-0.0480685 0.335002 0)
(-0.0144584 0.185132 0)
(-0.149902 0.131079 0)
(-0.162812 0.102325 0)
(-0.184381 0.121371 0)
(-0.0782569 0.216196 0)
(-0.118957 0.314085 0)
(-0.307814 0.533837 0)
(-0.335728 0.420415 0)
(-0.22965 0.443693 0)
(-0.125975 0.586116 0)
(0.201119 0.850678 0)
(0.0996381 0.308639 0)
(-0.198504 -0.0135378 0)
(-0.292104 -0.212775 0)
(-0.358206 0.0197053 0)
(-0.432704 0.0926637 0)
(-0.11476 0.0179629 0)
(-0.145794 0.318464 0)
(-0.104872 0.425931 0)
(-0.290551 0.322685 0)
(-0.481799 0.251483 0)
(-0.431855 0.101583 0)
(-0.371005 0.0680572 0)
(-0.331086 0.202882 0)
(-0.300646 0.405735 0)
(-0.473183 0.617942 0)
(-0.427961 0.412062 0)
(-0.331472 0.386084 0)
(-0.226795 0.448302 0)
(-0.0400833 0.707413 0)
(-0.0754159 0.717458 0)
(-0.196114 0.227617 0)
(-0.408266 -0.00661997 0)
(-0.611737 -0.0330467 0)
(-0.629056 -0.145038 0)
(-0.216714 -0.302437 0)
(-0.20981 -0.220075 0)
(-0.474357 -0.00986782 0)
(-0.691449 0.123155 0)
(-0.833033 0.170312 0)
(-0.868653 0.281507 0)
(-0.68374 0.0359404 0)
(-0.563384 0.0875938 0)
(-0.554186 0.366402 0)
(-0.478249 0.456102 0)
(-0.429529 0.349328 0)
(-0.398023 0.276938 0)
(-0.342746 0.324863 0)
(-0.284532 0.551861 0)
(-0.162492 0.818848 0)
(-0.151234 0.458008 0)
(-0.155865 0.228458 0)
(-0.302552 0.259313 0)
(-0.372124 0.0931453 0)
(0.00482359 -0.448982 0)
(-0.6434 0.814285 0)
(-0.911586 0.897654 0)
(-1.59229 0.852794 0)
(-1.90674 0.51317 0)
(-1.50923 -0.110227 0)
(-1.26235 -0.200871 0)
(-0.922192 -0.191409 0)
(-0.788112 0.161382 0)
(-0.626557 0.304279 0)
(-0.449996 0.229971 0)
(-0.399218 0.110762 0)
(-0.385015 0.143584 0)
(-0.473545 0.421519 0)
(-0.418038 0.685706 0)
(-0.22004 0.431048 0)
(-0.13909 0.158947 0)
(-0.111733 0.0240988 0)
(-0.149525 -0.342635 0)
(0.0741441 -0.680567 0)
(-1.13175 0.0438377 0)
(-1.35963 0.285027 0)
(-1.82274 0.211845 0)
(-1.68031 0.174624 0)
(-1.31911 -0.584979 0)
(-1.37228 -0.612441 0)
(-1.15081 -0.364138 0)
(-0.83243 0.0557185 0)
(-0.704938 0.170903 0)
(-0.511039 0.130207 0)
(-0.414311 0.0457614 0)
(-0.401198 -0.0206002 0)
(-0.423399 0.148259 0)
(-0.380601 0.434473 0)
(-0.22983 0.358231 0)
(-0.188838 0.155553 0)
(-0.0813003 0.0486192 0)
(-0.0864008 -0.298668 0)
(0.0867087 -0.634106 0)
(-2.12371 0.717602 0)
(-1.91874 1.12007 0)
(-1.61902 0.922584 0)
(-0.849562 -0.338292 0)
(-0.898604 -0.707125 0)
(-1.10923 -0.746408 0)
(-1.10985 -0.39263 0)
(-0.887888 -0.060096 0)
(-0.729617 0.157274 0)
(-0.602236 0.189835 0)
(-0.543936 0.159666 0)
(-0.539923 0.045283 0)
(-0.599981 0.0793613 0)
(-0.543259 0.280029 0)
(-0.43297 0.282202 0)
(-0.345361 0.143287 0)
(-0.0192654 -0.032376 0)
(0.0378345 -0.208322 0)
(0.0983199 -0.48643 0)
(-2.24215 0.459171 0)
(-1.72657 1.07178 0)
(-0.63979 0.317482 0)
(-0.629171 -0.253489 0)
(-0.828825 -0.531724 0)
(-0.98177 -0.623188 0)
(-1.08377 -0.438349 0)
(-1.0305 -0.107334 0)
(-0.925969 0.147272 0)
(-0.898452 0.22425 0)
(-0.967488 0.271763 0)
(-1.12177 0.302227 0)
(-1.00505 0.197842 0)
(-0.771614 0.238773 0)
(-0.589183 0.104374 0)
(-0.359768 0.00284428 0)
(-0.0319798 0.00151747 0)
(0.0773435 -0.178825 0)
(0.109371 -0.443827 0)
(-1.88265 0.26786 0)
(-1.41598 0.162783 0)
(-0.91922 -0.00434869 0)
(-0.817845 -0.232379 0)
(-0.946377 -0.444333 0)
(-1.07436 -0.521202 0)
(-1.17153 -0.447805 0)
(-1.21996 -0.204241 0)
(-1.18035 0.0465627 0)
(-1.20708 0.163912 0)
(-1.26091 0.231362 0)
(-1.3279 0.275847 0)
(-1.23516 0.317599 0)
(-0.870109 0.177007 0)
(-0.537198 0.00857274 0)
(-0.369813 -0.00370832 0)
(-0.184506 -0.0565556 0)
(-0.00551059 -0.261028 0)
(0.0822293 -0.49744 0)
(-1.25714 0.17171 0)
(-1.14828 -0.203605 0)
(-1.11199 -0.302008 0)
(-1.04975 -0.421783 0)
(-1.09388 -0.511396 0)
(-1.16784 -0.529228 0)
(-1.25965 -0.472491 0)
(-1.32343 -0.269366 0)
(-1.25653 0.0553606 0)
(-1.21613 0.232587 0)
(-1.19406 0.210275 0)
(-1.15628 0.174194 0)
(-1.02419 0.195074 0)
(-0.75844 0.124159 0)
(-0.526941 0.0906243 0)
(-0.516869 -0.0214011 0)
(-0.34523 -0.141952 0)
(-0.0881248 -0.324579 0)
(0.0178203 -0.453657 0)
(-0.972849 -0.394718 0)
(-0.938597 0.242369 0)
(-0.911992 0.295181 0)
(-1.11538 0.0599621 0)
(-1.31211 -0.0399359 0)
(-1.26245 -0.661072 0)
(-1.28414 -0.55476 0)
(-1.33815 -0.319619 0)
(-1.27512 -0.0651966 0)
(-1.10737 0.214477 0)
(-1.00816 0.261603 0)
(-0.891814 0.194478 0)
(-0.796029 0.157182 0)
(-0.748766 0.151568 0)
(-0.737428 0.137118 0)
(-0.692602 0.097805 0)
(-0.461998 -0.17479 0)
(-0.198724 -0.362189 0)
(-0.0501329 -0.316626 0)
(-1.35065 -0.815884 0)
(-1.28077 -0.933788 0)
(-0.957215 -0.796361 0)
(-0.904903 -0.554762 0)
(-0.84281 -0.530999 0)
(-1.03506 -0.498946 0)
(-1.17181 -0.532495 0)
(-1.24833 -0.44019 0)
(-1.34372 -0.128514 0)
(-1.27051 0.0954485 0)
(-1.2145 0.233465 0)
(-1.09317 0.241939 0)
(-0.927234 0.181269 0)
(-0.821767 0.174218 0)
(-0.722328 0.105836 0)
(-0.670372 -0.0962657 0)
(-0.480885 -0.29586 0)
(-0.252761 -0.424273 0)
(0.0186341 -0.521168 0)
(-1.16268 -0.598929 0)
(-1.19532 -0.731483 0)
(-0.997887 -0.780669 0)
(-0.907754 -0.751874 0)
(-0.794212 -0.723693 0)
(-0.756304 -0.740441 0)
(-0.911266 -0.382866 0)
(-1.13923 -0.214403 0)
(-1.20055 -0.315748 0)
(-1.30297 -0.0714972 0)
(-1.19794 0.046461 0)
(-1.05934 0.0978934 0)
(-0.904656 0.0882449 0)
(-0.744651 0.00233612 0)
(-0.736169 -0.198033 0)
(-0.333721 -0.315916 0)
(-0.0112015 -0.282785 0)
(-0.848606 -0.428612 0)
(-0.154545 -0.779126 0)
(-0.724512 -0.735084 0)
(-0.650333 -0.916738 0)
(-0.477845 -0.707344 0)
(-0.508399 -0.477278 0)
(-0.611213 -0.497704 0)
(-0.754838 -0.606505 0)
(-0.760553 -0.6305 0)
(-0.674174 -0.302653 0)
(-0.837451 -0.0086274 0)
(-1.0236 -0.297264 0)
(-1.05407 -0.139753 0)
(-0.939806 -0.0674531 0)
(-0.823551 -0.0283444 0)
(-0.760344 -0.105427 0)
(-0.628999 -0.245778 0)
(-0.371931 0.269442 0)
(-0.894178 0.285623 0)
(-0.748688 -0.54364 0)
(-0.0307098 -0.515737 0)
(0.0806744 -0.598984 0)
(-0.0896736 -1.04151 0)
(-0.199663 -0.996046 0)
(-0.0957887 -0.614102 0)
(-0.0570411 -0.378386 0)
(-0.3059 -0.398254 0)
(-0.536007 -0.50275 0)
(-0.581913 -0.528254 0)
(-0.286082 -0.248371 0)
(-0.551696 0.186781 0)
(-0.900982 -0.258139 0)
(-0.966627 -0.199258 0)
(-0.909475 -0.163983 0)
(-0.823704 -0.178106 0)
(-0.888529 -0.00456283 0)
(-1.41452 -1.57403 0)
(-1.15897 -1.53856 0)
(-0.450693 -2.20229 0)
(-0.193058 -2.3533 0)
(0.807366 -0.313511 0)
(0.494874 -0.735238 0)
(0.260003 -0.727498 0)
(0.111673 -0.66854 0)
(0.153246 -0.425495 0)
(0.157242 -0.244379 0)
(0.0595234 -0.308554 0)
(-0.0737805 -0.45969 0)
(-0.0310022 -0.439338 0)
(0.253536 -0.0813141 0)
(0.602896 0.292949 0)
(-0.281874 0.371581 0)
(-0.873084 0.234939 0)
(-1.13053 0.328045 0)
(-1.08792 -0.568091 0)
(-0.933457 -1.21332 0)
(-0.801998 -1.24723 0)
(-0.508421 -2.10845 0)
(-0.325875 -2.46959 0)
(1.03499 -0.0786487 0)
(0.812803 -0.542542 0)
(0.528899 -0.684673 0)
(0.359684 -0.496759 0)
(0.270446 -0.393684 0)
(0.25145 -0.277356 0)
(0.218643 -0.240731 0)
(0.141685 -0.34995 0)
(-0.157813 -0.455184 0)
(-0.422942 -0.26354 0)
(-0.254031 0.116572 0)
(-0.372244 0.388096 0)
(-0.739494 0.291221 0)
(-0.685796 -0.100778 0)
(-0.365233 -0.666679 0)
(-0.583006 -1.00087 0)
(-0.401119 -1.51969 0)
(-0.265538 -2.3165 0)
(-0.145529 -2.80172 0)
(1.09772 0.0702121 0)
(0.94454 -0.385672 0)
(0.678917 -0.444324 0)
(0.481602 -0.427316 0)
(0.374861 -0.292234 0)
(0.3089 -0.220211 0)
(0.227004 -0.169605 0)
(0.174274 -0.0749689 0)
(-0.328886 -0.0614288 0)
(-0.648246 -0.0580154 0)
(-0.635013 0.209461 0)
(-0.511834 0.331048 0)
(-0.495934 0.219044 0)
(-0.24079 -0.344309 0)
(-0.0508194 -0.66966 0)
(0.0308081 -1.20792 0)
(0.27655 -1.75629 0)
(0.115205 -2.28019 0)
(-0.0152989 -2.85782 0)
)
;

boundaryField
{
    leftWall
    {
        type            fixedValue;
        value           nonuniform 0();
    }
    rightWall
    {
        type            fixedValue;
        value           uniform (0 0 0);
    }
    lowerWall
    {
        type            fixedValue;
        value           uniform (0 0 0);
    }
    atmosphere
    {
        type            fluxCorrectedVelocity;
        value           nonuniform 0();
    }
    defaultFaces
    {
        type            empty;
    }
    procBoundary1to0
    {
        type            processor;
        value           nonuniform List<vector> 
26
(
(-0.0477332 0.000852617 0)
(-0.0291531 -0.0101534 0)
(-0.0206394 -0.0161522 0)
(-0.0332104 -0.0331687 0)
(-0.0533837 -0.0506765 0)
(-0.050198 -0.0561635 0)
(-0.0912105 -0.123015 0)
(-0.164331 -0.141856 0)
(0.000675576 0.0349892 0)
(0.224675 0.0610566 0)
(-0.154743 0.118153 0)
(-0.629038 0.416906 0)
(-1.84206 0.292049 0)
(-1.92839 0.207167 0)
(-1.80216 0.586139 0)
(-1.11905 0.108375 0)
(-1.51835 -0.389762 0)
(-1.51835 -0.389762 0)
(-1.57073 -0.0562265 0)
(-1.02152 -0.00567761 0)
(-0.690965 0.365384 0)
(-0.105811 0.748165 0)
(0.671466 1.11992 0)
(1.07379 1.0896 0)
(1.14869 0.960022 0)
(1.0365 0.862056 0)
)
;
    }
    procBoundary1to3
    {
        type            processor;
        value           nonuniform List<vector> 
23
(
(0.810467 0.677766 0)
(0.895664 0.661801 0)
(0.93199 0.554223 0)
(0.980796 0.470438 0)
(1.03551 0.111843 0)
(0.896432 -0.203827 0)
(0.698652 -0.303412 0)
(0.529651 -0.266325 0)
(0.435465 -0.239681 0)
(0.370192 -0.152176 0)
(0.331503 -0.0842553 0)
(0.270742 0.0371188 0)
(0.261193 0.205319 0)
(-0.092288 0.0878254 0)
(-0.227172 0.0867613 0)
(-0.170775 0.223073 0)
(0.0389934 0.133351 0)
(0.363928 -0.285739 0)
(0.616841 -0.885429 0)
(0.637832 -1.27209 0)
(0.660604 -1.60686 0)
(0.357033 -1.92537 0)
(0.195911 -2.65279 0)
)
;
    }
}


// ************************************************************************* //
