/*--------------------------------*- C++ -*----------------------------------*\
| =========                 |                                                 |
| \\      /  F ield         | OpenFOAM: The Open Source CFD Toolbox           |
|  \\    /   O peration     | Version:  2.4.0                                 |
|   \\  /    A nd           | Web:      www.OpenFOAM.org                      |
|    \\/     M anipulation  |                                                 |
\*---------------------------------------------------------------------------*/
FoamFile
{
    version     2.0;
    format      ascii;
    class       volVectorField;
    location    "0.85";
    object      U.mercury;
}
// * * * * * * * * * * * * * * * * * * * * * * * * * * * * * * * * * * * * * //

dimensions      [0 1 -1 0 0 0 0];

internalField   nonuniform List<vector> 
559
(
(-0.0333346 -0.0121355 0)
(-0.0125959 -0.0276823 0)
(-0.00629246 -0.0301215 0)
(-0.0111912 -0.0393056 0)
(-0.0166767 -0.0426682 0)
(-0.0338879 -0.110896 0)
(-0.107075 -0.23079 0)
(-0.169708 -0.736377 0)
(-0.100621 -0.184698 0)
(0.193168 -0.228101 0)
(0.312288 -0.25705 0)
(0.358621 -0.306285 0)
(0.377648 -0.331166 0)
(0.391727 -0.331497 0)
(0.409785 -0.316385 0)
(0.431488 -0.292782 0)
(0.444203 -0.266524 0)
(0.473275 -0.243114 0)
(0.492847 -0.230038 0)
(0.524136 -0.236209 0)
(0.525703 -0.225154 0)
(0.505699 -0.197714 0)
(0.450533 -0.142528 0)
(0.352512 -0.0923697 0)
(0.158264 -0.0538559 0)
(-0.0540644 -0.0973608 0)
(-0.0215073 -0.146107 0)
(-0.0977235 0.0364849 0)
(0.217627 -0.257309 0)
(0.375985 -0.167975 0)
(0.47377 -0.0973182 0)
(0.520227 -0.0643325 0)
(0.538692 -0.0415109 0)
(0.539096 -0.0272077 0)
(0.536385 -0.0257299 0)
(0.537377 -0.0350589 0)
(0.541964 -0.0392834 0)
(0.54311 -0.0354309 0)
(0.547234 -0.0244215 0)
(0.547156 0.0068446 0)
(0.498494 0.0479396 0)
(0.455208 0.137318 0)
(0.323529 0.143953 0)
(0.16496 0.141843 0)
(0.00276635 0.114801 0)
(-0.0731212 0.0538322 0)
(0.250699 -0.465622 0)
(0.230021 -0.965737 0)
(0.220098 -0.976475 0)
(0.392125 -0.547429 0)
(0.540397 -0.302223 0)
(0.618946 -0.251256 0)
(0.64525 -0.223111 0)
(0.638226 -0.210343 0)
(0.616097 -0.206924 0)
(0.578707 -0.194357 0)
(0.479553 -0.191424 0)
(-0.103138 -0.342771 0)
(-0.242872 -0.320108 0)
(-0.260552 -0.195738 0)
(-0.00142869 -0.0582877 0)
(0.203962 0.089977 0)
(0.146423 0.133506 0)
(0.0193933 0.0735561 0)
(-0.0262683 -0.119667 0)
(0.154864 -1.12796 0)
(0.132403 -1.11354 0)
(0.104293 -0.955916 0)
(0.34701 -0.244368 0)
(0.478061 -0.08085 0)
(0.538769 -0.0264989 0)
(0.547297 0.0107077 0)
(0.517087 0.0257055 0)
(0.431525 0.0204255 0)
(0.37342 0.003765 0)
(0.306019 -1.88127e-05 0)
(-0.259793 -0.251747 0)
(-0.361325 -0.222818 0)
(-0.407995 -0.179974 0)
(-0.373205 -0.144683 0)
(-0.0240429 0.0022483 0)
(0.10362 0.156005 0)
(0.0386628 0.128286 0)
(0.0268783 0.00578272 0)
(0.145533 -1.18344 0)
(0.117435 -1.10077 0)
(0.0931002 -0.821547 0)
(0.147104 -0.277676 0)
(0.276422 -0.240882 0)
(0.3633 -0.19117 0)
(0.403226 -0.136975 0)
(0.406025 -0.0909092 0)
(0.351778 -0.0692697 0)
(0.275625 -0.0369164 0)
(0.219573 0.0260047 0)
(-0.267106 -0.198173 0)
(-0.358506 -0.193885 0)
(-0.40119 -0.1922 0)
(-0.399579 -0.227138 0)
(-0.26587 -0.110126 0)
(0.0245762 0.133453 0)
(0.0238827 0.130102 0)
(0.0587743 -0.0586476 0)
(0.139375 -1.13068 0)
(0.119076 -1.09627 0)
(0.0109011 -0.596814 0)
(0.0273987 -0.299241 0)
(0.142408 -0.217728 0)
(0.274696 -0.122498 0)
(0.286114 -0.0564245 0)
(0.242566 -0.00596618 0)
(0.185424 0.00137336 0)
(0.135761 -0.0123213 0)
(0.132243 0.0216448 0)
(-0.135638 -0.147511 0)
(-0.242522 -0.203962 0)
(-0.300505 -0.218463 0)
(-0.324431 -0.29629 0)
(-0.290954 -0.247229 0)
(-0.0154029 0.0351998 0)
(0.0233295 0.11257 0)
(0.0865017 0.0224841 0)
(0.140582 -1.14415 0)
(0.127266 -1.13181 0)
(-0.00855589 -0.418472 0)
(-0.000968009 -0.355903 0)
(0.0325467 -0.302921 0)
(0.185842 -0.189216 0)
(0.265969 -0.0675068 0)
(0.206815 0.0112676 0)
(0.119822 0.0518127 0)
(0.0360166 0.0432508 0)
(0.0357984 0.0610741 0)
(-0.0222043 0.000919848 0)
(-0.138514 -0.260173 0)
(-0.230698 -0.285302 0)
(-0.275026 -0.392356 0)
(-0.29454 -0.33256 0)
(-0.153989 -0.0338971 0)
(0.00688996 0.0887756 0)
(0.0939218 -0.00890846 0)
(0.143861 -1.18846 0)
(0.102327 -1.05991 0)
(0.0132304 -0.355793 0)
(-0.00814334 -0.378581 0)
(0.00332385 -0.357681 0)
(0.0462778 -0.267201 0)
(0.1992 -0.0879772 0)
(0.168564 0.0164882 0)
(0.0782865 0.054651 0)
(-0.00403414 0.0328173 0)
(0.0010734 0.0486683 0)
(0.0101445 0.136577 0)
(-0.0204817 -0.201474 0)
(-0.123572 -0.30092 0)
(-0.185845 -0.448976 0)
(-0.222661 -0.458676 0)
(-0.281711 -0.215377 0)
(-0.0504565 -0.0377691 0)
(0.0839102 -0.0105485 0)
(-0.103867 -0.949373 0)
(-0.0110699 -0.175668 0)
(-0.665681 -0.304183 0)
(-1.33944 -1.11575 0)
(-1.49069 -1.17557 0)
(-1.55214 -1.06083 0)
(-1.50098 -1.05128 0)
(-1.26058 -0.246313 0)
(-0.0861486 -1.0222 0)
(-0.00245966 -1.06751 0)
(-0.000109754 -1.1121 0)
(0.121811 -1.12969 0)
(-0.183235 0.147351 0)
(-0.230629 0.212872 0)
(-0.265104 -0.192266 0)
(-0.232643 -0.341913 0)
(-0.310048 -0.287427 0)
(-0.29465 -0.666805 0)
(-0.49648 -0.977031 0)
(-0.542965 -1.01423 0)
(-1.2858 -1.16167 0)
(-1.25323 -1.17563 0)
(-1.23045 -1.1923 0)
(-1.35442 -1.18992 0)
(-1.33492 -1.16612 0)
(-1.33801 -1.23243 0)
(-1.31798 -1.30347 0)
(-1.41709 -1.38664 0)
(-1.55666 -1.08172 0)
(-1.51295 -1.0589 0)
(-1.47998 -1.08476 0)
(-1.47219 -1.11677 0)
(-1.55315 -0.982964 0)
(-1.5758 -0.967286 0)
(-1.54716 -0.910856 0)
(-1.53545 -0.941818 0)
(-1.51104 -0.182749 0)
(-1.61447 -0.578564 0)
(-1.68773 -0.746633 0)
(-1.77055 -0.794348 0)
(-1.47436 -0.06897 0)
(-1.24928 0.279411 0)
(-1.28369 0.513525 0)
(-1.39907 0.600479 0)
(-1.63865 -0.147939 0)
(-1.48068 -0.361165 0)
(-1.31436 -0.459069 0)
(-1.14374 -0.520144 0)
(-1.32969 -0.122316 0)
(-1.41427 -0.184961 0)
(-1.42307 -0.416901 0)
(-1.4163 -0.550148 0)
(-0.979877 0.200669 0)
(-1.03914 0.0669587 0)
(-1.04408 -0.214833 0)
(-1.17665 -0.364911 0)
(-0.347354 0.148532 0)
(-0.562148 -0.02474 0)
(-0.67335 -0.32689 0)
(-0.744883 -0.479568 0)
(0.651537 0.867175 0)
(0.460248 0.621199 0)
(0.387825 0.354354 0)
(0.137869 0.00847232 0)
(1.12199 0.951693 0)
(1.07157 0.786596 0)
(1.05421 0.511864 0)
(0.926227 0.296215 0)
(1.18085 0.849008 0)
(1.1858 0.755056 0)
(1.17923 0.550066 0)
(1.12665 0.41374 0)
(1.08529 0.810324 0)
(1.11423 0.748713 0)
(1.12415 0.598011 0)
(1.08897 0.488128 0)
(0.130908 -1.09601 0)
(0.047941 -0.691372 0)
(0.00889794 -0.310333 0)
(-0.0612407 -0.325475 0)
(-0.0780139 -0.322477 0)
(-0.0737003 -0.286924 0)
(0.0138923 -0.117327 0)
(0.0946628 0.0919362 0)
(0.0246317 0.113052 0)
(-0.0749466 0.0610889 0)
(-0.048598 0.0380419 0)
(-0.0012606 0.110736 0)
(0.0843422 -0.12136 0)
(0.0338121 -0.254084 0)
(0.0119616 -0.327556 0)
(-0.0922293 -0.564945 0)
(-0.247408 -0.428433 0)
(-0.233053 -0.276539 0)
(0.0255368 -0.334234 0)
(-0.232689 -0.391131 0)
(-0.106051 -0.317008 0)
(-0.168886 -0.383275 0)
(-0.284315 -0.248212 0)
(-0.290735 -0.221316 0)
(-0.282908 -0.256053 0)
(-0.235189 -0.193558 0)
(-0.0330028 0.0370737 0)
(-0.0741466 0.203137 0)
(-0.136459 0.09224 0)
(-0.169314 0.0290324 0)
(-0.0829944 0.0489634 0)
(0.0622289 0.0276571 0)
(0.106605 -0.0828084 0)
(0.0602484 -0.295832 0)
(0.0106005 -0.431274 0)
(0.00467334 -0.612161 0)
(0.0574008 -0.918533 0)
(0.138464 -1.01781 0)
(-0.550619 -0.98672 0)
(-0.419266 -0.730888 0)
(-0.49675 -0.585584 0)
(-0.509077 -0.399425 0)
(-0.607607 -0.302284 0)
(-0.617874 -0.285947 0)
(-0.516637 -0.221306 0)
(-0.31851 0.0356368 0)
(-0.193993 0.180979 0)
(-0.246146 0.115241 0)
(-0.254309 -0.011117 0)
(-0.198294 -0.0341744 0)
(-0.100943 0.087056 0)
(0.0875999 0.249441 0)
(0.0700959 0.180616 0)
(-0.0123626 0.0687422 0)
(0.0729338 -0.327827 0)
(0.0778172 -0.908491 0)
(0.143005 -1.00463 0)
(-1.24054 -0.823408 0)
(-0.871319 -0.36544 0)
(-1.18616 -0.351907 0)
(-1.32916 -0.670212 0)
(-1.11901 -0.912324 0)
(-0.933702 -0.705705 0)
(-0.788979 -0.419196 0)
(-0.543801 -0.0631447 0)
(-0.390804 0.119546 0)
(-0.331882 0.0902738 0)
(-0.338854 -0.052672 0)
(-0.303099 -0.0769177 0)
(-0.23942 0.0435142 0)
(-0.0743588 0.314541 0)
(-0.00881951 0.285599 0)
(-0.0566789 0.0585797 0)
(0.0379949 -0.456108 0)
(0.0538771 -0.95461 0)
(0.12395 -0.999247 0)
(-1.44939 -1.38369 0)
(-1.08955 -0.702153 0)
(-1.41324 -0.912917 0)
(-1.38411 -1.33158 0)
(-1.09721 -1.2999 0)
(-0.914181 -1.07626 0)
(-0.883363 -0.763525 0)
(-0.699731 -0.189435 0)
(-0.554634 0.0079171 0)
(-0.444555 0.0150036 0)
(-0.382378 -0.0799644 0)
(-0.372637 -0.113938 0)
(-0.336513 -0.0327804 0)
(-0.220898 0.223063 0)
(-0.0997891 0.255608 0)
(-0.140849 0.0644966 0)
(-0.0575363 -0.349424 0)
(0.0259806 -1.00478 0)
(0.113802 -0.983917 0)
(-1.65971 -1.24021 0)
(-1.48335 -0.4375 0)
(-1.34257 -1.20146 0)
(-1.11027 -1.37043 0)
(-0.914341 -1.25959 0)
(-0.877439 -1.14416 0)
(-0.896383 -0.961534 0)
(-0.812701 -0.484913 0)
(-0.638895 -0.141689 0)
(-0.52332 -0.107607 0)
(-0.474469 -0.133786 0)
(-0.481783 -0.125985 0)
(-0.522367 0.0278149 0)
(-0.457007 0.18394 0)
(-0.361763 0.122414 0)
(-0.297492 -0.448656 0)
(-0.0753889 -0.86696 0)
(0.0141729 -1.09964 0)
(0.0918205 -0.995365 0)
(-1.49537 -1.08904 0)
(-1.37701 -1.22311 0)
(-1.09756 -1.20992 0)
(-0.898074 -1.17787 0)
(-0.857613 -1.16117 0)
(-0.885287 -1.15174 0)
(-0.92424 -1.00343 0)
(-0.887248 -0.6805 0)
(-0.751146 -0.313807 0)
(-0.692595 -0.212601 0)
(-0.699907 -0.150845 0)
(-0.777133 -0.0144989 0)
(-0.773329 0.0355941 0)
(-0.648173 -0.12286 0)
(-0.44364 -0.571061 0)
(-0.258699 -0.909031 0)
(-0.0937558 -1.05147 0)
(-0.0238268 -1.11487 0)
(0.0676122 -1.04147 0)
(-1.44119 -0.899133 0)
(-1.22517 -1.04171 0)
(-0.989539 -1.11597 0)
(-0.895915 -1.08859 0)
(-0.894443 -1.09062 0)
(-0.929925 -1.09913 0)
(-0.97115 -0.990584 0)
(-0.966774 -0.757162 0)
(-0.862133 -0.425237 0)
(-0.800631 -0.202336 0)
(-0.865292 -0.123154 0)
(-0.882319 -0.142153 0)
(-0.717276 -0.412352 0)
(-0.518359 -0.712436 0)
(-0.36997 -0.916079 0)
(-0.263517 -1.09593 0)
(-0.155766 -1.13629 0)
(-0.0642487 -1.16539 0)
(0.0311049 -1.18251 0)
(-0.995081 -0.870775 0)
(-0.954605 -0.932887 0)
(-1.07211 -0.994241 0)
(-1.09004 -1.05169 0)
(-1.04877 -1.04584 0)
(-1.00755 -1.02677 0)
(-1.00808 -0.960187 0)
(-1.00402 -0.803762 0)
(-0.907071 -0.558068 0)
(-0.789623 -0.361648 0)
(-0.776855 -0.293646 0)
(-0.695062 -0.50832 0)
(-0.557546 -0.784277 0)
(-0.459797 -0.923929 0)
(-0.396966 -1.0573 0)
(-0.36302 -1.19361 0)
(-0.248679 -1.27204 0)
(-0.0962391 -1.33765 0)
(-0.0137651 -1.45323 0)
(-0.96787 -0.411349 0)
(-0.888022 -0.323265 0)
(-0.93939 -0.789821 0)
(-1.20722 -1.03046 0)
(-1.26628 -1.01257 0)
(-1.05612 -1.05756 0)
(-1.02596 -0.92547 0)
(-1.02284 -0.841152 0)
(-0.959522 -0.727174 0)
(-0.820632 -0.646503 0)
(-0.715813 -0.622452 0)
(-0.642881 -0.697778 0)
(-0.558246 -0.869895 0)
(-0.528278 -1.00568 0)
(-0.502669 -1.10318 0)
(-0.409338 -1.26478 0)
(-0.288109 -1.42452 0)
(-0.175469 -1.58554 0)
(-0.0305065 -1.52891 0)
(-1.34854 -0.814199 0)
(-1.27554 -0.932595 0)
(-0.952629 -0.79191 0)
(-0.904966 -0.545288 0)
(-0.849697 -0.529377 0)
(-1.0233 -0.768287 0)
(-1.01821 -0.907701 0)
(-1.02388 -0.821127 0)
(-0.993764 -0.75912 0)
(-0.855161 -0.743768 0)
(-0.734974 -0.800272 0)
(-0.655559 -0.823795 0)
(-0.618283 -0.884 0)
(-0.619613 -1.00347 0)
(-0.530655 -1.1038 0)
(-0.416412 -1.30555 0)
(-0.279964 -1.69014 0)
(-0.252139 -1.90955 0)
(-0.123116 -1.71956 0)
(-1.16187 -0.597276 0)
(-1.19433 -0.730003 0)
(-0.996255 -0.780917 0)
(-0.904468 -0.756857 0)
(-0.790211 -0.730123 0)
(-0.755129 -0.742397 0)
(-0.893923 -0.523931 0)
(-0.941294 -0.709461 0)
(-0.91379 -0.746861 0)
(-0.894316 -0.710626 0)
(-0.759318 -0.779939 0)
(-0.701376 -0.846659 0)
(-0.674271 -0.855342 0)
(-0.638674 -0.958398 0)
(-0.617424 -1.12453 0)
(-0.718553 -1.83313 0)
(-0.468692 -2.62911 0)
(-0.455184 -2.9027 0)
(-0.073379 -2.00735 0)
(-0.723723 -0.733606 0)
(-0.649429 -0.915156 0)
(-0.476634 -0.704797 0)
(-0.507586 -0.476291 0)
(-0.613598 -0.500649 0)
(-0.750479 -0.611585 0)
(-0.749982 -0.632001 0)
(-0.677689 -0.342011 0)
(-0.817838 -0.482238 0)
(-0.831482 -0.558426 0)
(-0.865949 -0.5219 0)
(-0.862021 -0.490072 0)
(-0.847277 -0.493226 0)
(-0.869878 -0.611974 0)
(-1.21041 -1.18412 0)
(-0.939119 -1.03274 0)
(-0.865585 0.334012 0)
(-0.726146 -0.739236 0)
(0.0484044 -1.17569 0)
(0.0814576 -0.597758 0)
(-0.0889614 -1.04033 0)
(-0.199031 -0.994951 0)
(-0.0949682 -0.613287 0)
(-0.0567184 -0.378603 0)
(-0.312573 -0.405664 0)
(-0.538131 -0.518117 0)
(-0.574518 -0.549972 0)
(-0.29375 -0.303846 0)
(-0.753406 -0.36513 0)
(-0.861666 -0.497998 0)
(-0.914414 -0.435504 0)
(-0.940505 -0.432144 0)
(-1.01428 -0.55042 0)
(-1.37838 -0.783564 0)
(-1.41566 -1.57319 0)
(-1.15743 -1.54137 0)
(-0.449672 -2.20442 0)
(-0.192483 -2.35518 0)
(0.808041 -0.312434 0)
(0.495531 -0.734323 0)
(0.26054 -0.726697 0)
(0.112173 -0.667839 0)
(0.153726 -0.42518 0)
(0.157676 -0.245209 0)
(0.0572462 -0.316595 0)
(-0.0839251 -0.489464 0)
(-0.0719029 -0.480755 0)
(0.185118 -0.136555 0)
(0.0243795 -0.158882 0)
(-0.653965 -0.455727 0)
(-0.888683 -0.600724 0)
(-1.10514 -0.28541 0)
(-1.10379 -0.575026 0)
(-0.932468 -1.21534 0)
(-0.800699 -1.24967 0)
(-0.507077 -2.11161 0)
(-0.325414 -2.47215 0)
(1.03553 -0.0778234 0)
(0.813358 -0.541889 0)
(0.52938 -0.684125 0)
(0.360114 -0.496267 0)
(0.27085 -0.393272 0)
(0.251809 -0.277114 0)
(0.218943 -0.24173 0)
(0.136192 -0.3546 0)
(-0.187396 -0.48357 0)
(-0.439991 -0.267867 0)
(-0.25792 0.11705 0)
(-0.379817 0.362957 0)
(-0.742899 0.259222 0)
(-0.68624 -0.103991 0)
(-0.365218 -0.667861 0)
(-0.58096 -1.00291 0)
(-0.397713 -1.52325 0)
(-0.262563 -2.31887 0)
(-0.144704 -2.80319 0)
(1.09818 0.0708079 0)
(0.945015 -0.385199 0)
(0.679346 -0.443932 0)
(0.481992 -0.426962 0)
(0.375216 -0.291925 0)
(0.309235 -0.21997 0)
(0.227298 -0.169465 0)
(0.17003 -0.0772907 0)
(-0.345144 -0.0715447 0)
(-0.652718 -0.0609338 0)
(-0.635536 0.20914 0)
(-0.512572 0.33035 0)
(-0.497035 0.217879 0)
(-0.240662 -0.345799 0)
(-0.0489255 -0.671192 0)
(0.0332374 -1.20857 0)
(0.280113 -1.75617 0)
(0.118501 -2.27974 0)
(-0.0139617 -2.85808 0)
)
;

boundaryField
{
    leftWall
    {
        type            fixedValue;
        value           nonuniform 0();
    }
    rightWall
    {
        type            fixedValue;
        value           uniform (0 0 0);
    }
    lowerWall
    {
        type            fixedValue;
        value           uniform (0 0 0);
    }
    atmosphere
    {
        type            fluxCorrectedVelocity;
        value           nonuniform 0();
    }
    defaultFaces
    {
        type            empty;
    }
    procBoundary1to0
    {
        type            processor;
        value           nonuniform List<vector> 
26
(
(-0.0477326 0.000852636 0)
(-0.0291525 -0.010153 0)
(-0.0206387 -0.0161513 0)
(-0.0332096 -0.0331674 0)
(-0.0533828 -0.0506967 0)
(-0.0505195 -0.0618945 0)
(-0.0924853 -0.164901 0)
(-0.15904 -0.399581 0)
(-0.105943 -0.58068 0)
(-0.0163581 -0.191256 0)
(-0.634104 -0.238045 0)
(-1.26644 -0.604137 0)
(-1.77188 -1.00379 0)
(-1.59313 -1.0164 0)
(-1.56233 -0.693932 0)
(-1.14905 0.0367302 0)
(-1.52066 -0.391299 0)
(-1.52066 -0.391299 0)
(-1.57098 -0.0537019 0)
(-1.02115 -0.00391814 0)
(-0.690535 0.366823 0)
(-0.10539 0.74941 0)
(0.671888 1.1211 0)
(1.07419 1.09071 0)
(1.14924 0.960895 0)
(1.03703 0.862726 0)
)
;
    }
    procBoundary1to3
    {
        type            processor;
        value           nonuniform List<vector> 
23
(
(0.810964 0.678239 0)
(0.896168 0.66226 0)
(0.932467 0.554705 0)
(0.981231 0.470904 0)
(1.03597 0.112227 0)
(0.896862 -0.20351 0)
(0.699045 -0.30314 0)
(0.530007 -0.266078 0)
(0.435796 -0.23948 0)
(0.37049 -0.15201 0)
(0.331766 -0.0841481 0)
(0.270939 0.0365193 0)
(0.257695 0.201777 0)
(-0.114534 0.0854204 0)
(-0.231495 0.0850337 0)
(-0.171986 0.2217 0)
(0.038104 0.132164 0)
(0.37102 -0.288084 0)
(0.622856 -0.879617 0)
(0.642972 -1.26424 0)
(0.666115 -1.59991 0)
(0.360367 -1.92271 0)
(0.196773 -2.65154 0)
)
;
    }
}


// ************************************************************************* //
