/*--------------------------------*- C++ -*----------------------------------*\
| =========                 |                                                 |
| \\      /  F ield         | OpenFOAM: The Open Source CFD Toolbox           |
|  \\    /   O peration     | Version:  2.4.0                                 |
|   \\  /    A nd           | Web:      www.OpenFOAM.org                      |
|    \\/     M anipulation  |                                                 |
\*---------------------------------------------------------------------------*/
FoamFile
{
    version     2.0;
    format      ascii;
    class       volVectorField;
    location    "0.85";
    object      U.oil;
}
// * * * * * * * * * * * * * * * * * * * * * * * * * * * * * * * * * * * * * //

dimensions      [0 1 -1 0 0 0 0];

internalField   nonuniform List<vector> 
559
(
(-0.0332614 -0.00232483 0)
(-0.0124777 -0.0164335 0)
(-0.00613777 -0.0180478 0)
(-0.0109396 -0.0277021 0)
(-0.0163815 -0.0238878 0)
(-0.0323318 -0.0367359 0)
(-0.104722 0.0899349 0)
(-0.173629 0.066875 0)
(-0.075107 -0.0177304 0)
(0.238539 -0.0461348 0)
(0.338123 -0.0879293 0)
(0.36502 -0.139122 0)
(0.373666 -0.16352 0)
(0.381004 -0.16223 0)
(0.396441 -0.142426 0)
(0.419966 -0.115736 0)
(0.430685 -0.0908401 0)
(0.45574 -0.0645608 0)
(0.474605 -0.048345 0)
(0.500111 -0.0525882 0)
(0.479607 -0.035065 0)
(0.437454 -0.0061229 0)
(0.36735 0.0383118 0)
(0.26715 0.0801588 0)
(0.105231 0.117276 0)
(-0.0695735 0.0797472 0)
(-0.0234583 0.0260519 0)
(-0.0743596 0.238708 0)
(0.303282 0.091142 0)
(0.441052 0.223013 0)
(0.510182 0.292079 0)
(0.51329 0.306253 0)
(0.509409 0.302926 0)
(0.504624 0.277505 0)
(0.497235 0.267282 0)
(0.49775 0.242802 0)
(0.506614 0.21134 0)
(0.502168 0.204544 0)
(0.498376 0.2242 0)
(0.475996 0.265459 0)
(0.413083 0.300514 0)
(0.362764 0.350889 0)
(0.234622 0.331124 0)
(0.11315 0.335125 0)
(-0.0146553 0.301884 0)
(-0.0794386 0.238829 0)
(0.247023 0.0693446 0)
(0.400544 -0.0516905 0)
(0.425338 -0.0524918 0)
(0.466946 -0.111467 0)
(0.549915 -0.161984 0)
(0.613429 -0.15339 0)
(0.608443 -0.126888 0)
(0.567797 -0.103367 0)
(0.517034 -0.0842635 0)
(0.441633 -0.0503949 0)
(0.290755 -0.022171 0)
(0.0813845 0.0150022 0)
(-0.221119 0.135066 0)
(-0.383338 0.111349 0)
(-0.120892 0.121841 0)
(0.102345 0.237665 0)
(0.0847029 0.301959 0)
(-0.00703214 0.234762 0)
(-0.0316496 0.0459388 0)
(0.247247 -0.169761 0)
(0.211976 -0.176396 0)
(0.28928 -0.0675678 0)
(0.415998 0.056308 0)
(0.498637 0.125475 0)
(0.533244 0.169202 0)
(0.509255 0.184425 0)
(0.446614 0.187547 0)
(0.341715 0.177655 0)
(0.268872 0.185585 0)
(0.178897 0.219393 0)
(0.00549859 0.243046 0)
(-0.385044 0.271985 0)
(-0.536911 0.103464 0)
(-0.487513 0.0309289 0)
(-0.104513 0.15999 0)
(0.0497709 0.32624 0)
(0.0134363 0.304537 0)
(0.0219433 0.17769 0)
(0.160349 -0.437894 0)
(0.0513272 -0.225867 0)
(0.100293 -0.12883 0)
(0.176998 -0.131465 0)
(0.284987 -0.113654 0)
(0.340022 -0.0638981 0)
(0.36221 -0.00197749 0)
(0.336123 0.0479146 0)
(0.253868 0.0646881 0)
(0.181582 0.102235 0)
(0.117085 0.202099 0)
(0.00228098 0.344173 0)
(-0.333555 0.379501 0)
(-0.487469 0.0782191 0)
(-0.482836 -0.0508873 0)
(-0.333041 0.0530114 0)
(-0.0236914 0.289995 0)
(-0.0051879 0.294648 0)
(0.0484547 0.101706 0)
(0.13128 -0.518525 0)
(-0.0474578 -0.181923 0)
(-0.0314947 -0.156198 0)
(0.0327156 -0.163979 0)
(0.155635 -0.0845087 0)
(0.261952 0.0140315 0)
(0.23327 0.0999755 0)
(0.173175 0.153488 0)
(0.104428 0.156545 0)
(0.0522088 0.150193 0)
(0.0448965 0.212358 0)
(0.0217762 0.394996 0)
(-0.16855 0.50081 0)
(-0.360686 0.108867 0)
(-0.400589 -0.079222 0)
(-0.361294 -0.0723049 0)
(-0.0677102 0.189358 0)
(-0.00376374 0.270112 0)
(0.0762208 0.181684 0)
(0.137885 -0.519352 0)
(-0.0884016 -0.195494 0)
(-0.0347206 -0.192068 0)
(-0.00616449 -0.204931 0)
(0.0336436 -0.169518 0)
(0.172607 -0.0819778 0)
(0.213037 0.051301 0)
(0.119315 0.1455 0)
(0.0246723 0.176535 0)
(-0.0470571 0.174986 0)
(-0.04399 0.233855 0)
(-0.0071181 0.415336 0)
(-0.00221366 0.554181 0)
(-0.267969 0.180117 0)
(-0.371696 -0.0723548 0)
(-0.390795 -0.130399 0)
(-0.206219 0.126583 0)
(-0.0210405 0.250862 0)
(0.0840137 0.15589 0)
(0.171231 -0.38826 0)
(-0.0799142 -0.156476 0)
(0.0046129 -0.202896 0)
(-0.0197027 -0.211813 0)
(-0.0130134 -0.199315 0)
(0.024764 -0.132824 0)
(0.16183 0.0377837 0)
(0.0826177 0.157952 0)
(-0.0212697 0.185802 0)
(-0.0925911 0.166306 0)
(-0.0751127 0.213603 0)
(-0.0491039 0.389067 0)
(0.14172 0.600865 0)
(-0.134734 0.245361 0)
(-0.294614 -0.162785 0)
(-0.396097 -0.149909 0)
(-0.331989 -0.0299449 0)
(-0.0832825 0.116367 0)
(0.0653538 0.187927 0)
(-0.0254546 -0.214875 0)
(0.0545847 -0.0526962 0)
(-0.452378 -0.0838248 0)
(-1.21864 -0.848416 0)
(-1.74036 -0.851747 0)
(-1.71337 -0.783828 0)
(-1.54649 -0.94394 0)
(-1.34137 -1.11131 0)
(-0.0718923 -0.539843 0)
(-0.0233975 -0.599987 0)
(-0.0148595 -0.594361 0)
(0.186069 -0.566568 0)
(-0.0979332 0.429584 0)
(-0.181604 0.483475 0)
(-0.209551 0.0585994 0)
(-0.169131 -0.14413 0)
(-0.145982 -0.0764596 0)
(-0.101676 -0.381223 0)
(-0.217829 -0.739014 0)
(-0.353739 -0.847019 0)
(-1.32821 -0.871056 0)
(-1.2556 -0.855853 0)
(-1.52786 -1.18911 0)
(-1.62149 -1.34875 0)
(-1.5305 -0.863742 0)
(-1.49578 -0.901058 0)
(-1.80628 -1.17672 0)
(-2.3706 -1.75893 0)
(-1.74999 -0.786378 0)
(-1.72476 -0.758219 0)
(-1.68128 -0.753844 0)
(-1.83008 -0.934157 0)
(-1.70616 -0.75836 0)
(-1.7719 -0.714973 0)
(-1.75477 -0.639414 0)
(-1.71467 -0.631783 0)
(-1.3565 -1.04131 0)
(-1.43937 -0.960718 0)
(-1.58571 -0.78626 0)
(-1.66488 -0.647679 0)
(-1.37889 -0.36999 0)
(-1.51816 -0.676699 0)
(-1.49772 -0.689664 0)
(-2.50625 -2.30768 0)
(-1.63803 -0.172111 0)
(-1.48127 -0.384523 0)
(-1.31171 -0.473037 0)
(-1.16823 -0.581199 0)
(-1.32582 -0.136499 0)
(-1.41154 -0.199588 0)
(-1.4269 -0.433799 0)
(-1.40445 -0.566184 0)
(-0.987161 0.177712 0)
(-1.04125 0.0404502 0)
(-1.03807 -0.245791 0)
(-1.17151 -0.393667 0)
(-0.375107 0.113373 0)
(-0.58305 -0.0753138 0)
(-0.672357 -0.384292 0)
(-0.723899 -0.533284 0)
(0.589723 0.861554 0)
(0.419513 0.63905 0)
(0.382891 0.378179 0)
(0.159303 0.0185828 0)
(1.06896 1.01882 0)
(1.03122 0.837584 0)
(1.02139 0.560485 0)
(0.940196 0.368114 0)
(1.1498 0.932846 0)
(1.13357 0.835232 0)
(1.16371 0.665631 0)
(1.1321 0.52536 0)
(1.08343 0.865663 0)
(1.09104 0.808178 0)
(1.10798 0.674574 0)
(1.08865 0.563854 0)
(0.226983 -0.356267 0)
(-0.0414335 -0.0866565 0)
(0.0175094 -0.167186 0)
(-0.0728296 -0.184005 0)
(-0.0890887 -0.196886 0)
(-0.102296 -0.159308 0)
(-0.0109356 0.0108121 0)
(0.0249154 0.214804 0)
(-0.0784186 0.240488 0)
(-0.162385 0.182649 0)
(-0.108294 0.181393 0)
(-0.0535414 0.291143 0)
(0.170162 0.548916 0)
(0.118424 0.451151 0)
(-0.12981 0.0444265 0)
(-0.337299 -0.167907 0)
(-0.354864 0.107436 0)
(-0.314673 0.256427 0)
(-0.0804436 0.301529 0)
(-0.201459 -0.258588 0)
(-0.0937206 -0.20294 0)
(-0.187068 -0.282563 0)
(-0.313753 -0.167976 0)
(-0.31216 -0.146459 0)
(-0.306416 -0.180205 0)
(-0.251029 -0.0962511 0)
(-0.0839318 0.152029 0)
(-0.168722 0.312941 0)
(-0.219019 0.201132 0)
(-0.219223 0.149729 0)
(-0.124573 0.189368 0)
(0.0588394 0.424315 0)
(0.10259 0.493932 0)
(-0.0860531 0.165446 0)
(-0.38997 -0.125777 0)
(-0.480458 -0.243849 0)
(-0.393341 -0.338704 0)
(-0.138894 -0.411125 0)
(-0.425758 -0.883946 0)
(-0.466963 -0.793728 0)
(-0.478329 -0.560704 0)
(-0.539147 -0.346534 0)
(-0.636607 -0.25269 0)
(-0.630571 -0.229068 0)
(-0.52728 -0.170842 0)
(-0.363506 0.115676 0)
(-0.275003 0.271386 0)
(-0.325895 0.219575 0)
(-0.305727 0.100974 0)
(-0.232753 0.091114 0)
(-0.150642 0.261555 0)
(0.0397006 0.52606 0)
(-0.0365571 0.390609 0)
(-0.117665 0.182506 0)
(-0.21551 -0.0143831 0)
(-0.288448 -0.197579 0)
(-0.0107585 -0.395571 0)
(-1.39668 -1.43817 0)
(-0.859869 -1.24518 0)
(-0.944981 -1.08939 0)
(-1.17663 -0.962888 0)
(-1.07757 -0.734483 0)
(-0.936762 -0.508934 0)
(-0.808605 -0.345765 0)
(-0.595563 -0.0121649 0)
(-0.462119 0.20074 0)
(-0.406457 0.191971 0)
(-0.389351 0.056283 0)
(-0.340499 0.0389566 0)
(-0.289215 0.179094 0)
(-0.141044 0.454389 0)
(-0.0873005 0.397292 0)
(-0.131595 0.141234 0)
(-0.0961374 -0.0796867 0)
(-0.187181 -0.363219 0)
(0.0488668 -0.55226 0)
(-1.34233 -1.45177 0)
(-0.888758 -1.32657 0)
(-0.97939 -1.25367 0)
(-1.23863 -1.20014 0)
(-1.13644 -1.02106 0)
(-1.00916 -0.829425 0)
(-0.928722 -0.555331 0)
(-0.736252 -0.106653 0)
(-0.609674 0.0905154 0)
(-0.499627 0.112332 0)
(-0.426715 0.0249719 0)
(-0.41294 -0.0070224 0)
(-0.398782 0.0753699 0)
(-0.310289 0.325289 0)
(-0.193149 0.348452 0)
(-0.194611 0.156357 0)
(-0.0839395 -0.00484312 0)
(-0.100763 -0.371372 0)
(0.0654447 -0.564448 0)
(-1.8262 -1.25577 0)
(-1.19571 -1.35455 0)
(-1.11511 -1.24062 0)
(-1.08404 -1.07982 0)
(-0.943053 -0.974079 0)
(-0.94668 -0.909833 0)
(-0.951504 -0.692821 0)
(-0.812268 -0.273859 0)
(-0.670683 -0.0364807 0)
(-0.557178 -0.00491463 0)
(-0.507969 -0.0321732 0)
(-0.52812 -0.0332244 0)
(-0.614004 0.105548 0)
(-0.574844 0.271427 0)
(-0.453235 0.283546 0)
(-0.354557 0.10124 0)
(-0.0500663 -0.12488 0)
(-0.0249031 -0.443603 0)
(0.0669022 -0.558889 0)
(-1.82228 -0.713241 0)
(-1.45797 -0.905233 0)
(-1.01735 -0.75481 0)
(-0.86884 -0.786836 0)
(-0.868506 -0.847417 0)
(-0.923169 -0.87601 0)
(-0.998533 -0.727799 0)
(-0.895388 -0.379864 0)
(-0.775017 -0.175228 0)
(-0.740395 -0.118859 0)
(-0.765858 -0.062851 0)
(-0.863256 0.0599532 0)
(-0.887683 0.146768 0)
(-0.786674 0.205831 0)
(-0.596227 0.128606 0)
(-0.330139 -0.19818 0)
(-0.0696365 -0.29484 0)
(-0.0216287 -0.470792 0)
(0.0515284 -0.53569 0)
(-1.58857 -0.576885 0)
(-1.37847 -0.617525 0)
(-0.999087 -0.715238 0)
(-0.886799 -0.738314 0)
(-0.89807 -0.815704 0)
(-0.989011 -0.832349 0)
(-1.06955 -0.709822 0)
(-1.04267 -0.446889 0)
(-0.924198 -0.193966 0)
(-0.915921 -0.0995745 0)
(-0.976695 -0.0372795 0)
(-0.989344 0.0274209 0)
(-0.925567 0.0658417 0)
(-0.744944 0.0316889 0)
(-0.477068 -0.153989 0)
(-0.3237 -0.34607 0)
(-0.205192 -0.408309 0)
(-0.116658 -0.54091 0)
(0.010547 -0.547869 0)
(-0.929617 -0.988034 0)
(-1.02769 -0.845606 0)
(-1.07478 -0.829582 0)
(-1.02773 -0.87987 0)
(-1.0309 -0.932991 0)
(-1.05688 -0.877899 0)
(-1.10451 -0.727704 0)
(-1.12206 -0.486877 0)
(-0.989554 -0.183281 0)
(-0.925403 -0.072338 0)
(-0.916898 -0.0607319 0)
(-0.873349 -0.0902256 0)
(-0.760422 -0.133565 0)
(-0.592561 -0.206298 0)
(-0.481773 -0.260462 0)
(-0.490339 -0.366087 0)
(-0.376104 -0.479654 0)
(-0.20586 -0.64517 0)
(-0.0570932 -0.618998 0)
(-0.812689 -1.26445 0)
(-0.801282 -1.31457 0)
(-0.930997 -1.32038 0)
(-1.21238 -1.42661 0)
(-1.22976 -1.37161 0)
(-1.07789 -1.02574 0)
(-1.09322 -0.812803 0)
(-1.1574 -0.595258 0)
(-1.0902 -0.342139 0)
(-0.909734 -0.132569 0)
(-0.829209 -0.0839237 0)
(-0.773707 -0.104707 0)
(-0.722337 -0.176663 0)
(-0.715136 -0.245821 0)
(-0.748911 -0.291462 0)
(-0.689045 -0.403704 0)
(-0.486655 -0.693519 0)
(-0.269507 -0.869657 0)
(-0.0920553 -0.791052 0)
(-1.33005 -0.823798 0)
(-1.25514 -0.937055 0)
(-0.955412 -0.82127 0)
(-0.945439 -0.654141 0)
(-0.971375 -0.968764 0)
(-1.00716 -1.07323 0)
(-1.00498 -0.923836 0)
(-1.09495 -0.700456 0)
(-1.17478 -0.451933 0)
(-1.09282 -0.222451 0)
(-1.02584 -0.13721 0)
(-0.976147 -0.130647 0)
(-0.925047 -0.177324 0)
(-0.88457 -0.242176 0)
(-0.829179 -0.367728 0)
(-0.712911 -0.719617 0)
(-0.450281 -1.16587 0)
(-0.309643 -1.30283 0)
(-0.0505826 -1.09133 0)
(-1.13947 -0.615411 0)
(-1.18123 -0.743437 0)
(-0.989759 -0.789479 0)
(-0.895154 -0.770205 0)
(-0.773125 -0.751162 0)
(-0.766021 -0.868442 0)
(-0.837986 -0.936889 0)
(-0.912914 -0.816962 0)
(-1.00112 -0.637008 0)
(-1.09335 -0.395641 0)
(-1.05933 -0.262028 0)
(-0.96157 -0.232385 0)
(-0.900891 -0.252257 0)
(-0.868417 -0.34887 0)
(-0.853938 -0.598694 0)
(-0.718238 -1.17391 0)
(-0.44598 -2.34513 0)
(-0.205368 -2.73356 0)
(0.0615616 -1.55823 0)
(-0.681579 -0.77134 0)
(-0.612568 -0.930369 0)
(-0.466071 -0.710387 0)
(-0.505388 -0.478292 0)
(-0.614061 -0.505786 0)
(-0.750662 -0.62043 0)
(-0.753931 -0.66209 0)
(-0.778234 -0.739503 0)
(-0.825774 -0.69268 0)
(-0.87063 -0.558749 0)
(-0.912311 -0.378735 0)
(-0.891262 -0.29587 0)
(-0.862097 -0.289879 0)
(-0.869936 -0.382028 0)
(-1.00227 -0.746615 0)
(-2.54514 -4.98406 0)
(-0.558044 -1.40035 0)
(0.304233 -5.69987 0)
(0.392286 -3.90588 0)
(0.126726 -0.60884 0)
(-0.0242301 -1.04746 0)
(-0.178997 -0.99529 0)
(-0.0915037 -0.614722 0)
(-0.0542936 -0.381114 0)
(-0.308761 -0.407485 0)
(-0.540027 -0.520945 0)
(-0.586751 -0.555782 0)
(-0.768329 -0.602607 0)
(-0.826821 -0.589952 0)
(-0.876214 -0.50471 0)
(-0.927994 -0.3993 0)
(-0.93877 -0.388293 0)
(-0.973749 -0.550253 0)
(-1.94913 -2.01591 0)
(-1.31706 -1.48165 0)
(-1.11925 -1.62238 0)
(-0.4347 -2.23733 0)
(-0.204964 -2.31902 0)
(0.851127 -0.280712 0)
(0.555669 -0.728365 0)
(0.283192 -0.726852 0)
(0.116209 -0.669459 0)
(0.155038 -0.427241 0)
(0.158001 -0.247751 0)
(0.0588485 -0.315953 0)
(-0.0753235 -0.480569 0)
(-0.13686 -0.524383 0)
(-0.757138 -0.829269 0)
(-0.816587 -0.848921 0)
(-0.830558 -0.843459 0)
(-0.894477 -0.898721 0)
(-1.08678 -0.948753 0)
(-2.12185 -2.27302 0)
(-0.863572 -1.3114 0)
(-0.712986 -1.35454 0)
(-0.462459 -2.21404 0)
(-0.305261 -2.56858 0)
(1.05068 0.00729061 0)
(0.876434 -0.514882 0)
(0.547403 -0.68175 0)
(0.36352 -0.498592 0)
(0.271646 -0.394854 0)
(0.251774 -0.278899 0)
(0.218743 -0.243013 0)
(0.137249 -0.353076 0)
(-0.203985 -0.465268 0)
(-0.47148 -0.263072 0)
(-0.424486 -0.163171 0)
(-0.641641 -0.619308 0)
(-0.782793 -0.776931 0)
(-0.612209 -0.316838 0)
(-0.343229 -0.731076 0)
(-0.425116 -1.10624 0)
(-0.233571 -1.65498 0)
(-0.183312 -2.39586 0)
(-0.118142 -2.84298 0)
(1.11178 0.136249 0)
(0.964946 -0.344821 0)
(0.69146 -0.442897 0)
(0.485395 -0.429047 0)
(0.374844 -0.292279 0)
(0.309592 -0.221277 0)
(0.227371 -0.171201 0)
(0.168706 -0.0787474 0)
(-0.37648 -0.0778971 0)
(-0.705976 -0.0543817 0)
(-0.693355 0.181613 0)
(-0.577726 0.240947 0)
(-0.494453 0.147032 0)
(-0.188282 -0.457149 0)
(0.0115466 -0.705409 0)
(0.157743 -1.13726 0)
(0.35543 -1.68045 0)
(0.234958 -2.1989 0)
(0.0206308 -2.86931 0)
)
;

boundaryField
{
    leftWall
    {
        type            fixedValue;
        value           nonuniform 0();
    }
    rightWall
    {
        type            fixedValue;
        value           uniform (0 0 0);
    }
    lowerWall
    {
        type            fixedValue;
        value           uniform (0 0 0);
    }
    atmosphere
    {
        type            fluxCorrectedVelocity;
        value           nonuniform 0();
    }
    defaultFaces
    {
        type            empty;
    }
    procBoundary1to0
    {
        type            processor;
        value           nonuniform List<vector> 
26
(
(-0.0475938 0.00821397 0)
(-0.0289612 -0.00314565 0)
(-0.0204344 -0.00993173 0)
(-0.0328614 -0.0259617 0)
(-0.0529284 -0.0424917 0)
(-0.0486605 -0.0144252 0)
(-0.0860279 0.00102315 0)
(-0.162808 0.20678 0)
(-0.0601328 -0.0695072 0)
(0.00649851 -0.08354 0)
(-0.488446 -0.0956955 0)
(-1.04962 -0.206274 0)
(-1.93519 -0.591542 0)
(-1.68946 -0.79966 0)
(-1.53989 -1.02177 0)
(-1.54533 -1.10141 0)
(-1.54361 -0.404414 0)
(-1.54361 -0.404414 0)
(-1.57166 -0.0738525 0)
(-1.02828 -0.0246464 0)
(-0.70319 0.347415 0)
(-0.145786 0.723606 0)
(0.596647 1.1403 0)
(0.999758 1.19289 0)
(1.10285 1.03844 0)
(1.01641 0.898781 0)
)
;
    }
    procBoundary1to3
    {
        type            processor;
        value           nonuniform List<vector> 
23
(
(0.812781 0.703597 0)
(0.899543 0.694922 0)
(0.922956 0.592265 0)
(0.968441 0.500216 0)
(1.04181 0.153246 0)
(0.905416 -0.187936 0)
(0.703044 -0.303181 0)
(0.530375 -0.266573 0)
(0.435969 -0.240038 0)
(0.370461 -0.152772 0)
(0.331484 -0.0858456 0)
(0.269887 0.0339565 0)
(0.251655 0.197618 0)
(-0.139238 0.0798085 0)
(-0.292154 0.0777359 0)
(-0.254764 0.21205 0)
(-0.0569288 0.151534 0)
(0.211071 -0.150049 0)
(0.506934 -0.710412 0)
(0.706386 -0.983221 0)
(0.802364 -1.30123 0)
(0.50234 -1.74041 0)
(0.219482 -2.62699 0)
)
;
    }
}


// ************************************************************************* //
