/*--------------------------------*- C++ -*----------------------------------*\
| =========                 |                                                 |
| \\      /  F ield         | OpenFOAM: The Open Source CFD Toolbox           |
|  \\    /   O peration     | Version:  2.4.0                                 |
|   \\  /    A nd           | Web:      www.OpenFOAM.org                      |
|    \\/     M anipulation  |                                                 |
\*---------------------------------------------------------------------------*/
FoamFile
{
    version     2.0;
    format      ascii;
    class       volVectorField;
    location    "0.85";
    object      U.water;
}
// * * * * * * * * * * * * * * * * * * * * * * * * * * * * * * * * * * * * * //

dimensions      [0 1 -1 0 0 0 0];

internalField   nonuniform List<vector> 
559
(
(-0.0333348 -0.0121336 0)
(-0.012596 -0.0276768 0)
(-0.0062923 -0.0300078 0)
(-0.0111879 -0.0129117 0)
(-0.013877 0.0960299 0)
(-0.0222309 0.0721858 0)
(-0.102879 0.049189 0)
(-0.171403 -0.0746723 0)
(-0.0760939 -0.00489089 0)
(0.244099 -0.0472364 0)
(0.340461 -0.0895307 0)
(0.367672 -0.144353 0)
(0.375938 -0.169792 0)
(0.383035 -0.167919 0)
(0.399024 -0.147559 0)
(0.420736 -0.124444 0)
(0.433398 -0.0945153 0)
(0.457949 -0.0687507 0)
(0.475791 -0.0538433 0)
(0.500344 -0.0592799 0)
(0.48143 -0.041792 0)
(0.454668 -0.0388397 0)
(0.42091 -0.0447489 0)
(0.339403 -0.032352 0)
(0.152085 -0.0341414 0)
(-0.0567689 -0.057333 0)
(-0.0219737 -0.0922651 0)
(-0.0638331 0.220319 0)
(0.309871 0.0596031 0)
(0.432552 0.179694 0)
(0.507408 0.25368 0)
(0.522719 0.283711 0)
(0.521469 0.284984 0)
(0.515845 0.269961 0)
(0.506778 0.259928 0)
(0.507234 0.231384 0)
(0.511824 0.204899 0)
(0.50499 0.202108 0)
(0.495069 0.219477 0)
(0.481532 0.266397 0)
(0.418894 0.299707 0)
(0.363785 0.345717 0)
(0.240818 0.323719 0)
(0.14334 0.169174 0)
(-0.00225814 0.163184 0)
(-0.0757427 0.131067 0)
(0.239467 -0.00815287 0)
(0.384427 -0.176189 0)
(0.415663 -0.145061 0)
(0.473515 -0.168068 0)
(0.555916 -0.199756 0)
(0.625643 -0.203353 0)
(0.635238 -0.181347 0)
(0.614713 -0.169833 0)
(0.574002 -0.152331 0)
(0.506267 -0.114644 0)
(0.360465 -0.0814764 0)
(0.156721 -0.0504234 0)
(-0.125029 0.0473346 0)
(-0.331046 0.113614 0)
(-0.0928099 0.132969 0)
(0.110623 0.238888 0)
(0.123296 0.158951 0)
(0.0130377 0.114414 0)
(-0.0286306 -0.041811 0)
(0.24549 -0.31181 0)
(0.181717 -0.30956 0)
(0.273634 -0.185658 0)
(0.408991 -0.0550445 0)
(0.4923 0.014581 0)
(0.537601 0.0613896 0)
(0.530389 0.0968761 0)
(0.48606 0.10494 0)
(0.390501 0.0934609 0)
(0.323131 0.0961528 0)
(0.241781 0.121968 0)
(0.0859152 0.146589 0)
(-0.265367 0.181104 0)
(-0.517848 0.0972997 0)
(-0.483646 0.0317811 0)
(-0.0851073 0.15432 0)
(0.0842873 0.182365 0)
(0.0324063 0.17409 0)
(0.024339 0.0991668 0)
(0.152872 -0.579388 0)
(0.0471062 -0.40056 0)
(0.0978451 -0.259301 0)
(0.177332 -0.237973 0)
(0.286207 -0.210148 0)
(0.354174 -0.149111 0)
(0.383171 -0.0826052 0)
(0.372487 -0.0285062 0)
(0.302313 -0.00442106 0)
(0.223897 0.035034 0)
(0.167492 0.12403 0)
(0.0671589 0.247808 0)
(-0.23166 0.29628 0)
(-0.493477 0.084149 0)
(-0.491221 -0.0589599 0)
(-0.300967 -0.0226111 0)
(0.0112247 0.158141 0)
(0.0159324 0.173879 0)
(0.0540891 0.0232274 0)
(0.139505 -0.635109 0)
(-0.00625885 -0.391569 0)
(-0.0467139 -0.278978 0)
(0.0153819 -0.296302 0)
(0.13237 -0.22007 0)
(0.280433 -0.105786 0)
(0.265701 0.00200117 0)
(0.207316 0.0667516 0)
(0.144623 0.0753766 0)
(0.0943706 0.0659054 0)
(0.0871583 0.119149 0)
(0.0658505 0.283649 0)
(-0.105877 0.402578 0)
(-0.384776 0.125313 0)
(-0.41464 -0.0884193 0)
(-0.331574 -0.149553 0)
(-0.0297337 0.073015 0)
(0.0157964 0.155511 0)
(0.0820724 0.0999435 0)
(0.159784 -0.653221 0)
(-0.0151701 -0.435242 0)
(-0.041252 -0.335224 0)
(-0.0115271 -0.333664 0)
(0.0251941 -0.29041 0)
(0.183489 -0.216212 0)
(0.269631 -0.0495442 0)
(0.167899 0.0680714 0)
(0.0763076 0.107463 0)
(-0.00221655 0.102268 0)
(-0.00538865 0.147052 0)
(0.0227815 0.305902 0)
(0.0317023 0.447949 0)
(-0.269041 0.198591 0)
(-0.384481 -0.0722584 0)
(-0.38981 -0.134606 0)
(-0.202707 0.0716297 0)
(-0.00354234 0.146892 0)
(0.0901351 0.0757732 0)
(0.22521 -0.594226 0)
(-0.045967 -0.369301 0)
(-0.00398854 -0.345509 0)
(-0.0203529 -0.341941 0)
(-0.00697856 -0.324518 0)
(0.0374085 -0.259374 0)
(0.200312 -0.100704 0)
(0.143023 0.0655173 0)
(0.0328083 0.113947 0)
(-0.0458552 0.0944349 0)
(-0.0391203 0.132498 0)
(-0.0235938 0.287109 0)
(0.14485 0.490194 0)
(-0.0908287 0.293669 0)
(-0.213136 -0.094301 0)
(-0.36041 -0.153756 0)
(-0.332721 -0.026892 0)
(-0.109941 0.105802 0)
(0.0646644 0.185302 0)
(-0.0440217 -0.306125 0)
(0.0782279 -0.144374 0)
(-0.553587 -0.144748 0)
(-1.36466 -1.31984 0)
(-1.45413 -1.21657 0)
(-1.53342 -1.12231 0)
(-1.48831 -1.18651 0)
(-1.24166 -0.316843 0)
(-0.0829108 -0.655428 0)
(-0.00974891 -0.764381 0)
(0.0162974 -0.774756 0)
(0.233831 -0.740093 0)
(-0.107855 0.276517 0)
(-0.258497 0.267055 0)
(-0.328995 -0.308582 0)
(-0.339591 -0.473419 0)
(-0.243107 -0.0979574 0)
(-0.524325 -1.04692 0)
(-0.75421 -1.29982 0)
(-0.927233 -1.44987 0)
(-1.2541 -1.37279 0)
(-1.15327 -1.32439 0)
(-1.12829 -1.34201 0)
(-1.33941 -1.72166 0)
(-1.33903 -1.19283 0)
(-1.31176 -1.30345 0)
(-1.24584 -1.4081 0)
(-1.32279 -1.67881 0)
(-1.55564 -1.11404 0)
(-1.51059 -1.10853 0)
(-1.43109 -1.15398 0)
(-1.31184 -1.19162 0)
(-1.55893 -1.10195 0)
(-1.52103 -1.04715 0)
(-1.4947 -1.0438 0)
(-1.36831 -1.08135 0)
(-1.51759 -0.365626 0)
(-1.67763 -1.17792 0)
(-1.59307 -1.28141 0)
(-1.44437 -1.11423 0)
(-1.47542 -0.0714069 0)
(-1.25084 0.276685 0)
(-1.30422 0.444839 0)
(-1.39949 0.502152 0)
(-1.6389 -0.149546 0)
(-1.48078 -0.36263 0)
(-1.31433 -0.459704 0)
(-1.14871 -0.521748 0)
(-1.32882 -0.123454 0)
(-1.41407 -0.186142 0)
(-1.4242 -0.418401 0)
(-1.41478 -0.55212 0)
(-0.980758 0.197907 0)
(-1.03981 0.0631264 0)
(-1.04452 -0.219101 0)
(-1.17576 -0.368216 0)
(-0.350764 0.144452 0)
(-0.565162 -0.0295143 0)
(-0.674083 -0.331966 0)
(-0.742801 -0.483772 0)
(0.642893 0.864374 0)
(0.456832 0.62027 0)
(0.387776 0.354485 0)
(0.139782 0.00948246 0)
(1.1183 0.955387 0)
(1.0701 0.789242 0)
(1.0543 0.513217 0)
(0.926276 0.29658 0)
(1.18054 0.849713 0)
(1.1857 0.755877 0)
(1.17945 0.55077 0)
(1.12666 0.414162 0)
(1.08517 0.810517 0)
(1.11417 0.748936 0)
(1.12418 0.598333 0)
(1.08895 0.488443 0)
(0.249863 -0.587369 0)
(-0.0444603 -0.315579 0)
(-0.000471588 -0.331632 0)
(-0.0670177 -0.325637 0)
(-0.0830072 -0.325893 0)
(-0.0749975 -0.275839 0)
(-0.00130311 -0.115512 0)
(0.0965101 0.0983722 0)
(-0.0193128 0.16031 0)
(-0.113073 0.114402 0)
(-0.0758589 0.105404 0)
(-0.0300716 0.201585 0)
(0.166917 0.446421 0)
(0.150875 0.408197 0)
(-0.010989 0.128603 0)
(-0.286281 -0.17326 0)
(-0.342087 0.0263961 0)
(-0.296105 0.115029 0)
(-0.0798059 0.144072 0)
(-0.479631 -0.559123 0)
(-0.123323 -0.464136 0)
(-0.19577 -0.483715 0)
(-0.315396 -0.290855 0)
(-0.315199 -0.233348 0)
(-0.318652 -0.258809 0)
(-0.183379 -0.161674 0)
(-0.0316735 0.0589088 0)
(-0.100926 0.209928 0)
(-0.171451 0.133432 0)
(-0.189673 0.0810894 0)
(-0.102863 0.113126 0)
(0.0635261 0.333706 0)
(0.133613 0.42774 0)
(0.0204241 0.203171 0)
(-0.290823 -0.15635 0)
(-0.393535 -0.3281 0)
(-0.290476 -0.416481 0)
(-0.0993147 -0.486773 0)
(-0.959707 -1.55107 0)
(-0.55778 -0.880478 0)
(-0.511852 -0.650318 0)
(-0.540036 -0.445691 0)
(-0.713354 -0.415251 0)
(-0.807291 -0.522291 0)
(-0.472439 -0.176069 0)
(-0.265315 0.0836445 0)
(-0.224175 0.174117 0)
(-0.275769 0.141381 0)
(-0.273729 0.0349607 0)
(-0.21327 0.0192159 0)
(-0.132878 0.177395 0)
(0.0769387 0.45369 0)
(0.0260697 0.340371 0)
(-0.044698 0.153288 0)
(-0.164171 -0.123295 0)
(-0.194553 -0.339146 0)
(0.0228121 -0.501309 0)
(-1.35067 -1.76132 0)
(-1.03973 -0.606453 0)
(-1.36761 -0.786558 0)
(-1.7285 -1.47792 0)
(-1.38857 -1.37548 0)
(-1.03346 -0.903244 0)
(-0.778344 -0.467867 0)
(-0.49091 -0.0199823 0)
(-0.390912 0.115637 0)
(-0.358973 0.106773 0)
(-0.356161 -0.012291 0)
(-0.317596 -0.0332 0)
(-0.261903 0.0937663 0)
(-0.0910505 0.387463 0)
(-0.0253003 0.34113 0)
(-0.0667389 0.118106 0)
(-0.0680137 -0.162117 0)
(-0.130113 -0.444319 0)
(0.0601264 -0.619776 0)
(-1.34251 -1.83087 0)
(-1.60078 -1.61046 0)
(-1.78194 -1.71269 0)
(-1.62339 -1.82702 0)
(-1.22538 -1.40243 0)
(-0.969569 -0.992195 0)
(-0.85677 -0.636685 0)
(-0.665075 -0.175862 0)
(-0.544709 0.00172278 0)
(-0.459145 0.0223501 0)
(-0.397485 -0.0499942 0)
(-0.386686 -0.0786269 0)
(-0.363909 -0.00411609 0)
(-0.256133 0.262439 0)
(-0.127346 0.292605 0)
(-0.143328 0.111958 0)
(-0.0707319 -0.115077 0)
(-0.0862636 -0.438885 0)
(0.0695445 -0.627585 0)
(-1.44133 -1.70773 0)
(-1.87509 -1.65211 0)
(-1.51603 -1.5733 0)
(-1.12994 -1.4006 0)
(-0.928565 -1.14316 0)
(-0.911493 -0.995137 0)
(-0.896199 -0.757092 0)
(-0.765295 -0.362444 0)
(-0.630332 -0.137449 0)
(-0.527048 -0.100159 0)
(-0.481183 -0.114968 0)
(-0.493494 -0.109865 0)
(-0.558907 0.0253413 0)
(-0.482725 0.218554 0)
(-0.379458 0.224386 0)
(-0.320382 -0.0101156 0)
(-0.0614137 -0.219212 0)
(-0.026751 -0.505248 0)
(0.0635981 -0.622067 0)
(-1.3283 -1.13968 0)
(-1.31291 -1.28966 0)
(-1.08351 -1.15897 0)
(-0.903671 -1.07692 0)
(-0.872703 -1.00588 0)
(-0.915335 -0.956851 0)
(-0.946699 -0.79345 0)
(-0.858067 -0.46506 0)
(-0.738335 -0.261701 0)
(-0.699292 -0.203229 0)
(-0.705339 -0.154206 0)
(-0.788604 -0.0229505 0)
(-0.806704 0.0834918 0)
(-0.702517 0.132582 0)
(-0.526592 0.000384823 0)
(-0.304513 -0.302419 0)
(-0.0752964 -0.373511 0)
(-0.0311694 -0.538017 0)
(0.045791 -0.602941 0)
(-1.37954 -0.986823 0)
(-1.26395 -0.942703 0)
(-0.995529 -0.985357 0)
(-0.897476 -0.983335 0)
(-0.892754 -0.976702 0)
(-0.966075 -0.928645 0)
(-1.01998 -0.773222 0)
(-0.978363 -0.5078 0)
(-0.858439 -0.265507 0)
(-0.81911 -0.182651 0)
(-0.857733 -0.116879 0)
(-0.867097 -0.0486159 0)
(-0.832254 -0.0277333 0)
(-0.664284 -0.0878873 0)
(-0.441909 -0.25348 0)
(-0.297299 -0.422879 0)
(-0.189182 -0.485853 0)
(-0.119897 -0.606162 0)
(0.00123851 -0.618428 0)
(-0.986737 -1.2006 0)
(-0.975838 -1.17252 0)
(-1.07058 -1.16259 0)
(-1.07126 -1.19365 0)
(-1.07169 -1.23046 0)
(-1.07188 -1.00208 0)
(-1.05974 -0.790225 0)
(-1.04857 -0.558045 0)
(-0.913762 -0.263774 0)
(-0.834852 -0.161152 0)
(-0.820308 -0.145249 0)
(-0.776563 -0.168792 0)
(-0.683388 -0.216394 0)
(-0.560531 -0.279107 0)
(-0.451266 -0.347106 0)
(-0.455602 -0.45225 0)
(-0.345243 -0.539007 0)
(-0.205569 -0.703883 0)
(-0.0731958 -0.692001 0)
(-0.972183 -0.606571 0)
(-0.927305 -1.20076 0)
(-1.0568 -1.68397 0)
(-1.34064 -2.00288 0)
(-1.36536 -1.71851 0)
(-1.07827 -1.15853 0)
(-1.06474 -0.930725 0)
(-1.09029 -0.698673 0)
(-1.02935 -0.445247 0)
(-0.860571 -0.232609 0)
(-0.779948 -0.168562 0)
(-0.734863 -0.176458 0)
(-0.696433 -0.250012 0)
(-0.702792 -0.339527 0)
(-0.744458 -0.390835 0)
(-0.70354 -0.500783 0)
(-0.502654 -0.76655 0)
(-0.265414 -0.919765 0)
(-0.124346 -0.882534 0)
(-1.34565 -0.817223 0)
(-1.27452 -0.933566 0)
(-0.952966 -0.793338 0)
(-0.907855 -0.545842 0)
(-0.854768 -0.540192 0)
(-0.975934 -0.901151 0)
(-0.999084 -1.00149 0)
(-1.02509 -0.84804 0)
(-1.10385 -0.587469 0)
(-1.02495 -0.368484 0)
(-0.955352 -0.27536 0)
(-0.925822 -0.245608 0)
(-0.897139 -0.26595 0)
(-0.875226 -0.329515 0)
(-0.855376 -0.459899 0)
(-0.783858 -0.852513 0)
(-0.533193 -1.4203 0)
(-0.345456 -1.51231 0)
(-0.123523 -1.2458 0)
(-1.16008 -0.599124 0)
(-1.19567 -0.7333 0)
(-0.994146 -0.780744 0)
(-0.903794 -0.758632 0)
(-0.789318 -0.732444 0)
(-0.753147 -0.747751 0)
(-0.905756 -0.670144 0)
(-0.930599 -0.890616 0)
(-0.923292 -0.769683 0)
(-0.951561 -0.562204 0)
(-0.959383 -0.403524 0)
(-0.904584 -0.350938 0)
(-0.879882 -0.349922 0)
(-0.877092 -0.417542 0)
(-0.930026 -0.689013 0)
(-1.25015 -2.12967 0)
(-0.996747 -2.80327 0)
(-0.523937 -2.64769 0)
(-0.0939981 -2.09624 0)
(-0.720352 -0.735993 0)
(-0.646345 -0.916475 0)
(-0.47563 -0.705015 0)
(-0.507249 -0.476502 0)
(-0.613262 -0.501269 0)
(-0.750811 -0.612375 0)
(-0.750304 -0.633254 0)
(-0.697694 -0.466925 0)
(-0.722719 -0.650608 0)
(-0.808221 -0.644922 0)
(-0.827784 -0.493889 0)
(-0.85267 -0.391019 0)
(-0.84252 -0.375452 0)
(-0.891919 -0.43169 0)
(-1.36958 -0.845425 0)
(-0.733915 -0.419319 0)
(-0.874378 0.281497 0)
(-0.737149 -0.773117 0)
(0.0346739 -1.38941 0)
(0.0843328 -0.597905 0)
(-0.0851251 -1.0408 0)
(-0.197918 -0.995067 0)
(-0.0946036 -0.613433 0)
(-0.0563735 -0.378902 0)
(-0.308807 -0.404077 0)
(-0.534049 -0.512015 0)
(-0.578834 -0.541617 0)
(-0.503877 -0.442605 0)
(-0.843875 -0.691878 0)
(-0.85822 -0.643917 0)
(-0.918101 -0.523223 0)
(-0.960397 -0.488704 0)
(-1.09129 -0.632642 0)
(-1.90841 -1.37385 0)
(-1.41104 -1.57017 0)
(-1.1574 -1.54089 0)
(-0.448928 -2.20645 0)
(-0.191826 -2.35691 0)
(0.808857 -0.312105 0)
(0.497664 -0.733777 0)
(0.261497 -0.726627 0)
(0.112387 -0.667922 0)
(0.153758 -0.425358 0)
(0.157752 -0.245583 0)
(0.0583876 -0.315416 0)
(-0.0749668 -0.469431 0)
(-0.0440241 -0.454706 0)
(0.130412 -0.169444 0)
(-0.144053 -0.34729 0)
(-0.718316 -0.79658 0)
(-0.86838 -0.989397 0)
(-1.1073 -0.942943 0)
(-1.1116 -0.613564 0)
(-0.934807 -1.22342 0)
(-0.802171 -1.24706 0)
(-0.508527 -2.10878 0)
(-0.325931 -2.47005 0)
(1.03572 -0.0775007 0)
(0.813946 -0.541765 0)
(0.529853 -0.684181 0)
(0.360254 -0.496368 0)
(0.270871 -0.393314 0)
(0.25179 -0.277451 0)
(0.218823 -0.242317 0)
(0.139388 -0.354354 0)
(-0.167584 -0.461911 0)
(-0.432476 -0.26608 0)
(-0.257983 0.11672 0)
(-0.380015 0.361814 0)
(-0.744542 0.258393 0)
(-0.68646 -0.104798 0)
(-0.365021 -0.668971 0)
(-0.582616 -1.00146 0)
(-0.400672 -1.52017 0)
(-0.265246 -2.31657 0)
(-0.145435 -2.80197 0)
(1.09829 0.0711068 0)
(0.945224 -0.385051 0)
(0.679542 -0.443952 0)
(0.482078 -0.427035 0)
(0.375212 -0.291926 0)
(0.30926 -0.220103 0)
(0.227276 -0.170074 0)
(0.173321 -0.0762979 0)
(-0.332682 -0.0641254 0)
(-0.649133 -0.0588559 0)
(-0.63545 0.209295 0)
(-0.511827 0.330877 0)
(-0.495828 0.218731 0)
(-0.240616 -0.344538 0)
(-0.0504189 -0.669804 0)
(0.0318496 -1.20806 0)
(0.277317 -1.75614 0)
(0.115616 -2.27996 0)
(-0.0149392 -2.85786 0)
)
;

boundaryField
{
    leftWall
    {
        type            fixedValue;
        value           nonuniform 0();
    }
    rightWall
    {
        type            fixedValue;
        value           uniform (0 0 0);
    }
    lowerWall
    {
        type            fixedValue;
        value           uniform (0 0 0);
    }
    atmosphere
    {
        type            fluxCorrectedVelocity;
        value           nonuniform 0();
    }
    defaultFaces
    {
        type            empty;
    }
    procBoundary1to0
    {
        type            processor;
        value           nonuniform List<vector> 
26
(
(-0.0477331 0.000855088 0)
(-0.0291527 -0.010143 0)
(-0.0206381 -0.0161088 0)
(-0.0332021 -0.0251776 0)
(-0.0507737 0.00115369 0)
(-0.0328001 0.111291 0)
(-0.0852322 0.038823 0)
(-0.155019 0.08735 0)
(-0.0760213 -0.128436 0)
(0.0412577 -0.154543 0)
(-0.549468 -0.175321 0)
(-1.49988 -0.696852 0)
(-1.66173 -1.1538 0)
(-1.49546 -1.15958 0)
(-1.46881 -1.18293 0)
(-1.18262 -0.0490577 0)
(-1.52062 -0.392927 0)
(-1.52062 -0.392927 0)
(-1.57112 -0.0551144 0)
(-1.02148 -0.00576193 0)
(-0.691913 0.364995 0)
(-0.110945 0.7456 0)
(0.665712 1.12782 0)
(1.069 1.09289 0)
(1.14903 0.961658 0)
(1.03698 0.862949 0)
)
;
    }
    procBoundary1to3
    {
        type            processor;
        value           nonuniform List<vector> 
23
(
(0.810874 0.678367 0)
(0.896092 0.662432 0)
(0.932383 0.554902 0)
(0.981217 0.471128 0)
(1.036 0.11247 0)
(0.896929 -0.20339 0)
(0.699108 -0.303156 0)
(0.530018 -0.266095 0)
(0.435801 -0.239477 0)
(0.370492 -0.15201 0)
(0.331761 -0.0843843 0)
(0.270767 0.0366083 0)
(0.260452 0.204266 0)
(-0.0962149 0.0877307 0)
(-0.227646 0.086428 0)
(-0.170782 0.222763 0)
(0.0390412 0.13313 0)
(0.364713 -0.286154 0)
(0.617665 -0.884573 0)
(0.63899 -1.27011 0)
(0.66191 -1.60451 0)
(0.357429 -1.92495 0)
(0.196111 -2.65245 0)
)
;
    }
}


// ************************************************************************* //
