/*--------------------------------*- C++ -*----------------------------------*\
| =========                 |                                                 |
| \\      /  F ield         | OpenFOAM: The Open Source CFD Toolbox           |
|  \\    /   O peration     | Version:  2.4.0                                 |
|   \\  /    A nd           | Web:      www.OpenFOAM.org                      |
|    \\/     M anipulation  |                                                 |
\*---------------------------------------------------------------------------*/
FoamFile
{
    version     2.0;
    format      ascii;
    class       volScalarField;
    location    "0.9";
    object      alpha.air;
}
// * * * * * * * * * * * * * * * * * * * * * * * * * * * * * * * * * * * * * //

dimensions      [0 0 0 0 0 0 0];

internalField   nonuniform List<scalar> 
2268
(
9.9227e-12
1.12913e-11
6.75713e-12
6.52459e-12
5.51641e-12
3.32041e-12
2.06605e-12
1.54014e-12
1.18904e-12
7.6839e-13
4.43484e-13
3.04746e-13
2.458e-13
1.87049e-13
1.18168e-13
6.83064e-14
4.67657e-14
4.67884e-14
5.92437e-14
6.815e-14
3.72189e-14
1.76122e-14
7.68132e-14
3.82001e-11
4.46148e-11
3.22152e-11
3.28893e-11
2.74716e-11
1.77648e-11
1.16677e-11
8.48246e-12
6.35519e-12
4.2086e-12
2.56526e-12
1.73001e-12
1.3076e-12
9.47951e-13
6.08777e-13
3.83891e-13
2.8289e-13
2.86007e-13
3.73414e-13
4.5824e-13
3.79186e-13
2.74462e-13
6.65233e-13
2.04037e-10
1.73117e-10
1.03731e-10
5.51718e-11
4.05638e-11
2.59753e-11
1.93923e-11
1.80647e-11
1.6336e-11
1.21666e-11
7.96212e-12
5.22336e-12
3.70174e-12
2.63548e-12
1.76662e-12
1.21344e-12
9.95596e-13
1.07138e-12
1.55271e-12
2.17468e-12
2.83846e-12
3.07152e-12
3.41361e-12
9.95494e-11
1.78919e-10
1.78895e-10
1.60242e-10
9.79618e-11
6.87681e-11
5.58489e-11
4.91511e-11
4.01903e-11
2.86104e-11
1.80771e-11
1.13012e-11
8.2011e-12
6.43885e-12
4.90736e-12
3.41005e-12
3.62145e-12
3.96827e-12
5.90123e-12
8.46125e-12
3.44284e-11
4.03571e-11
9.15709e-12
5.90335e-11
7.0647e-11
1.67579e-10
2.03786e-10
1.74379e-10
1.13129e-10
9.15942e-11
7.77099e-11
6.15983e-11
4.82099e-11
3.38578e-11
2.16972e-11
1.96947e-11
1.79321e-11
1.66863e-11
1.85437e-11
4.44421e-11
2.49258e-11
2.58828e-11
3.82439e-10
3.1291e-08
1.28487e-07
1.23143e-08
5.89935e-11
6.93315e-11
1.29935e-10
2.0385e-10
2.01194e-10
1.52028e-10
1.31059e-10
1.40887e-10
1.91774e-10
2.5918e-10
4.43103e-10
5.30119e-10
2.08102e-10
1.92925e-10
3.42637e-10
7.71592e-09
2.87621e-08
1.49901e-08
9.38518e-09
1.58475e-08
1.56029e-06
1.56298e-05
7.39421e-06
5.92331e-11
6.47105e-11
9.46996e-11
1.73282e-10
2.32877e-10
2.67797e-10
4.15797e-10
6.46175e-10
8.16823e-10
9.97868e-10
3.02898e-09
1.20216e-08
1.27921e-08
1.26639e-08
1.31716e-08
1.47563e-07
5.96334e-07
5.87039e-07
3.24047e-07
2.66669e-07
8.12109e-06
0.000100956
0.000119333
5.91831e-11
5.92002e-11
5.97636e-11
9.86297e-11
2.6293e-10
6.02159e-10
8.39595e-10
9.3501e-10
9.34666e-10
7.71811e-10
2.26287e-09
2.76368e-08
9.32816e-08
1.29124e-07
1.17889e-07
2.47575e-07
8.55953e-07
1.82558e-06
1.11013e-06
6.06172e-07
3.59352e-06
2.29676e-05
0.00011066
6.40454e-05
1.88405e-05
2.73004e-05
3.06017e-05
4.23756e-05
4.21781e-05
3.85405e-05
3.87102e-05
3.11183e-05
0.00011366
0.000266272
0.000278187
5.46307e-05
3.32034e-06
1.9663e-06
1.47185e-06
5.60939e-05
2.11335e-05
1.17317e-05
0.00220758
0.000947004
0.000357694
6.51334e-05
3.7288e-05
3.72987e-05
4.38409e-05
0.000287536
0.00193658
0.00317384
0.00317383
0.00317383
0.00241155
0.000895712
0.000172472
1.18335e-05
2.6191e-05
2.8196e-05
1.17285e-05
0.0769082
0.00586707
0.000393697
3.72881e-05
3.72818e-05
3.72875e-05
3.72978e-05
3.73037e-05
3.7318e-05
0.00109712
0.00199004
0.00278192
0.00203915
0.000391357
7.11278e-05
4.92512e-05
1.17024e-05
2.23401e-05
1.16885e-05
0.328486
0.0635057
0.00551545
0.000168605
3.72718e-05
3.72813e-05
3.72871e-05
4.03486e-05
0.00103674
0.00159577
0.00156861
0.00209987
0.00174217
0.000202513
2.07698e-05
1.63978e-05
1.16896e-05
1.16892e-05
1.16872e-05
0.328486
0.0490214
0.000154479
3.72884e-05
3.72818e-05
3.72875e-05
3.72982e-05
4.42557e-05
7.80371e-05
0.000897536
0.000334654
0.000252918
0.000156152
5.76442e-05
5.43478e-05
1.18574e-05
1.16916e-05
1.16896e-05
1.58734e-05
0.312391
0.035904
0.000694082
0.000156701
9.88301e-05
4.08752e-05
6.60904e-05
6.61111e-05
2.81062e-05
0.000108509
3.05225e-05
2.8476e-05
6.35686e-05
0.000430171
0.000528754
0.000168663
1.16918e-05
1.16915e-05
2.28957e-05
0.108557
0.0200667
0.00515764
0.00323717
0.00226974
3.9448e-05
3.93437e-05
3.27178e-05
2.80992e-05
2.81113e-05
2.80981e-05
2.81019e-05
7.27339e-05
0.000832133
0.00167167
0.00233201
0.000360171
1.35656e-05
3.24749e-05
0.0214682
0.0296556
0.00807021
0.00806964
0.00787489
0.000483006
3.85823e-05
3.9251e-05
0.000394321
0.00506607
0.000216114
2.80947e-05
3.41038e-05
0.000510925
0.00263806
0.00315807
0.00316009
0.00102832
0.000462305
1.44172e-08
7.16146e-09
1.23864e-09
1.95413e-10
1.91541e-10
1.91544e-10
2.65237e-10
4.89526e-10
6.56734e-10
7.03904e-10
2.56148e-09
4.44539e-08
1.88579e-07
3.93556e-07
6.32467e-07
8.89194e-07
1.24628e-06
1.82373e-06
1.74609e-06
1.22193e-06
1.51732e-06
5.24318e-06
5.52485e-05
2.75241e-07
1.30105e-07
2.50264e-08
5.38502e-09
9.07508e-10
3.40843e-10
2.74003e-10
3.54055e-10
4.4748e-10
1.01496e-08
1.63722e-08
4.65729e-08
2.98705e-07
1.44971e-06
4.10684e-06
3.72597e-06
3.27757e-06
3.17008e-06
4.67025e-06
3.59933e-05
0.00144204
0.00128183
0.000710345
3.55495e-07
2.58911e-07
2.16574e-07
7.85732e-08
2.05752e-08
1.16815e-08
7.74143e-09
4.13216e-09
1.52826e-08
9.31326e-08
2.63026e-06
3.62548e-05
0.000144366
0.000517215
0.000182032
0.000296423
8.29746e-05
1.69965e-05
2.07499e-05
0.0146815
0.146417
0.161493
0.00445233
3.55387e-07
5.89692e-07
5.8939e-07
5.08551e-07
1.81929e-07
3.65348e-08
9.0852e-09
4.71686e-09
2.18756e-06
1.50241e-05
0.000553595
0.00522526
0.0170801
0.0488525
0.0706677
0.0623828
0.00388791
0.00272438
0.104121
0.400321
0.919478
0.827045
0.195687
1.90416e-06
2.55435e-06
5.32115e-07
3.47458e-07
1.07936e-07
2.77182e-08
1.20441e-08
3.36586e-06
0.000219151
0.000259233
0.00580916
0.0441707
0.0832503
0.0832214
0.0474322
0.0313382
0.0352495
0.174011
0.727018
0.99325
0.995861
0.99106
0.827717
0.000144057
2.2761e-06
2.38591e-07
7.29314e-08
3.74366e-08
3.72264e-08
1.44033e-05
0.000190735
0.000358675
0.000494367
0.00473496
0.0242176
0.0346974
0.0260206
0.0235251
0.0367895
0.328754
0.887458
0.978533
0.995862
0.9958
0.993628
0.981825
0.0205744
0.00487762
0.00015789
0.00243763
0.0419032
0.116785
0.100986
0.00976518
0.00196067
0.00439906
0.0144831
0.013884
0.0101962
0.0101961
0.0327455
0.348891
0.903082
0.995026
0.974151
0.828127
0.739671
0.742179
0.703748
0.140448
0.163128
0.35533
0.639737
0.860815
0.895625
0.765173
0.363845
0.131225
0.0698472
0.0556257
0.0407307
0.0324035
0.0381949
0.286472
0.871398
0.997195
0.999575
0.980421
0.829294
0.639451
0.637743
0.808243
0.605993
0.886221
0.959239
0.993084
0.998626
0.998512
0.986455
0.921855
0.861205
0.845646
0.577361
0.170784
0.0727837
0.152348
0.699749
0.991484
0.99993
0.999674
0.997807
0.999359
0.999528
0.999157
0.999772
0.984184
0.99837
0.999767
0.999991
0.999999
0.999995
0.999807
0.998739
0.998112
0.998957
0.98755
0.874918
0.68067
0.652686
0.905775
0.997969
0.999969
0.999967
0.999962
0.999996
0.999999
1
1
0.999921
0.999997
0.999999
0.999999
0.999999
1
0.999999
0.999997
0.999997
0.999999
0.999927
0.998172
0.99196
0.98603
0.985008
0.996414
0.99996
1
1
1
1
1
1
0.999999
0.999999
0.999999
0.999999
0.999999
1
1
0.999999
0.999999
0.999999
1
0.999994
0.999868
0.99934
0.998437
0.997804
0.999752
0.999999
1
1
1
1
1
0.999999
0.999999
0.999999
0.999999
0.999999
0.999999
1
1
0.999999
0.999999
1
1
0.999999
0.999994
0.999905
0.999594
0.999543
0.999981
1
1
1
1
1
0.999999
0.999999
0.999999
0.999999
0.999999
0.999999
1
1
1
1
1
1
1
1
0.999999
0.999967
0.999784
0.999885
0.999979
0.999998
1
1
1
0.999999
0.999999
0.999999
0.999999
0.999999
0.999999
1
1
1
1
1
1
1
1
1
0.999999
0.99999
0.999935
0.999934
0.99996
0.999992
0.999999
1
0.999999
0.999999
0.999999
0.999999
0.999999
0.999999
1
1
1
1
1
1
1
1
1
1
1
0.999991
0.999975
0.999978
0.999978
0.99998
0.99999
0.999999
0.999999
0.999999
0.999999
0.999999
0.999999
1
1
1
1
1
1
1
1
1
1
1
1
0.999999
0.999998
0.999995
0.999995
0.999992
0.999999
0.999999
0.999999
0.999999
0.999999
0.999999
1
1
1
1
1
1
1
1
1
1
1
1
1
1
1
1
1
0.999999
0.999999
0.999999
0.999999
0.999999
0.999999
1
1
1
1
1
1
1
1
1
1
1
1
1
1
1
1
1
0.999999
0.999999
0.999999
0.999999
0.999999
0.999999
1
1
1
1
1
1
1
1
1
0.999999
0.999999
0.999999
1
1
1
1
1
0.999999
0.999999
0.999999
0.999999
0.999999
1
1
1
1
1
1
1
1
0.999999
0.999999
0.999999
0.999999
0.999999
1
1
1
1
1
0.999999
0.999999
0.999999
0.999999
0.999999
1
1
1
1
1
1
1
1
0.999999
0.999999
0.999999
0.999999
1
1
1
1
1
1
0.999999
0.999999
0.999999
0.999999
1
1
1
1
1
1
1
1
1
0.999999
0.999999
0.999999
0.999999
1
1
1
1
1
1
0.999999
0.999999
0.999999
0.999999
1
1
1
1
1
1
1
1
1
1
0.999999
0.999999
0.999999
0.999999
0.999999
1
1
1
1
0.999999
0.999999
0.999999
1
1
1
1
1
1
1
1
1
1
1
0.999999
0.999999
0.999999
0.999999
0.999999
0.999999
0.999999
0.999999
0.999999
0.999999
0.999999
0.999999
1
1
1
1
1
1
1
1
1
1
1
1
0.999999
0.999999
0.999999
0.999999
0.999999
0.999999
0.999999
0.999999
0.999999
0.999999
0.999999
1
1
1
1
1
1
1
1
1
1
1
1
1
1
0.999999
0.999999
0.999999
0.999999
0.999999
0.999999
0.999999
0.999999
1
1
1
1
1
1
1
1
1
1
1
1
1
1
1
1
0.999999
0.999999
0.999999
0.999999
0.999999
0.999999
0.999999
1
1
1
1
1
1
1
1
1
1
1
1
1
1
1
1
1
0.999999
0.999999
0.999999
0.999999
0.999999
1
1
1
1
1
1
1
1
1
1
1
1
1
1
1
1
1
1
1
0.999999
0.999999
0.999999
0.999999
1
1
1
1
1
1
1
1
1
1
1
1
1
1
1
1
1
1
1
1
0.999999
0.999999
1
1
1
1
1
1
1
1
1
1
1
1
1
1
1
1
1
1
1
1
1
0.999999
0.999999
1
1
1
1
1
1
1
1
1
1
1
1
1
1
1
1
1
1
1
1
1
1
0.999999
1
1
1
1
1
1
1
1
1
1
1
1
1
1
1
1
1
1
1
1
1
1
0.999999
1
1
1
1
1
1
1
1
1
1
1
1
1
1
1
1
1
1
1
1
1
1
0.999999
1
1
1
1
1
1
1
1
1
1
1
1
1
1
1
1
1
1
1
1
1
1
0.999999
1
1
1
1
1
1
1
1
1
1
1
1
1
1
1
1
1
1
1
1
1
1
0.999999
1
1
1
1
1
1
1
1
1
1
1
1
1
1
1
1
1
1
1
1
1
1
0.999999
1
1
1
1
1
1
1
1
1
1
1
1
1
1
1
1
1
1
0.999999
0.999999
1
1
1
1
1
1
1
1
1
1
1
1
1
1
1
1
1
1
1
1
0.999999
0.999999
0.999999
1
1
1
1
1
1
1
1
1
1
1
1
1
1
1
1
1
1
1
0.999999
0.999999
0.999999
0.999999
0.999999
1
0.999999
1
1
1
1
1
1
1
1
1
1
1
1
1
1
1
1
1
0.999999
0.999999
0.999999
0.999999
0.999999
0.999999
0.000926354
0.00521875
0.00507122
0.00507122
0.0240902
0.044527
0.025245
0.00773253
0.0045145
0.00446214
0.00344953
0.000946413
0.00907578
0.0109441
0.0102515
0.00632232
0.462635
0.359582
0.264127
0.0960207
0.860962
0.791429
0.794806
0.720232
0.728917
0.916878
0.986141
0.992388
0.99975
0.999853
0.99999
1
0.99999
1
1
1
1
1
1
1
1
1
1
1
1
1
1
1
1
1
1
1
1
1
1
1
1
1
1
1
0.999998
1
1
1
0.999992
0.999992
0.999992
0.999995
0.999998
0.999994
0.999997
1
1
1
1
1
1
1
1
1
1
1
1
1
1
1
1
0.999999
1
1
0.999999
0.999999
0.999999
0.999999
0.999999
0.999999
0.999999
0.999999
0.999999
0.999999
0.999999
0.999999
0.999999
0.999999
0.999999
0.999998
0.999998
0.999998
0.999998
0.999998
0.999998
0.999998
0.999998
0.999998
0.999998
0.999998
0.999999
0.999998
0.999998
0.999998
0.999999
0.999998
0.999998
0.999998
0.999999
0.999999
0.999998
0.999998
0.999999
0.999999
0.999998
0.999998
0.999999
0.999999
0.999998
0.999998
0.999999
0.999999
0.999998
0.999997
0.999999
0.999999
0.999998
0.999997
0.999999
0.999998
0.999998
0.999997
0.999999
0.999999
0.999998
0.999998
0.999999
0.999998
0.999998
0.999998
0.999999
0.999999
0.999998
0.999998
0.999999
0.999998
0.999997
0.999998
0.999998
0.999998
0.999998
0.999999
0.0120647
0.0296628
0.0108676
0.00896252
0.0105541
0.00337289
3.85846e-05
0.000470017
0.0119484
0.0317118
0.0262798
0.00593223
0.00014538
0.000216237
0.000434181
0.00183018
0.00316037
0.00311242
0.00127683
0.00358203
0.00341811
0.00443425
0.0105723
0.0105724
0.00872239
0.000496294
0.00571624
0.0168146
0.017958
0.0268664
0.0253061
0.00435152
0.000225302
0.000264493
0.00171299
0.0025471
0.000215702
0.000173714
0.0006569
0.000557957
0.000403937
0.000952234
0.00486729
0.00873326
0.0031913
0.00307886
0.00221817
0.00100586
0.00504518
0.0148741
0.0147998
0.000439791
0.000254196
0.000654461
0.000524536
0.000173301
0.000173515
0.00298724
0.000389498
5.34822e-05
5.35003e-05
0.000352757
0.00103623
0.0012967
0.000185537
7.57542e-05
7.23123e-05
0.00104799
0.00828264
0.0147809
0.00159285
0.00011055
6.92719e-05
7.68649e-05
0.000173073
0.000248081
0.0286372
0.00668266
0.000265462
4.72148e-05
4.27515e-05
4.27179e-05
4.41135e-05
3.3114e-05
3.30515e-05
3.32938e-05
0.000304836
0.00252162
0.00580947
0.00161338
3.72787e-05
3.67441e-05
3.83036e-05
0.00035495
0.000461999
0.408043
0.0857883
0.0119952
0.00117522
0.00160775
0.0037748
0.00391724
0.00120663
9.58985e-05
4.08953e-05
3.39016e-05
0.000127722
0.000359483
0.000443096
3.72389e-05
4.20859e-05
0.00126004
0.000639234
0.000850094
0.966789
0.68993
0.171777
0.0177725
0.016553
0.0798204
0.106103
0.0333481
0.00346129
0.000131977
3.09884e-05
2.21449e-05
2.21004e-05
0.000131103
0.00111233
0.00159214
0.0150174
0.0287331
0.0323392
0.999828
0.984893
0.762208
0.223611
0.0571927
0.189899
0.282294
0.281929
0.0787019
0.0076547
0.000582337
6.86295e-05
0.000113412
0.00133185
0.0188603
0.130183
0.234694
0.353503
0.250031
1
0.999788
0.982268
0.751699
0.245017
0.113511
0.114799
0.223701
0.196946
0.0673862
0.00304795
0.00128105
0.0172835
0.107496
0.313154
0.702339
0.93512
0.970056
0.922274
1
1
0.999578
0.971417
0.670402
0.158145
0.0455
0.0172522
0.0173326
0.0119219
0.0123201
0.0809249
0.228901
0.687672
0.977515
0.999906
0.999997
0.999997
0.999991
1
1
0.999999
0.999555
0.97352
0.700679
0.220306
0.0776967
0.0541252
0.05941
0.110917
0.427405
0.921738
0.999587
0.999999
0.999999
0.999998
1
1
1
1
1
1
0.999963
0.994962
0.882356
0.469545
0.245183
0.266985
0.67134
0.975766
0.999984
0.999999
0.999998
0.99999
0.99998
0.999988
1
0.999999
0.999999
1
1
1
0.999996
0.998788
0.972148
0.89905
0.895595
0.993164
0.999997
1
0.999999
0.999986
0.999978
0.999978
0.999978
0.999997
1
0.999999
0.999999
1
0.999999
0.999999
0.999967
0.999787
0.99968
0.999812
0.999987
1
1
1
0.999995
0.999986
0.99998
0.999978
0.999997
1
0.999999
0.999999
0.999999
0.999999
0.999999
0.999999
1
1
1
1
1
1
1
1
1
0.999998
0.999996
0.999999
1
1
0.999999
0.999999
0.999999
0.999999
0.999999
0.999999
1
1
1
1
1
1
1
1
1
1
1
1
0.999999
0.999999
0.999999
0.999999
0.999999
0.999999
0.999999
1
1
1
1
1
1
1
1
1
1
1
1
0.999999
0.999999
0.999999
0.999999
0.999999
0.999999
0.999999
0.999999
1
1
1
1
1
1
1
1
0.999999
0.999997
0.999999
0.999999
0.999999
0.999999
0.999999
0.999998
0.999998
0.999998
0.999998
0.999999
0.999999
0.999999
1
1
1
1
1
0.999995
0.999995
1
1
0.999999
0.999999
0.999999
0.999998
0.999998
0.999998
0.999998
0.999998
0.999999
0.999999
0.999999
1
1
1
0.999999
0.999995
0.999996
1
0.999999
0.999999
0.999999
0.999999
0.999998
0.999998
0.999998
0.999998
0.999998
0.999999
0.999999
0.999999
1
1
1
0.999998
0.999995
1
0.999999
0.999999
0.999999
0.999999
0.999998
0.999998
0.999998
0.999998
0.999998
0.999998
0.999999
0.999999
0.999999
1
1
1
1
0.999997
1
0.999999
0.999999
0.999999
0.999999
0.999998
0.999998
0.999998
0.999998
0.999998
0.999999
0.999999
0.999999
1
1
1
1
1
1
1
0.999999
0.999999
0.999999
0.999998
0.999998
0.999998
0.999998
0.999998
0.999998
0.999999
0.999999
1
1
1
1
1
1
1
1
0.999999
0.999999
0.999998
0.999998
0.999998
0.999998
0.999998
0.999998
0.999999
0.999999
0.999999
1
1
1
1
1
1
1
1
0.999998
0.999998
0.999998
0.999998
0.999997
0.999997
0.999998
0.999998
0.999999
0.999999
0.999999
1
1
0.999999
0.999991
0.999996
0.999999
0.999999
0.999999
0.999998
0.999998
0.999997
0.999997
0.999997
0.999997
0.999998
0.999998
0.999999
0.999999
0.999999
1
1
0.999999
0.999975
0.999975
0.999983
0.999989
0.999998
0.999998
0.999997
0.999997
0.999997
0.999997
0.999997
0.999998
0.999998
0.999999
0.999999
0.999999
1
1
0.999999
0.999977
0.999966
0.999966
0.999978
0.999998
0.999997
0.999997
0.999997
0.999997
0.999997
0.999997
0.999998
0.999998
0.999999
0.999999
0.999999
1
1
1
0.999999
0.999974
0.999966
0.999993
0.999999
0.999997
0.999997
0.999996
0.999996
0.999997
0.999997
0.999998
0.999999
0.999999
0.999999
0.999999
1
1
1
1
1
0.999998
0.999999
1
0.999997
0.999996
0.999996
0.999997
0.999997
0.999998
0.999998
0.999999
0.999999
0.999999
0.999999
1
1
1
1
1
0.999999
1
1
0.999997
0.999996
0.999996
0.999997
0.999997
0.999998
0.999998
0.999999
0.999999
0.999999
0.999999
1
1
1
1
1
1
1
1
0.999997
0.999996
0.999997
0.999997
0.999998
0.999998
0.999999
0.999999
0.999999
0.999999
1
1
1
1
1
0.999999
1
1
1
0.999997
0.999997
0.999997
0.999998
0.999998
0.999999
0.999999
0.999999
0.999999
0.999999
1
1
1
1
0.999999
0.999998
1
1
1
0.999997
0.999997
0.999997
0.999998
0.999998
0.999999
0.999999
0.999999
0.999999
0.999999
1
1
1
1
0.999998
0.999998
1
1
1
0.999997
0.999997
0.999998
0.999998
0.999999
0.999999
0.999999
0.999999
0.999999
0.999999
1
1
1
1
0.999999
1
1
1
1
0.999997
0.999998
0.999998
0.999999
0.999999
0.999999
0.999999
0.999999
0.999999
0.999999
1
1
1
1
1
1
1
1
1
0.999998
0.999998
0.999999
0.999999
0.999999
0.999999
0.999999
0.999999
0.999999
1
1
1
1
1
1
1
1
1
1
0.999998
0.999999
0.999999
0.999999
0.999999
0.999999
0.999999
0.999999
0.999999
1
1
1
1
1
1
1
1
1
1
0.999998
0.999999
0.999999
0.999999
0.999999
0.999999
0.999999
0.999999
1
1
1
1
1
1
1
1
1
1
1
0.999999
0.999999
0.999999
0.999999
0.999999
0.999999
1
1
1
1
1
1
1
1
1
1
1
1
1
0.999999
0.999999
1
1
1
1
1
1
1
1
1
1
1
1
1
1
1
1
1
)
;

boundaryField
{
    leftWall
    {
        type            alphaContactAngle;
        thetaProperties 6 ( ( water mercury ) 90 0 0 0 ( water air ) 90 0 0 0 ( water oil ) 90 0 0 0 ( mercury air ) 90 0 0 0 ( oil mercury ) 90 0 0 0 ( oil air ) 90 0 0 0 );
        value           nonuniform List<scalar> 
50
(
9.9227e-12
3.82001e-11
2.04037e-10
9.95494e-11
5.90335e-11
5.89935e-11
5.92331e-11
5.91831e-11
1.44172e-08
2.75241e-07
3.55495e-07
3.55387e-07
1.90416e-06
0.000144057
0.0205744
0.140448
0.605993
0.984184
0.999921
0.999999
0.999999
0.999999
0.999999
0.999999
0.999999
0.999999
0.999999
0.999999
0.999999
0.999999
0.999999
0.999999
0.999999
0.999999
0.999999
0.999999
0.999999
0.999999
0.999999
1
1
1
1
1
1
1
1
1
1
1
)
;
    }
    rightWall
    {
        type            alphaContactAngle;
        thetaProperties 6 ( ( water mercury ) 90 0 0 0 ( water air ) 90 0 0 0 ( water oil ) 90 0 0 0 ( mercury air ) 90 0 0 0 ( oil mercury ) 90 0 0 0 ( oil air ) 90 0 0 0 );
        value           nonuniform List<scalar> 
50
(
1.17317e-05
1.17285e-05
1.16885e-05
1.16872e-05
1.58734e-05
2.28957e-05
3.24749e-05
0.000462305
0.00127683
0.000173714
0.000173515
0.000248081
0.000461999
0.000850094
0.0323392
0.250031
0.922274
0.999991
1
1
0.999997
0.999997
0.999999
1
1
0.999997
0.999995
0.999996
1
1
1
1
1
0.999999
0.999998
0.999998
0.999999
1
1
1
1
1
1
1
1
1
1
1
1
1
)
;
    }
    lowerWall
    {
        type            alphaContactAngle;
        thetaProperties 6 ( ( water mercury ) 90 0 0 0 ( water air ) 90 0 0 0 ( water oil ) 90 0 0 0 ( mercury air ) 90 0 0 0 ( oil mercury ) 90 0 0 0 ( oil air ) 90 0 0 0 );
        value           nonuniform List<scalar> 
62
(
9.9227e-12
1.12913e-11
6.75713e-12
6.52459e-12
5.51641e-12
3.32041e-12
2.06605e-12
1.54014e-12
1.18904e-12
7.6839e-13
4.43484e-13
3.04746e-13
2.458e-13
1.87049e-13
1.18168e-13
6.83064e-14
4.67657e-14
4.67884e-14
5.92437e-14
6.815e-14
3.72189e-14
1.76122e-14
7.68132e-14
7.68132e-14
6.65233e-13
3.41361e-12
9.15709e-12
1.23143e-08
7.39421e-06
0.000119333
0.00011066
0.000926354
0.00521875
0.00507122
0.00507122
6.40454e-05
0.00220758
0.0769082
0.328486
0.328486
0.312391
0.108557
0.0214682
6.40454e-05
1.88405e-05
2.73004e-05
3.06017e-05
4.23756e-05
4.21781e-05
3.85405e-05
3.87102e-05
3.11183e-05
0.00011366
0.000266272
0.000278187
5.46307e-05
3.32034e-06
1.9663e-06
1.47185e-06
5.60939e-05
2.11335e-05
1.17317e-05
)
;
    }
    atmosphere
    {
        type            inletOutlet;
        inletValue      uniform 1;
        value           nonuniform List<scalar> 
46
(
1
1
1
1
1
1
1
1
1
1
1
1
1
1
1
1
1
0.999999
0.999999
0.999999
0.999999
0.999999
0.999999
0.999998
0.999998
0.999998
1
1
1
1
1
1
1
1
1
1
1
1
1
1
1
1
1
1
1
1
)
;
    }
    defaultFaces
    {
        type            empty;
    }
}


// ************************************************************************* //
