/*--------------------------------*- C++ -*----------------------------------*\
| =========                 |                                                 |
| \\      /  F ield         | OpenFOAM: The Open Source CFD Toolbox           |
|  \\    /   O peration     | Version:  2.4.0                                 |
|   \\  /    A nd           | Web:      www.OpenFOAM.org                      |
|    \\/     M anipulation  |                                                 |
\*---------------------------------------------------------------------------*/
FoamFile
{
    version     2.0;
    format      ascii;
    class       volScalarField;
    location    "0.9";
    object      alphas;
}
// * * * * * * * * * * * * * * * * * * * * * * * * * * * * * * * * * * * * * //

dimensions      [0 0 0 0 0 0 0];

internalField   nonuniform List<scalar> 
2268
(
2
2
2
2
2
2
2
2
2
2
2
2
2
2
2
2
2
2
2
2
2
1.99999
1.99999
1.99994
1.99996
1.99999
2
2
2
2
2
2
2
2
2
2
2
2
2
2
2
2
2
2
1.99999
1.99999
1.7251
1.92635
1.99674
1.99986
1.99998
2
2
2
2
2
2
2
2
2
2
2
2
2
2
2
2
2
1.99999
0.191785
0.58245
1.46014
1.94521
1.9967
1.9997
1.99993
1.99997
1.99998
1.99999
2
2
2
2
2
2
2
2
2
2
2
1.99999
1.99998
0.00160463
0.0280167
0.472462
1.57517
1.95738
1.99628
1.99951
1.99988
1.99991
1.99967
1.99911
1.99871
1.99874
1.99892
1.99931
1.99967
1.99987
1.99994
1.99993
1.99986
1.99952
1.99889
1.99675
1.62777e-05
0.00481512
0.18825
1.06891
1.83004
1.97919
1.99623
1.99543
1.97894
1.9379
1.87949
1.84412
1.846
1.86083
1.89067
1.92471
1.95015
1.96487
1.96652
1.95456
1.91989
1.86483
1.66727
1.48546e-05
0.00103061
0.0706207
0.629355
1.55646
1.89657
1.89287
1.72369
1.42722
1.05567
0.71707
0.532263
0.49134
0.513942
0.612762
0.782582
0.935111
1.05557
1.11089
1.067
0.899658
0.521948
0.119086
1.16125e-05
0.000118787
0.0156789
0.213764
0.715141
1.00859
0.892254
0.525067
0.23751
0.0818387
0.0224917
0.00535969
0.00468301
0.00416803
0.00380412
0.00554302
0.0111282
0.0186324
0.0253195
0.0275858
0.0265989
0.0231091
0.0309317
1.82225
1.58839
1.5796
1.6734
1.80379
1.88377
1.90946
1.91607
1.92054
1.9235
1.92697
1.93083
1.93323
1.93505
1.93621
1.93671
1.93698
1.93692
1.93678
1.19106
0.6019
0.425867
0.422658
0.448443
0.567345
0.68604
0.771428
0.850215
0.91733
1.00613
1.27612
1.55685
1.70532
1.83554
1.92873
1.93645
1.93689
1.93677
0.693426
0.588713
0.507223
0.402035
0.298172
0.2192
0.217976
0.217347
0.217163
0.219954
0.292677
0.802835
1.41345
1.70242
1.85735
1.93036
1.93666
1.93699
1.93674
1.47656
1.04526
0.915189
0.860242
0.737453
0.46586
0.306606
0.291542
0.278117
0.230846
0.276173
0.675295
1.28624
1.59139
1.82885
1.91532
1.93701
1.93701
1.93582
1.52489
1.07745
0.986411
0.983237
0.971446
0.871254
0.425254
0.241487
0.221079
0.222781
0.235894
0.5474
1.03437
1.25478
1.62703
1.90814
1.93627
1.93263
1.92597
1.59666
1.05606
0.990596
0.988934
0.988744
0.983001
0.717673
0.324544
0.253255
0.220298
0.224021
0.455975
0.860171
1.03725
1.18579
1.73716
1.93078
1.92221
1.91345
1.18938
1.02579
1.00394
0.998178
0.995278
0.988553
0.875064
0.338872
0.224018
0.220116
0.226973
0.395382
0.802133
0.962891
0.986272
1.27048
1.8489
1.90944
1.87306
0.975965
1.04761
1.01262
1.01262
1.01203
0.989879
0.940433
0.417326
0.226803
0.242013
0.242127
0.348769
0.741208
0.89612
0.940832
0.98052
1.23842
1.45402
1.45917
5.11098e-06
1.593e-05
0.00257719
0.034614
0.0843346
0.0820632
0.0553867
0.0347785
0.0209176
0.0105773
0.00413237
0.00315502
0.00299699
0.00441725
0.00523075
0.00626892
0.010123
0.0135076
0.0144639
0.0156912
0.0305819
0.0398617
0.0845044
1.68105e-05
2.284e-05
0.000119464
0.00111855
0.0025815
0.00244937
0.00166756
0.00166504
0.00166278
0.00155833
0.00104233
0.00325919
0.0118991
0.0224156
0.0267222
0.0235924
0.0262799
0.0385395
0.0493637
0.122669
0.341969
0.395321
0.366102
0.00716975
0.00318372
0.00160837
0.00130959
0.00116979
0.00124812
0.00128939
0.00126118
0.00111158
0.00136771
0.0179013
0.0911388
0.188729
0.24437
0.221432
0.154667
0.117101
0.135445
0.186167
0.564972
1.16364
1.24795
0.877704
0.270746
0.153114
0.0632948
0.0294926
0.0101567
0.00388811
0.00331508
0.00334453
0.00630054
0.0543001
0.27176
0.530565
0.691288
0.801762
0.755818
0.546938
0.403516
0.621241
1.0157
1.78798
2.83876
2.64967
1.35871
0.73494
0.691308
0.324004
0.122498
0.0431692
0.0305888
0.0392879
0.0799434
0.226613
0.48387
0.818253
0.98393
1.02743
0.952626
0.848793
0.806222
0.851205
1.26632
2.44967
2.98644
2.99168
2.98205
2.65379
0.847471
0.845053
0.600997
0.351291
0.260037
0.269608
0.412605
0.689374
0.830172
0.876211
0.931519
0.971443
0.966294
0.927321
0.921503
0.961593
1.61503
2.77289
2.95675
2.99107
2.99103
2.98665
2.96305
0.908764
0.861674
0.823459
0.739118
0.794477
0.958886
0.973572
0.904138
0.926891
0.934204
0.964495
0.962726
0.951513
0.950649
0.998175
1.66484
2.80372
2.99004
2.94817
2.65244
2.46625
2.47124
2.39472
1.26838
1.28183
1.64166
2.21804
2.70151
2.77729
2.51092
1.7053
1.24215
1.1222
1.0879
1.04324
1.01824
1.0356
1.55534
2.74048
2.99436
2.99915
2.9608
2.65754
2.27412
2.26784
2.61191
2.21171
2.77094
2.91631
2.98551
2.99717
2.99697
2.97272
2.84321
2.72182
2.69077
2.15318
1.33748
1.13935
1.2983
2.39762
2.98293
2.99986
2.99935
2.99561
2.99871
2.99905
2.99831
2.99954
2.96837
2.99673
2.99953
2.99998
3
2.99999
2.99961
2.99748
2.99622
2.99791
2.97508
2.74973
2.36115
2.30517
2.81148
2.99594
2.99994
2.99993
2.99993
2.99999
3
3
3
2.99984
2.99999
3
3
3
3
3
2.99999
2.99999
3
2.99985
2.99634
2.98392
2.97206
2.97001
2.99283
2.99992
3
3
3
3
3
3
3
3
3
3
3
3
3
3
3
3
3
2.99999
2.99974
2.99868
2.99687
2.99561
2.9995
3
3
3
3
3
3
3
3
3
3
3
3
3
3
3
3
3
3
3
2.99999
2.99981
2.99919
2.99908
2.99996
3
3
3
3
3
3
3
3
3
3
3
3
3
3
3
3
3
3
3
3
2.99993
2.99957
2.99977
2.99996
3
3
3
3
3
3
3
3
3
3
3
3
3
3
3
3
3
3
3
3
2.99998
2.99987
2.99987
2.99992
2.99998
3
3
3
3
3
3
3
3
3
3
3
3
3
3
3
3
3
3
3
2.99998
2.99995
2.99996
2.99996
2.99996
2.99998
3
3
3
3
3
3
3
3
3
3
3
3
3
3
3
3
3
3
3
3
2.99999
2.99999
2.99999
3
3
3
3
3
3
3
3
3
3
3
3
3
3
3
3
3
3
3
3
3
3
3
3
3
3
3
3
3
3
3
3
3
3
3
3
3
3
3
3
3
3
3
3
3
3
3
3
3
3
3
3
3
3
3
3
3
3
3
3
3
3
3
3
3
3
3
3
3
3
3
3
3
3
3
3
3
3
3
3
3
3
3
3
3
3
3
3
3
3
3
3
3
3
3
3
3
3
3
3
3
3
3
3
3
3
3
3
3
3
3
3
3
3
3
3
3
3
3
3
3
3
3
3
3
3
3
3
3
3
3
3
3
3
3
3
3
3
3
3
3
3
3
3
3
3
3
3
3
3
3
3
3
3
3
3
3
3
3
3
3
3
3
3
3
3
3
3
3
3
3
3
3
3
3
3
3
3
3
3
3
3
3
3
3
3
3
3
3
3
3
3
3
3
3
3
3
3
3
3
3
3
3
3
3
3
3
3
3
3
3
3
3
3
3
3
3
3
3
3
3
3
3
3
3
3
3
3
3
3
3
3
3
3
3
3
3
3
3
3
3
3
3
3
3
3
3
3
3
3
3
3
3
3
3
3
3
3
3
3
3
3
3
3
3
3
3
3
3
3
3
3
3
3
3
3
3
3
3
3
3
3
3
3
3
3
3
3
3
3
3
3
3
3
3
3
3
3
3
3
3
3
3
3
3
3
3
3
3
3
3
3
3
3
3
3
3
3
3
3
3
3
3
3
3
3
3
3
3
3
3
3
3
3
3
3
3
3
3
3
3
3
3
3
3
3
3
3
3
3
3
3
3
3
3
3
3
3
3
3
3
3
3
3
3
3
3
3
3
3
3
3
3
3
3
3
3
3
3
3
3
3
3
3
3
3
3
3
3
3
3
3
3
3
3
3
3
3
3
3
3
3
3
3
3
3
3
3
3
3
3
3
3
3
3
3
3
3
3
3
3
3
3
3
3
3
3
3
3
3
3
3
3
3
3
3
3
3
3
3
3
3
3
3
3
3
3
3
3
3
3
3
3
3
3
3
3
3
3
3
3
3
3
3
3
3
3
3
3
3
3
3
3
3
3
3
3
3
3
3
3
3
3
3
3
3
3
3
3
3
3
3
3
3
3
3
3
3
3
3
3
3
3
3
3
3
3
3
3
3
3
3
3
3
3
3
3
3
3
3
3
3
3
3
3
3
3
3
3
3
3
3
3
3
3
3
3
3
3
3
3
3
3
3
3
3
3
3
3
3
3
3
3
3
3
3
3
3
3
3
3
3
3
3
3
3
3
3
3
3
3
3
3
3
3
0.267321
0.59568
0.838111
0.869286
0.71353
1.03931
1.04077
1.00037
0.928505
0.977731
0.980645
0.967913
0.986246
0.997248
0.992347
0.967771
1.91935
1.71004
1.51462
1.17188
2.71931
2.57685
2.58426
2.43645
2.44551
2.83237
2.97226
2.98477
2.99948
2.9997
2.99998
3
2.99998
3
3
3
3
3
3
3
3
3
3
3
3
3
3
3
3
3
3
3
3
3
3
3
3
3
3
3
3
3
3
3
2.99999
2.99999
2.99999
2.99999
3
2.99999
3
3
3
3
3
3
3
3
3
3
3
3
3
3
3
3
3
3
3
3
3
3
3
3
3
3
3
3
3
3
3
3
3
3
3
3
2.99999
2.99999
3
2.99999
2.99999
2.99999
3
2.99999
2.99999
2.99999
3
2.99999
2.99999
2.99999
3
3
2.99999
2.99999
3
3
2.99999
2.99999
3
3
2.99999
2.99999
3
3
2.99999
2.99999
3
3
2.99999
2.99999
3
3
2.99999
2.99999
3
3
2.99999
2.99999
3
3
2.99999
2.99999
3
2.99999
2.99999
2.99999
3
3
2.99999
2.99999
3
2.99999
2.99999
2.99999
2.99999
2.99999
2.99999
3
0.95224
1.05121
1.01628
1.01351
1.01709
0.998525
0.946842
0.548431
0.27148
0.311555
0.297183
0.320379
0.579907
0.79466
0.904543
0.926245
0.857157
0.775878
0.733584
0.987731
0.979996
0.977482
0.994512
1.0037
1.00791
0.954416
0.67884
0.344236
0.273077
0.298792
0.32235
0.440277
0.665292
0.8795
0.924433
0.850113
0.685476
0.586972
0.949849
0.935807
0.927014
0.930078
0.962263
0.985107
0.938591
0.686223
0.403495
0.300885
0.305772
0.333869
0.435483
0.602252
0.824823
0.920714
0.879258
0.651421
0.549406
0.94639
0.928653
0.908807
0.896676
0.900046
0.913062
0.875763
0.683494
0.523789
0.471912
0.462761
0.461309
0.477042
0.629109
0.814297
0.901363
0.844813
0.596084
0.540653
1.02329
0.952348
0.913616
0.88104
0.860409
0.849854
0.819238
0.712108
0.629175
0.605049
0.606288
0.610334
0.597549
0.711599
0.816217
0.811437
0.696875
0.584629
0.567137
1.80911
1.14254
0.949029
0.883835
0.840723
0.817534
0.797218
0.763621
0.750191
0.750911
0.764186
0.765007
0.762871
0.758218
0.747611
0.678774
0.65253
0.664831
0.699514
2.93341
2.37314
1.29457
0.929337
0.868244
0.976068
1.03305
0.876238
0.800838
0.79098
0.775414
0.742038
0.704894
0.679289
0.682147
0.685034
0.746748
0.865351
0.878628
2.99966
2.96951
2.51416
1.38002
0.97783
1.19663
1.38553
1.38488
0.906777
0.717491
0.677146
0.665646
0.666034
0.681485
0.74646
1.09278
1.40264
1.67213
1.46021
3
2.99958
2.9643
2.49339
1.40889
1.05678
0.996049
1.21406
1.13389
0.813739
0.685258
0.696394
0.767742
1.03809
1.57103
2.39936
2.86967
2.93984
2.84397
3
3
2.99916
2.94228
2.32323
1.21036
0.883671
0.799078
0.774457
0.765174
0.784121
0.989241
1.39924
2.37018
2.95499
2.99981
3
3
2.99998
3
3
3
2.99911
2.9466
2.39097
1.38443
1.03714
0.96643
0.982268
1.13323
1.83235
2.84267
2.99918
3
3
3
3
3
3
3
3
3
2.99993
2.98988
2.7631
1.92869
1.4699
1.51211
2.33367
2.95122
2.99997
3
3
2.99998
2.99996
2.99998
3
3
3
3
3
3
2.99999
2.99757
2.94413
2.79765
2.79078
2.98628
2.99999
3
3
2.99997
2.99996
2.99996
2.99996
3
3
3
3
3
3
3
2.99993
2.99957
2.99936
2.99962
2.99997
3
3
3
2.99999
2.99997
2.99996
2.99996
3
3
3
3
3
3
3
3
3
3
3
3
3
3
3
3
3
3
2.99999
3
3
3
3
3
3
3
3
3
3
3
3
3
3
3
3
3
3
3
3
3
3
3
3
3
3
3
3
3
3
3
3
3
3
3
3
3
3
3
3
3
3
3
3
3
3
3
3
3
3
3
3
3
3
3
3
3
3
3
3
3
3
3
3
2.99999
2.99999
3
3
3
3
3
3
3
3
3
2.99999
2.99999
3
3
3
3
3
2.99999
2.99999
2.99999
2.99999
2.99999
3
3
3
3
3
3
3
2.99999
2.99999
3
3
3
3
3
2.99999
2.99999
2.99999
2.99999
2.99999
3
3
3
3
3
3
3
2.99999
3
3
3
3
3
3
2.99999
2.99999
2.99999
2.99999
3
3
3
3
3
3
3
3
2.99999
3
3
3
3
3
3
2.99999
2.99999
2.99999
2.99999
3
3
3
3
3
3
3
3
3
3
3
3
3
3
2.99999
2.99999
2.99999
2.99999
3
3
3
3
3
3
3
3
3
3
3
3
3
3
2.99999
2.99999
2.99999
2.99999
2.99999
3
3
3
3
3
3
3
3
3
3
3
3
2.99999
2.99999
2.99999
2.99999
2.99999
2.99999
2.99999
3
3
3
3
3
3
2.99998
2.99999
3
3
3
2.99999
2.99999
2.99999
2.99999
2.99999
2.99999
2.99999
2.99999
3
3
3
3
3
3
2.99995
2.99995
2.99997
2.99998
3
2.99999
2.99999
2.99999
2.99999
2.99999
2.99999
2.99999
3
3
3
3
3
3
3
2.99996
2.99993
2.99993
2.99996
3
2.99999
2.99999
2.99999
2.99999
2.99999
2.99999
2.99999
3
3
3
3
3
3
3
3
2.99995
2.99993
2.99999
3
2.99999
2.99999
2.99999
2.99999
2.99999
2.99999
2.99999
3
3
3
3
3
3
3
3
3
3
3
3
2.99999
2.99999
2.99999
2.99999
2.99999
2.99999
2.99999
3
3
3
3
3
3
3
3
3
3
3
3
2.99999
2.99999
2.99999
2.99999
2.99999
2.99999
3
3
3
3
3
3
3
3
3
3
3
3
3
2.99999
2.99999
2.99999
2.99999
2.99999
2.99999
3
3
3
3
3
3
3
3
3
3
3
3
3
2.99999
2.99999
2.99999
2.99999
2.99999
3
3
3
3
3
3
3
3
3
3
3
3
3
3
2.99999
2.99999
2.99999
2.99999
3
3
3
3
3
3
3
3
3
3
3
3
3
3
3
2.99999
2.99999
2.99999
3
3
3
3
3
3
3
3
3
3
3
3
3
3
3
3
2.99999
2.99999
3
3
3
3
3
3
3
3
3
3
3
3
3
3
3
3
3
2.99999
2.99999
3
3
3
3
3
3
3
3
3
3
3
3
3
3
3
3
3
2.99999
3
3
3
3
3
3
3
3
3
3
3
3
3
3
3
3
3
3
2.99999
3
3
3
3
3
3
3
3
3
3
3
3
3
3
3
3
3
3
3
3
3
3
3
3
3
3
3
3
3
3
3
3
3
3
3
3
3
3
3
3
3
3
3
3
3
3
3
3
3
3
3
3
3
3
3
3
)
;

boundaryField
{
    leftWall
    {
        type            zeroGradient;
    }
    rightWall
    {
        type            zeroGradient;
    }
    lowerWall
    {
        type            zeroGradient;
    }
    atmosphere
    {
        type            zeroGradient;
    }
    defaultFaces
    {
        type            empty;
    }
}


// ************************************************************************* //
