/*--------------------------------*- C++ -*----------------------------------*\
| =========                 |                                                 |
| \\      /  F ield         | OpenFOAM: The Open Source CFD Toolbox           |
|  \\    /   O peration     | Version:  2.4.0                                 |
|   \\  /    A nd           | Web:      www.OpenFOAM.org                      |
|    \\/     M anipulation  |                                                 |
\*---------------------------------------------------------------------------*/
FoamFile
{
    version     2.0;
    format      ascii;
    class       volScalarField;
    location    "0.9";
    object      alpha.water;
}
// * * * * * * * * * * * * * * * * * * * * * * * * * * * * * * * * * * * * * //

dimensions      [0 0 0 0 0 0 0];

internalField   nonuniform List<scalar> 
2268
(
7.08098e-08
6.59477e-08
2.91929e-08
2.67401e-08
2.24879e-08
1.84093e-08
1.68376e-08
1.72315e-08
1.73289e-08
1.59889e-08
1.46479e-08
1.52188e-08
1.629e-08
1.49238e-08
9.89304e-09
6.71742e-09
5.51933e-09
5.25512e-09
5.45383e-09
5.8069e-09
1.80903e-09
6.462e-10
4.31517e-10
3.08355e-05
2.23658e-05
5.6299e-06
2.33147e-06
1.34948e-06
3.64527e-07
1.20294e-07
8.92999e-08
7.58434e-08
5.88624e-08
5.43607e-08
5.7418e-08
5.96079e-08
4.70175e-08
3.45871e-08
2.73085e-08
2.17786e-08
2.2127e-08
2.62122e-08
2.6011e-08
1.27972e-08
1.7638e-09
1.51043e-09
0.13745
0.0368242
0.00162874
6.75465e-05
7.94763e-06
1.43352e-06
6.9733e-07
8.71479e-07
8.50198e-07
4.59281e-07
3.31019e-07
3.06422e-07
2.64525e-07
1.44757e-07
7.85513e-08
6.35849e-08
6.39788e-08
9.50076e-08
1.18305e-07
1.06317e-07
3.18102e-08
1.15846e-08
6.60971e-09
0.904108
0.708775
0.269931
0.0273974
0.00164899
0.000152275
3.69333e-05
1.73089e-05
8.50687e-06
3.50984e-06
1.5599e-06
1.12736e-06
9.50174e-07
7.25096e-07
3.96844e-07
2.56591e-07
2.49181e-07
3.35178e-07
3.82591e-07
2.99088e-07
2.02891e-07
4.53111e-07
1.54359e-06
0.999198
0.985992
0.763769
0.212417
0.0213075
0.00186201
0.000243959
6.039e-05
4.4764e-05
0.000163345
0.000446132
0.000644182
0.000631176
0.000538355
0.000345994
0.000165812
6.44655e-05
3.09123e-05
3.34696e-05
7.03362e-05
0.000239412
0.000549709
0.00162031
0.999992
0.997592
0.905875
0.465547
0.0849809
0.010407
0.00188375
0.00228289
0.01053
0.0310482
0.0602478
0.0779304
0.076987
0.069565
0.0546435
0.0376274
0.0249137
0.0175531
0.0167326
0.0227101
0.0400436
0.0675608
0.166269
0.999992
0.999485
0.96469
0.685322
0.221771
0.0517168
0.0535653
0.138153
0.286387
0.472157
0.641443
0.733777
0.754119
0.742745
0.693228
0.608222
0.531893
0.471631
0.443985
0.465916
0.549625
0.737461
0.937338
0.999994
0.999941
0.992161
0.893118
0.64243
0.495706
0.553872
0.737465
0.881243
0.959077
0.988735
0.99715
0.997137
0.997135
0.997132
0.995672
0.991781
0.98717
0.983644
0.982537
0.982273
0.979071
0.973507
0.0453821
0.169929
0.175256
0.128876
0.0638745
0.024719
0.0130297
0.0103043
0.0080835
0.0066862
0.0050659
0.00317481
0.00187757
0.000966727
0.000440084
0.0002145
5.62963e-05
6.09787e-05
0.000107475
0.311658
0.556632
0.643173
0.643182
0.626729
0.530626
0.442945
0.40018
0.366958
0.334841
0.304522
0.210005
0.121798
0.0748977
0.0306097
0.00481714
0.00058734
0.000113493
0.000186255
0.474283
0.426415
0.493769
0.59808
0.701935
0.780942
0.782498
0.782849
0.782956
0.783128
0.747138
0.474693
0.170908
0.0530578
0.0179059
0.00399422
0.000442512
0.000105399
0.000232607
0.19462
0.0837041
0.0958993
0.140129
0.262655
0.534246
0.693509
0.708579
0.723999
0.772802
0.751067
0.506887
0.168826
0.0312734
0.00587597
0.00204703
0.000148769
9.92434e-05
0.000315582
0.162114
0.022228
0.0139368
0.0168718
0.0286608
0.128851
0.574855
0.758643
0.779125
0.779127
0.771667
0.521374
0.164144
0.0215946
0.0025186
0.000424539
5.12806e-05
9.93015e-05
0.000329171
0.0312462
0.0163139
0.0108767
0.0114385
0.0115049
0.0171118
0.28249
0.675623
0.746837
0.779965
0.777116
0.562814
0.17283
0.0296004
0.0170607
0.00375935
5.11814e-05
0.000109555
0.000308008
0.0312405
0.014736
0.00643602
0.0083567
0.00932221
0.01157
0.12505
0.661233
0.776077
0.779976
0.77319
0.606885
0.205719
0.0669797
0.0557062
0.0308815
0.00453669
0.000397581
0.000774196
0.0721704
0.011987
0.00355481
0.00355366
0.00374867
0.0111283
0.0596756
0.582792
0.774024
0.768154
0.758355
0.651468
0.259729
0.107295
0.0789064
0.0682892
0.0754512
0.0545448
0.046749
0.999997
0.999992
0.998711
0.982693
0.957833
0.958968
0.972306
0.98261
0.98954
0.994708
0.997867
0.997806
0.997139
0.995636
0.99481
0.993766
0.989912
0.986533
0.985588
0.984382
0.9695
0.960217
0.91911
0.999985
0.999979
0.999918
0.999425
0.9987
0.998766
0.999155
0.999155
0.999155
0.999155
0.999136
0.996783
0.988116
0.977596
0.973292
0.97642
0.97373
0.96147
0.95065
0.877427
0.660956
0.607287
0.635395
0.992831
0.996817
0.998393
0.998762
0.999065
0.999155
0.999155
0.999155
0.999155
0.998739
0.982136
0.908944
0.811565
0.756668
0.778936
0.845929
0.883068
0.864594
0.813898
0.464457
0.129264
0.0750818
0.131223
0.729254
0.846887
0.936706
0.970509
0.989852
0.996134
0.99671
0.996673
0.993714
0.945735
0.729349
0.479887
0.342873
0.295944
0.385519
0.577836
0.604292
0.38427
0.192612
0.0127097
0.000199475
0.00442495
0.0326799
0.265064
0.308697
0.675997
0.877503
0.956831
0.969411
0.960712
0.920063
0.773826
0.516648
0.193366
0.104414
0.139083
0.213844
0.246109
0.25651
0.219359
0.0817616
0.00438595
6.11331e-05
4.06733e-05
7.32885e-05
0.00164569
0.152817
0.154951
0.399003
0.648709
0.739963
0.730392
0.587424
0.311007
0.170546
0.124781
0.0779582
0.0770054
0.103125
0.124756
0.125591
0.112036
0.0425131
0.00202853
0.000313596
0.00065636
0.00057624
0.00061002
0.000599361
0.132384
0.148081
0.176857
0.265757
0.289329
0.274683
0.228398
0.115392
0.0770324
0.0746
0.0644824
0.0650575
0.0688988
0.0697692
0.067346
0.0329611
0.00244891
1.75105e-05
0.000132362
0.00382526
0.0131299
0.0131633
0.0128231
0.0125124
0.0444245
0.0690035
0.0614325
0.0201166
0.0139576
0.019427
0.0223874
0.0202997
0.0174923
0.0233601
0.038236
0.0465763
0.0408021
0.0176194
0.00231644
3.40987e-05
5.52147e-07
4.81683e-05
0.0010552
0.00479439
0.00765346
0.00458932
0.000279672
0.00149862
0.00216409
0.000653613
7.65167e-05
5.88913e-05
0.000191463
0.000497176
0.000593578
0.000519974
0.0015472
0.00409481
0.00622351
0.00639978
0.00187887
4.30354e-05
5.29811e-07
5.87305e-07
5.54938e-06
5.14273e-06
5.98559e-06
9.54704e-06
2.26794e-06
1.06323e-06
4.65929e-06
5.99711e-06
5.23161e-07
1.62325e-08
2.3806e-08
2.57116e-07
1.15413e-06
1.31194e-06
9.46191e-07
1.80796e-05
0.000107154
0.000196523
0.000201941
7.5578e-05
3.12127e-06
1.34152e-07
1.29144e-07
1.54056e-07
3.63647e-08
2.77831e-08
2.86969e-08
2.98808e-08
3.8835e-09
4.04561e-09
4.108e-09
3.44243e-09
1.56575e-09
1.27427e-09
1.27334e-09
1.27397e-09
1.27378e-09
1.27213e-09
4.90538e-09
1.89768e-07
1.66448e-06
3.21186e-06
3.27477e-06
3.16115e-06
6.92972e-07
3.81803e-08
1.78815e-08
1.78168e-08
1.8111e-08
2.40443e-08
2.88522e-08
3.88335e-09
3.8833e-09
3.86268e-09
3.83435e-09
1.87038e-09
1.28842e-09
1.2711e-09
1.27107e-09
1.27102e-09
1.27098e-09
1.27092e-09
1.413e-09
1.91597e-09
7.35401e-09
1.74809e-07
1.48007e-06
2.46973e-06
3.85474e-07
7.44688e-08
1.78052e-08
1.80492e-08
2.48269e-08
1.77578e-08
4.41338e-09
4.56858e-09
5.62832e-09
7.4903e-09
2.61793e-09
1.25948e-09
1.45628e-09
1.5409e-09
1.4827e-09
1.5676e-09
1.74774e-09
1.81809e-09
1.29818e-09
1.2915e-09
3.17897e-09
2.91273e-07
1.89422e-06
1.62589e-06
4.15295e-07
9.92611e-08
3.87831e-08
3.9594e-08
2.65227e-08
4.95948e-09
6.06006e-09
6.52718e-09
1.73698e-08
4.93934e-09
1.0029e-09
1.49681e-09
1.91925e-09
1.914e-09
1.92424e-09
2.22381e-09
2.95164e-09
2.81825e-09
1.7734e-09
7.2281e-10
5.20128e-09
3.80752e-07
8.9023e-07
8.5759e-07
7.83157e-07
4.48786e-07
2.45119e-07
1.55906e-07
4.98852e-09
5.74027e-09
8.15324e-09
1.99453e-08
9.35713e-09
9.49917e-10
1.13394e-09
2.23357e-09
2.33363e-09
2.24975e-09
2.45291e-09
3.2391e-09
3.47513e-09
2.61557e-09
1.16013e-09
3.43511e-10
4.52926e-09
1.3125e-07
3.73612e-07
4.66257e-07
4.63224e-07
3.2061e-07
2.04637e-07
5.00863e-09
5.0065e-09
1.87301e-08
2.35796e-08
1.07358e-08
9.75926e-10
6.80985e-10
2.31963e-09
2.63439e-09
2.63158e-09
2.83647e-09
3.46538e-09
3.51942e-09
2.673e-09
1.24467e-09
3.45336e-10
1.05119e-10
4.86784e-09
5.55019e-08
5.7062e-08
1.10858e-07
9.28021e-08
8.52748e-08
6.26929e-09
6.46467e-09
2.7316e-08
2.41453e-08
9.22127e-09
7.50529e-10
3.81572e-10
1.71046e-09
2.53581e-09
2.77107e-09
3.1269e-09
3.4701e-09
3.05517e-09
1.90628e-09
9.91903e-10
1.98462e-10
9.33799e-11
1.47979e-10
7.64976e-10
1.17831e-09
4.69834e-09
5.86999e-09
9.28556e-09
3.52914e-08
3.16792e-08
3.05318e-08
1.81222e-08
4.48165e-09
2.21953e-10
1.80461e-10
5.82066e-10
1.54745e-09
2.13376e-09
2.76264e-09
2.65985e-09
1.93545e-09
1.22881e-09
4.04884e-10
6.16493e-11
5.27629e-11
9.40644e-11
2.78462e-10
5.07254e-10
1.02954e-09
1.93032e-09
2.80511e-09
4.46543e-08
4.23003e-08
2.60486e-08
8.04467e-09
6.66798e-10
2.05048e-11
7.2497e-11
6.94424e-11
4.26981e-10
8.19135e-10
1.39082e-09
1.04674e-09
7.23848e-10
4.25896e-10
9.35054e-11
1.6684e-11
2.00152e-11
6.21124e-11
2.14456e-10
5.05075e-10
9.35946e-10
2.24778e-09
3.55711e-09
3.6602e-08
2.52739e-08
1.10474e-08
1.24008e-09
2.73947e-11
9.21435e-12
1.35536e-11
1.1634e-11
4.8907e-11
1.05414e-10
2.32834e-10
2.92109e-10
1.94121e-10
1.53517e-10
4.13038e-11
1.0261e-11
1.08395e-11
2.63139e-11
1.11518e-10
3.4041e-10
7.26538e-10
1.51193e-09
3.147e-09
1.68597e-08
1.06357e-08
1.46219e-09
4.40054e-11
6.68809e-12
5.06435e-12
6.42739e-12
7.09772e-12
7.64801e-12
1.66942e-11
3.28676e-11
5.95582e-11
6.20354e-11
4.78901e-11
1.6808e-11
6.32185e-12
4.914e-12
1.00777e-11
2.59739e-11
1.31888e-10
3.74423e-10
8.13832e-10
1.59038e-09
2.57121e-09
9.54149e-10
4.38194e-11
5.56974e-12
3.79709e-12
2.63304e-12
3.04471e-12
3.68807e-12
4.47483e-12
7.50264e-12
7.84767e-12
1.62531e-11
2.01492e-11
1.25569e-11
6.38289e-12
2.75593e-12
1.88004e-12
3.40412e-12
9.09363e-12
3.25128e-11
1.10244e-10
3.09616e-10
6.48756e-10
6.71191e-11
1.48445e-11
4.69602e-12
3.06269e-12
1.87262e-12
1.24862e-12
1.34809e-12
1.70332e-12
2.18267e-12
3.15431e-12
3.59515e-12
5.2237e-12
6.80549e-12
4.69151e-12
2.4027e-12
1.02254e-12
6.23002e-13
1.04019e-12
2.81262e-12
9.49887e-12
2.26362e-11
8.5486e-11
2.29403e-10
4.52036e-12
4.01532e-12
2.33301e-12
1.4011e-12
8.26678e-13
5.36834e-13
5.50886e-13
7.09874e-13
9.28561e-13
1.2883e-12
1.4629e-12
1.96473e-12
2.31487e-12
1.61133e-12
8.05166e-13
3.31841e-13
1.8159e-13
2.87154e-13
7.78433e-13
2.30071e-12
6.31596e-12
1.98579e-11
5.82805e-11
2.2522e-12
1.58507e-12
9.77219e-13
5.69983e-13
3.27171e-13
2.09207e-13
2.07025e-13
2.68352e-13
3.52435e-13
4.85924e-13
5.46159e-13
7.11908e-13
7.45807e-13
4.97784e-13
2.41257e-13
9.59098e-14
4.72615e-14
7.09977e-14
1.92196e-13
4.89079e-13
1.41778e-12
5.03163e-12
1.09688e-11
9.1639e-13
6.12299e-13
3.65286e-13
2.07532e-13
1.16474e-13
7.39657e-14
7.14209e-14
9.23674e-14
1.20625e-13
1.65724e-13
1.83948e-13
2.31187e-13
2.20231e-13
1.39433e-13
6.51213e-14
2.49177e-14
1.10791e-14
1.55752e-14
4.19479e-14
9.49401e-14
2.65674e-13
8.97316e-13
1.51531e-12
3.36062e-13
2.12002e-13
1.22412e-13
6.79441e-14
3.74884e-14
2.37809e-14
2.26079e-14
2.90378e-14
3.7471e-14
5.10112e-14
5.56826e-14
6.67109e-14
5.87927e-14
3.53116e-14
1.58719e-14
5.85475e-15
2.36645e-15
3.01353e-15
7.98851e-15
1.65772e-14
4.18611e-14
1.23063e-13
1.66183e-13
1.11632e-13
6.5812e-14
3.69422e-14
2.00947e-14
1.0948e-14
6.96588e-15
6.56672e-15
8.35785e-15
1.06126e-14
1.42309e-14
1.52179e-14
1.72495e-14
1.41938e-14
8.11377e-15
3.51361e-15
1.25249e-15
4.63956e-16
5.13686e-16
1.32194e-15
2.56549e-15
5.66383e-15
1.36451e-14
1.49748e-14
3.35163e-14
1.84572e-14
1.00968e-14
5.39576e-15
2.91246e-15
1.86377e-15
1.75137e-15
2.2068e-15
2.75049e-15
3.61228e-15
3.77148e-15
4.02636e-15
3.11e-15
1.69638e-15
7.08648e-16
2.44768e-16
8.39845e-17
7.78807e-17
1.89854e-16
3.46383e-16
6.64308e-16
1.27666e-15
1.15052e-15
9.11405e-15
4.702e-15
2.51051e-15
1.3207e-15
7.08032e-16
4.56465e-16
4.29307e-16
5.35591e-16
6.54287e-16
8.3767e-16
8.5179e-16
8.55112e-16
6.22511e-16
3.24728e-16
1.31089e-16
4.39176e-17
1.40834e-17
1.05984e-17
2.37298e-17
4.07611e-17
6.84261e-17
1.04123e-16
7.76232e-17
2.25499e-15
1.09338e-15
5.70456e-16
2.95926e-16
1.57866e-16
1.0261e-16
9.68495e-17
1.19676e-16
1.43197e-16
1.78106e-16
1.75956e-16
1.66203e-16
1.14367e-16
5.71382e-17
2.22949e-17
7.24302e-18
2.18763e-18
1.31508e-18
2.60173e-18
4.18797e-18
6.21016e-18
7.55437e-18
4.69808e-18
5.10238e-16
2.33073e-16
1.18932e-16
6.09296e-17
3.23875e-17
2.12293e-17
2.01454e-17
2.46707e-17
2.89064e-17
3.48407e-17
3.3377e-17
2.97165e-17
1.93722e-17
9.27586e-18
3.49564e-18
1.09924e-18
3.14065e-19
1.50808e-19
2.52434e-19
3.78269e-19
4.98763e-19
4.92876e-19
2.57222e-19
1.06147e-16
4.57344e-17
2.28399e-17
1.15703e-17
6.13401e-18
4.05448e-18
3.8727e-18
4.70242e-18
5.39562e-18
6.29093e-18
5.83573e-18
4.9076e-18
3.03627e-18
1.3936e-18
5.06491e-19
1.53701e-19
4.16091e-20
1.61673e-20
2.19057e-20
3.02557e-20
3.55596e-20
2.90243e-20
1.27441e-20
2.04053e-17
8.29411e-18
4.05606e-18
2.03397e-18
1.07612e-18
7.17095e-19
6.89914e-19
8.31014e-19
9.3397e-19
1.05199e-18
9.43762e-19
7.51171e-19
4.4159e-19
1.94186e-19
6.79068e-20
1.98115e-20
5.07966e-21
1.63202e-21
1.7206e-21
2.16178e-21
2.26295e-21
1.54551e-21
5.70596e-22
3.6415e-18
1.39549e-18
6.68542e-19
3.32197e-19
1.75474e-19
1.1785e-19
1.14251e-19
1.36566e-19
1.50374e-19
1.63513e-19
1.41721e-19
1.06973e-19
5.98041e-20
2.51707e-20
8.44334e-21
2.35662e-21
5.70483e-22
1.55232e-22
1.24032e-22
1.39487e-22
1.2955e-22
7.46893e-23
2.31411e-23
6.0589e-19
2.18678e-19
1.0266e-19
5.05929e-20
2.66872e-20
1.80567e-20
1.76429e-20
2.09349e-20
2.25881e-20
2.37093e-20
1.98429e-20
1.42305e-20
7.57258e-21
3.04786e-21
9.7778e-22
2.59807e-22
5.91262e-23
1.38997e-23
8.30303e-24
8.21108e-24
6.74049e-24
3.29961e-24
8.57171e-25
9.43624e-20
3.2041e-20
1.47448e-20
7.21186e-21
3.79887e-21
2.58827e-21
2.54855e-21
3.00247e-21
3.17498e-21
3.21739e-21
2.59907e-21
1.77364e-21
8.99063e-22
3.45709e-22
1.05782e-22
2.66465e-23
5.67953e-24
1.17271e-24
5.24328e-25
4.46266e-25
3.21649e-25
1.34356e-25
2.94239e-26
1.38055e-20
4.40804e-21
1.98848e-21
9.65809e-22
5.0798e-22
3.4839e-22
3.45673e-22
4.04326e-22
4.19066e-22
4.10066e-22
3.19684e-22
2.07925e-22
1.00452e-22
3.68503e-23
1.07225e-23
2.54835e-24
5.06252e-25
9.29135e-26
3.16315e-26
2.27851e-26
1.43502e-26
5.12237e-27
9.84224e-28
1.90356e-21
5.71939e-22
2.53039e-22
1.22054e-22
6.40712e-23
4.4222e-23
4.42088e-23
5.13156e-23
5.20937e-23
4.92102e-23
3.69907e-23
2.29447e-23
1.05599e-23
3.6883e-24
1.01747e-24
2.2725e-25
4.19033e-26
6.88445e-27
1.83066e-27
1.10627e-27
6.0892e-28
1.879e-28
4.3438e-29
2.48495e-22
7.03493e-23
3.05376e-23
1.46217e-23
7.65395e-24
5.31841e-24
5.36207e-24
6.17672e-24
6.13364e-24
5.58674e-24
4.03861e-24
2.38418e-24
1.04082e-24
3.44032e-25
8.92643e-26
1.85784e-26
3.15513e-27
4.65426e-28
1.00697e-28
5.15544e-29
2.48572e-29
6.90035e-30
5.15741e-30
3.08862e-23
8.2687e-24
3.52845e-24
1.67648e-24
8.7436e-25
6.11549e-25
6.21794e-25
7.10114e-25
6.88589e-25
6.03741e-25
4.18546e-25
2.34557e-25
9.67017e-26
3.00483e-26
7.26771e-27
1.39467e-27
2.15679e-28
2.84237e-29
5.1773e-30
2.30292e-30
9.83852e-31
3.01807e-31
1.22324e-30
3.68754e-24
9.36523e-25
3.93334e-25
1.85242e-25
9.62029e-26
6.77337e-26
6.94027e-26
7.83861e-26
7.40448e-26
6.23236e-26
4.12867e-26
2.18802e-26
8.46763e-27
2.45078e-27
5.45453e-28
9.48962e-29
1.30852e-29
1.51337e-30
2.41087e-31
9.8198e-32
3.88544e-32
4.14711e-32
7.22645e-31
0.797263
0.495772
0.239386
0.188172
0.334684
0.0497908
0.00977323
0.0151828
0.0805468
0.0312519
0.0263558
0.0340971
0.031925
0.0246982
0.0282571
0.0450003
0.00592889
0.00915391
0.013677
0.0202218
0.00262019
0.00602945
0.0053699
0.00402917
0.0123702
0.00138691
1.97744e-05
2.59567e-06
1.89794e-05
2.37207e-06
1.11459e-07
3.4134e-08
1.26837e-07
3.91561e-08
3.40022e-08
3.33374e-08
2.85184e-08
3.07956e-08
3.236e-08
3.43824e-08
2.27427e-08
2.30075e-08
2.57494e-08
3.06503e-08
8.80527e-09
8.80591e-09
8.86798e-09
9.0665e-09
2.45442e-08
1.67006e-08
1.10239e-08
9.59848e-09
1.44572e-07
9.49763e-08
4.75812e-08
4.36365e-08
2.18995e-07
2.1897e-07
2.18861e-07
2.18158e-07
1.06851e-07
9.78985e-08
9.73471e-08
7.33673e-08
1.16507e-08
1.66921e-08
1.72793e-08
1.1597e-08
3.85315e-09
3.90779e-09
3.68646e-09
3.68326e-09
4.13692e-09
4.48124e-09
5.20798e-09
5.62935e-09
3.89175e-09
4.64597e-09
5.304e-09
5.80183e-09
2.06761e-09
2.60021e-09
3.07096e-09
3.73783e-09
9.50458e-10
1.24003e-09
1.53316e-09
1.60287e-09
3.37696e-10
4.32911e-10
4.51448e-10
4.38163e-10
8.56645e-11
8.93112e-11
8.45375e-11
7.26013e-11
1.2793e-11
1.27648e-11
1.11291e-11
8.49606e-12
1.56008e-12
1.40611e-12
1.0978e-12
7.39067e-13
1.52725e-13
1.22578e-13
8.46703e-14
5.05153e-14
1.22945e-14
8.74788e-15
5.33861e-15
2.88306e-15
8.42788e-16
5.33021e-16
2.89592e-16
1.44903e-16
5.07848e-17
2.86849e-17
1.4097e-17
6.57566e-18
2.74551e-18
1.38591e-18
6.19002e-19
2.6633e-19
1.33704e-19
5.98055e-20
2.40717e-20
9.39289e-21
5.84031e-21
2.28354e-21
8.17817e-22
2.86759e-22
2.28041e-22
7.68917e-23
2.43787e-23
8.72738e-24
7.99079e-24
2.31918e-24
7.58971e-25
1.10908e-24
2.55144e-25
7.23819e-26
9.64649e-26
6.68683e-25
8.05637e-27
6.91897e-27
4.79459e-26
4.26968e-25
4.76287e-28
2.63055e-27
2.50443e-26
2.4357e-25
1.14676e-28
1.14207e-27
1.19095e-26
1.25269e-25
4.14471e-29
4.65447e-28
5.22826e-27
5.97804e-26
1.497e-29
1.82466e-28
2.23912e-27
2.85499e-26
1.82963e-29
2.71579e-28
4.08884e-27
6.07831e-26
0.0748141
0.00817519
0.00548978
0.00444824
0.00405013
0.00825213
0.0532669
0.452547
0.752456
0.751903
0.755426
0.691557
0.420721
0.206522
0.097015
0.0788153
0.156781
0.255146
0.311805
0.0195364
0.0269496
0.0314995
0.0267174
0.0174891
0.00956629
0.0466028
0.332627
0.689432
0.76288
0.754981
0.728326
0.568604
0.335437
0.121333
0.079574
0.157055
0.322256
0.43353
0.0516106
0.0654615
0.0739463
0.0719587
0.0475402
0.0323891
0.0678181
0.319968
0.60098
0.701167
0.704359
0.695935
0.594257
0.398845
0.176448
0.0824859
0.124946
0.354913
0.469616
0.0597209
0.0722651
0.0914438
0.103569
0.100756
0.0890573
0.126863
0.316911
0.476401
0.528273
0.539377
0.55531
0.552795
0.374873
0.187292
0.101069
0.158522
0.408337
0.470772
0.0340525
0.0611062
0.0870191
0.119171
0.139788
0.150301
0.180892
0.287995
0.370929
0.395071
0.394469
0.394956
0.414953
0.292901
0.185607
0.190308
0.305001
0.418153
0.436213
0.00699268
0.0290648
0.0750317
0.11862
0.162614
0.190123
0.210674
0.238839
0.250077
0.24941
0.236501
0.236225
0.238805
0.243663
0.253376
0.322006
0.350599
0.337028
0.302749
0.000165645
0.00672951
0.0490227
0.106292
0.164997
0.183719
0.17925
0.190569
0.206366
0.209734
0.225295
0.258788
0.295789
0.321516
0.320514
0.318425
0.283479
0.192351
0.186385
1.105e-06
0.000282416
0.0102661
0.0672609
0.136685
0.183371
0.179258
0.179195
0.250973
0.298293
0.324499
0.334893
0.334548
0.32148
0.291473
0.167706
0.066784
0.0348981
0.0398851
3.27906e-08
1.13787e-06
0.000235603
0.0100156
0.0812149
0.170435
0.233849
0.23364
0.260281
0.321369
0.32112
0.3064
0.267041
0.177081
0.0553219
0.00532947
0.000572151
0.000273093
0.000579965
3.28676e-08
3.10975e-08
2.67087e-06
0.000557759
0.0175883
0.106022
0.207536
0.235654
0.260467
0.258843
0.240678
0.172757
0.0586169
0.00517198
4.34076e-05
3.94871e-07
7.22641e-08
7.59182e-08
1.479e-07
3.29687e-08
3.12042e-08
2.54522e-08
3.35098e-06
0.000440286
0.0103993
0.0562282
0.118346
0.141919
0.13665
0.088674
0.0224805
0.000805444
9.16188e-07
6.53481e-09
3.40718e-09
2.58973e-09
1.27102e-09
8.43149e-10
1.07103e-08
1.83205e-08
2.42281e-08
1.67599e-08
2.15727e-07
4.49827e-05
0.00161939
0.0104131
0.0204847
0.0218815
0.00901584
0.000315052
1.87481e-07
4.29998e-09
2.52797e-09
2.6965e-09
5.27523e-09
2.54414e-09
7.85981e-10
1.57262e-08
7.97259e-09
6.21446e-09
5.71893e-09
2.96224e-08
1.05554e-07
1.05087e-05
0.000164898
0.000452018
0.000412918
4.86925e-05
5.85475e-07
1.27552e-08
2.71663e-09
3.04493e-09
1.15739e-08
1.64731e-08
1.14998e-08
1.22427e-09
5.18057e-08
2.34542e-08
5.7944e-09
4.42463e-09
3.55313e-09
3.82713e-08
9.57663e-08
1.72444e-06
2.95752e-06
1.38577e-06
3.1209e-07
1.0777e-07
3.48289e-08
4.7867e-09
4.74536e-09
2.67566e-08
3.13306e-08
1.58268e-08
1.52502e-09
1.45859e-07
4.43213e-08
1.80299e-08
3.7453e-09
2.33449e-09
5.77852e-09
1.95899e-08
4.68902e-08
7.13156e-08
4.63614e-08
6.12878e-08
1.8602e-07
7.11268e-08
1.22289e-08
7.10786e-09
3.13306e-08
3.13154e-08
1.44915e-08
1.50086e-09
7.78985e-08
5.99897e-08
1.99235e-08
5.12462e-09
2.52328e-09
1.41476e-09
9.69798e-09
2.21637e-08
7.57631e-08
3.87636e-08
3.78774e-08
7.50698e-08
1.59453e-08
3.62682e-09
1.42688e-08
3.1309e-08
2.83377e-08
9.94647e-09
1.14088e-09
1.22907e-08
1.44927e-08
9.89144e-09
5.70714e-09
2.55527e-09
1.25214e-09
2.56602e-09
1.99872e-08
4.89421e-08
2.13499e-08
5.65978e-09
1.03184e-08
3.46364e-09
4.31264e-09
2.05801e-08
3.11812e-08
2.2189e-08
6.90458e-09
8.74235e-10
4.67229e-09
6.39869e-09
5.94801e-09
4.24987e-09
2.0654e-09
1.00176e-09
8.26092e-10
2.75469e-09
1.12313e-08
3.00555e-08
2.33413e-08
9.23793e-09
9.09703e-09
1.79283e-08
2.281e-08
2.26196e-08
1.47386e-08
2.82579e-09
7.0458e-10
6.07154e-09
6.20146e-09
5.29311e-09
2.84925e-09
1.23839e-09
5.64132e-10
2.50573e-10
2.91089e-10
2.73017e-09
9.15381e-09
1.749e-08
2.35737e-08
2.38147e-08
2.37006e-08
1.74583e-08
1.10521e-08
3.25043e-09
1.41042e-09
6.76638e-10
5.91215e-09
4.60237e-09
2.77772e-09
1.45019e-09
6.36236e-10
2.40292e-10
8.69893e-11
4.67823e-11
2.87276e-10
1.71837e-09
3.86224e-09
5.25989e-09
6.37279e-09
3.40823e-09
9.39614e-10
1.71538e-09
1.39967e-09
1.26453e-09
6.34027e-10
3.17747e-09
2.0199e-09
1.01537e-09
4.40464e-10
1.64191e-10
5.4401e-11
1.77207e-11
7.72891e-12
1.09896e-11
7.29039e-11
1.83974e-10
2.53269e-10
2.56269e-10
2.89525e-10
4.07473e-10
6.523e-10
9.30144e-10
1.20509e-09
5.45387e-10
1.1952e-09
5.88743e-10
2.41411e-10
8.52821e-11
2.63627e-11
7.50054e-12
2.41226e-12
1.50597e-12
2.38268e-12
5.78277e-12
1.7841e-11
5.10752e-11
1.32508e-10
2.83877e-10
5.40338e-10
8.35236e-10
1.01338e-09
1.14438e-09
4.92848e-10
2.88165e-10
9.39379e-11
3.09591e-11
1.02291e-11
2.9561e-12
8.4471e-13
3.79134e-13
4.96441e-13
1.36706e-12
5.11635e-12
2.03061e-11
6.91957e-11
2.0348e-10
4.19399e-10
8.48818e-10
1.12438e-09
1.33164e-09
1.17504e-09
4.30685e-10
3.63214e-11
1.28995e-11
4.02889e-12
1.12672e-12
3.03681e-13
1.01453e-13
8.93215e-14
2.2939e-13
1.0069e-12
5.40235e-12
2.68036e-11
9.89747e-11
2.92259e-10
6.63683e-10
1.15612e-09
1.42782e-09
1.55224e-09
1.1868e-09
3.50958e-10
3.46658e-12
1.14818e-12
3.29219e-13
8.84628e-14
2.59656e-14
1.42257e-14
2.80562e-14
1.22232e-13
8.10693e-13
5.59148e-12
3.33132e-11
1.33637e-10
3.66448e-10
9.33035e-10
1.48168e-09
1.74338e-09
1.70678e-09
1.02414e-09
2.2786e-10
2.60178e-13
7.81058e-14
2.14385e-14
5.95652e-15
2.32063e-15
2.62252e-15
9.35848e-15
6.74433e-14
6.29485e-13
5.24593e-12
3.48376e-11
1.45997e-10
4.29678e-10
1.24811e-09
2.04439e-09
2.14351e-09
1.7862e-09
8.9822e-10
1.82925e-10
1.58842e-14
4.46241e-15
1.22089e-15
3.88839e-16
2.54638e-16
5.18369e-16
2.92137e-15
3.57322e-14
4.33913e-13
4.19887e-12
3.09298e-11
1.47038e-10
4.87563e-10
1.41037e-09
2.20762e-09
2.23066e-09
1.64032e-09
9.28532e-10
1.61653e-10
8.34494e-16
2.26503e-16
6.4593e-17
2.74698e-17
3.24142e-17
9.72544e-17
8.47839e-16
1.57386e-14
2.47095e-13
2.67867e-12
2.21356e-11
1.22751e-10
4.1401e-10
1.26237e-09
2.16634e-09
2.10215e-09
1.67049e-09
1.02478e-09
1.48468e-10
3.93273e-17
1.04724e-17
3.32332e-18
2.25193e-18
4.34264e-18
1.82562e-17
2.01157e-16
4.44327e-15
9.34519e-14
1.19473e-12
1.12814e-11
6.5581e-11
3.04119e-10
8.71212e-10
1.69485e-09
2.03317e-09
1.8253e-09
9.99352e-10
9.22418e-11
1.66894e-18
4.41474e-19
1.82699e-19
2.45568e-19
8.59892e-19
5.33018e-18
5.17566e-17
7.82782e-16
1.65569e-14
3.41027e-13
3.60983e-12
1.84963e-11
1.13753e-10
6.09952e-10
1.26393e-09
1.5272e-09
1.55046e-09
5.17426e-10
4.80408e-11
6.26139e-20
1.81534e-20
1.77914e-20
7.89897e-20
5.67092e-19
4.6122e-18
3.89305e-17
3.52642e-16
4.33533e-15
8.17743e-14
1.12646e-12
6.25485e-12
2.74069e-11
2.75111e-10
6.58598e-10
9.32004e-10
6.61121e-10
1.58733e-10
2.35409e-11
2.13072e-21
1.50796e-21
8.47103e-21
7.50464e-20
6.9685e-19
6.39092e-18
5.53065e-17
4.31936e-16
3.06086e-15
2.5422e-14
2.95475e-13
1.91748e-12
8.88084e-12
5.6572e-11
2.16364e-10
3.20676e-10
1.74961e-10
3.25176e-11
6.48136e-12
1.26211e-22
7.6661e-22
8.02862e-21
8.57648e-20
8.96464e-19
8.87822e-18
7.95197e-17
6.12748e-16
3.88075e-15
2.00486e-14
9.49079e-14
5.08051e-13
1.85743e-12
6.63809e-12
2.40595e-11
3.54234e-11
2.39606e-11
7.88343e-12
2.03407e-12
5.13613e-23
6.32394e-22
7.78414e-21
9.32314e-20
1.05821e-18
1.09616e-17
9.91864e-17
7.51747e-16
4.58835e-15
2.1899e-14
7.7606e-14
2.42864e-13
6.59741e-13
1.73633e-12
4.04462e-12
6.26041e-12
3.55411e-12
1.20688e-12
5.58087e-13
3.5166e-23
4.99467e-22
6.84823e-21
8.87723e-20
1.05499e-18
1.10723e-17
9.90868e-17
7.33903e-16
4.35156e-15
2.04421e-14
7.06386e-14
2.37225e-13
6.03163e-13
1.08232e-12
1.64953e-12
1.60956e-12
8.00626e-13
3.99114e-13
2.81313e-13
2.22666e-23
3.43631e-22
5.03105e-21
6.76593e-20
8.11789e-19
8.43543e-18
7.39757e-17
5.37376e-16
3.13257e-15
1.47998e-14
5.18896e-14
1.98159e-13
4.51148e-13
6.47828e-13
7.86113e-13
6.24315e-13
3.12993e-13
1.80026e-13
1.70923e-13
1.22907e-23
1.99907e-22
3.02308e-21
4.09291e-20
4.84939e-19
4.92064e-18
4.20236e-17
2.98645e-16
1.7181e-15
8.14276e-15
2.89543e-14
1.09988e-13
2.55108e-13
3.15774e-13
3.55723e-13
2.54896e-13
1.41021e-13
7.97241e-14
1.07185e-13
5.88668e-24
9.93312e-23
1.53336e-21
2.08305e-20
2.44989e-19
2.45339e-18
2.05413e-17
1.41968e-16
7.89893e-16
3.56784e-15
1.24237e-14
3.93753e-14
1.02226e-13
1.11779e-13
1.17233e-13
8.60433e-14
5.47963e-14
3.16277e-14
6.36358e-14
2.52537e-24
4.46914e-23
7.21319e-22
1.02521e-20
1.26531e-19
1.31716e-18
1.10864e-17
7.36502e-17
3.80347e-16
1.51692e-15
4.78093e-15
1.10937e-14
2.70473e-14
2.81991e-14
2.81955e-14
2.22317e-14
1.6353e-14
1.17004e-14
3.43441e-14
1.03564e-24
2.04671e-23
3.76773e-22
6.13766e-21
8.47488e-20
9.25803e-19
7.53284e-18
4.53192e-17
2.06519e-16
6.88055e-16
1.84673e-15
3.2085e-15
6.09456e-15
6.02235e-15
6.04942e-15
5.04255e-15
4.38749e-15
3.93505e-15
1.64014e-14
4.76109e-25
1.28064e-23
2.9445e-22
5.20486e-21
6.97357e-20
6.87593e-19
4.85704e-18
2.48539e-17
9.73107e-17
2.67886e-16
6.25315e-16
8.87843e-16
1.41411e-15
1.34809e-15
1.31589e-15
1.12288e-15
1.08675e-15
1.0849e-15
6.20277e-15
8.13592e-25
1.79749e-23
2.99712e-22
3.76205e-21
3.60659e-20
2.67927e-19
1.55501e-18
6.78503e-18
2.34032e-17
5.518e-17
1.16356e-16
1.44296e-16
2.05853e-16
1.85696e-16
1.70996e-16
1.45145e-16
1.54588e-16
1.6825e-16
1.27403e-15
)
;

boundaryField
{
    leftWall
    {
        type            zeroGradient;
    }
    rightWall
    {
        type            zeroGradient;
    }
    lowerWall
    {
        type            zeroGradient;
    }
    atmosphere
    {
        type            inletOutlet;
        inletValue      uniform 0;
        value           nonuniform List<scalar> 
46
(
3.68754e-24
9.36523e-25
3.93334e-25
1.85242e-25
9.62029e-26
6.77337e-26
6.94027e-26
7.83861e-26
7.40448e-26
6.23236e-26
4.12867e-26
2.18802e-26
8.46763e-27
2.45078e-27
5.45453e-28
9.48962e-29
1.30852e-29
1.51337e-30
2.41087e-31
9.8198e-32
3.88544e-32
4.14711e-32
7.22645e-31
1.82963e-29
2.71579e-28
4.08884e-27
0
0
0
0
0
0
0
0
0
0
0
0
0
0
0
0
0
0
0
0
)
;
    }
    defaultFaces
    {
        type            empty;
    }
}


// ************************************************************************* //
