/*--------------------------------*- C++ -*----------------------------------*\
| =========                 |                                                 |
| \\      /  F ield         | OpenFOAM: The Open Source CFD Toolbox           |
|  \\    /   O peration     | Version:  2.4.0                                 |
|   \\  /    A nd           | Web:      www.OpenFOAM.org                      |
|    \\/     M anipulation  |                                                 |
\*---------------------------------------------------------------------------*/
FoamFile
{
    version     2.0;
    format      ascii;
    class       volScalarField;
    location    "0.9";
    object      alpha.mercury;
}
// * * * * * * * * * * * * * * * * * * * * * * * * * * * * * * * * * * * * * //

dimensions      [0 0 0 0 0 0 0];

internalField   nonuniform List<scalar> 
2268
(
1
1
1
1
1
1
1
1
1
1
1
1
1
1
1
1
1
1
1
0.999999
0.999998
0.999994
0.999992
0.999969
0.999978
0.999994
0.999998
0.999999
1
1
1
1
1
1
1
1
1
1
1
1
1
1
1
0.999998
0.999994
0.999989
0.86255
0.963176
0.998371
0.999932
0.999992
0.999998
0.999999
0.999999
0.999999
0.999999
1
1
1
1
1
1
1
1
1
0.999999
0.999999
0.999996
0.999988
0.0958923
0.291225
0.730069
0.972603
0.998351
0.999848
0.999963
0.999983
0.999991
0.999996
0.999998
0.999999
0.999999
0.999999
0.999999
0.999999
0.999999
0.999999
0.999999
0.999998
0.999997
0.999993
0.999986
0.000802316
0.0140083
0.236231
0.787583
0.978692
0.998138
0.999756
0.999939
0.999955
0.999836
0.999553
0.999354
0.999366
0.999459
0.999651
0.999832
0.999934
0.999968
0.999965
0.999927
0.999756
0.999442
0.99837
8.13875e-06
0.00240756
0.0941249
0.534453
0.915019
0.989593
0.998116
0.997716
0.989466
0.968945
0.93974
0.92205
0.922983
0.930398
0.945311
0.962334
0.975061
0.982428
0.98325
0.977268
0.95993
0.932356
0.833526
7.42719e-06
0.000515305
0.0353104
0.314678
0.778229
0.948283
0.946434
0.861844
0.713606
0.527828
0.358513
0.26604
0.245459
0.256688
0.30599
0.390804
0.467003
0.527197
0.554878
0.532918
0.449268
0.259207
0.0561846
5.80617e-06
5.93932e-05
0.00783945
0.106882
0.35757
0.504294
0.446126
0.262532
0.118753
0.0409156
0.0112263
0.00250993
0.00182012
0.0013026
0.000936234
0.00121463
0.00290754
0.00579842
0.00896125
0.0101217
0.00886507
0.00213394
0.00421762
0.867508
0.758278
0.754796
0.802219
0.867584
0.908404
0.922415
0.926296
0.928559
0.929954
0.931505
0.933451
0.934993
0.93601
0.936648
0.936922
0.936922
0.936933
0.936863
0.498304
0.156637
0.0683248
0.0657099
0.0750974
0.0978957
0.128898
0.171033
0.2133
0.245823
0.304302
0.479779
0.67382
0.778427
0.865804
0.933527
0.93698
0.936947
0.936933
0.0138914
0.00339258
0.00020414
3.95964e-05
3.2629e-05
6.74794e-05
0.000399344
0.000121397
4.39369e-05
0.000887825
0.0358348
0.271964
0.580275
0.754696
0.875117
0.93425
0.937082
0.937052
0.936946
0.0142016
0.00195529
5.68111e-05
3.26286e-05
3.26244e-05
3.13839e-05
4.03522e-05
4.03265e-05
4.203e-05
0.000456994
0.0241027
0.177981
0.451581
0.622256
0.83468
0.917333
0.937132
0.937088
0.93611
0.0300307
0.00163165
3.80952e-05
3.30058e-05
3.1345e-05
2.97904e-05
3.44201e-05
4.14227e-05
4.7669e-05
0.000113552
0.00689081
0.0682679
0.198204
0.276253
0.62944
0.908542
0.936295
0.932706
0.926261
0.00312064
0.000560506
8.34313e-05
5.76433e-05
4.97073e-05
2.96963e-05
3.06111e-05
3.43147e-05
3.63399e-05
4.5924e-05
0.0010759
0.0187312
0.0328716
0.0659924
0.201788
0.740584
0.930809
0.922291
0.913711
0.00350924
0.00039585
5.93847e-05
5.90975e-05
5.94312e-05
4.27485e-05
3.47013e-05
3.90568e-05
3.90506e-05
3.54329e-05
0.000106927
0.00221065
0.00770492
0.0282049
0.038633
0.296693
0.852718
0.909812
0.873764
0.00519757
0.000285565
2.95647e-05
2.95562e-05
2.99267e-05
4.00782e-05
3.11993e-05
3.90508e-05
3.88231e-05
3.48289e-05
4.89062e-05
0.000181108
0.000867108
0.00239181
0.0144605
0.0424917
0.307551
0.506509
0.504991
2.5313e-06
7.9382e-06
0.00128851
0.0173069
0.0421673
0.0410314
0.0276929
0.0173887
0.0104581
0.00528563
0.00199957
0.000960974
0.000135348
5.29035e-05
3.93228e-05
3.28315e-05
3.27914e-05
3.65857e-05
4.85074e-05
7.06212e-05
7.88563e-05
6.82093e-05
0.00350344
8.95157e-07
1.53567e-06
3.76952e-05
0.000543536
0.00128189
0.00121555
0.000822874
0.000820343
0.000818127
0.0007136
0.000178036
4.19435e-05
1.46993e-05
9.00014e-06
6.25813e-06
4.98226e-06
3.6833e-06
3.68399e-06
4.49207e-06
2.40785e-05
4.10285e-05
4.41602e-05
7.63051e-05
5.89191e-08
1.07267e-07
8.09576e-07
7.16656e-05
0.000235034
0.00040335
0.000444654
0.000416437
0.000266802
0.000106516
3.1669e-05
1.07335e-05
5.16037e-06
3.85173e-06
3.96837e-06
4.20305e-06
4.08672e-06
5.63363e-06
2.44285e-05
6.5906e-05
6.57531e-05
4.58729e-05
2.15906e-05
4.51602e-10
1.81357e-09
4.82754e-09
9.19036e-07
8.6466e-06
2.22065e-05
2.49857e-05
1.7166e-05
1.02141e-05
5.17932e-06
1.98081e-06
1.437e-06
1.28899e-06
1.01736e-06
2.23356e-06
9.02107e-06
3.19881e-05
6.25066e-05
6.66816e-05
4.91934e-05
2.91589e-06
6.10454e-06
1.08082e-05
2.91181e-11
3.15238e-11
1.23748e-10
1.31933e-09
3.80425e-08
1.71883e-07
2.09683e-07
1.49179e-07
7.18477e-08
8.54314e-08
6.0338e-07
2.62339e-06
1.17637e-05
2.61783e-05
3.7681e-05
5.43285e-05
6.38938e-05
6.2575e-05
1.76562e-05
5.53682e-07
2.06022e-07
2.03081e-07
8.17206e-07
2.01072e-11
3.01134e-11
4.00217e-11
8.00012e-11
1.2507e-10
2.45091e-10
4.24702e-10
1.74423e-08
4.06922e-07
2.61768e-06
6.80132e-06
1.27404e-05
2.41311e-05
3.52677e-05
4.36252e-05
4.86328e-05
3.15679e-05
4.60492e-06
1.20342e-06
2.04379e-06
2.80728e-06
2.21484e-06
1.51178e-06
1.50578e-11
2.38686e-11
3.05227e-11
2.7371e-11
2.84624e-11
3.64146e-11
7.4332e-10
8.23353e-08
1.40216e-06
5.51744e-06
1.0393e-05
1.45558e-05
1.85971e-05
2.52842e-05
2.907e-05
2.19541e-05
2.64911e-06
8.94423e-08
1.39533e-07
5.4189e-06
3.48497e-05
4.92464e-05
4.83211e-05
1.16271e-11
1.83225e-11
2.51481e-11
1.74688e-11
1.10278e-11
5.58526e-12
3.5326e-10
4.00782e-08
5.33687e-07
2.09387e-06
4.89739e-06
8.89463e-06
1.15266e-05
1.203e-05
9.57626e-06
2.3063e-06
7.51974e-08
1.08466e-09
7.38925e-08
1.83239e-06
7.57023e-06
1.23762e-05
9.09046e-06
8.38219e-12
9.10095e-12
6.47826e-12
4.5812e-12
5.34638e-12
4.56606e-12
4.6928e-11
3.15495e-09
2.88262e-08
1.42472e-07
6.19468e-07
1.33994e-06
1.77555e-06
1.83717e-06
7.69264e-07
6.93931e-08
1.38253e-09
5.25939e-10
1.0559e-08
2.06293e-08
4.74357e-08
8.84387e-08
2.61327e-08
6.37871e-12
5.47736e-12
3.69644e-12
2.63892e-12
2.79274e-12
2.99756e-12
3.34793e-12
3.51795e-11
1.41206e-10
8.70639e-10
1.43098e-08
6.87352e-08
1.15037e-07
1.14182e-07
3.47275e-08
1.15561e-09
1.75422e-10
1.79216e-10
5.53997e-10
3.29724e-10
4.61459e-10
9.76052e-10
1.42178e-09
5.67138e-12
3.92691e-12
2.15925e-12
1.34482e-12
1.59306e-12
2.07534e-12
2.28817e-12
2.30562e-12
2.08817e-12
2.55794e-12
2.30125e-11
3.4871e-10
1.16066e-09
1.53853e-09
1.22118e-09
3.25582e-10
1.39699e-10
1.12291e-10
1.10937e-10
1.49485e-10
4.82954e-10
9.73369e-10
1.23369e-09
5.31294e-12
3.38396e-12
1.58244e-12
7.58064e-13
7.99933e-13
1.30284e-12
1.70611e-12
1.92912e-12
1.93693e-12
1.90656e-12
3.63463e-12
2.04041e-12
4.08252e-12
3.83164e-11
1.94486e-10
3.27172e-10
2.53689e-10
1.2375e-10
1.0828e-10
1.16326e-10
2.25069e-10
4.15282e-10
3.57637e-10
5.18639e-12
3.35627e-12
1.64295e-12
6.2617e-13
3.46114e-13
6.31857e-13
1.08925e-12
1.45317e-12
1.49995e-12
1.35856e-12
1.64032e-12
1.3424e-12
1.68134e-12
4.4681e-12
1.23826e-11
1.66696e-10
2.95032e-10
2.07448e-10
1.2741e-10
1.09278e-10
1.1029e-10
1.13426e-10
9.92581e-11
5.13173e-12
3.51645e-12
1.89251e-12
6.88085e-13
1.85008e-13
2.25564e-13
5.4606e-13
9.77802e-13
1.10057e-12
9.8819e-13
8.63454e-13
7.13658e-13
7.0421e-13
2.04545e-12
2.20091e-12
1.42055e-11
1.48345e-10
2.03857e-10
1.68193e-10
1.37523e-10
1.18013e-10
1.0437e-10
9.62616e-11
4.88049e-12
3.50275e-12
1.99351e-12
7.7051e-13
1.81403e-13
7.68176e-14
2.03605e-13
5.63923e-13
7.59084e-13
7.19272e-13
5.52674e-13
3.89077e-13
3.18697e-13
7.31897e-13
8.84577e-13
2.1085e-12
1.34644e-11
9.41193e-11
1.24433e-10
1.26814e-10
1.183e-10
1.04418e-10
9.85494e-11
4.31103e-12
3.13757e-12
1.77987e-12
7.2326e-13
1.96727e-13
4.49603e-14
6.2159e-14
2.69662e-13
4.81213e-13
4.94295e-13
3.70581e-13
2.33565e-13
1.57112e-13
2.44203e-13
3.84169e-13
8.82528e-13
2.44117e-12
1.03261e-11
3.69651e-11
5.58911e-11
6.78395e-11
7.09527e-11
7.51202e-11
3.41706e-12
2.47912e-12
1.35953e-12
5.56367e-13
1.64397e-13
3.54369e-14
1.95863e-14
1.07179e-13
2.69719e-13
3.04016e-13
2.3089e-13
1.39188e-13
8.07173e-14
8.44909e-14
1.56106e-13
3.99758e-13
1.06968e-12
3.11619e-12
5.82028e-12
1.06355e-11
1.72007e-11
2.23068e-11
2.89631e-11
2.37098e-12
1.70485e-12
8.91782e-13
3.56615e-13
1.07723e-13
2.4117e-14
7.54882e-15
3.7303e-14
1.28618e-13
1.60847e-13
1.2614e-13
7.52415e-14
3.99639e-14
3.09585e-14
5.99244e-14
1.82611e-13
5.56464e-13
1.52504e-12
3.46443e-12
6.41303e-12
1.027e-11
1.42229e-11
1.90958e-11
1.41703e-12
1.00574e-12
4.99672e-13
1.92786e-13
5.78223e-14
1.33319e-14
3.29936e-15
1.20056e-14
5.25864e-14
7.2895e-14
5.97701e-14
3.59076e-14
1.82154e-14
1.15874e-14
2.20307e-14
7.77341e-14
2.71376e-13
8.12764e-13
2.0981e-12
4.4225e-12
7.47579e-12
1.14824e-11
1.70553e-11
7.23613e-13
5.04772e-13
2.38009e-13
8.8437e-14
2.61137e-14
6.12377e-15
1.40115e-15
3.69592e-15
1.90308e-14
2.89288e-14
2.48342e-14
1.51313e-14
7.49401e-15
4.21738e-15
7.68796e-15
2.98543e-14
1.14561e-13
3.75799e-13
1.09764e-12
2.5917e-12
4.78113e-12
8.30973e-12
1.38978e-11
3.17578e-13
2.16723e-13
9.72922e-14
3.49079e-14
1.01197e-14
2.3884e-15
5.34156e-16
1.10331e-15
6.25738e-15
1.02558e-14
9.1324e-15
5.62348e-15
2.73644e-15
1.42536e-15
2.49822e-15
1.03243e-14
4.23552e-14
1.49983e-13
4.85578e-13
1.24509e-12
2.53108e-12
4.91601e-12
8.83141e-12
1.21579e-13
8.05343e-14
3.45868e-14
1.20102e-14
3.40989e-15
8.02499e-16
1.78446e-16
3.1871e-16
1.89506e-15
3.2873e-15
2.9944e-15
1.84675e-15
8.81537e-16
4.34716e-16
7.41914e-16
3.2243e-15
1.40247e-14
5.29966e-14
1.8441e-13
5.04252e-13
1.13002e-12
2.35948e-12
4.28221e-12
4.12369e-14
2.62289e-14
1.08295e-14
3.6476e-15
1.01357e-15
2.36339e-16
5.24565e-17
8.80175e-17
5.30805e-16
9.59317e-16
8.83132e-16
5.41007e-16
2.53018e-16
1.1928e-16
1.99097e-16
9.03682e-16
4.13493e-15
1.64853e-14
6.03692e-14
1.74674e-13
4.23964e-13
9.10308e-13
1.58939e-12
1.2539e-14
7.57115e-15
3.01405e-15
9.85506e-16
2.67767e-16
6.15679e-17
1.36399e-17
2.29148e-17
1.37651e-16
2.5599e-16
2.36056e-16
1.42791e-16
6.53422e-17
2.95584e-17
4.80533e-17
2.26051e-16
1.07889e-15
4.50408e-15
1.71468e-14
5.17596e-14
1.32168e-13
2.80067e-13
4.51315e-13
3.44839e-15
1.95624e-15
7.516e-16
2.38577e-16
6.33091e-17
1.43028e-17
3.1606e-18
5.56082e-18
3.30034e-17
6.25921e-17
5.75354e-17
3.42635e-17
1.53175e-17
6.64716e-18
1.0415e-17
5.04194e-17
2.49328e-16
1.07887e-15
4.21002e-15
1.30436e-14
3.41475e-14
6.88791e-14
9.90851e-14
8.63155e-16
4.5616e-16
1.69069e-16
5.20736e-17
1.34719e-17
2.97986e-18
6.56325e-19
1.24966e-18
7.31471e-18
1.40496e-17
1.28385e-17
7.51439e-18
3.28075e-18
1.3645e-18
2.02675e-18
1.0025e-17
5.10202e-17
2.27044e-16
8.97543e-16
2.81498e-15
7.30243e-15
1.35769e-14
1.71981e-14
1.97578e-16
9.66423e-17
3.45169e-17
1.0311e-17
2.59724e-18
5.60977e-19
1.23168e-19
2.59287e-19
1.49845e-18
2.89995e-18
2.6279e-18
1.50964e-18
6.42955e-19
2.55837e-19
3.56428e-19
1.78755e-18
9.28892e-18
4.2017e-17
1.66085e-16
5.16953e-16
1.29006e-15
2.18219e-15
2.42763e-15
4.15173e-17
1.87031e-17
6.42648e-18
1.86011e-18
4.55501e-19
9.58413e-20
2.09962e-20
4.96468e-20
2.83933e-19
5.51916e-19
4.94935e-19
2.78893e-19
1.15735e-19
4.4033e-20
5.68149e-20
2.85898e-19
1.50578e-18
6.84606e-18
2.68026e-17
8.15064e-17
1.91337e-16
2.902e-16
2.83381e-16
8.03857e-18
3.32366e-18
1.09682e-18
3.07295e-19
7.30549e-20
1.49468e-20
3.27347e-21
8.7795e-21
4.98153e-20
9.70065e-20
8.59338e-20
4.74315e-20
1.9148e-20
6.95823e-21
8.24672e-21
4.13334e-20
2.18809e-19
9.89314e-19
3.78661e-18
1.10637e-17
2.40273e-17
3.25344e-17
2.80073e-17
1.43865e-18
5.44578e-19
1.72294e-19
4.66683e-20
1.07549e-20
2.13551e-21
4.68936e-22
1.43684e-21
8.10581e-21
1.57807e-20
1.37917e-20
7.44367e-21
2.91941e-21
1.01276e-21
1.09665e-21
5.41916e-21
2.85769e-20
1.2718e-19
4.71052e-19
1.30785e-18
2.59975e-18
3.13288e-18
2.39122e-18
2.38779e-19
8.26151e-20
2.50184e-20
6.5444e-21
1.46006e-21
2.80875e-22
6.20707e-23
2.1806e-22
1.22512e-21
2.38128e-21
2.04965e-21
1.07961e-21
4.10504e-22
1.35878e-22
1.3425e-22
6.48664e-22
3.38036e-21
1.4677e-20
5.20929e-20
1.35943e-19
2.45498e-19
2.63667e-19
1.80021e-19
3.68665e-20
1.16476e-20
3.37091e-21
8.50679e-22
1.83503e-22
3.4146e-23
7.62916e-24
3.07698e-23
1.72359e-22
3.3412e-22
2.82774e-22
1.45043e-22
5.33368e-23
1.68346e-23
1.52138e-23
7.13681e-23
3.64509e-22
1.53245e-21
5.17072e-21
1.25888e-20
2.05686e-20
1.97525e-20
1.21681e-20
5.3123e-21
1.53166e-21
4.23015e-22
1.02884e-22
2.14336e-23
3.85244e-24
8.75039e-25
4.048e-24
2.26253e-23
4.37026e-23
3.63095e-23
1.80909e-23
6.41635e-24
1.93008e-24
1.60593e-24
7.27162e-24
3.61252e-23
1.46051e-22
4.65519e-22
1.0516e-21
1.55239e-21
1.34013e-21
7.49706e-22
7.16761e-22
1.8853e-22
4.96265e-23
1.16223e-23
2.33584e-24
4.05027e-25
9.41169e-26
4.98046e-25
2.77903e-24
5.34348e-24
4.35057e-24
2.09984e-24
7.16088e-25
2.05134e-25
1.58857e-25
6.91959e-25
3.32128e-24
1.28294e-23
3.84247e-23
8.02787e-23
1.07199e-22
8.36436e-23
4.25572e-23
9.08444e-23
2.17943e-23
5.46153e-24
1.23068e-24
2.38396e-25
3.98352e-26
9.53777e-27
5.74918e-26
3.20333e-25
6.12682e-25
4.87971e-25
2.27585e-25
7.43922e-26
2.02798e-26
1.4819e-26
6.19654e-26
2.85465e-25
1.0488e-24
2.94336e-24
5.67892e-24
6.87252e-24
4.86612e-24
2.2433e-24
1.08505e-23
2.37435e-24
5.6584e-25
1.22597e-25
2.28688e-26
3.67842e-27
9.14562e-28
6.24658e-27
3.4754e-26
6.60948e-26
5.14187e-26
2.3122e-26
7.2264e-27
1.87471e-27
1.31338e-27
5.26565e-27
2.31445e-26
8.0504e-26
2.11159e-25
3.76592e-25
4.1452e-25
2.66718e-25
1.10934e-25
1.22515e-24
2.44627e-25
5.53912e-26
1.1531e-26
2.06921e-27
3.19974e-28
8.32879e-29
6.40761e-28
3.55983e-27
6.72899e-27
5.10471e-27
2.20767e-27
6.58006e-28
1.62572e-28
1.11477e-28
4.28742e-28
1.78828e-27
5.86681e-27
1.43635e-26
2.36626e-26
2.37117e-26
1.38684e-26
5.31783e-27
1.31157e-25
2.39257e-26
5.14108e-27
1.02725e-27
1.77093e-28
2.62816e-29
7.22915e-30
6.22884e-29
3.45533e-28
6.4881e-28
4.79135e-28
1.98849e-28
5.63885e-29
1.32871e-29
9.11866e-30
3.36536e-29
1.32634e-28
4.09976e-28
9.37594e-28
1.42896e-27
1.30527e-27
6.93021e-28
2.9392e-28
1.33485e-26
2.22967e-27
4.54288e-28
8.69885e-29
1.43771e-29
2.04259e-30
6.00265e-31
5.76107e-30
3.18933e-29
5.94245e-29
4.25861e-29
1.68883e-29
4.53827e-30
1.02263e-30
7.24387e-31
2.57064e-30
9.53037e-30
2.76778e-29
5.9109e-29
8.3583e-29
6.98836e-29
3.46334e-29
3.12629e-29
1.29692e-27
1.98847e-28
3.83501e-29
7.0143e-30
1.10637e-30
1.4967e-31
4.78343e-32
5.10836e-31
2.82027e-30
5.20196e-30
3.59491e-30
1.35e-30
3.40597e-31
7.35329e-32
5.60444e-32
1.91908e-31
6.67167e-31
1.81854e-30
3.62993e-30
4.76584e-30
3.66286e-30
1.96721e-30
6.81654e-30
1.20926e-28
1.70825e-29
3.11819e-30
5.43339e-31
8.14845e-32
1.04478e-32
3.69967e-33
4.36899e-32
2.40233e-31
4.37602e-31
2.89891e-31
1.02216e-31
2.40048e-32
4.99489e-33
4.2458e-33
1.39788e-32
4.53331e-32
1.15601e-31
2.1554e-31
2.63235e-31
1.90265e-31
1.792e-31
1.80882e-30
1.09138e-29
1.42443e-30
2.46074e-31
4.07512e-32
5.79331e-33
7.01707e-34
2.91278e-34
3.67983e-33
1.98605e-32
3.54865e-32
2.23774e-32
7.33672e-33
1.58712e-33
3.23113e-34
3.20564e-34
1.00756e-33
3.02036e-33
7.15233e-33
1.23953e-32
1.41146e-32
1.1566e-32
5.36288e-32
1.074e-30
0.0627309
0.0810135
0.0673532
0.0473146
3.2536e-05
4.72342e-05
4.96289e-05
9.12565e-05
2.1466e-05
5.68714e-05
0.000100395
0.000116127
1.83889e-05
5.67404e-05
9.92383e-05
0.000125605
5.56676e-06
2.4348e-05
4.6638e-05
5.71255e-05
8.39836e-06
1.63626e-05
1.36276e-05
1.01332e-05
4.30851e-05
3.79912e-06
2.5131e-07
1.60792e-07
1.77439e-07
2.02605e-08
7.47997e-09
5.35902e-09
3.75755e-09
2.57289e-09
2.60259e-09
2.38739e-09
1.62065e-09
1.98934e-09
2.14829e-09
2.2758e-09
1.30824e-09
1.38117e-09
1.48178e-09
1.71732e-09
2.10487e-10
2.10857e-10
2.44427e-10
3.37012e-10
9.01145e-11
8.88709e-11
9.05141e-11
9.14138e-11
9.27143e-11
9.03548e-11
8.91718e-11
9.00259e-11
9.631e-11
9.44549e-11
9.30538e-11
9.18014e-11
7.65513e-11
7.80255e-11
7.85638e-11
7.89919e-11
3.45443e-11
3.96624e-11
4.39025e-11
4.75552e-11
2.14856e-11
2.43085e-11
2.75564e-11
3.10834e-11
1.99359e-11
2.30688e-11
2.64122e-11
2.99106e-11
1.69475e-11
2.01971e-11
2.33678e-11
2.62085e-11
1.09709e-11
1.32105e-11
1.51834e-11
1.66877e-11
5.24847e-12
6.18118e-12
6.86355e-12
7.20435e-12
1.87469e-12
2.09921e-12
2.1899e-12
2.13235e-12
5.05046e-13
5.28686e-13
5.09278e-13
4.52207e-13
1.04115e-13
1.00973e-13
8.91715e-14
7.18575e-14
1.68305e-14
1.50565e-14
1.21888e-14
8.96805e-15
2.1986e-15
1.81038e-15
1.34752e-15
9.19753e-16
2.37292e-16
1.80124e-16
1.24083e-16
8.06047e-17
2.16729e-17
1.5235e-17
9.81331e-18
6.23456e-18
1.71356e-18
1.12207e-18
6.87349e-19
4.34583e-19
1.19872e-19
7.35199e-20
4.33332e-20
2.73779e-20
7.54684e-21
4.33525e-21
2.4612e-21
1.54806e-21
4.32405e-22
2.31195e-22
1.25802e-22
8.04067e-23
2.26748e-23
1.11877e-23
6.02034e-24
5.43374e-24
1.0957e-24
5.15315e-25
4.32195e-25
1.56019e-24
5.06419e-26
3.49942e-26
1.32063e-25
1.001e-24
2.97047e-27
8.8092e-27
7.15965e-26
6.36153e-25
4.89172e-28
3.91031e-27
3.73392e-26
3.61986e-25
1.66753e-28
1.70416e-27
1.7716e-26
1.85916e-25
6.18313e-29
6.9313e-28
7.76577e-27
8.86385e-26
2.23145e-29
2.71246e-28
3.32157e-27
4.22863e-26
2.71127e-29
4.01867e-28
6.04375e-27
8.97657e-26
0.0029234
6.22032e-05
3.73442e-05
3.05777e-05
2.83589e-05
3.07562e-05
3.11999e-05
3.76404e-05
3.86171e-05
3.48154e-05
4.92473e-05
7.12093e-05
0.000336748
0.000748789
0.000688265
0.00139824
0.00761484
0.0247975
0.0428336
0.000102368
0.000107851
0.00011141
8.32408e-05
4.38339e-05
2.5726e-05
2.57843e-05
3.45016e-05
3.89262e-05
4.01689e-05
4.01519e-05
6.25605e-05
0.000176784
0.00027681
0.000302602
0.000579849
0.00207262
0.00729914
0.0201529
0.000144764
0.000151292
0.000151298
0.000131356
6.71248e-05
2.86224e-05
2.57629e-05
3.24206e-05
3.8918e-05
4.01663e-05
4.02531e-05
5.47394e-05
0.000138991
0.000216403
0.000761312
0.00188976
0.00315381
0.00598566
0.0186732
0.00013531
0.000137563
0.000142693
0.000136145
9.51519e-05
4.57515e-05
3.20962e-05
3.35552e-05
3.79924e-05
3.9399e-05
4.11148e-05
5.25046e-05
0.000274562
0.000795191
0.00136582
0.00229248
0.00318037
0.00407419
0.0109274
6.69344e-05
8.71228e-05
0.000102951
0.000115628
0.000110817
6.91308e-05
4.1035e-05
3.63363e-05
3.70747e-05
5.18963e-05
0.000146775
0.000245252
0.000882001
0.0012716
0.00174865
0.00167101
0.00179858
0.00207101
0.00242389
1.31219e-05
3.06395e-05
6.86337e-05
0.000102678
0.000120592
0.000106893
5.72673e-05
4.60579e-05
7.5733e-05
0.000238303
0.000618294
0.000975853
0.000955972
0.000993848
0.000912104
0.000695078
0.000608547
0.000579718
0.000561415
3.95579e-07
6.2371e-06
3.89751e-05
8.33481e-05
0.000133361
0.000145619
9.36391e-05
0.000110343
0.000281352
0.000448946
0.000646103
0.000780082
0.000637847
0.000541788
0.00043498
0.00027312
0.000191313
0.000234471
0.000333499
5.00033e-09
1.94355e-07
7.22923e-06
5.4362e-05
0.000127967
0.000198631
0.00019843
0.000219612
0.000345788
0.000474147
0.000479276
0.000400698
0.000353844
0.000300627
0.000211428
0.000116857
3.81125e-05
2.27721e-05
3.49198e-05
2.26198e-09
2.26024e-09
9.71252e-08
6.1135e-06
7.25468e-05
0.000191744
0.000298386
0.000297985
0.000279859
0.000333834
0.000280989
0.000230463
0.000214774
0.000179558
4.17244e-05
5.07289e-06
9.25136e-07
5.6404e-07
1.09669e-06
2.26487e-09
2.25786e-09
2.34588e-09
2.52033e-07
1.04901e-05
8.58609e-05
0.000205402
0.000226693
0.000258201
0.000171819
0.000156987
0.000146908
5.29731e-05
7.59959e-06
4.01649e-07
1.39916e-08
3.50878e-09
3.46918e-09
5.24686e-09
1.96845e-09
2.25559e-09
2.25698e-09
3.42396e-09
2.21944e-07
6.24514e-06
3.89663e-05
8.838e-05
9.72187e-05
9.66237e-05
7.27284e-05
1.95858e-05
1.82875e-06
3.51861e-08
1.73359e-09
1.36693e-09
1.37764e-09
1.28377e-09
1.28371e-09
5.33879e-10
1.3854e-09
2.25849e-09
2.37677e-09
3.45693e-09
5.5097e-08
1.57449e-06
8.7483e-06
1.58051e-05
1.6705e-05
7.77225e-06
7.39861e-07
1.10417e-08
1.44954e-09
1.56496e-09
3.55646e-09
6.01425e-09
3.50354e-09
1.35375e-09
9.6823e-11
1.40635e-10
4.17136e-10
9.44349e-10
3.18608e-09
4.23752e-09
3.86185e-08
3.73029e-07
8.82498e-07
8.66574e-07
1.62879e-07
8.81774e-09
1.6892e-09
1.44656e-09
3.9589e-09
1.04879e-08
1.10172e-08
6.8766e-09
1.76878e-09
9.16695e-11
8.34117e-11
6.6303e-11
6.43639e-11
2.77154e-10
4.78717e-09
4.46521e-09
1.84471e-08
3.56989e-08
2.49139e-08
7.3987e-09
3.03211e-09
1.64112e-09
1.47727e-09
5.60325e-09
1.32404e-08
1.324e-08
7.30733e-09
1.83818e-09
8.97747e-11
8.63424e-11
7.43814e-11
4.9939e-11
3.88467e-11
1.32048e-10
8.26236e-10
8.28557e-09
1.61324e-08
8.73399e-09
3.92933e-09
6.79838e-09
3.3931e-09
1.43167e-09
6.17327e-09
1.32338e-08
1.16637e-08
4.95479e-09
1.78541e-09
7.99959e-11
7.7975e-11
7.14862e-11
4.86495e-11
3.70261e-11
4.1217e-11
1.47517e-10
3.04313e-09
1.93647e-08
8.79634e-09
2.71706e-09
2.99821e-09
1.29142e-09
1.66979e-09
8.08393e-09
1.29598e-08
9.59686e-09
3.79643e-09
1.71878e-09
5.55282e-11
5.98857e-11
5.44749e-11
4.07878e-11
2.93525e-11
3.35745e-11
6.11528e-11
2.22299e-09
1.49267e-08
7.48832e-09
1.70465e-09
1.06748e-09
1.00653e-09
3.19376e-09
8.93134e-09
1.15011e-08
8.07173e-09
3.46536e-09
1.71484e-09
3.98032e-11
4.4991e-11
4.07301e-11
2.89273e-11
2.13659e-11
2.41879e-11
4.92874e-11
9.384e-11
1.64153e-09
1.04862e-08
8.88785e-09
3.53252e-09
3.67216e-09
7.76598e-09
8.9698e-09
8.3702e-09
5.91398e-09
2.84985e-09
1.70851e-09
3.66335e-11
3.67763e-11
2.88514e-11
1.90662e-11
1.36204e-11
1.55025e-11
2.36821e-11
5.01686e-11
5.14934e-10
2.44794e-09
4.96038e-09
7.54536e-09
8.29743e-09
7.85815e-09
6.26358e-09
4.8348e-09
2.74678e-09
2.54529e-09
1.6355e-09
2.86388e-11
2.39302e-11
1.56991e-11
9.41099e-12
6.88842e-12
8.72425e-12
1.44368e-11
2.53683e-11
9.23954e-11
4.98591e-10
1.22068e-09
1.77394e-09
2.21169e-09
1.63816e-09
1.26455e-09
2.08379e-09
2.29382e-09
2.62597e-09
1.48021e-09
1.5978e-11
1.10778e-11
6.27797e-12
3.59292e-12
2.89017e-12
3.89397e-12
6.76631e-12
1.20155e-11
2.09511e-11
5.322e-11
1.15348e-10
2.02073e-10
3.62362e-10
6.48168e-10
1.15032e-09
2.19602e-09
2.5891e-09
3.11471e-09
1.34081e-09
5.9623e-12
3.45521e-12
1.829e-12
1.12187e-12
1.06797e-12
1.53219e-12
2.65958e-12
4.96415e-12
9.88994e-12
2.18594e-11
5.96193e-11
1.58524e-10
4.34671e-10
9.59359e-10
1.95789e-09
3.1794e-09
3.88457e-09
3.39436e-09
1.24993e-09
1.49707e-12
7.83918e-13
4.22407e-13
3.10033e-13
3.54375e-13
5.51568e-13
1.02955e-12
2.17124e-12
5.68816e-12
1.90688e-11
6.96382e-11
2.26484e-10
6.80462e-10
1.42921e-09
3.23157e-09
4.36922e-09
5.25011e-09
3.7583e-09
1.07734e-09
2.68377e-13
1.39871e-13
8.62439e-14
7.89923e-14
1.04104e-13
1.76318e-13
3.68836e-13
9.82087e-13
3.80661e-12
1.85967e-11
8.71795e-11
3.13577e-10
9.71781e-10
2.32516e-09
4.46888e-09
5.65277e-09
5.95733e-09
3.59824e-09
8.68265e-10
3.80847e-14
2.14968e-14
1.64121e-14
1.80464e-14
2.64626e-14
4.89948e-14
1.24277e-13
4.83911e-13
2.82056e-12
1.80927e-11
1.05903e-10
4.22039e-10
1.20539e-09
3.46841e-09
5.95885e-09
7.04178e-09
6.28559e-09
2.64349e-09
5.62875e-10
4.60424e-15
3.05268e-15
2.85833e-15
3.56452e-15
5.68927e-15
1.16806e-14
3.93622e-14
2.5174e-13
1.99287e-12
1.61186e-11
1.11076e-10
4.70062e-10
1.42771e-09
5.38192e-09
9.27131e-09
8.97549e-09
5.83507e-09
2.19418e-09
4.78113e-10
4.9877e-16
4.01124e-16
4.35156e-16
5.95196e-16
1.02274e-15
2.36147e-15
1.1513e-14
1.2698e-13
1.19888e-12
1.25066e-11
1.01761e-10
4.77611e-10
1.70365e-09
6.50472e-09
9.42702e-09
9.12099e-09
4.84187e-09
2.56841e-09
4.6793e-10
4.94585e-17
4.71305e-17
5.66073e-17
8.3426e-17
1.53404e-16
4.18238e-16
3.14718e-15
5.3002e-14
5.7581e-13
7.92947e-12
7.8707e-11
4.10756e-10
1.52159e-09
4.65094e-09
9.42318e-09
8.24e-09
5.96712e-09
3.57771e-09
4.83466e-10
4.461e-18
4.83504e-18
6.26758e-18
9.84011e-18
1.98029e-17
6.88665e-17
6.87008e-16
1.37116e-14
1.87802e-13
3.6052e-12
2.8676e-11
2.18867e-10
1.0995e-09
3.20821e-09
6.90282e-09
8.40382e-09
8.02135e-09
3.78336e-09
2.80809e-10
3.5995e-19
4.32084e-19
6.0124e-19
1.04875e-18
2.71112e-18
1.36036e-17
1.35786e-16
2.18323e-15
4.63079e-14
1.09101e-12
7.83177e-12
5.56963e-11
3.85012e-10
2.43032e-09
5.39876e-09
7.13164e-09
6.76387e-09
1.7927e-09
1.42357e-10
2.5934e-20
3.49049e-20
5.94198e-20
1.76554e-19
9.81054e-19
7.64894e-18
6.98693e-17
7.53293e-16
1.12682e-14
2.50034e-13
2.56466e-12
1.20857e-11
8.86594e-11
1.10277e-09
2.7759e-09
4.10462e-09
2.19597e-09
4.20984e-10
5.98958e-11
1.77525e-21
3.55759e-21
1.51619e-20
1.16167e-19
1.05624e-18
1.0048e-17
9.55147e-17
8.64526e-16
7.39717e-15
7.47508e-14
8.1331e-13
4.19297e-12
2.02918e-11
2.08154e-10
8.26021e-10
1.17436e-09
5.41682e-10
1.02209e-10
2.47336e-11
1.94961e-22
1.24806e-21
1.21156e-20
1.28159e-19
1.37069e-18
1.44582e-17
1.4386e-16
1.27382e-15
9.51498e-15
5.94311e-14
3.41329e-13
1.62828e-12
6.56432e-12
2.10115e-11
8.53449e-11
1.22587e-10
9.88521e-11
3.21154e-11
1.21014e-11
7.96531e-23
9.48509e-22
1.15953e-20
1.40767e-19
1.6643e-18
1.85498e-17
1.85943e-16
1.5982e-15
1.1307e-14
6.4477e-14
2.82042e-13
1.26664e-12
5.71747e-12
1.47579e-11
2.74648e-11
4.23283e-11
3.05976e-11
1.40055e-11
6.06749e-12
5.26692e-23
7.43544e-22
1.02604e-20
1.36204e-19
1.69552e-18
1.9081e-17
1.86941e-16
1.54547e-15
1.04527e-14
5.79339e-14
2.45428e-13
1.48634e-12
6.98796e-12
1.58943e-11
2.50362e-11
2.78469e-11
1.4527e-11
6.61909e-12
2.80277e-12
3.31328e-23
5.11373e-22
7.55828e-21
1.04024e-19
1.29899e-18
1.42999e-17
1.35205e-16
1.07905e-15
7.06939e-15
3.89282e-14
1.65753e-13
1.3447e-12
5.64818e-12
1.16903e-11
1.66219e-11
1.32465e-11
5.21992e-12
2.44873e-12
9.54806e-13
1.82514e-23
2.97253e-22
4.53084e-21
6.2404e-20
7.6103e-19
8.05522e-18
7.28285e-17
5.57578e-16
3.53213e-15
1.91079e-14
8.06939e-14
6.26479e-13
2.66691e-12
4.8148e-12
5.96644e-12
3.67361e-12
1.60431e-12
6.87765e-13
3.03942e-13
8.73201e-24
1.47496e-22
2.28833e-21
3.14118e-20
3.75875e-19
3.86129e-18
3.34961e-17
2.4306e-16
1.44427e-15
7.16938e-15
2.83622e-14
1.36344e-13
6.32455e-13
1.01763e-12
1.02844e-12
6.68575e-13
3.55143e-13
1.39952e-13
1.08221e-13
3.74317e-24
6.62683e-23
1.07216e-21
1.53118e-20
1.90402e-19
2.00353e-18
1.71273e-17
1.16439e-16
6.21699e-16
2.60983e-15
8.85864e-15
2.38444e-14
8.27181e-14
1.07866e-13
1.01013e-13
7.24923e-14
4.56587e-14
2.47099e-14
4.84506e-14
1.53393e-24
3.03051e-23
5.58086e-22
9.10024e-21
1.25875e-19
1.37908e-18
1.12741e-17
6.83346e-17
3.149e-16
1.06656e-15
2.93296e-15
5.30922e-15
1.11459e-14
1.09862e-14
1.06173e-14
8.5182e-15
7.06554e-15
5.90558e-15
2.22589e-14
7.04251e-25
1.89211e-23
4.34779e-22
7.68444e-21
1.03001e-19
1.01661e-18
7.19184e-18
3.68735e-17
1.44753e-16
3.99716e-16
9.36319e-16
1.331e-15
2.1282e-15
2.01642e-15
1.94757e-15
1.65018e-15
1.58466e-15
1.54638e-15
8.3678e-15
1.20069e-24
2.65129e-23
4.41906e-22
5.54533e-21
5.31509e-20
3.94805e-19
2.29136e-18
9.99875e-18
3.44933e-17
8.13371e-17
1.71469e-16
2.12379e-16
3.02329e-16
2.72271e-16
2.5007e-16
2.11837e-16
2.24543e-16
2.39173e-16
1.71706e-15
)
;

boundaryField
{
    leftWall
    {
        type            zeroGradient;
    }
    rightWall
    {
        type            zeroGradient;
    }
    lowerWall
    {
        type            zeroGradient;
    }
    atmosphere
    {
        type            inletOutlet;
        inletValue      uniform 0;
        value           nonuniform List<scalar> 
46
(
1.09138e-29
1.42443e-30
2.46074e-31
4.07512e-32
5.79331e-33
7.01707e-34
2.91278e-34
3.67983e-33
1.98605e-32
3.54865e-32
2.23774e-32
7.33672e-33
1.58712e-33
3.23113e-34
3.20564e-34
1.00756e-33
3.02036e-33
7.15233e-33
1.23953e-32
1.41146e-32
1.1566e-32
5.36288e-32
1.074e-30
2.71127e-29
4.01867e-28
6.04375e-27
0
0
0
0
0
0
0
0
0
0
0
0
0
0
0
0
0
0
0
0
)
;
    }
    defaultFaces
    {
        type            empty;
    }
}


// ************************************************************************* //
