/*--------------------------------*- C++ -*----------------------------------*\
| =========                 |                                                 |
| \\      /  F ield         | OpenFOAM: The Open Source CFD Toolbox           |
|  \\    /   O peration     | Version:  2.4.0                                 |
|   \\  /    A nd           | Web:      www.OpenFOAM.org                      |
|    \\/     M anipulation  |                                                 |
\*---------------------------------------------------------------------------*/
FoamFile
{
    version     2.0;
    format      ascii;
    class       volScalarField;
    location    "0.9";
    object      alpha.oil;
}
// * * * * * * * * * * * * * * * * * * * * * * * * * * * * * * * * * * * * * //

dimensions      [0 0 0 0 0 0 0];

internalField   nonuniform List<scalar> 
2268
(
1.86299e-16
1.03526e-15
5.62497e-15
4.63101e-14
2.65272e-13
1.08815e-12
3.49253e-12
9.46227e-12
2.28423e-11
5.1003e-11
1.06122e-10
2.06499e-10
3.87399e-10
7.70153e-10
1.7019e-09
3.32837e-09
5.85743e-09
9.26961e-09
3.81641e-08
3.77547e-07
2.32517e-06
5.82093e-06
7.90044e-06
1.74942e-15
7.80502e-15
1.59851e-14
4.97528e-14
2.33442e-13
8.93534e-13
2.68381e-12
6.67985e-12
1.47083e-11
2.99776e-11
5.82555e-11
1.16001e-10
2.29023e-10
8.33778e-10
2.72609e-09
5.5766e-09
8.45937e-09
1.37915e-08
3.39404e-08
1.79015e-07
1.52053e-06
6.2863e-06
1.10011e-05
9.98176e-15
4.3624e-14
9.44207e-14
1.48908e-13
3.81345e-13
1.02977e-12
2.75677e-12
7.03343e-12
1.65885e-11
4.35921e-11
3.39454e-10
2.29922e-09
7.46855e-09
1.16181e-08
1.17529e-08
1.17473e-08
1.56259e-08
3.48391e-08
9.9614e-08
3.10582e-07
9.20989e-07
4.22327e-06
1.18415e-05
6.84221e-14
2.16448e-13
4.13622e-13
7.41074e-13
1.44043e-12
2.88906e-12
6.83652e-12
1.47344e-10
2.71069e-09
1.15209e-08
3.65787e-08
1.30793e-07
2.82767e-07
3.5186e-07
3.24141e-07
2.46594e-07
1.98009e-07
1.94532e-07
4.98857e-07
1.2986e-06
2.91603e-06
6.07999e-06
1.18569e-05
1.59809e-13
5.9574e-13
1.85485e-12
4.19911e-12
7.18338e-12
1.15433e-11
1.12131e-09
5.21567e-08
3.40578e-07
8.51437e-07
1.32141e-06
1.83202e-06
2.41769e-06
2.63044e-06
2.55749e-06
2.09057e-06
1.44297e-06
1.17382e-06
1.29122e-06
2.46957e-06
4.86072e-06
8.12676e-06
9.703e-06
2.14299e-12
9.7958e-12
2.38694e-11
6.93984e-11
1.66719e-10
2.94603e-09
1.06767e-07
9.59259e-07
3.44587e-06
7.07944e-06
1.25486e-05
1.9417e-05
3.03267e-05
3.65433e-05
4.54745e-05
3.80831e-05
2.48805e-05
1.87274e-05
1.78337e-05
2.16642e-05
2.51698e-05
6.69914e-05
0.00019786
2.57435e-12
1.55154e-11
4.7206e-11
1.14284e-10
1.86468e-09
8.79173e-08
8.96323e-07
3.25708e-06
7.31933e-06
1.48631e-05
4.45198e-05
0.000183208
0.000422137
0.000567189
0.000781929
0.000973011
0.00110337
0.00117207
0.00113615
0.00116594
0.00109873
0.00323112
0.00635852
3.13666e-12
1.76302e-11
1.76472e-11
1.76665e-11
3.61684e-10
2.17013e-07
1.59562e-06
3.12842e-06
4.17421e-06
7.55001e-06
3.90912e-05
0.000339735
0.00104249
0.00156244
0.0019313
0.00311303
0.00531058
0.0070301
0.00739362
0.00734072
0.008858
0.0187723
0.0221645
0.0870468
0.0717745
0.0699211
0.0688745
0.0684996
0.0668357
0.0645168
0.0633615
0.0633268
0.063247
0.0631639
0.0630972
0.0630756
0.0630213
0.0629109
0.0628631
0.0629668
0.0629861
0.063019
0.187831
0.285785
0.288145
0.291043
0.298136
0.371442
0.428114
0.428499
0.417805
0.416162
0.388003
0.307042
0.201971
0.145781
0.103414
0.0616447
0.062408
0.0629132
0.0628703
0.434918
0.564326
0.505634
0.401844
0.297995
0.218953
0.217065
0.216993
0.216963
0.214887
0.215037
0.250561
0.246779
0.191856
0.106907
0.0617079
0.0624647
0.0628215
0.0628107
0.462694
0.850836
0.898529
0.859671
0.737276
0.465685
0.306413
0.29134
0.274922
0.225145
0.223262
0.313033
0.377852
0.34627
0.159425
0.0806046
0.0627093
0.0628024
0.0635646
0.47937
0.92712
0.985872
0.983059
0.971271
0.871082
0.425073
0.241271
0.22075
0.219861
0.221108
0.410106
0.637497
0.702096
0.367989
0.0910236
0.0636432
0.0671849
0.0733961
0.653244
0.947223
0.988347
0.988349
0.988348
0.982819
0.717413
0.324277
0.253098
0.21988
0.221778
0.418427
0.794237
0.903979
0.780624
0.25549
0.0691292
0.0775898
0.0859598
0.856694
0.964803
0.988349
0.988349
0.98835
0.988349
0.874877
0.338695
0.223856
0.21996
0.226675
0.390877
0.786505
0.903985
0.903991
0.670095
0.142387
0.0897782
0.125431
0.901165
0.958073
0.988347
0.988349
0.988348
0.98835
0.940255
0.41713
0.225542
0.226745
0.24138
0.348323
0.739371
0.889804
0.903997
0.886063
0.613839
0.43792
0.447799
5.13014e-09
3.20649e-08
1.62533e-07
7.98027e-08
1.00788e-07
4.46476e-07
1.02374e-06
1.18796e-06
1.43677e-06
6.01576e-06
0.000133218
0.00123293
0.00272573
0.00431026
0.0051502
0.00620059
0.0100536
0.0134289
0.0143617
0.0155462
0.0304196
0.0397095
0.0773318
1.41944e-05
1.93783e-05
4.39988e-05
3.14648e-05
1.77067e-05
1.82676e-05
2.18114e-05
2.4356e-05
2.6525e-05
0.0001311
0.000686212
0.00317516
0.0118688
0.0223932
0.0266973
0.0235713
0.0262627
0.0385226
0.0493407
0.122513
0.337561
0.391387
0.363818
0.00716856
0.00318273
0.0016061
0.00116602
0.000699665
0.000441382
0.000400061
0.000428291
0.000577928
0.0011544
0.0178301
0.0910086
0.188285
0.242811
0.220878
0.15377
0.116844
0.135383
0.186056
0.520796
0.724254
0.76338
0.864304
0.270745
0.153113
0.063293
0.0294893
0.0101388
0.00384359
0.00326508
0.00331018
0.00627355
0.0542447
0.270095
0.514886
0.640045
0.655203
0.543811
0.359772
0.391788
0.612943
0.703201
0.586921
0.0803206
0.168525
0.771622
0.734934
0.691301
0.324002
0.122497
0.0431688
0.0305884
0.0392875
0.079933
0.225955
0.483092
0.800824
0.851412
0.777655
0.702909
0.706421
0.712098
0.745329
0.744166
0.26858
0.00668964
0.00409989
0.00886954
0.170638
0.847039
0.845047
0.600997
0.35129
0.260037
0.269608
0.412562
0.688802
0.829095
0.874722
0.917301
0.898765
0.862154
0.849189
0.850841
0.851127
0.628702
0.11051
0.0211539
0.00348073
0.00362212
0.00576137
0.0175762
0.847041
0.847041
0.822985
0.731805
0.668767
0.608531
0.670616
0.874842
0.921006
0.920996
0.921025
0.921045
0.920888
0.920011
0.899881
0.618128
0.0944673
0.00495719
0.025718
0.168044
0.247166
0.24461
0.283382
0.847039
0.792447
0.575666
0.29883
0.119068
0.0904174
0.2154
0.613768
0.848476
0.912659
0.92101
0.921026
0.92101
0.920992
0.6959
0.126284
0.00277234
0.000425406
0.0195316
0.169649
0.355748
0.354593
0.187159
0.393727
0.11228
0.0385958
0.00626198
0.00129695
0.00142845
0.0133532
0.0776482
0.138202
0.153835
0.421092
0.825121
0.920992
0.841251
0.298373
0.00847376
7.03848e-05
0.00032636
0.00218866
0.000636596
0.000466613
0.000833694
0.0002262
0.0158138
0.00162511
0.000226482
7.81086e-06
7.817e-07
4.60985e-06
0.000192648
0.0012599
0.00188627
0.00104202
0.0124321
0.124975
0.319134
0.347114
0.094151
0.00202931
3.20681e-05
3.40772e-05
3.83833e-05
4.72737e-06
9.12294e-07
6.53716e-07
6.49276e-07
7.88118e-05
2.73059e-06
1.45384e-07
2.647e-08
1.738e-08
1.65038e-08
3.0402e-07
2.26454e-06
2.47926e-06
6.70233e-07
7.30757e-05
0.00182792
0.00803868
0.0139677
0.0149903
0.0035844
3.99488e-05
1.19371e-06
8.0152e-07
4.27378e-07
4.25251e-07
4.54243e-07
4.61324e-07
9.45307e-08
4.02474e-08
2.59776e-08
1.71738e-08
7.99192e-09
5.34972e-09
5.30763e-09
3.42745e-08
6.65275e-08
6.39588e-08
1.11548e-07
6.10309e-06
0.000131646
0.000660592
0.00156388
0.00219537
0.000246767
1.73576e-06
7.21056e-07
4.24917e-07
4.25219e-07
5.1181e-07
6.1819e-07
8.20787e-08
4.06377e-08
5.92342e-08
2.4113e-08
7.61471e-09
4.99311e-09
7.33326e-09
7.51203e-09
2.11212e-08
2.22997e-08
3.60748e-08
4.02978e-08
3.10273e-07
5.44544e-06
9.4977e-05
0.000406229
0.000456259
1.86431e-05
4.82634e-07
4.25207e-07
4.24739e-07
5.30484e-07
8.51314e-07
1.07797e-07
1.34166e-07
1.14778e-07
4.05993e-08
9.04324e-09
4.06869e-09
1.0983e-08
1.19483e-08
1.25151e-08
1.25083e-08
1.46086e-08
1.45867e-08
3.16059e-08
5.29674e-08
7.4671e-07
3.30741e-05
0.000216385
0.000114472
2.06581e-05
1.57501e-06
4.25031e-07
4.54269e-07
7.05032e-07
1.95805e-07
2.02508e-07
1.07245e-07
4.56697e-08
1.3014e-08
2.59303e-09
8.87932e-09
1.63741e-08
1.78968e-08
1.54991e-08
1.81361e-08
2.78881e-08
2.68854e-08
2.69004e-08
7.41628e-08
3.35395e-07
1.00401e-05
6.54537e-05
6.56772e-05
4.0517e-05
7.97165e-06
1.47894e-06
7.82456e-07
2.14407e-07
1.90303e-07
7.06906e-08
4.03325e-08
1.28061e-08
1.57568e-09
5.39668e-09
1.91904e-08
2.04159e-08
2.03713e-08
3.05635e-08
5.15223e-08
4.05974e-08
2.77166e-08
2.71028e-08
3.69002e-08
1.24044e-07
8.57884e-06
2.48573e-05
2.27545e-05
2.25556e-05
2.07745e-05
1.06102e-05
1.94836e-07
9.75324e-08
4.72897e-08
2.98425e-08
8.76662e-09
8.06457e-10
3.04504e-09
1.21256e-08
1.53545e-08
1.77709e-08
4.93734e-08
5.19809e-08
4.44078e-08
2.96474e-08
2.61937e-08
2.33888e-08
2.4354e-08
2.08778e-07
9.16584e-07
2.28947e-06
5.74732e-06
5.62176e-06
8.62141e-06
7.50587e-08
3.91943e-08
3.38045e-08
1.46629e-08
2.95776e-09
1.36655e-10
1.45034e-09
2.98743e-09
4.51755e-09
8.55667e-09
2.96361e-08
4.06665e-08
2.58197e-08
2.60839e-08
2.69104e-08
3.69672e-08
3.22735e-08
5.26276e-08
8.89546e-08
1.56483e-07
3.94321e-07
5.95218e-07
1.23965e-06
5.18761e-08
2.80149e-08
1.97026e-08
4.7865e-09
2.69289e-10
1.35596e-11
5.88779e-10
2.70591e-10
6.47319e-10
1.79371e-09
6.80894e-09
8.15407e-09
5.9357e-09
1.1397e-08
4.78523e-08
6.69597e-08
8.82032e-08
5.83007e-08
5.98005e-08
7.81989e-08
1.12472e-07
3.61982e-07
7.86609e-07
2.81379e-08
1.54648e-08
6.27416e-09
5.61157e-10
1.05521e-11
8.13029e-12
6.78767e-11
3.32092e-11
8.62815e-11
1.53326e-10
4.31712e-10
1.25697e-09
1.45591e-09
8.32651e-09
2.70441e-08
1.06249e-07
1.16312e-07
1.16319e-07
8.19235e-08
6.87668e-08
8.78182e-08
1.61749e-07
4.5224e-07
9.45576e-09
5.99804e-09
6.65587e-10
1.52503e-11
4.97693e-12
4.82701e-12
9.49556e-12
2.19678e-11
3.87652e-11
6.63712e-11
1.01074e-10
2.71188e-10
9.88331e-10
4.90455e-09
2.45369e-08
7.48477e-08
1.16334e-07
1.16326e-07
7.73257e-08
3.57221e-08
5.47063e-08
8.24832e-08
1.47663e-07
1.17774e-09
4.69456e-10
1.67989e-11
4.12564e-12
2.49525e-12
2.71863e-12
6.01524e-12
1.49587e-11
3.16616e-11
5.55372e-11
7.39247e-11
1.4062e-10
6.32648e-10
4.96835e-09
1.56532e-08
4.51483e-08
6.93409e-08
6.76645e-08
3.89997e-08
1.94789e-08
2.30438e-08
3.2907e-08
5.00984e-08
2.65423e-11
7.58331e-12
3.42319e-12
1.6861e-12
1.1746e-12
1.44883e-12
3.49142e-12
9.59983e-12
2.2671e-11
4.24366e-11
5.7219e-11
9.47987e-11
3.97127e-10
2.80747e-09
1.28105e-08
1.98965e-08
2.43042e-08
2.50054e-08
2.22019e-08
1.46283e-08
9.3525e-09
1.1696e-08
2.06571e-08
4.84939e-12
2.53509e-12
1.28557e-12
6.59882e-13
5.14339e-13
7.27305e-13
1.8938e-12
5.6594e-12
1.43872e-11
2.88624e-11
4.04447e-11
4.69767e-11
1.74364e-10
1.97386e-09
5.84353e-09
1.14257e-08
1.43829e-08
1.74245e-08
1.83129e-08
1.28173e-08
6.65265e-09
6.22397e-09
7.69085e-09
1.99761e-12
9.58326e-13
4.49428e-13
2.35726e-13
2.10432e-13
3.41353e-13
9.55628e-13
3.04134e-12
8.13011e-12
1.7247e-11
2.48978e-11
2.84598e-11
3.3914e-11
5.40842e-10
2.84518e-09
5.03091e-09
9.15426e-09
1.23155e-08
1.22216e-08
8.66642e-09
5.54257e-09
4.04827e-09
3.23754e-09
7.12456e-13
3.20829e-13
1.40864e-13
7.67884e-14
8.06157e-14
1.48707e-13
4.4558e-13
1.48634e-12
4.10845e-12
9.05825e-12
1.35143e-11
1.57032e-11
1.67037e-11
7.136e-11
6.16009e-10
2.0124e-09
4.49051e-09
7.5005e-09
7.05556e-09
5.22048e-09
3.51028e-09
2.32385e-09
1.5145e-09
2.24235e-13
9.41386e-14
3.9424e-14
2.31141e-14
2.8864e-14
5.9767e-14
1.90772e-13
6.58774e-13
1.86019e-12
4.19631e-12
6.45607e-12
7.7998e-12
8.5841e-12
1.24435e-11
1.31509e-10
4.30935e-10
9.73145e-10
2.80189e-09
3.22504e-09
2.5068e-09
1.70242e-09
1.07707e-09
6.41101e-10
6.22934e-14
2.45821e-14
9.94235e-15
6.49664e-15
9.61882e-15
2.20853e-14
7.47232e-14
2.64582e-13
7.56713e-13
1.72671e-12
2.72154e-12
3.44155e-12
4.08426e-12
7.27667e-12
2.24973e-11
5.12626e-11
8.63366e-11
3.21168e-10
5.21912e-10
8.05627e-10
6.11289e-10
3.85804e-10
2.1698e-10
1.55078e-14
5.77828e-15
2.28155e-15
1.71678e-15
2.971e-15
7.48651e-15
2.66964e-14
9.6221e-14
2.77128e-13
6.34467e-13
1.01737e-12
1.34701e-12
1.74358e-12
3.59045e-12
1.11393e-11
1.39211e-11
1.53638e-11
1.89407e-11
2.77973e-11
5.74234e-11
1.08865e-10
8.28066e-11
4.81166e-11
3.50761e-15
1.23163e-15
4.80323e-16
4.27674e-16
8.48377e-16
2.32691e-15
8.69416e-15
3.17264e-14
9.16476e-14
2.09444e-13
3.40041e-13
4.70911e-13
6.6528e-13
1.58417e-12
4.80191e-12
7.0051e-12
8.04771e-12
8.3312e-12
9.56539e-12
1.35422e-11
1.13316e-11
1.18975e-11
8.79223e-12
7.27576e-16
2.39512e-16
9.35569e-17
1.00429e-16
2.23715e-16
6.63231e-16
2.58099e-15
9.49832e-15
2.745e-14
6.24669e-14
1.02428e-13
1.48306e-13
2.2777e-13
6.1765e-13
1.82595e-12
2.79374e-12
3.21672e-12
3.24652e-12
3.33198e-12
3.83682e-12
3.48014e-12
2.82442e-12
1.64809e-12
1.39153e-16
4.27095e-17
1.69948e-17
2.21905e-17
5.44925e-17
1.73573e-16
6.99569e-16
2.5891e-15
7.47506e-15
1.69292e-14
2.80401e-14
4.24477e-14
7.035e-14
2.10389e-13
6.14186e-13
9.56234e-13
1.0752e-12
1.06457e-12
1.02806e-12
9.99803e-13
8.37801e-13
5.59771e-13
2.81343e-13
2.46253e-17
7.01637e-18
2.90136e-18
4.60356e-18
1.22766e-17
4.17907e-17
1.73561e-16
6.44728e-16
1.85862e-15
4.19284e-15
7.03166e-15
1.1127e-14
1.97013e-14
6.26703e-14
1.82153e-13
2.83714e-13
3.09084e-13
2.96202e-13
2.706e-13
2.3249e-13
1.70682e-13
9.75371e-14
4.23877e-14
4.04353e-18
1.0668e-18
4.68802e-19
8.95266e-19
2.56328e-18
9.28001e-18
3.95412e-17
1.47257e-16
4.2399e-16
9.54435e-16
1.6266e-15
2.6885e-15
5.0256e-15
1.64547e-14
4.75979e-14
7.32385e-14
7.71893e-14
7.09767e-14
6.09798e-14
4.70563e-14
3.01493e-14
1.4884e-14
5.56983e-15
6.17749e-19
1.50783e-19
7.21e-20
1.63124e-19
4.97382e-19
1.90651e-18
8.30393e-18
3.09854e-17
8.91777e-17
2.00865e-16
3.4935e-16
6.02161e-16
1.1734e-15
3.84726e-15
1.09988e-14
1.65715e-14
1.68794e-14
1.48357e-14
1.19222e-14
8.30008e-15
4.65806e-15
1.99112e-15
6.39677e-16
8.8075e-20
1.99033e-20
1.05997e-20
2.78643e-20
8.99696e-20
3.63569e-19
1.61398e-18
6.03406e-18
1.73804e-17
3.93068e-17
7.00689e-17
1.25606e-16
2.51992e-16
8.09586e-16
2.26468e-15
3.32291e-15
3.26746e-15
2.73682e-15
2.04745e-15
1.28671e-15
6.34538e-16
2.35071e-16
6.4713e-17
1.17568e-20
2.4652e-21
1.49396e-21
4.46916e-21
1.52223e-20
6.45969e-20
2.91563e-19
1.09253e-18
3.15493e-18
7.19097e-18
1.31867e-17
2.44936e-17
5.0047e-17
1.55118e-16
4.20193e-16
5.98342e-16
5.6718e-16
4.51752e-16
3.13692e-16
1.77555e-16
7.69131e-17
2.46847e-17
5.81276e-18
1.47416e-21
2.87963e-22
2.02214e-22
6.74939e-22
2.41931e-21
1.07428e-20
4.92081e-20
1.84917e-19
5.36426e-19
1.23659e-18
2.33882e-18
4.4819e-18
9.23619e-18
2.7295e-17
7.08901e-17
9.77346e-17
8.92108e-17
6.7535e-17
4.34885e-17
2.21624e-17
8.43945e-18
2.34119e-18
4.69574e-19
1.74189e-22
3.18833e-23
2.63446e-23
9.63771e-23
3.62962e-22
1.68122e-21
7.80403e-21
2.94264e-20
8.59069e-20
2.00907e-19
3.92368e-19
7.72152e-19
1.59305e-18
4.45824e-18
1.10125e-17
1.46654e-17
1.28642e-17
9.23829e-18
5.50674e-18
2.52712e-18
8.48027e-19
2.03816e-19
3.48081e-20
1.94875e-23
3.36576e-24
3.31266e-24
1.30923e-23
5.17658e-23
2.49562e-22
1.17343e-21
4.44495e-21
1.30817e-20
3.10944e-20
6.26396e-20
1.25841e-19
2.58091e-19
6.81176e-19
1.58788e-18
2.03456e-18
1.70924e-18
1.16267e-18
6.40503e-19
2.64041e-19
7.79632e-20
1.62355e-20
2.36993e-21
2.07636e-24
3.41604e-25
4.04883e-25
1.70747e-24
7.08023e-24
3.54217e-23
1.68535e-22
6.41637e-22
1.9056e-21
4.60661e-21
9.54269e-21
1.94331e-20
3.93427e-20
9.7513e-20
2.12911e-19
2.61316e-19
2.09332e-19
1.34409e-19
6.81543e-20
2.51456e-20
6.52142e-21
1.17558e-21
1.47823e-22
2.12634e-25
3.36845e-26
4.86118e-26
2.17108e-25
9.49826e-25
4.92485e-24
2.36247e-23
9.01417e-23
2.69723e-22
6.62051e-22
1.40424e-21
2.87769e-21
5.72899e-21
1.32616e-20
2.67946e-20
3.12511e-20
2.36811e-20
1.42408e-20
6.56838e-21
2.13043e-21
4.73214e-22
7.12352e-23
8.69358e-24
0.13908
0.417996
0.688191
0.759443
0.641194
0.905636
0.964933
0.976995
0.914918
0.96423
0.970095
0.964842
0.958982
0.964303
0.961394
0.948553
0.531429
0.63124
0.722152
0.883702
0.136411
0.202527
0.199812
0.27573
0.258671
0.0817317
0.0138392
0.00761026
0.000232749
0.000145955
1.13719e-05
1.22935e-06
1.04155e-05
7.60875e-07
7.32961e-07
9.75767e-07
4.63256e-07
5.55515e-07
6.45192e-07
8.34769e-07
4.74192e-07
6.00661e-07
7.06522e-07
7.60613e-07
7.53722e-07
8.04104e-07
9.01087e-07
9.95481e-07
9.89509e-07
1.11051e-06
1.40762e-06
1.73734e-06
8.09754e-07
9.22258e-07
9.99675e-07
1.11397e-06
8.41322e-07
8.48571e-07
8.59742e-07
9.39003e-07
2.7132e-06
1.20438e-06
1.25143e-06
1.31119e-06
9.35326e-06
9.44284e-06
9.49471e-06
6.58257e-06
3.04765e-06
7.31548e-06
4.25272e-06
1.62749e-06
1.07762e-06
1.28683e-06
1.31403e-06
1.35847e-06
5.88524e-07
7.47808e-07
8.83507e-07
9.44373e-07
1.9304e-07
2.36511e-07
2.60277e-07
3.088e-07
6.61692e-08
9.1109e-08
1.50463e-07
1.49046e-07
2.96005e-08
4.10236e-08
4.09694e-08
4.03426e-08
9.29424e-09
9.29218e-09
8.72562e-09
7.91342e-09
2.85624e-09
2.46867e-09
2.03927e-09
1.60702e-09
1.19083e-09
9.20272e-10
6.81802e-10
4.76054e-10
4.72904e-10
3.40278e-10
2.36824e-10
1.57603e-10
1.52123e-10
1.03149e-10
6.72859e-11
4.20878e-11
3.35286e-11
2.22264e-11
1.39581e-11
8.36927e-12
6.21355e-12
4.01831e-12
2.41488e-12
1.37518e-12
1.08127e-12
6.52515e-13
3.64344e-13
1.92382e-13
1.68636e-13
9.26039e-14
4.70741e-14
2.26889e-14
2.28812e-14
1.12614e-14
5.15819e-15
2.25354e-15
2.68047e-15
1.1714e-15
4.80678e-16
1.90814e-16
2.72413e-16
1.05049e-16
3.85379e-17
1.49629e-17
2.42318e-17
8.20992e-18
2.78016e-18
1.92664e-18
1.9032e-18
5.71271e-19
2.44376e-19
8.06062e-19
1.33745e-19
3.92099e-20
5.6464e-20
4.65986e-19
8.713e-21
4.19739e-21
2.44249e-20
2.49231e-19
5.83394e-22
1.07235e-21
1.09068e-20
1.22147e-19
5.86064e-23
3.97034e-22
4.77649e-21
6.01221e-20
4.21676e-23
6.11267e-22
9.24492e-21
1.39043e-19
0.910199
0.962101
0.983607
0.98656
0.985369
0.988345
0.946664
0.546945
0.235558
0.21635
0.218245
0.30244
0.578798
0.792514
0.901864
0.917958
0.832446
0.716945
0.644086
0.97678
0.969526
0.963956
0.962628
0.971896
0.981687
0.952876
0.661623
0.293715
0.219123
0.218113
0.246306
0.426868
0.664062
0.878101
0.918135
0.838327
0.670231
0.546145
0.947589
0.93383
0.9255
0.926959
0.947526
0.95885
0.928966
0.676921
0.396763
0.297787
0.290556
0.289137
0.390806
0.6005
0.822538
0.914971
0.871377
0.63893
0.511539
0.937158
0.927209
0.908361
0.896243
0.898797
0.909862
0.871809
0.68287
0.523486
0.471616
0.459535
0.436356
0.432151
0.62274
0.811233
0.89657
0.838222
0.587417
0.518054
0.937245
0.932125
0.912614
0.880667
0.860059
0.849588
0.819024
0.711936
0.629002
0.604845
0.60508
0.602278
0.578357
0.704215
0.812608
0.807985
0.693163
0.579422
0.560903
0.584952
0.885118
0.912906
0.880104
0.835658
0.805996
0.785352
0.759909
0.749752
0.750312
0.762847
0.762673
0.759881
0.754901
0.745675
0.677258
0.647533
0.661754
0.695841
0.0330469
0.303336
0.779162
0.875853
0.818318
0.736315
0.714554
0.775973
0.789892
0.789686
0.774028
0.740411
0.703552
0.677812
0.67794
0.679711
0.701314
0.778683
0.780944
0.000172448
0.0148257
0.22752
0.709075
0.805996
0.626532
0.53825
0.538658
0.66998
0.693579
0.67444
0.664638
0.664986
0.676889
0.689456
0.701995
0.698485
0.611577
0.710051
1.13085e-06
0.000212046
0.0174973
0.238281
0.673697
0.715864
0.651055
0.542362
0.542495
0.610912
0.675552
0.69209
0.715462
0.715245
0.631483
0.292327
0.0643079
0.0296719
0.0771467
9.21709e-07
1.4423e-06
0.000420202
0.0280258
0.312
0.735749
0.74676
0.746868
0.721943
0.729065
0.746846
0.746172
0.712431
0.30715
0.0224424
9.52966e-05
4.13351e-06
3.88776e-06
1.05089e-05
8.02932e-07
8.10281e-07
1.59489e-06
0.000442679
0.026041
0.288917
0.723428
0.80387
0.80386
0.803845
0.800338
0.550097
0.0774564
0.000413099
2.43921e-06
2.48116e-06
3.31681e-06
1.78019e-06
1.48035e-06
1.16638e-06
9.25954e-07
5.64848e-07
4.78366e-07
3.73477e-05
0.00499468
0.116024
0.520034
0.734318
0.711119
0.319637
0.0239199
1.68661e-05
2.28051e-06
2.98815e-06
1.16417e-05
2.11167e-05
1.38423e-05
1.87134e-06
2.05992e-06
1.95053e-06
1.02839e-06
3.75866e-07
3.72415e-07
4.80407e-06
0.00120227
0.0276882
0.100499
0.103993
0.00678857
3.82705e-06
1.60556e-06
2.23835e-06
1.5486e-05
2.31612e-05
2.31447e-05
2.31557e-05
4.59023e-06
1.91622e-06
2.32279e-06
2.12785e-06
6.64146e-07
2.19397e-07
4.42474e-07
3.30044e-05
0.000212398
0.00031875
0.000187928
1.45333e-05
1.602e-06
1.60775e-06
1.78127e-06
6.48846e-06
1.4665e-05
2.13638e-05
2.30784e-05
4.30592e-06
1.17852e-06
2.24198e-06
2.42494e-06
1.44603e-06
3.43863e-07
1.39738e-07
1.02049e-07
2.70835e-07
1.10111e-06
1.76711e-06
1.91436e-06
1.66279e-06
1.60584e-06
1.78603e-06
1.3274e-06
1.05251e-06
2.49666e-06
5.321e-06
1.917e-06
1.3531e-06
2.01626e-06
2.41895e-06
1.49889e-06
5.14441e-07
1.38467e-07
8.59957e-08
1.48412e-07
1.12482e-06
1.79278e-06
2.08906e-06
1.85178e-06
1.66655e-06
1.7094e-06
1.17687e-06
9.16436e-07
8.87717e-07
1.06613e-06
1.39056e-06
1.94477e-06
2.16575e-06
1.99714e-06
1.35412e-06
3.79186e-07
1.34094e-07
6.73612e-08
1.78951e-07
8.38641e-07
1.6983e-06
2.0038e-06
2.03757e-06
1.97776e-06
1.35252e-06
9.62317e-07
7.4025e-07
7.52065e-07
1.03409e-06
1.36543e-06
1.66454e-06
2.30775e-06
2.2531e-06
1.00126e-06
2.59789e-07
1.0878e-07
5.35365e-08
7.02609e-08
1.22291e-07
5.11191e-07
1.5919e-06
2.03341e-06
1.85325e-06
9.34495e-07
5.97491e-07
4.89e-07
6.47089e-07
1.74052e-06
4.23526e-06
1.95461e-06
2.20199e-06
1.58942e-06
4.98161e-07
1.41791e-07
5.93829e-08
2.49543e-08
3.04297e-08
8.95758e-08
1.45463e-07
2.16331e-07
3.63797e-07
4.03508e-07
2.38269e-07
1.11613e-07
2.67699e-07
6.4997e-07
5.5453e-06
6.53553e-06
9.51679e-07
7.48579e-07
3.73488e-07
1.7162e-07
6.81829e-08
2.36834e-08
9.57095e-09
1.27424e-08
3.30623e-08
5.00582e-08
7.0979e-08
8.12399e-08
6.96183e-08
4.44018e-08
4.50227e-08
2.06744e-07
1.99813e-06
5.7718e-06
5.50238e-06
2.71305e-07
1.75347e-07
8.25411e-08
3.44431e-08
1.25705e-08
4.52462e-09
2.85461e-09
2.80894e-09
4.16223e-09
6.26962e-09
9.94376e-09
1.36086e-08
1.94819e-08
2.84692e-08
6.50707e-08
3.03714e-07
2.54942e-06
5.87999e-06
1.41565e-06
9.86352e-08
4.528e-08
1.77947e-08
6.15749e-09
1.98488e-09
8.04275e-10
6.08207e-10
7.35954e-10
8.99612e-10
1.77205e-09
4.0116e-09
8.41468e-09
2.19275e-08
5.563e-08
1.48071e-07
4.41269e-07
9.73297e-07
4.65477e-06
1.41643e-06
2.46471e-08
7.02632e-09
2.34865e-09
8.48238e-10
2.96189e-10
1.46392e-10
1.56472e-10
2.28121e-10
5.59021e-10
1.70177e-09
4.91417e-09
1.27567e-08
3.9701e-08
8.33848e-08
3.52293e-07
6.1596e-07
8.89467e-07
1.39578e-06
1.37009e-06
3.44202e-09
1.20083e-09
4.23297e-10
1.53006e-10
6.16945e-11
3.61137e-11
4.44055e-11
1.08678e-10
4.09474e-10
1.70877e-09
5.87039e-09
1.50066e-08
5.58319e-08
2.11443e-07
5.73935e-07
8.24001e-07
1.09758e-06
1.54479e-06
1.32325e-06
6.97407e-10
2.73428e-10
1.06616e-10
4.22936e-11
1.869e-11
1.30918e-11
2.21183e-11
6.70668e-11
2.80227e-10
1.28269e-09
6.59715e-09
2.0738e-08
6.80947e-08
5.95198e-07
1.05789e-06
1.08086e-06
1.32129e-06
1.80066e-06
1.23742e-06
2.1033e-10
8.68672e-11
3.39737e-11
1.30092e-11
5.79164e-12
5.34373e-12
1.40795e-11
5.11139e-11
1.97904e-10
1.13718e-09
8.54147e-09
3.50156e-08
8.79621e-08
1.4283e-06
1.02809e-05
5.76767e-06
3.06449e-06
2.35843e-06
1.85065e-06
6.49618e-11
2.47315e-11
8.89957e-12
3.20732e-12
1.66832e-12
3.04386e-12
1.28879e-11
4.87674e-11
1.81879e-10
1.13999e-09
9.7452e-09
4.15958e-08
1.33172e-07
1.84586e-06
2.66238e-05
2.69609e-05
1.89823e-05
1.3046e-05
3.37865e-06
1.59065e-11
5.54148e-12
1.83079e-12
6.75969e-13
7.23607e-13
2.95254e-12
1.53218e-11
5.85874e-11
2.31135e-10
1.42937e-09
1.00826e-08
4.31076e-08
1.52834e-07
1.60774e-06
2.44248e-05
3.60049e-05
3.60269e-05
2.40855e-05
3.21475e-06
2.93589e-12
9.45852e-13
3.00431e-13
1.79285e-13
6.03898e-13
3.5059e-12
1.99208e-11
8.55648e-11
3.93609e-10
2.25032e-09
1.12104e-08
4.51252e-08
1.44627e-07
8.97325e-07
2.30287e-06
2.8539e-05
3.5834e-05
8.78116e-06
1.46508e-06
4.42789e-13
1.32249e-13
4.99435e-14
1.04545e-13
6.55393e-13
4.41959e-12
2.72842e-11
1.33688e-10
7.08337e-10
3.65902e-09
1.46339e-08
5.15782e-08
1.24903e-07
6.88995e-07
1.36595e-06
1.98498e-06
4.20685e-06
2.0927e-06
7.46229e-07
5.59461e-14
1.64585e-14
1.62361e-14
1.00069e-13
7.78336e-13
5.8156e-12
3.83012e-11
2.01532e-10
1.17532e-09
5.97888e-09
2.25753e-08
6.8368e-08
1.50461e-07
5.92955e-07
9.68423e-07
1.35262e-06
2.48889e-06
1.22819e-06
5.40195e-07
6.00399e-15
2.71283e-15
1.23293e-14
1.09129e-13
9.50554e-13
7.65809e-12
5.26211e-11
2.85553e-10
1.83681e-09
9.43387e-09
3.40603e-08
9.75596e-08
3.31397e-07
6.54629e-07
8.51384e-07
1.14159e-06
1.72786e-06
9.19276e-07
4.09479e-07
6.15835e-16
1.19202e-15
1.14736e-14
1.16781e-13
1.11728e-12
9.57458e-12
6.73496e-11
3.82302e-10
2.62627e-09
1.35364e-08
4.68693e-08
1.57942e-07
5.72061e-07
8.92798e-07
1.05152e-06
1.81842e-06
1.16552e-06
7.38755e-07
1.96772e-07
1.0998e-16
9.05316e-16
1.07184e-14
1.20407e-13
1.23771e-12
1.0942e-11
7.64191e-11
4.67702e-10
3.26274e-09
1.70541e-08
5.78046e-08
2.60659e-07
8.01664e-07
1.19437e-06
2.01287e-06
3.25457e-06
1.00744e-06
3.80474e-07
1.04532e-07
5.51169e-17
7.35616e-16
9.58344e-15
1.14554e-13
1.21416e-12
1.06198e-11
7.04918e-11
4.94475e-10
3.44538e-09
1.8776e-08
6.41728e-08
2.81924e-07
8.73053e-07
1.60506e-06
2.95878e-06
2.70774e-06
6.26013e-07
1.88033e-07
4.49559e-08
3.62399e-17
5.39955e-16
7.41684e-15
9.09315e-14
9.5757e-13
8.07425e-12
4.8846e-11
3.97387e-10
2.44715e-09
1.11402e-08
4.34554e-08
1.85281e-07
6.71263e-07
9.43631e-07
1.73925e-06
7.6122e-07
3.03209e-07
5.88568e-08
1.21428e-08
2.14919e-17
3.35496e-16
4.73538e-15
5.8275e-14
6.04313e-13
4.9736e-12
3.03905e-11
2.59303e-10
1.30655e-09
4.68412e-09
1.63628e-08
7.05964e-08
3.68471e-07
4.9307e-07
5.44006e-07
3.07015e-07
1.30352e-07
1.93717e-08
4.11302e-09
1.09088e-17
1.75994e-16
2.54184e-15
3.16753e-14
3.32038e-13
2.78937e-12
1.75703e-11
1.55832e-10
7.19751e-10
2.46804e-09
5.33764e-09
2.06595e-08
1.25164e-07
1.53321e-07
1.50555e-07
9.47251e-08
4.84081e-08
1.15883e-08
3.65359e-09
4.86064e-18
8.22473e-17
1.25854e-15
1.6972e-14
1.99329e-13
1.95601e-12
1.53434e-11
1.21949e-10
6.12338e-10
1.96219e-09
2.72998e-09
4.15534e-09
2.0641e-08
3.11526e-08
2.9649e-08
1.98786e-08
1.09206e-08
7.21066e-09
3.50081e-09
2.05339e-18
3.96174e-17
7.26059e-16
1.20221e-14
1.70147e-13
1.89641e-12
1.56484e-11
1.00885e-10
4.41268e-10
1.02075e-09
1.01212e-09
5.06603e-10
2.15509e-09
4.81031e-09
5.42332e-09
4.17993e-09
3.87928e-09
3.71552e-09
2.42561e-09
1.00325e-18
2.78886e-17
6.63921e-16
1.2059e-14
1.64611e-13
1.64354e-12
1.16316e-11
5.69044e-11
1.19101e-10
1.57909e-10
1.30532e-10
9.0983e-11
1.76098e-10
4.05182e-10
6.65565e-10
8.87916e-10
1.1455e-09
1.40333e-09
1.04301e-09
1.89759e-18
4.28944e-17
7.30599e-16
9.34212e-15
9.08434e-14
6.78696e-13
3.82443e-12
7.59813e-12
6.10216e-12
3.45658e-12
3.31354e-12
2.95399e-12
2.53422e-12
2.65792e-12
1.98388e-11
7.22482e-11
2.08066e-10
2.79377e-10
2.43884e-10
)
;

boundaryField
{
    leftWall
    {
        type            zeroGradient;
    }
    rightWall
    {
        type            zeroGradient;
    }
    lowerWall
    {
        type            zeroGradient;
    }
    atmosphere
    {
        type            inletOutlet;
        inletValue      uniform 0;
        value           nonuniform List<scalar> 
46
(
2.12634e-25
3.36845e-26
4.86118e-26
2.17108e-25
9.49826e-25
4.92485e-24
2.36247e-23
9.01417e-23
2.69723e-22
6.62051e-22
1.40424e-21
2.87769e-21
5.72899e-21
1.32616e-20
2.67946e-20
3.12511e-20
2.36811e-20
1.42408e-20
6.56838e-21
2.13043e-21
4.73214e-22
7.12352e-23
8.69358e-24
4.21676e-23
6.11267e-22
9.24492e-21
0
0
0
0
0
0
0
0
0
0
0
0
0
0
0
0
0
0
0
0
)
;
    }
    defaultFaces
    {
        type            empty;
    }
}


// ************************************************************************* //
