/*--------------------------------*- C++ -*----------------------------------*\
| =========                 |                                                 |
| \\      /  F ield         | OpenFOAM: The Open Source CFD Toolbox           |
|  \\    /   O peration     | Version:  2.4.0                                 |
|   \\  /    A nd           | Web:      www.OpenFOAM.org                      |
|    \\/     M anipulation  |                                                 |
\*---------------------------------------------------------------------------*/
FoamFile
{
    version     2.0;
    format      ascii;
    class       volScalarField;
    location    "0.9";
    object      p;
}
// * * * * * * * * * * * * * * * * * * * * * * * * * * * * * * * * * * * * * //

dimensions      [1 -1 -2 0 0 0 0];

internalField   nonuniform List<scalar> 
2268
(
3802.72
4118.99
4628.1
5124.16
5476.48
5700.55
5806.62
5830.72
5790.48
5718.17
5639.91
5570.39
5515.71
5477.16
5454.56
5444.44
5439.94
5438.43
5435.41
5429.12
5407.39
5369.89
5348.07
2944.35
3237.25
3664.17
4223.54
4674.19
4913.24
5029.27
5049.58
5001.69
4924.52
4841.37
4768.18
4713.16
4673.59
4652.06
4645.49
4642.21
4641.38
4637.62
4629.82
4609.45
4568.43
4525.59
1841.17
2338.13
3058.94
3579.45
3971.78
4178.39
4272.24
4270.89
4208.58
4120.95
4033.1
3960.33
3910.56
3879.94
3862.41
3849.83
3842.89
3840.82
3835.66
3828.24
3810.49
3777.42
3773.41
1451.45
1519.54
1819.36
2727.51
3214.26
3440.9
3529.49
3506.21
3422.63
3320.14
3218.45
3117.48
3049.18
3013.38
3008.4
3024.85
3042.72
3046.51
3040.77
3030.29
3007.64
2931.63
2860.57
1457.16
1459.82
1434.6
1995.89
2521.92
2716.94
2788.18
2738.94
2634.32
2521.24
2440.11
2377.04
2340.15
2314.51
2296.97
2279.46
2260.49
2247.62
2234.33
2225.88
2214.9
2214.78
2187.13
1313.51
1345.23
1312.21
1404.73
1854.27
1999.93
2058.79
2005.27
1852.31
1681.25
1511.82
1386.96
1329.73
1307.79
1324.07
1368.87
1397.96
1415.7
1419.67
1403.17
1356.8
1239.3
1179.97
1238.54
1234.67
1168.33
1003.03
1155.33
1282.23
1280.73
1135.85
1009.44
954.556
919.084
874.977
833.716
795.127
762.906
729.688
714.361
712.348
707.063
696.695
678.83
719.908
742.054
1129.57
1113
1039.4
800.654
638.178
602.56
631.994
653.455
684.214
732.34
786.855
807.801
794.849
760.852
718.832
670.66
620.257
577.005
548.463
558.207
591.509
674.63
802.63
1921.15
1532.25
1386.37
1361.62
1366.67
1395.17
1471.1
1592.41
1723.75
1876.44
2180
2856.37
3498.67
3975.01
4377.36
4860.46
5703.33
5820.94
5960.99
1087.26
934.563
852.644
808.101
768.051
760.842
813.181
887.151
971.252
1057.51
1197.61
1588.22
2232.9
2616.12
3003.29
3523.15
4535.44
4648.03
4867.28
984.743
1016.27
1028.2
1034.8
1037.88
1053.14
1075.01
1131.67
1197.82
1289.44
1394.89
1489.16
1941.55
2403.74
2749.99
3039.34
4011.11
4211.13
4383.38
952.733
926.836
859.675
812.227
762.923
741.039
770.198
833.336
905.539
981.472
1092.82
1103.94
1248.31
1475.6
1791.9
2276.44
3138.09
3341.27
3559.1
910.916
912.283
900.294
888.311
880.888
880.447
904.974
982.425
1027.12
1050.98
1059.34
923.65
868.152
980.524
1171.52
1773.15
2492.53
2741.1
2954.59
884.333
885.509
834.901
794.551
744.005
699.964
729.212
791.763
851.817
908.938
959.98
858.181
799.648
837.168
850.903
1152.23
1870.04
2135.75
2320.44
869.871
861.496
813.848
779.698
750.556
768.3
766.353
824.648
853.965
862.099
879.394
822.928
782.311
798.014
789.375
816.628
1213.31
1513.09
1680.56
841.977
837.299
785.013
736.643
693.347
643.471
689.962
738.745
783.358
808.872
818.092
784.469
737.3
743.778
751.308
724.265
777.702
1053.63
1274.49
958.922
931.951
855.091
647.682
526.258
550.667
610.517
667.612
710.167
736.677
739.219
722.044
691.554
657.477
621.818
587.721
559.944
544.341
533.595
525.24
510.378
550.802
641.083
765.155
742.868
694.036
608.38
551.014
529.337
525.777
528.024
530.717
539.641
545.58
525.809
491.324
453.861
426.404
401.885
376.417
343.369
306.678
281.224
254.956
326.146
538.779
596.669
579.532
552.091
514.345
478.087
461.498
464.834
482.439
498.309
503.36
485.291
443.054
398.052
362.024
346.296
341.869
309.105
247.134
190.351
143.173
50.0994
99.7299
518.701
431.081
417.354
408.178
400.091
391.993
396.061
419.714
435.737
436.25
419.867
349.799
264.266
200.809
167.062
164.51
175.101
177.563
141.481
74.803
28.0416
15.566
19.0478
98.8978
276.921
261.958
274.39
278.095
280.823
295.424
314.444
348.704
352.457
393.294
367.92
261.579
173.824
135.685
135.723
139.56
114.965
44.5173
18.9324
14.6792
15.3449
15.1316
22.6887
202.081
187.737
182.128
174.471
184.893
217.85
288.503
345.666
354.092
336.228
262.993
202.925
154.085
122.626
119.301
93.6665
43.6745
10.4653
11.4558
14.8946
15.139
16.033
15.2808
122.593
118.166
99.4953
52.4641
24.2864
30.5335
93.559
272.664
256.92
251.436
198.108
147.11
119.164
103.393
65.6384
28.518
4.91767
3.97082
5.7736
8.02459
12.4177
15.5721
15.3452
51.986
20.7374
11.7707
8.028
6.40028
6.69279
11.7986
32.4882
36.0407
31.5709
52.7559
75.5211
84.2439
60.9899
23.4266
5.3698
3.13685
2.82748
1.38537
0.410473
2.20121
3.03074
5.7401
8.08261
4.98847
4.66726
4.61197
4.70578
4.8976
5.02532
4.19571
2.84089
3.38485
4.71708
10.0083
23.6672
15.9521
6.67762
3.11484
3.75178
2.33957
0.649358
1.12543
1.92367
2.06359
2.26322
4.45574
4.55016
4.75127
4.90422
4.85732
4.81357
4.49474
3.0224
2.20529
2.33054
2.48718
2.85647
3.56285
3.82561
3.0186
3.30345
3.42553
2.36485
1.47247
1.68691
2.02414
2.27049
2.61566
4.78008
4.51398
4.51488
4.52408
4.53107
4.46293
4.23537
3.4276
2.63161
2.67274
3.03075
3.22264
3.29807
3.31134
3.31671
3.491
3.2213
2.53678
1.87291
1.82315
2.0994
2.12081
2.13308
4.38005
4.24247
4.26428
4.25503
4.24818
4.17225
3.97865
3.52996
3.04921
2.95501
3.08889
3.18387
3.37042
3.49519
3.48042
3.54013
3.23174
2.71032
2.17791
2.06892
2.12849
2.00149
1.80731
4.03639
3.97895
4.01716
4.01454
4.00462
3.93548
3.79
3.50544
3.20961
3.09004
3.11019
3.17017
3.29362
3.36962
3.43471
3.46614
3.25864
2.81235
2.3517
2.0902
1.88219
1.65881
1.41678
3.80612
3.76205
3.79318
3.79398
3.78521
3.72899
3.62125
3.43649
3.25191
3.13195
3.10686
3.13465
3.20353
3.25761
3.29088
3.28673
3.17179
2.85206
2.44596
2.11753
1.83708
1.60091
1.34173
3.64414
3.59469
3.6067
3.60182
3.58864
3.54195
3.46173
3.34575
3.21646
3.12369
3.08045
3.08138
3.10977
3.13318
3.13876
3.11136
3.01042
2.80284
2.51775
2.24313
2.0114
1.83714
1.68025
3.50158
3.46192
3.44847
3.43467
3.41542
3.37443
3.31319
3.23556
3.14491
3.07822
3.03325
3.01363
3.01257
3.00995
2.99708
2.9601
2.87846
2.74401
2.56455
2.36654
2.20285
2.07622
1.964
3.35779
3.32902
3.30607
3.28451
3.26157
3.22453
3.17624
3.11898
3.05886
3.00502
2.96163
2.9315
2.91369
2.89567
2.87292
2.83504
2.77296
2.68618
2.57232
2.43871
2.33552
2.24122
2.15778
3.21176
3.19374
3.16824
3.14391
3.118
3.08432
3.04487
3.00047
2.95576
2.91156
2.87131
2.84084
2.81471
2.78902
2.76109
2.72494
2.67627
2.61528
2.53681
2.45548
2.38982
2.31431
2.2437
3.06752
3.05589
3.02944
3.00618
2.98018
2.94924
2.91594
2.87985
2.84325
2.8066
2.77225
2.74066
2.71207
2.68497
2.65579
2.62191
2.58124
2.53405
2.47612
2.42053
2.37151
2.31042
2.25544
2.92162
2.91304
2.89026
2.86881
2.84451
2.81715
2.78859
2.75815
2.72719
2.69614
2.66585
2.63659
2.60895
2.58204
2.55342
2.52208
2.48708
2.44829
2.4044
2.36328
2.3259
2.28183
2.24091
2.77604
2.76949
2.75141
2.73232
2.7107
2.68735
2.66252
2.63631
2.60961
2.58268
2.556
2.52983
2.5045
2.47869
2.45207
2.4237
2.3935
2.36117
2.32691
2.29464
2.26456
2.23255
2.20645
2.6326
2.62725
2.61307
2.59717
2.57871
2.55862
2.53702
2.51435
2.49113
2.46762
2.44413
2.42082
2.39769
2.37417
2.35012
2.32501
2.29907
2.27195
2.24445
2.21865
2.19412
2.17138
2.15525
2.49189
2.48743
2.4764
2.46331
2.4477
2.43045
2.41182
2.39222
2.372
2.35143
2.33072
2.30997
2.28913
2.26807
2.24665
2.22465
2.20237
2.17972
2.15746
2.13656
2.1175
2.10121
2.09118
2.35388
2.35016
2.34152
2.33074
2.31763
2.30292
2.28691
2.26997
2.25236
2.23432
2.21605
2.19765
2.17914
2.16046
2.1416
2.12255
2.10353
2.08466
2.06651
2.04975
2.03519
2.02386
2.01799
2.21827
2.21518
2.20832
2.19941
2.18844
2.17595
2.16223
2.1476
2.1323
2.11654
2.10051
2.08431
2.06799
2.05157
2.03514
2.0187
2.00256
1.98688
1.97217
1.95895
1.94795
1.93999
1.93659
2.08468
2.08211
2.0766
2.06922
2.06004
2.04946
2.03773
2.02514
2.0119
1.99821
1.9842
1.96999
1.95569
1.94139
1.92717
1.91316
1.89959
1.88665
1.87479
1.86433
1.85605
1.85067
1.84898
1.9528
1.95068
1.9462
1.94008
1.93239
1.92343
1.91342
1.90261
1.89118
1.87931
1.86713
1.8548
1.8424
1.83006
1.81787
1.80599
1.7946
1.78395
1.7744
1.76632
1.76022
1.75657
1.75599
1.82237
1.82061
1.81694
1.81185
1.80541
1.79782
1.7893
1.78004
1.77022
1.75999
1.74949
1.73885
1.72817
1.71757
1.70719
1.69716
1.68771
1.67904
1.67143
1.66516
1.66066
1.65831
1.65848
1.69312
1.69166
1.68863
1.68438
1.67898
1.67258
1.66535
1.65746
1.64906
1.64029
1.63128
1.62215
1.61302
1.604
1.59523
1.58686
1.57906
1.57201
1.56596
1.56117
1.55793
1.55652
1.55718
1.56486
1.56365
1.56113
1.55759
1.55306
1.54768
1.54157
1.53487
1.52772
1.52024
1.51256
1.50479
1.49703
1.48942
1.48207
1.47512
1.46872
1.46305
1.4583
1.45467
1.45239
1.45166
1.45264
1.43742
1.43642
1.43433
1.43139
1.4276
1.42307
1.41793
1.41227
1.40623
1.3999
1.39339
1.38682
1.3803
1.37392
1.36781
1.36209
1.35688
1.35235
1.34865
1.34595
1.3444
1.34415
1.34533
1.31067
1.30984
1.30811
1.30566
1.3025
1.29872
1.29441
1.28966
1.28458
1.27927
1.27381
1.26831
1.26286
1.25757
1.25253
1.24785
1.24366
1.24007
1.23723
1.23524
1.23425
1.23435
1.23562
1.18448
1.1838
1.18238
1.18035
1.17773
1.17459
1.171
1.16705
1.16282
1.15839
1.15385
1.14928
1.14477
1.14042
1.1363
1.13253
1.12918
1.12638
1.12423
1.12281
1.12223
1.12255
1.12384
1.05877
1.05821
1.05704
1.05537
1.05322
1.05063
1.04768
1.04442
1.04093
1.03727
1.03354
1.02979
1.02611
1.02257
1.01925
1.01623
1.0136
1.01144
1.00983
1.00885
1.00857
1.00904
1.0103
0.933444
0.932989
0.932039
0.930685
0.928932
0.926827
0.924418
0.921761
0.918916
0.915943
0.912908
0.909874
0.906904
0.904062
0.90142
0.899046
0.897008
0.89537
0.894198
0.893552
0.893483
0.894028
0.895214
0.808432
0.808072
0.807311
0.806227
0.804825
0.80314
0.801211
0.799084
0.796808
0.79443
0.792004
0.789585
0.787226
0.784985
0.78292
0.781084
0.779527
0.778309
0.777482
0.777087
0.777158
0.777722
0.778796
0.683671
0.683382
0.682783
0.681936
0.680842
0.67953
0.678031
0.676377
0.674604
0.672751
0.670862
0.668981
0.667152
0.665424
0.663839
0.662441
0.66128
0.660399
0.659829
0.659605
0.659754
0.660284
0.661191
0.559122
0.558906
0.558459
0.557823
0.557002
0.556016
0.554887
0.553642
0.552307
0.550914
0.549495
0.548084
0.546716
0.545426
0.544249
0.543224
0.542381
0.541751
0.541366
0.541254
0.541428
0.541892
0.542637
0.434728
0.434576
0.434249
0.43379
0.433207
0.432507
0.431705
0.430822
0.429876
0.42889
0.427888
0.426895
0.425934
0.425027
0.424204
0.423487
0.422903
0.422477
0.422232
0.42218
0.422332
0.422697
0.423271
0.310448
0.310351
0.310145
0.309851
0.309472
0.309016
0.308497
0.307924
0.307311
0.306673
0.306027
0.305385
0.304765
0.304184
0.303656
0.303202
0.302835
0.302572
0.302424
0.3024
0.302513
0.302764
0.303139
0.18623
0.186164
0.186035
0.185892
0.185704
0.185469
0.185195
0.184889
0.184561
0.184219
0.183873
0.183531
0.183205
0.182905
0.182637
0.182411
0.182232
0.182109
0.182047
0.182052
0.182125
0.182267
0.182494
0.0620456
0.0620488
0.0619951
0.0619399
0.0618932
0.0618322
0.0617615
0.06168
0.0615921
0.0615
0.0614067
0.0613169
0.0612339
0.0611591
0.0610939
0.06104
0.0609979
0.0609712
0.0609607
0.0609654
0.0609819
0.0609912
0.06109
796.861
851.284
871.538
866.325
612.779
639.612
650.523
660.014
714.013
773.281
785.763
751.791
416.01
404.566
406.855
436.799
87.1276
89.9451
69.205
108.481
15.4833
15.3576
13.1922
14.7771
6.07605
4.18315
4.42042
4.26664
3.62076
4.01196
4.20489
4.50793
2.87163
3.05468
3.24255
3.46652
2.70315
2.76255
2.83004
2.93006
2.20118
2.26998
2.37664
2.49376
1.80806
1.83088
1.90151
2.01602
1.32121
1.2824
1.30839
1.40004
1.22588
1.18308
1.21162
1.30355
1.61398
1.59978
1.61792
1.67756
1.90475
1.88846
1.90763
1.9567
2.11545
2.10097
2.11523
2.15417
2.21129
2.19825
2.20752
2.2375
2.23399
2.22623
2.23019
2.24947
2.22148
2.21831
2.22361
2.23904
2.19874
2.19796
2.20296
2.21449
2.15246
2.15386
2.15885
2.16762
2.09109
2.0932
2.09785
2.10502
2.01923
2.02162
2.02564
2.03148
1.93842
1.94081
1.94435
1.94923
1.85108
1.85337
1.85654
1.86072
1.75819
1.76033
1.76318
1.76683
1.66067
1.66264
1.66516
1.66842
1.55933
1.56118
1.5635
1.56634
1.45472
1.45644
1.45854
1.46106
1.3473
1.34888
1.35077
1.353
1.23746
1.23889
1.24058
1.24254
1.12551
1.12678
1.12829
1.13002
1.0118
1.01293
1.01425
1.01573
0.896552
0.897544
0.898658
0.899903
0.779974
0.780866
0.781741
0.782746
0.6621
0.662731
0.663538
0.664386
0.543366
0.543884
0.544479
0.545112
0.423831
0.424223
0.424628
0.425058
0.303477
0.303713
0.303988
0.304243
0.182694
0.182836
0.18297
0.183065
0.0610503
0.0609787
0.060882
0.0607856
808.57
809.224
744.889
684.784
638.627
644.657
648.334
683.481
716.355
730.659
737.364
716.343
680.591
710.686
710.509
703.137
694.676
712.656
788.687
698.471
730.484
672.154
591.606
536.244
500.766
551.312
592.286
627.897
638.694
635.216
630.946
622.172
651.166
639.068
614.549
627.245
690.631
748.32
699.252
651.421
571.965
492.174
440.347
436.242
475.136
512.253
542.366
541.586
532.02
522.355
522.366
547.365
528.107
513.674
499.516
517.544
559.118
469.697
462.256
425.253
376.351
348.013
363.415
403.783
438.641
460.628
458.045
441.406
424.836
437.715
479.994
483.787
459.71
439.854
434.13
443.181
230.563
276.699
278.989
267.629
266.147
297.328
337.249
368.522
383.558
380.585
362.735
347.158
367.871
411.238
414.942
386.569
360.466
337.267
335.033
29.0191
84.3751
142.177
161.262
183.238
220.611
266.397
301.518
314.473
312.577
302.662
299.331
317.617
345.095
343.632
299.032
278.058
242.756
232.923
3.85752
6.0346
28.0615
80.4908
116.125
152.322
189.909
220.412
256.741
262.804
262.617
268.709
279.454
273.197
240.915
184.306
170.234
123.145
123.38
4.66018
3.81959
4.71436
16.6921
73.4025
115.119
144.39
167.961
191.149
208.891
210.362
207.235
194.657
163.199
110.971
65.6784
42.1777
31.8183
33.6143
3.79517
3.80566
3.57177
4.40071
18.8378
77.0329
103.81
127.958
139.856
144.975
140.978
125.804
96.7545
47.1895
17.381
6.46946
4.00315
4.0892
4.67685
3.1178
3.32006
3.39941
3.39147
4.35994
20.6022
64.4797
83.2922
92.8636
92.6832
79.1249
48.5312
21.173
5.76211
3.3437
4.48374
5.43796
5.92564
5.89358
2.67061
2.95216
3.22734
3.34973
3.3036
4.37201
14.5043
38.3238
47.5152
42.2047
20.1495
10.608
2.96938
3.52512
4.49333
4.61641
4.81582
5.11471
5.22363
2.20782
2.58538
2.97723
3.26121
3.39873
3.40706
3.71482
6.03546
13.3666
11.7717
5.55071
2.23845
3.32212
3.26626
3.37006
3.84806
4.28224
4.55107
4.70755
1.63018
2.24535
2.76156
3.14725
3.36011
3.46576
3.43621
3.31376
3.23488
3.15576
2.50433
3.31264
3.01437
2.93149
3.18444
3.51858
3.85147
4.06843
4.2139
1.54459
2.15526
2.66231
3.03325
3.24474
3.33748
3.4084
3.52376
3.73475
3.71199
3.46224
3.04641
2.77849
2.56778
2.66274
3.03368
3.48738
3.71967
3.86513
1.83763
2.23059
2.64103
2.95171
3.14585
3.22035
3.24754
3.24485
3.29531
3.12945
2.87399
2.86675
2.68322
2.32047
2.46255
2.87584
3.27733
3.51893
3.63691
2.07569
2.35148
2.64322
2.87509
3.02336
3.08719
3.11613
3.1142
3.11445
2.99864
2.8933
2.73805
2.52033
2.32034
2.44507
2.81731
3.17749
3.39575
3.49176
2.24181
2.42808
2.62732
2.79764
2.9083
2.96458
2.991
3.0052
2.98652
2.90954
2.82568
2.77431
2.61624
2.42445
2.53204
2.8233
3.13704
3.31739
3.41057
2.31187
2.45539
2.60121
2.72345
2.79688
2.84193
2.86273
2.87549
2.86607
2.81831
2.79249
2.75707
2.63278
2.56068
2.66244
2.89675
3.12157
3.2648
3.34261
2.30379
2.42291
2.54355
2.62234
2.67889
2.71842
2.74263
2.75879
2.7686
2.749
2.72685
2.72025
2.70357
2.70391
2.77377
2.93008
3.08429
3.19333
3.23839
2.27909
2.37303
2.46178
2.52113
2.56788
2.6035
2.62971
2.65056
2.66506
2.67125
2.68266
2.69193
2.7177
2.75222
2.80736
2.89836
3.00499
3.08237
3.11306
2.24356
2.31122
2.37314
2.4214
2.4615
2.49433
2.52082
2.54466
2.56485
2.58319
2.60244
2.62739
2.66026
2.69196
2.74825
2.82442
2.90739
2.95945
2.98045
2.18885
2.23628
2.28282
2.32299
2.35808
2.38879
2.41551
2.44011
2.46425
2.48777
2.51245
2.54365
2.57406
2.60466
2.64116
2.70365
2.78759
2.83439
2.85106
2.12117
2.15537
2.19174
2.22534
2.25649
2.2847
2.31097
2.33656
2.36118
2.38651
2.41345
2.44289
2.47242
2.49495
2.52193
2.56788
2.64312
2.6961
2.7138
2.04422
2.07001
2.0988
2.12717
2.15467
2.18063
2.20573
2.23089
2.25534
2.28026
2.30667
2.33423
2.3593
2.36892
2.38671
2.42655
2.48653
2.5351
2.55522
1.9597
1.98011
2.00353
2.02757
2.05192
2.07556
2.09909
2.12301
2.14639
2.16962
2.19477
2.22006
2.23707
2.24092
2.24436
2.27531
2.32929
2.36672
2.38124
1.8694
1.88597
1.90544
1.92603
1.94742
1.96883
1.99049
2.01247
2.03455
2.05569
2.0791
2.10263
2.1161
2.11355
2.10783
2.12955
2.16798
2.19919
2.2141
1.77418
1.78801
1.80441
1.82217
1.84093
1.86011
1.87969
1.89954
1.91961
1.93897
1.96011
1.9803
1.99213
1.98979
1.98593
2.00768
2.03007
2.04546
2.06023
1.67481
1.68656
1.70053
1.71591
1.73229
1.74931
1.76677
1.78435
1.80215
1.81951
1.83722
1.85411
1.86502
1.86742
1.87062
1.88432
1.89678
1.90638
1.92109
1.57189
1.58197
1.59396
1.60727
1.62157
1.63649
1.65183
1.66724
1.68265
1.69761
1.71227
1.72561
1.73631
1.74201
1.7482
1.75762
1.76481
1.77534
1.78788
1.46591
1.4746
1.48492
1.49643
1.50883
1.5218
1.53514
1.54843
1.56159
1.57412
1.58579
1.59627
1.60502
1.61263
1.62064
1.62778
1.63429
1.64344
1.65336
1.35725
1.36476
1.37363
1.38354
1.39422
1.40541
1.41686
1.42826
1.43923
1.44964
1.45862
1.46633
1.4724
1.47857
1.48563
1.49355
1.5012
1.511
1.51723
1.24626
1.25274
1.26032
1.26879
1.27791
1.28746
1.29718
1.30686
1.31601
1.32454
1.33148
1.33635
1.33899
1.33979
1.34619
1.3576
1.36702
1.37674
1.38057
1.13324
1.13878
1.14521
1.15236
1.16005
1.16807
1.17624
1.18435
1.19203
1.19904
1.20496
1.20726
1.20718
1.20011
1.20764
1.22218
1.2334
1.24138
1.2442
1.01848
1.02315
1.02852
1.03445
1.04079
1.04739
1.0541
1.06072
1.0671
1.07272
1.0782
1.07904
1.07874
1.06949
1.07549
1.08626
1.10115
1.10562
1.10829
0.902203
0.906056
0.910435
0.915228
0.920307
0.925545
0.93084
0.936
0.941017
0.945464
0.949744
0.950774
0.949275
0.94585
0.954279
0.959673
0.969156
0.970781
0.973549
0.784613
0.787701
0.791155
0.794875
0.798759
0.802694
0.806634
0.810355
0.814005
0.817221
0.819833
0.823297
0.821994
0.822832
0.828878
0.830838
0.835368
0.837701
0.840112
0.66589
0.668269
0.670853
0.673562
0.676314
0.67901
0.681662
0.684038
0.686414
0.688341
0.690078
0.692864
0.692277
0.694023
0.698664
0.700138
0.704324
0.70524
0.707952
0.546231
0.547932
0.549695
0.551444
0.553126
0.554654
0.556095
0.55712
0.558196
0.559064
0.559823
0.560732
0.561008
0.563531
0.567815
0.569152
0.57268
0.573776
0.576598
0.4258
0.426855
0.42784
0.428682
0.429359
0.429758
0.429857
0.429652
0.429857
0.429649
0.429558
0.430037
0.431131
0.43248
0.435588
0.437711
0.440708
0.442023
0.445002
0.304657
0.305135
0.305416
0.30539
0.304958
0.304194
0.30342
0.302261
0.301264
0.299938
0.299473
0.29932
0.300175
0.301348
0.303732
0.305758
0.308584
0.310131
0.313201
0.183163
0.182999
0.182419
0.181453
0.180143
0.178396
0.176422
0.173833
0.171886
0.169451
0.168245
0.167459
0.168031
0.1699
0.172883
0.175562
0.179291
0.180465
0.183303
0.0605559
0.0599481
0.0589059
0.0573393
0.0552151
0.0524262
0.0492088
0.0450737
0.0417073
0.0375075
0.0353444
0.0348247
0.0353782
0.0376679
0.0416991
0.0458507
0.0522896
0.0541462
0.0576956
)
;

boundaryField
{
    leftWall
    {
        type            fixedFluxPressure;
        gradient        uniform 0;
        value           nonuniform List<scalar> 
50
(
3802.72
2944.35
1841.17
1451.45
1457.16
1313.51
1238.54
1129.57
958.922
765.155
596.669
431.081
276.921
202.081
122.593
51.986
8.08261
4.45574
4.78008
4.38005
4.03639
3.80612
3.64414
3.50158
3.35779
3.21176
3.06752
2.92162
2.77604
2.6326
2.49189
2.35388
2.21827
2.08468
1.9528
1.82237
1.69312
1.56486
1.43742
1.31067
1.18448
1.05877
0.933444
0.808432
0.683671
0.559122
0.434728
0.310448
0.18623
0.0620456
)
;
    }
    rightWall
    {
        type            fixedFluxPressure;
        gradient        uniform 0;
        value           nonuniform List<scalar> 
50
(
5960.99
4867.28
4383.38
3559.1
2954.59
2320.44
1680.56
1274.49
788.687
748.32
559.118
443.181
335.033
232.923
123.38
33.6143
4.67685
5.89358
5.22363
4.70755
4.2139
3.86513
3.63691
3.49176
3.41057
3.34261
3.23839
3.11306
2.98045
2.85106
2.7138
2.55522
2.38124
2.2141
2.06023
1.92109
1.78788
1.65336
1.51723
1.38057
1.2442
1.10829
0.973549
0.840112
0.707952
0.576598
0.445002
0.313201
0.183303
0.0576956
)
;
    }
    lowerWall
    {
        type            fixedFluxPressure;
        gradient        nonuniform List<scalar> 
62
(
132719
132719
132719
132719
132719
132719
132719
132719
132719
132719
132719
132719
132719
132719
132719
132719
132719
132719
132719
132719
132719
132718
132718
0
0
0
0
0
0
0
0
8923.86
5839.2
4865.14
4491.72
0
0
0
0
0
0
0
0
44050
31110.1
30698.5
35711
45650.9
55067.5
59618.2
61320.4
62279
63203.8
64628.6
66180.3
66109.5
66586.5
66749.1
66522.7
65612.7
65557.2
65165.9
)
;
        value           nonuniform List<scalar> 
62
(
4200.87
4517.14
5026.25
5522.31
5874.63
6098.7
6204.77
6228.87
6188.63
6116.32
6038.06
5968.54
5913.86
5875.31
5852.71
5842.59
5838.09
5836.58
5833.56
5827.27
5805.54
5768.03
5746.21
5348.07
4525.59
3773.41
2860.57
2187.13
1179.97
742.054
802.63
853.804
888.544
902.582
894.986
1921.15
1087.26
984.743
952.733
910.916
884.333
869.871
841.977
2053.29
1625.57
1478.47
1468.75
1503.62
1560.37
1649.95
1776.36
1910.58
2066.05
2373.88
3054.91
3696.99
4174.76
4577.6
5060.02
5900.17
6017.61
6156.48
)
;
    }
    atmosphere
    {
        type            totalPressure;
        U               U.air;
        phi             phi.air;
        rho             rho;
        psi             none;
        gamma           1;
        p0              uniform 0;
        value           nonuniform List<scalar> 
46
(
0
0
0
0
0
0
0
0
0
0
0
0
0
0
0
0
0
0
0
0
0
0
0
0
0
0
-1.59566e-05
-0.000192014
-0.000822142
-0.00195177
-0.00363369
-0.00589283
-0.00878503
-0.0122001
-0.0164894
-0.0205999
-0.0257504
-0.029139
-0.0318138
-0.0322351
-0.0306993
-0.027291
-0.0229832
-0.016395
-0.0135864
-0.00894079
)
;
    }
    defaultFaces
    {
        type            empty;
    }
}


// ************************************************************************* //
