/*--------------------------------*- C++ -*----------------------------------*\
| =========                 |                                                 |
| \\      /  F ield         | OpenFOAM: The Open Source CFD Toolbox           |
|  \\    /   O peration     | Version:  2.4.0                                 |
|   \\  /    A nd           | Web:      www.OpenFOAM.org                      |
|    \\/     M anipulation  |                                                 |
\*---------------------------------------------------------------------------*/
FoamFile
{
    version     2.0;
    format      ascii;
    class       surfaceScalarField;
    location    "0.9";
    object      phi;
}
// * * * * * * * * * * * * * * * * * * * * * * * * * * * * * * * * * * * * * //

dimensions      [0 3 -1 0 0 0 0];

internalField   nonuniform List<scalar> 
4432
(
-4.62606e-06
4.62606e-06
-1.02237e-05
5.5976e-06
-1.64067e-05
6.18301e-06
-2.15821e-05
5.17546e-06
-2.47829e-05
3.20072e-06
-2.58972e-05
1.1143e-06
-2.53776e-05
-5.19587e-07
-2.37252e-05
-1.65237e-06
-2.15757e-05
-2.14947e-06
-1.97457e-05
-1.83005e-06
-1.82362e-05
-1.50951e-06
-1.6456e-05
-1.78017e-06
-1.44432e-05
-2.01276e-06
-1.27175e-05
-1.72571e-06
-1.1592e-05
-1.12558e-06
-1.088e-05
-7.11937e-07
-1.01219e-05
-7.58131e-07
-8.85412e-06
-1.26777e-06
-6.80702e-06
-2.0471e-06
-4.30641e-06
-2.50061e-06
-2.89393e-06
-1.41248e-06
-2.33296e-06
-5.6097e-07
-2.33296e-06
-4.08092e-06
8.70698e-06
-8.76871e-06
1.02854e-05
-1.4454e-05
1.18683e-05
-2.02881e-05
1.10095e-05
-2.40271e-05
6.93981e-06
-2.58651e-05
2.95229e-06
-2.57734e-05
-6.11282e-07
-2.40545e-05
-3.37127e-06
-2.18451e-05
-4.3589e-06
-1.98134e-05
-3.8618e-06
-1.78784e-05
-3.44444e-06
-1.59804e-05
-3.67819e-06
-1.41605e-05
-3.83264e-06
-1.26617e-05
-3.22458e-06
-1.16293e-05
-2.15795e-06
-1.07523e-05
-1.58889e-06
-9.79292e-06
-1.71754e-06
-8.41985e-06
-2.64084e-06
-6.2698e-06
-4.19715e-06
-3.88851e-06
-4.8819e-06
-1.73372e-06
-3.56727e-06
-4.60852e-07
-1.83384e-06
-2.79381e-06
-5.15492e-06
1.38619e-05
-1.24087e-05
1.75392e-05
-1.81572e-05
1.76168e-05
-2.21608e-05
1.5013e-05
-2.49893e-05
9.76834e-06
-2.65343e-05
4.49731e-06
-2.62097e-05
-9.35907e-07
-2.42266e-05
-5.35435e-06
-2.17561e-05
-6.82942e-06
-1.93817e-05
-6.23622e-06
-1.71995e-05
-5.62664e-06
-1.54669e-05
-5.4108e-06
-1.41072e-05
-5.1923e-06
-1.28732e-05
-4.45857e-06
-1.18584e-05
-3.17278e-06
-1.0758e-05
-2.6893e-06
-9.37959e-06
-3.09594e-06
-7.95097e-06
-4.06946e-06
-6.16721e-06
-5.9809e-06
-4.19692e-06
-6.85219e-06
-1.59512e-06
-6.16907e-06
4.66104e-08
-3.47557e-06
-2.7472e-06
-7.81471e-06
2.16766e-05
-1.4966e-05
2.46905e-05
-2.39108e-05
2.65617e-05
-2.87082e-05
1.98104e-05
-3.01483e-05
1.12085e-05
-2.91447e-05
3.49364e-06
-2.71363e-05
-2.94424e-06
-2.47354e-05
-7.7553e-06
-2.19267e-05
-9.6381e-06
-1.91725e-05
-8.99039e-06
-1.69416e-05
-7.85763e-06
-1.54115e-05
-6.94083e-06
-1.42371e-05
-6.36677e-06
-1.30127e-05
-5.6829e-06
-1.1631e-05
-4.55447e-06
-1.00225e-05
-4.29783e-06
-8.6036e-06
-4.51485e-06
-7.51433e-06
-5.15874e-06
-6.60791e-06
-6.88732e-06
-5.31216e-06
-8.14793e-06
-2.42699e-06
-9.05424e-06
-7.68199e-08
-5.82574e-06
-2.82402e-06
-5.35302e-06
2.70296e-05
-1.61221e-05
3.54596e-05
-2.93085e-05
3.9748e-05
-3.42352e-05
2.47372e-05
-3.43671e-05
1.13404e-05
-3.29797e-05
2.10626e-06
-3.08167e-05
-5.10722e-06
-2.83553e-05
-1.02168e-05
-2.54278e-05
-1.25655e-05
-2.21123e-05
-1.23059e-05
-1.91377e-05
-1.08323e-05
-1.69963e-05
-9.08218e-06
-1.55783e-05
-7.78472e-06
-1.40596e-05
-7.20164e-06
-1.1937e-05
-6.67705e-06
-9.85685e-06
-6.378e-06
-8.46038e-06
-5.91132e-06
-7.55101e-06
-6.06811e-06
-6.70129e-06
-7.73704e-06
-5.2673e-06
-9.58193e-06
-3.25582e-06
-1.10657e-05
-1.32949e-06
-7.75206e-06
-4.15351e-06
-9.92299e-06
3.69526e-05
-2.15249e-05
4.70615e-05
-3.70076e-05
5.52307e-05
-4.357e-05
3.12995e-05
-4.23113e-05
1.00816e-05
-3.89931e-05
-1.21191e-06
-3.54158e-05
-8.68447e-06
-3.17887e-05
-1.38439e-05
-2.81053e-05
-1.62489e-05
-2.40455e-05
-1.63658e-05
-2.01496e-05
-1.47282e-05
-1.77868e-05
-1.1445e-05
-1.68365e-05
-8.73497e-06
-1.63351e-05
-7.70306e-06
-1.54685e-05
-7.54365e-06
-1.35265e-05
-8.32001e-06
-1.09171e-05
-8.52072e-06
-8.47616e-06
-8.50904e-06
-6.39167e-06
-9.82153e-06
-3.64091e-06
-1.23327e-05
-8.36216e-07
-1.38704e-05
-7.67353e-07
-7.82093e-06
-4.92087e-06
-6.18154e-06
4.31342e-05
-1.48877e-05
5.57677e-05
-3.17346e-05
7.20776e-05
-4.54645e-05
4.50294e-05
-4.78133e-05
1.24304e-05
-4.49135e-05
-4.11173e-06
-3.88248e-05
-1.47731e-05
-3.34896e-05
-1.91791e-05
-2.9849e-05
-1.98895e-05
-2.52597e-05
-2.09551e-05
-1.85775e-05
-2.14104e-05
-1.34592e-05
-1.65633e-05
-1.16455e-05
-1.05487e-05
-1.24579e-05
-6.89063e-06
-1.38346e-05
-6.167e-06
-1.4924e-05
-7.23058e-06
-1.32434e-05
-1.02013e-05
-9.3311e-06
-1.24214e-05
-5.89508e-06
-1.32575e-05
-3.48868e-06
-1.47391e-05
-6.17865e-06
-1.11805e-05
-9.05691e-06
-4.94268e-06
-1.39778e-05
-3.78876e-06
4.69229e-05
-5.77609e-06
5.7755e-05
-1.45499e-05
8.08514e-05
-3.23292e-05
6.28087e-05
-4.00582e-05
2.01593e-05
-3.94834e-05
-4.68645e-06
-3.63138e-05
-1.79428e-05
-3.43767e-05
-2.11162e-05
-3.24538e-05
-2.18123e-05
-2.77436e-05
-2.56653e-05
-2.10029e-05
-2.81511e-05
-1.33118e-05
-2.42544e-05
-6.55399e-06
-1.73066e-05
-2.91264e-06
-1.0532e-05
-2.9537e-06
-6.12593e-06
-5.15758e-06
-5.0267e-06
-6.10111e-06
-9.25775e-06
-4.84371e-06
-1.36788e-05
-4.04449e-06
-1.40568e-05
-5.37965e-06
-1.34039e-05
-1.34646e-05
-3.09555e-06
-1.64785e-05
-1.92875e-06
-3.04563e-05
8.32486e-06
-8.32486e-06
2.07759e-05
-1.2451e-05
2.67502e-05
-5.97426e-06
3.00519e-05
-3.30176e-06
3.19361e-05
-1.88417e-06
3.2534e-05
-5.97945e-07
3.27669e-05
-2.32888e-07
3.39724e-05
-1.20553e-06
3.5204e-05
-1.23152e-06
3.56407e-05
-4.36704e-07
3.38829e-05
1.75775e-06
3.18515e-05
2.03141e-06
3.24151e-05
-5.63631e-07
3.18726e-05
5.42584e-07
2.64509e-05
5.42164e-06
1.39409e-05
1.251e-05
6.20821e-07
1.33201e-05
-5.43808e-06
6.05891e-06
-5.43809e-06
1.30743e-05
-2.13992e-05
2.63255e-05
-2.57022e-05
3.41873e-05
-1.38361e-05
4.00964e-05
-9.21095e-06
4.13618e-05
-3.1495e-06
3.94506e-05
1.31324e-06
3.70101e-05
2.20757e-06
3.66697e-05
-8.65118e-07
3.70837e-05
-1.64552e-06
3.53285e-05
1.31856e-06
2.90357e-05
8.05052e-06
1.666e-05
1.44071e-05
1.15899e-05
4.50649e-06
1.51245e-05
-2.99202e-06
1.91445e-05
1.4016e-06
1.12237e-05
2.04308e-05
1.32335e-06
2.32204e-05
-6.03787e-06
1.34201e-05
-1.1476e-05
1.38719e-05
-3.5271e-05
1.58741e-05
-2.77043e-05
2.05237e-05
-1.84857e-05
2.76563e-05
-1.63435e-05
3.47688e-05
-1.0262e-05
3.91643e-05
-3.08233e-06
3.68849e-05
4.48697e-06
3.20738e-05
3.94602e-06
2.37614e-05
6.66689e-06
7.20602e-06
1.78739e-05
-2.31723e-05
3.84289e-05
-4.49101e-05
3.61449e-05
-4.26819e-05
2.2783e-06
-2.92013e-05
-1.64726e-05
-4.62678e-06
-2.31729e-05
6.28979e-06
9.51425e-06
2.73281e-07
2.92369e-05
-2.94447e-06
1.66379e-05
-1.44204e-05
1.26236e-05
-4.78947e-05
1.47304e-05
-2.98111e-05
1.84991e-05
-2.22544e-05
2.62116e-05
-2.4056e-05
3.12897e-05
-1.534e-05
3.08435e-05
-2.63611e-06
2.56981e-05
9.63231e-06
1.75213e-05
1.21228e-05
7.57822e-06
1.661e-05
-6.52376e-06
3.19759e-05
-2.89452e-05
6.08503e-05
-4.52127e-05
5.24124e-05
-4.36068e-05
6.72398e-07
-3.71424e-05
-2.2937e-05
-2.14649e-05
-3.88504e-05
-4.91624e-06
-7.03445e-06
-9.04032e-07
2.52247e-05
-9.44003e-07
1.66778e-05
-1.53644e-05
-1.78554e-06
-4.61091e-05
-5.42736e-06
-2.61693e-05
9.41516e-07
-2.86233e-05
7.82448e-06
-3.0939e-05
1.43553e-05
-2.18709e-05
1.4516e-05
-2.79679e-06
1.14024e-05
1.27459e-05
9.50531e-06
1.402e-05
5.81743e-06
2.02978e-05
-7.28121e-07
3.85215e-05
-1.72853e-05
7.74075e-05
-3.29637e-05
6.80909e-05
-3.74241e-05
5.13273e-06
-3.43425e-05
-2.60186e-05
-3.05943e-05
-4.25985e-05
-1.55739e-05
-2.20549e-05
-3.76722e-06
1.3418e-05
-4.81714e-07
1.33923e-05
-1.58461e-05
-5.45347e-06
-4.06556e-05
-4.67792e-06
-2.69449e-05
2.37727e-06
-3.56785e-05
7.99707e-06
-3.65588e-05
1.53192e-05
-2.9193e-05
1.06785e-05
1.84383e-06
1.03103e-06
2.23934e-05
-4.1032e-06
1.91542e-05
-5.33973e-06
2.15344e-05
-3.83148e-06
3.70132e-05
-5.53032e-06
7.91063e-05
-1.74901e-05
8.00507e-05
-3.04293e-05
1.80719e-05
-3.02228e-05
-2.62251e-05
-2.7915e-05
-4.49063e-05
-2.06e-05
-2.93698e-05
-6.52017e-06
-6.61857e-07
5.96082e-08
6.81257e-06
-1.57865e-05
-1.81603e-06
-3.88395e-05
-5.22457e-06
-2.35363e-05
1.36477e-07
-4.10395e-05
1.43188e-06
-3.78542e-05
2.34595e-06
-3.01071e-05
3.35656e-06
8.3323e-07
-3.7248e-06
2.94748e-05
-9.26489e-06
2.46943e-05
-9.37576e-06
2.16452e-05
-6.32426e-06
3.39617e-05
-5.21484e-07
7.33035e-05
-1.03978e-05
8.99269e-05
-2.7699e-05
3.53732e-05
-2.98585e-05
-2.40656e-05
-3.02165e-05
-4.45483e-05
-2.48889e-05
-3.46974e-05
-1.17271e-05
-1.38237e-05
-4.39931e-07
-4.4746e-06
-1.62265e-05
3.09705e-07
-3.91492e-05
-5.39182e-06
-1.78348e-05
-2.08305e-06
-4.43483e-05
7.24715e-07
-4.06619e-05
9.77486e-07
-3.03598e-05
-4.3367e-06
6.14742e-06
-8.93772e-06
3.40758e-05
-1.51029e-05
3.08595e-05
-1.56674e-05
2.22098e-05
-1.15441e-05
2.98384e-05
4.65849e-08
6.17129e-05
-2.32276e-06
9.22963e-05
-2.08996e-05
5.395e-05
-2.95122e-05
-1.5453e-05
-3.05088e-05
-4.35517e-05
-3.18732e-05
-3.33329e-05
-2.34939e-05
-2.2203e-05
-5.9388e-06
-2.20297e-05
-2.21653e-05
5.37394e-06
4.1549e-05
1.37824e-05
4.93466e-05
3.21681e-05
6.24657e-05
3.34655e-05
6.15113e-05
1.32704e-05
4.03544e-05
-1.00525e-05
1.86365e-05
-3.14018e-05
3.40658e-06
-4.23372e-05
-1.01808e-05
-3.95476e-05
-2.46019e-05
-2.94855e-05
-3.57274e-05
-2.10574e-05
-3.65793e-05
-1.40948e-05
-3.12169e-05
-8.76441e-06
-2.26369e-05
-6.40095e-06
-1.28954e-05
-6.33179e-06
-6.19509e-06
-6.76975e-06
-4.58874e-06
-7.43532e-06
-8.59218e-06
-6.81396e-06
-1.43001e-05
-1.66232e-06
-1.92084e-05
8.43789e-06
-2.35041e-05
1.96378e-05
-1.42955e-05
1.20454e-05
5.66369e-06
1.26298e-05
-3.10407e-05
1.07452e-05
3.08038e-05
2.09032e-05
3.91885e-05
3.48322e-05
4.85367e-05
4.63996e-05
4.99439e-05
4.68293e-05
3.99247e-05
4.22749e-05
2.31909e-05
3.90443e-05
6.63711e-06
3.66753e-05
-7.8118e-06
3.27334e-05
-2.06599e-05
2.85306e-05
-3.15246e-05
2.98662e-05
-3.79148e-05
3.71308e-05
-3.84816e-05
4.31914e-05
-2.86975e-05
4.46315e-05
-1.43355e-05
4.054e-05
-2.10358e-06
2.96345e-05
6.31672e-06
1.73154e-05
3.72689e-06
7.68372e-06
-4.66841e-06
5.21727e-06
-1.6742e-05
1.5693e-05
-3.39799e-05
1.82464e-05
-1.68489e-05
2.12957e-06
2.17805e-05
5.15543e-05
-3.67949e-05
1.94663e-05
1.13376e-05
3.00496e-05
2.86052e-05
3.72524e-05
4.13339e-05
4.47164e-05
4.24799e-05
4.78286e-05
3.68125e-05
4.6807e-05
2.42125e-05
4.35955e-05
9.8486e-06
3.90134e-05
-3.22966e-06
3.50739e-05
-1.67204e-05
3.19013e-05
-2.8352e-05
3.51829e-05
-4.11964e-05
3.86174e-05
-4.19161e-05
3.93654e-05
-2.94455e-05
3.43196e-05
-9.2897e-06
2.53277e-05
6.88826e-06
2.2275e-05
9.36943e-06
2.39998e-05
2.00215e-06
1.70392e-05
2.29213e-06
-4.10075e-06
4.39801e-06
-2.30081e-05
-1.50726e-05
-5.28469e-05
1.29901e-05
-0.000137009
0.000105943
0.00012886
-0.000214315
2.06837e-05
-9.34612e-06
2.74167e-05
2.18722e-05
2.99932e-05
3.87574e-05
3.41545e-05
3.83186e-05
3.66138e-05
3.43532e-05
3.49506e-05
2.58757e-05
3.04872e-05
1.43121e-05
2.8069e-05
-8.1152e-07
2.42396e-05
-1.2891e-05
2.6138e-05
-3.02504e-05
2.94756e-05
-4.4534e-05
2.37606e-05
-3.62011e-05
1.59337e-05
-2.16186e-05
2.43146e-06
4.21252e-06
-1.67375e-05
2.60572e-05
-4.04002e-05
3.30322e-05
-6.90583e-05
3.06602e-05
-9.07745e-05
2.40084e-05
-0.000113928
2.75511e-05
-0.000149662
2.06618e-05
-0.000175907
3.92349e-05
-0.000228526
0.000158561
0.00020149
-0.000301156
1.08591e-05
-2.02052e-05
1.04523e-05
2.22789e-05
8.55459e-06
4.06551e-05
9.40937e-06
3.74638e-05
1.0721e-05
3.30416e-05
8.62124e-06
2.79755e-05
5.86385e-06
1.70695e-05
4.32678e-06
7.25552e-07
-1.07716e-05
2.20734e-06
-5.38758e-05
1.28538e-05
-9.63534e-05
-2.05636e-06
-0.000130808
-1.74655e-06
-0.00015473
2.30373e-06
-0.000173763
2.32448e-05
-0.000186889
3.91835e-05
-0.000198088
4.42315e-05
-0.000203932
3.65035e-05
-0.00020679
2.68666e-05
-0.000274275
9.50367e-05
-0.000408837
0.000155223
-0.000417253
4.76511e-05
-0.00038798
0.000129286
0.000177286
-0.000363774
-1.17388e-05
-8.46633e-06
-1.54735e-05
2.60136e-05
-1.50804e-05
4.02619e-05
-1.36805e-05
3.60639e-05
-8.5184e-06
2.78795e-05
-1.03822e-05
2.98393e-05
-2.76949e-05
3.43822e-05
-7.34624e-05
4.64931e-05
-0.000132725
6.14701e-05
-0.000173609
5.37379e-05
-0.000194662
1.89968e-05
-0.000205034
8.62481e-06
-0.000216165
1.34346e-05
-0.000227419
3.44989e-05
-0.000232028
4.37927e-05
-0.000245076
5.72797e-05
-0.000311562
0.000102989
-0.000526355
0.000241659
-0.000724184
0.000292866
-0.000646525
7.75637e-05
-0.000585353
-1.35213e-05
-0.000440342
-1.57254e-05
1.12117e-05
-0.000274268
-1.21169e-05
3.65059e-06
-1.30051e-05
2.69018e-05
-1.51387e-05
4.23955e-05
-2.40408e-05
4.4966e-05
-2.69083e-05
3.07469e-05
-4.38319e-05
4.67629e-05
-0.000119111
0.000109662
-0.000196074
0.000123456
-0.000233108
9.8504e-05
-0.000227164
4.77941e-05
-0.000222343
1.41757e-05
-0.000222904
9.18621e-06
-0.000226605
1.71358e-05
-0.000222563
3.04562e-05
-0.000222756
4.39858e-05
-0.000277412
0.000111935
-0.000412915
0.000238492
-0.00054177
0.000370514
-0.000496442
0.000247538
-0.000364884
-5.39937e-05
-0.000294492
-8.39134e-05
-0.000224264
-8.59538e-05
-8.92105e-05
-0.000123842
-1.97977e-05
2.34482e-05
-3.14598e-05
3.8564e-05
-3.58767e-05
4.68125e-05
-2.91627e-05
3.8252e-05
-5.15063e-05
5.30905e-05
-0.00012148
0.000116736
-0.000209315
0.000197497
-0.000249746
0.000163886
-0.000256221
0.000104979
-0.000250277
4.18504e-05
-0.00023739
1.2885e-06
-0.000220022
-8.18136e-06
-0.000209451
6.56406e-06
-0.000194576
1.55811e-05
-0.000190886
4.02957e-05
-0.000270697
0.000191747
-0.000360627
0.000328422
-0.000384604
0.000394491
-0.000331995
0.00019493
-0.00028246
-0.00010353
-0.000236578
-0.000129795
-0.000232724
-8.98081e-05
-4.28895e-05
-0.000279045
-2.56978e-05
4.9146e-05
-4.81699e-05
6.10361e-05
-8.75249e-05
8.61675e-05
-0.000109588
6.03155e-05
-0.000109839
5.33406e-05
-0.000123373
0.000130271
-0.000198305
0.000272429
-0.000271976
0.000237558
-0.00028662
0.000119622
-0.000269475
2.4706e-05
-0.000223829
-4.43575e-05
-0.000203117
-2.88929e-05
-0.000187449
-9.10409e-06
-0.000162313
-9.55536e-06
-0.000155642
3.36247e-05
-0.000192261
0.000228366
-0.000228814
0.000364974
-0.000190752
0.00035643
-0.000166537
0.000170714
-0.000213452
-5.66146e-05
-0.000259027
-8.42194e-05
-0.000309443
-3.93924e-05
-1.16488e-05
-0.000340683
-7.63901e-05
0.000125536
-9.41816e-05
7.88276e-05
-8.7339e-05
7.93249e-05
-8.8142e-05
6.11185e-05
-0.000109408
7.46069e-05
-0.000108254
0.000129116
-8.07683e-05
0.000244944
-0.00010996
0.00026675
-0.00015058
0.000160242
-0.00016582
3.99455e-05
-0.000206884
-3.29298e-06
-0.000218304
-1.7473e-05
-0.000185606
-4.18022e-05
-0.000179402
-1.57596e-05
-0.00017983
3.40528e-05
-0.000158583
0.00020712
-0.00012697
0.00033336
-9.10992e-05
0.000320559
-9.61983e-05
0.000175813
-0.000154377
1.56383e-06
-0.000206191
-3.24056e-05
-0.000226662
-1.89208e-05
-4.05774e-06
-0.000234253
-3.78816e-05
0.000163418
-6.73957e-05
0.000108342
-6.80348e-05
7.9964e-05
-7.6637e-05
6.97207e-05
-8.89518e-05
8.69217e-05
-9.28158e-05
0.00013298
-4.59558e-05
0.000198084
-3.03693e-06
0.000223831
-1.22115e-06
0.000158426
-3.61583e-05
7.48827e-05
-8.52682e-05
4.58169e-05
-0.000124874
2.21328e-05
-0.000165215
-1.46075e-06
-0.000188923
7.94761e-06
-0.000188956
3.40858e-05
-0.000133394
0.000151559
-8.10193e-05
0.000280985
-4.02288e-05
0.000279769
-4.27109e-05
0.000178295
-0.000114647
7.35002e-05
-0.000192706
4.56528e-05
-0.000260264
4.86378e-05
2.91442e-05
-0.000293466
-2.67228e-05
0.00019014
-4.83393e-05
0.000129958
-5.49508e-05
8.65755e-05
-6.01002e-05
7.487e-05
-5.83695e-05
8.5191e-05
-4.93296e-05
0.00012394
-1.99904e-05
0.000168745
1.78045e-05
0.000186036
2.59416e-05
0.000150289
5.1051e-06
9.57193e-05
-1.70155e-05
6.79376e-05
-4.44126e-05
4.95299e-05
-9.24693e-05
4.6596e-05
-0.000131596
4.70741e-05
-0.000150144
5.26344e-05
-0.000112952
0.000114366
-4.78619e-05
0.000215895
-1.3655e-05
0.000245562
-3.25003e-05
0.000197141
-9.14185e-05
0.000132418
-0.000138849
9.30832e-05
-0.000166853
7.66421e-05
5.21914e-05
-0.0001899
-1.86368e-05
0.000208777
-3.05717e-05
0.000141893
-3.58791e-05
9.18829e-05
-3.63023e-05
7.52932e-05
-3.17673e-05
8.06561e-05
-1.52521e-05
0.000107425
1.33371e-05
0.000140155
3.58056e-05
0.000163567
4.06402e-05
0.000145455
2.4995e-05
0.000111365
1.15988e-05
8.13338e-05
9.28679e-07
6.02001e-05
-1.52616e-05
6.27863e-05
-4.20415e-05
7.3854e-05
-7.79212e-05
8.85141e-05
-7.85875e-05
0.000115033
-3.10548e-05
0.000168362
1.0279e-05
0.000204228
1.166e-05
0.00019576
-1.99217e-05
0.000164
-5.60884e-05
0.00012925
-7.91577e-05
9.97114e-05
6.64604e-05
-9.34265e-05
-3.30479e-06
0.000212082
-8.41016e-06
0.000146998
-1.37654e-05
9.72381e-05
-1.42603e-05
7.57882e-05
-1.04331e-05
7.68288e-05
3.59325e-06
9.33987e-05
3.09297e-05
0.000112819
5.25045e-05
0.000141993
5.752e-05
0.000140439
4.73512e-05
0.000121533
3.66229e-05
9.20622e-05
2.92592e-05
6.75638e-05
2.23906e-05
6.96549e-05
1.64087e-05
7.98359e-05
8.92928e-06
9.59935e-05
6.23187e-06
0.00011773
2.69997e-05
0.000147594
6.38188e-05
0.000167409
8.87722e-05
0.000170806
0.000105722
0.00014705
0.000111156
0.000123816
0.000112641
9.82263e-05
6.64356e-05
0.000112666
1.27012e-05
0.000199381
1.12932e-05
0.000148406
6.85706e-06
0.000101674
4.52116e-06
7.81241e-05
5.78922e-06
7.55608e-05
1.37915e-05
8.53965e-05
3.23239e-05
9.42866e-05
5.54777e-05
0.000118839
6.43054e-05
0.000131611
6.33631e-05
0.000122476
5.7625e-05
9.78003e-05
5.06079e-05
7.4581e-05
4.59372e-05
7.43257e-05
4.51774e-05
8.05957e-05
4.93082e-05
9.18627e-05
5.99175e-05
0.000107121
8.42121e-05
0.000123299
0.000118571
0.000133051
0.000148816
0.000140561
0.000173696
0.00012217
0.000197668
9.98446e-05
0.000216726
7.91685e-05
5.86042e-05
0.000224557
2.10162e-05
0.000178365
2.39055e-05
0.000145517
2.18215e-05
0.000103758
1.90793e-05
8.08662e-05
1.80822e-05
7.65579e-05
2.12461e-05
8.22326e-05
2.91077e-05
8.6425e-05
4.70063e-05
0.00010094
6.11336e-05
0.000117484
6.80868e-05
0.000115522
6.78395e-05
9.80477e-05
6.23889e-05
8.00316e-05
5.90073e-05
7.77073e-05
5.93922e-05
8.02108e-05
6.59302e-05
8.53247e-05
8.03348e-05
9.27162e-05
0.000104224
9.941e-05
0.00013552
0.000101755
0.000171606
0.000104474
0.000193987
9.97891e-05
0.000216606
7.72254e-05
0.000242926
5.28492e-05
4.27172e-05
0.000258813
2.08804e-05
0.000157484
2.90769e-05
0.000137321
3.02006e-05
0.000102635
2.79426e-05
8.31242e-05
2.58037e-05
7.86968e-05
2.61685e-05
8.18679e-05
2.84804e-05
8.41131e-05
3.78985e-05
9.15221e-05
5.31916e-05
0.000102191
6.52115e-05
0.000103503
6.86316e-05
9.46276e-05
6.57194e-05
8.29438e-05
6.36478e-05
7.97788e-05
6.44915e-05
7.93672e-05
7.01499e-05
7.96663e-05
8.24668e-05
8.03992e-05
0.000100946
8.09313e-05
0.00012463
7.80707e-05
0.000157332
7.17725e-05
0.000180921
7.62003e-05
0.000198242
5.99038e-05
0.000222343
2.87487e-05
2.09212e-05
0.000244139
1.88945e-05
0.00013859
3.01575e-05
0.000126058
3.29359e-05
9.98562e-05
3.12082e-05
8.48519e-05
2.91673e-05
8.07377e-05
2.91158e-05
8.19194e-05
3.02412e-05
8.29877e-05
3.52752e-05
8.6488e-05
4.64568e-05
9.10095e-05
5.80496e-05
9.19098e-05
6.3866e-05
8.88112e-05
6.38236e-05
8.29863e-05
6.34753e-05
8.01271e-05
6.54699e-05
7.73727e-05
7.06108e-05
7.45254e-05
7.97182e-05
7.12919e-05
9.24207e-05
6.82289e-05
0.000108606
6.1885e-05
0.000126796
5.35825e-05
0.000147666
5.53311e-05
0.000165986
4.15831e-05
0.000181474
1.32614e-05
3.73937e-06
0.000198656
1.66883e-05
0.000121902
2.84042e-05
0.000114342
3.20089e-05
9.62515e-05
3.10428e-05
8.5818e-05
2.98703e-05
8.19102e-05
3.0348e-05
8.14416e-05
3.19663e-05
8.13695e-05
3.57701e-05
8.26843e-05
4.30364e-05
8.37433e-05
5.09996e-05
8.39466e-05
5.68919e-05
8.29189e-05
5.98895e-05
7.99887e-05
6.26151e-05
7.74016e-05
6.64433e-05
7.35445e-05
7.15917e-05
6.9377e-05
7.8596e-05
6.42876e-05
8.7469e-05
5.93559e-05
9.77119e-05
5.16421e-05
0.000107082
4.42124e-05
0.000121178
4.12353e-05
0.000135151
2.76096e-05
0.000140834
7.57822e-06
4.49094e-07
0.000144125
1.35522e-05
0.000108349
2.38866e-05
0.000104007
2.80603e-05
9.20778e-05
2.87127e-05
8.51657e-05
2.91325e-05
8.14904e-05
3.03355e-05
8.02386e-05
3.26299e-05
7.9075e-05
3.62157e-05
7.90985e-05
4.13557e-05
7.86033e-05
4.71761e-05
7.81262e-05
5.2716e-05
7.73791e-05
5.73344e-05
7.53703e-05
6.21484e-05
7.25876e-05
6.70957e-05
6.85971e-05
7.23808e-05
6.40919e-05
7.80363e-05
5.86321e-05
8.4241e-05
5.31513e-05
9.03453e-05
4.55378e-05
9.56709e-05
3.88868e-05
0.000103492
3.34142e-05
0.000109552
2.15496e-05
0.000108654
8.47588e-06
3.71116e-06
0.000105392
1.03687e-05
9.79807e-05
1.9038e-05
9.53379e-05
2.35603e-05
8.75555e-05
2.5811e-05
8.2915e-05
2.75463e-05
7.97552e-05
2.96023e-05
7.81827e-05
3.21702e-05
7.65071e-05
3.55948e-05
7.56739e-05
3.97221e-05
7.44761e-05
4.4472e-05
7.33763e-05
4.96435e-05
7.22077e-05
5.47444e-05
7.02694e-05
6.00915e-05
6.72405e-05
6.52191e-05
6.34695e-05
7.03602e-05
5.89508e-05
7.52054e-05
5.3787e-05
7.96522e-05
4.87045e-05
8.32671e-05
4.19228e-05
8.65774e-05
3.55765e-05
9.08343e-05
2.91573e-05
9.24995e-05
1.98845e-05
8.95042e-05
1.14712e-05
8.12955e-06
8.50859e-05
7.95139e-06
9.00293e-05
1.52116e-05
8.80776e-05
1.97206e-05
8.30466e-05
2.28003e-05
7.98352e-05
2.53643e-05
7.71912e-05
2.80988e-05
7.54482e-05
3.09096e-05
7.36963e-05
3.41969e-05
7.23866e-05
3.78281e-05
7.08449e-05
4.18853e-05
6.93191e-05
4.64816e-05
6.76113e-05
5.13661e-05
6.53849e-05
5.62345e-05
6.23721e-05
6.09246e-05
5.87794e-05
6.53555e-05
5.45198e-05
6.93867e-05
4.97559e-05
7.31083e-05
4.49829e-05
7.60732e-05
3.89579e-05
7.86911e-05
3.29587e-05
8.11283e-05
2.67201e-05
8.13942e-05
1.96186e-05
7.92028e-05
1.36626e-05
1.07402e-05
7.65923e-05
6.39738e-06
8.36319e-05
1.2521e-05
8.1954e-05
1.69119e-05
7.86557e-05
2.04379e-05
7.63093e-05
2.34787e-05
7.41504e-05
2.65082e-05
7.24186e-05
2.95435e-05
7.0661e-05
3.28106e-05
6.91196e-05
3.62387e-05
6.74167e-05
3.991e-05
6.56478e-05
4.39733e-05
6.3548e-05
4.83066e-05
6.10516e-05
5.25605e-05
5.81182e-05
5.66369e-05
5.47031e-05
6.04179e-05
5.07387e-05
6.38948e-05
4.6279e-05
6.72024e-05
4.16754e-05
6.98063e-05
3.6354e-05
7.18271e-05
3.09379e-05
7.34059e-05
2.51412e-05
7.35878e-05
1.94367e-05
7.26155e-05
1.46349e-05
1.12522e-05
7.21036e-05
5.33994e-06
7.8292e-05
1.05581e-05
7.67359e-05
1.47434e-05
7.44704e-05
1.83758e-05
7.26769e-05
2.16299e-05
7.08964e-05
2.47932e-05
6.92553e-05
2.79241e-05
6.753e-05
3.11706e-05
6.58731e-05
3.45301e-05
6.40572e-05
3.80069e-05
6.21711e-05
4.16113e-05
5.99436e-05
4.53205e-05
5.73425e-05
4.90442e-05
5.43945e-05
5.26388e-05
5.11084e-05
5.59883e-05
4.73892e-05
5.90304e-05
4.32369e-05
6.18084e-05
3.88974e-05
6.40826e-05
3.40797e-05
6.59469e-05
2.90736e-05
6.73625e-05
2.37257e-05
6.77813e-05
1.90179e-05
6.77569e-05
1.46593e-05
1.05705e-05
6.84386e-05
4.61398e-06
7.3678e-05
9.14469e-06
7.22052e-05
1.30711e-05
7.0544e-05
1.6636e-05
6.9112e-05
1.99372e-05
6.75952e-05
2.31276e-05
6.60649e-05
2.62527e-05
6.4405e-05
2.94227e-05
6.27031e-05
3.26471e-05
6.08328e-05
3.59512e-05
5.8867e-05
3.92228e-05
5.6672e-05
4.24851e-05
5.40802e-05
4.56854e-05
5.11941e-05
4.88078e-05
4.79861e-05
5.18632e-05
4.43338e-05
5.46406e-05
4.04595e-05
5.71905e-05
3.63475e-05
5.92676e-05
3.20026e-05
6.09473e-05
2.7394e-05
6.20549e-05
2.26181e-05
6.27729e-05
1.82998e-05
6.34931e-05
1.39392e-05
9.5518e-06
6.45119e-05
4.08164e-06
6.95964e-05
8.08619e-06
6.82006e-05
1.17247e-05
6.69054e-05
1.51046e-05
6.57321e-05
1.82935e-05
6.44063e-05
2.13936e-05
6.29648e-05
2.44183e-05
6.13803e-05
2.74327e-05
5.96886e-05
3.04494e-05
5.78162e-05
3.35167e-05
5.57997e-05
3.65927e-05
5.3596e-05
3.96426e-05
5.10304e-05
4.26031e-05
4.82336e-05
4.54646e-05
4.51245e-05
4.80639e-05
4.17345e-05
5.0429e-05
3.80943e-05
5.25766e-05
3.41999e-05
5.4448e-05
3.01312e-05
5.60094e-05
2.58326e-05
5.72601e-05
2.13673e-05
5.83863e-05
1.71736e-05
5.93409e-05
1.29846e-05
8.61829e-06
6.02744e-05
3.66755e-06
6.59288e-05
7.26863e-06
6.45995e-05
1.06427e-05
6.35314e-05
1.38426e-05
6.25322e-05
1.68978e-05
6.13511e-05
1.98603e-05
6.00023e-05
2.275e-05
5.84906e-05
2.56112e-05
5.68274e-05
2.84516e-05
5.49758e-05
3.1261e-05
5.29902e-05
3.40522e-05
5.08048e-05
3.6737e-05
4.83457e-05
3.93679e-05
4.56027e-05
4.18666e-05
4.26259e-05
4.42281e-05
3.9373e-05
4.64539e-05
3.58685e-05
4.84656e-05
3.21882e-05
5.02665e-05
2.83303e-05
5.17337e-05
2.43653e-05
5.28836e-05
2.02174e-05
5.39124e-05
1.61449e-05
5.49232e-05
1.19738e-05
7.67016e-06
5.58713e-05
3.29552e-06
6.26333e-05
6.53631e-06
6.13587e-05
9.64051e-06
6.04272e-05
1.26307e-05
5.95419e-05
1.55134e-05
5.84684e-05
1.83023e-05
5.72134e-05
2.10232e-05
5.57697e-05
2.37001e-05
5.41505e-05
2.63256e-05
5.23503e-05
2.89278e-05
5.0388e-05
3.15066e-05
4.8226e-05
3.40107e-05
4.58415e-05
3.64318e-05
4.31816e-05
3.87289e-05
4.03287e-05
4.08731e-05
3.72288e-05
4.27952e-05
3.39464e-05
4.45359e-05
3.04476e-05
4.60806e-05
2.67856e-05
4.74467e-05
2.29992e-05
4.86282e-05
1.90358e-05
4.97042e-05
1.50689e-05
5.06458e-05
1.10323e-05
6.85704e-06
5.14589e-05
2.99853e-06
5.96348e-05
5.95693e-06
5.84003e-05
8.81964e-06
5.75645e-05
1.15986e-05
5.6763e-05
1.4292e-05
5.5775e-05
1.69054e-05
5.46e-05
1.94479e-05
5.32272e-05
2.19297e-05
5.16688e-05
2.43548e-05
4.99253e-05
2.67436e-05
4.79992e-05
2.90674e-05
4.59022e-05
3.13214e-05
4.35875e-05
3.34654e-05
4.10377e-05
3.5505e-05
3.8289e-05
3.73916e-05
3.53423e-05
3.91675e-05
3.21704e-05
4.08002e-05
2.88148e-05
4.22786e-05
2.53072e-05
4.35736e-05
2.17042e-05
4.46498e-05
1.79596e-05
4.55838e-05
1.41349e-05
4.64174e-05
1.01987e-05
6.13984e-06
4.71347e-05
2.71709e-06
5.69177e-05
5.40572e-06
5.57117e-05
8.02494e-06
5.49453e-05
1.058e-05
5.42079e-05
1.30666e-05
5.32884e-05
1.54929e-05
5.21737e-05
1.7857e-05
5.08631e-05
2.01594e-05
4.93664e-05
2.24003e-05
4.76843e-05
2.45825e-05
4.5817e-05
2.67165e-05
4.37682e-05
2.87717e-05
4.15323e-05
3.07249e-05
3.90844e-05
3.25692e-05
3.64448e-05
3.42918e-05
3.36197e-05
3.58816e-05
3.05806e-05
3.73162e-05
2.73802e-05
3.85972e-05
2.40262e-05
3.97357e-05
2.05658e-05
4.0734e-05
1.69612e-05
4.16033e-05
1.32657e-05
4.23434e-05
9.45851e-06
5.5324e-06
4.29509e-05
2.47461e-06
5.44431e-05
4.92171e-06
5.32646e-05
7.31945e-06
5.25475e-05
9.66381e-06
5.18636e-05
1.1953e-05
5.09992e-05
1.41878e-05
4.99389e-05
1.63628e-05
4.86881e-05
1.84739e-05
4.72553e-05
2.05225e-05
4.56357e-05
2.25063e-05
4.38332e-05
2.44278e-05
4.18467e-05
2.62705e-05
3.96896e-05
2.80218e-05
3.73331e-05
2.96786e-05
3.4788e-05
3.1229e-05
3.20692e-05
3.2654e-05
2.91556e-05
3.3956e-05
2.60782e-05
3.5108e-05
2.28743e-05
3.61267e-05
1.95471e-05
3.70017e-05
1.60861e-05
3.77503e-05
1.25171e-05
3.83823e-05
8.82656e-06
5.02659e-06
3.88881e-05
2.23955e-06
5.22035e-05
4.4631e-06
5.10411e-05
6.64981e-06
5.03608e-05
8.79232e-06
4.97211e-05
1.08866e-05
4.89049e-05
1.2929e-05
4.78965e-05
1.49142e-05
4.67029e-05
1.68417e-05
4.53277e-05
1.87057e-05
4.37718e-05
2.05029e-05
4.2036e-05
2.22261e-05
4.01236e-05
2.3878e-05
3.80377e-05
2.54438e-05
3.57672e-05
2.69179e-05
3.33139e-05
2.82914e-05
3.06958e-05
2.95548e-05
2.78922e-05
3.06981e-05
2.49349e-05
3.17153e-05
2.1857e-05
3.26085e-05
1.86539e-05
3.33773e-05
1.53173e-05
3.40261e-05
1.18683e-05
3.45535e-05
8.29911e-06
4.62577e-06
3.49544e-05
2.02131e-06
5.01822e-05
4.03587e-06
4.90265e-05
6.01879e-06
4.83779e-05
7.96559e-06
4.77743e-05
9.87027e-06
4.70002e-05
1.1724e-05
4.60428e-05
1.35214e-05
4.49055e-05
1.52594e-05
4.35897e-05
1.69323e-05
4.20989e-05
1.85468e-05
4.04215e-05
2.00933e-05
3.85771e-05
2.15728e-05
3.65582e-05
2.29741e-05
3.4366e-05
2.42862e-05
3.20019e-05
2.54997e-05
2.94822e-05
2.65983e-05
2.67936e-05
2.75764e-05
2.39567e-05
2.84524e-05
2.09811e-05
2.92259e-05
1.78804e-05
2.98855e-05
1.46577e-05
3.04257e-05
1.13281e-05
3.08482e-05
7.87655e-06
4.32485e-06
3.11492e-05
1.82232e-06
4.83599e-05
3.64401e-06
4.72048e-05
5.43888e-06
4.6583e-05
7.19685e-06
4.60163e-05
8.91318e-06
4.52839e-05
1.05799e-05
4.4376e-05
1.21925e-05
4.3293e-05
1.37477e-05
4.20345e-05
1.52415e-05
4.06052e-05
1.66714e-05
3.89916e-05
1.8037e-05
3.72115e-05
1.93307e-05
3.52645e-05
2.05532e-05
3.31434e-05
2.16965e-05
3.08586e-05
2.27575e-05
2.84211e-05
2.37234e-05
2.58278e-05
2.45902e-05
2.30898e-05
2.53422e-05
2.02291e-05
2.59787e-05
1.7244e-05
2.65113e-05
1.4125e-05
2.69427e-05
1.08967e-05
2.72614e-05
7.55778e-06
4.11892e-06
2.74674e-05
1.63475e-06
4.67252e-05
3.26827e-06
4.55713e-05
4.8802e-06
4.49711e-05
6.45541e-06
4.44411e-05
7.99307e-06
4.37463e-05
9.48872e-06
4.28804e-05
1.0933e-05
4.18486e-05
1.23185e-05
4.0649e-05
1.36481e-05
3.92756e-05
1.49057e-05
3.7734e-05
1.60923e-05
3.60249e-05
1.7207e-05
3.41498e-05
1.82515e-05
3.2099e-05
1.92207e-05
2.98893e-05
2.01143e-05
2.75276e-05
2.09231e-05
2.5019e-05
2.16414e-05
2.23715e-05
2.22782e-05
1.95923e-05
2.28283e-05
1.66938e-05
2.32623e-05
1.3691e-05
2.35808e-05
1.05783e-05
2.37941e-05
7.34442e-06
4.00869e-06
2.39044e-05
1.4622e-06
4.5263e-05
2.91535e-06
4.41182e-05
4.34239e-06
4.3544e-05
5.74079e-06
4.30427e-05
7.10809e-06
4.2379e-05
8.43822e-06
4.15502e-05
9.72901e-06
4.05579e-05
1.09705e-05
3.94076e-05
1.21557e-05
3.80903e-05
1.32727e-05
3.6617e-05
1.43204e-05
3.49772e-05
1.52974e-05
3.31727e-05
1.61889e-05
3.12075e-05
1.69909e-05
2.90874e-05
1.77045e-05
2.6814e-05
1.83297e-05
2.43938e-05
1.8872e-05
2.18292e-05
1.93408e-05
1.91235e-05
1.97308e-05
1.63037e-05
2.00566e-05
1.33652e-05
2.03041e-05
1.03308e-05
2.0435e-05
7.21349e-06
3.99015e-06
2.04536e-05
1.30724e-06
4.39557e-05
2.57728e-06
4.28481e-05
3.82961e-06
4.22917e-05
5.04933e-06
4.1823e-05
6.23781e-06
4.11905e-05
7.39534e-06
4.03927e-05
8.52067e-06
3.94325e-05
9.60499e-06
3.83233e-05
1.06348e-05
3.70605e-05
1.16037e-05
3.56481e-05
1.25004e-05
3.40805e-05
1.33176e-05
3.23556e-05
1.40632e-05
3.04619e-05
1.47448e-05
2.84057e-05
1.53509e-05
2.6208e-05
1.58805e-05
2.38641e-05
1.63215e-05
2.13882e-05
1.66515e-05
1.87936e-05
1.68839e-05
1.60713e-05
1.70344e-05
1.32147e-05
1.71143e-05
1.02509e-05
1.71433e-05
7.18441e-06
4.04465e-06
1.70888e-05
1.17173e-06
4.2784e-05
2.23137e-06
4.17885e-05
3.26112e-06
4.1262e-05
4.27944e-06
4.08047e-05
5.28067e-06
4.01893e-05
6.25843e-06
3.9415e-05
7.21657e-06
3.84744e-05
8.15766e-06
3.73822e-05
9.07132e-06
3.61468e-05
9.94167e-06
3.47778e-05
1.07513e-05
3.32709e-05
1.14844e-05
3.16226e-05
1.2127e-05
2.98192e-05
1.26785e-05
2.78542e-05
1.31288e-05