/*--------------------------------*- C++ -*----------------------------------*\
| =========                 |                                                 |
| \\      /  F ield         | OpenFOAM: The Open Source CFD Toolbox           |
|  \\    /   O peration     | Version:  2.4.0                                 |
|   \\  /    A nd           | Web:      www.OpenFOAM.org                      |
|    \\/     M anipulation  |                                                 |
\*---------------------------------------------------------------------------*/
FoamFile
{
    version     2.0;
    format      ascii;
    class       volScalarField;
    location    "0.9";
    object      rho;
}
// * * * * * * * * * * * * * * * * * * * * * * * * * * * * * * * * * * * * * //

dimensions      [1 -3 0 0 0 0 0];

internalField   nonuniform List<scalar> 
2268
(
13529
13529
13529
13529
13529
13529
13529
13529
13529
13529
13529
13529
13529
13529
13529
13529
13529
13529
13529
13529
13529
13528.9
13528.9
13528.6
13528.7
13528.9
13529
13529
13529
13529
13529
13529
13529
13529
13529
13529
13529
13529
13529
13529
13529
13529
13529
13529
13528.9
13528.9
11806.9
13067.6
13508.6
13528.2
13528.9
13529
13529
13529
13529
13529
13529
13529
13529
13529
13529
13529
13529
13529
13529
13529
13529
13528.9
13528.8
2201.44
4648.76
10147
13185.7
13508.3
13527.1
13528.5
13528.8
13528.9
13529
13529
13529
13529
13529
13529
13529
13529
13529
13529
13529
13529
13528.9
13528.8
1010.05
1175.51
3959.74
10867.6
13262
13505.7
13525.9
13528.2
13528.4
13526.9
13523.4
13520.9
13521.1
13522.2
13524.6
13526.9
13528.2
13528.6
13528.6
13528.1
13525.9
13522
13508.6
1000.1
1030.16
2179.29
7696.16
12464.3
13398.6
13505.4
13500.4
13397
13139.9
12774
12552.4
12564
12656.9
12843.8
13057.1
13216.5
13308.8
13319.1
13244.2
13026.9
12681.4
11443.1
1000.09
1006.46
1442.4
4942.6
10750.4
12881
12857.9
11798
9940.76
7613.15
5491.79
4333.12
4075.14
4215.75
4833.36
5895.9
6850.53
7604.66
7951.5
7676.34
6628.32
4245.89
1700.64
1000.07
1000.74
1098.22
2339.13
5480
7318.3
6589.51
4289.26
2487.85
1512.63
1140.63
1031.28
1022.28
1015.54
1010.76
1013.66
1033.77
1069.13
1108.58
1123.14
1106.64
1017.33
1041.65
11825.4
10464.6
10421.9
11016.5
11835.7
12347.9
12524.6
12573.8
12602.2
12619.7
12639
12663.4
12682.9
12695.8
12703.8
12707.3
12707.2
12707.3
12706.4
7147.14
2818.66
1711.61
1677.69
1791.79
2040.78
2400.86
2928.34
3461.6
3868.66
4615.43
6854.46
9338.89
10679.1
11795.8
12665.3
12708.2
12707.5
12707.4
879.755
754.482
749.348
799.537
851.374
891.332
896.433
892.987
892.032
902.584
1339.47
4279.38
8144.85
10359.3
11910.8
12674.3
12709.5
12708.9
12707.6
618.429
535.639
545.938
570.406
631.734
767.514
847.262
854.795
862.03
891.559
1188.78
3071.32
6467.2
8622.91
11378
12453
12710
12709.4
12696.7
808.413
507.912
507.388
508.848
514.721
564.795
787.858
879.839
890.144
890.595
975.447
1650.02
3164.4
4110.07
8702.21
12337.6
12699
12652.3
12568.4
400.4
497.544
506.18
506.393
506.351
508.923
641.611
838.225
873.878
890.527
902.561
1025.44
1014.67
1374.4
3137.36
10150.9
12627.5
12516.6
12404.9
507.173
502.513
501.419
503.334
504.303
506.323
562.958
831.109
888.533
890.436
887.974
832.232
703.211
900.558
1030.37
4379.89
11612.2
12354.1
11884.6
593.092
494.917
498.136
498.136
498.335
505.846
530.225
791.885
887.321
882.003
879.707
828.08
641.146
584.556
726.543
1086.19
4543.24
7126.06
7102.67
1000.03
1000.1
1016.14
1216.84
1528.31
1514.08
1346.96
1217.86
1131.03
1066.22
1024.99
1011.42
1000.33
998.507
997.917
997.31
995.383
993.742
993.425
993.11
985.777
980.995
1005.17
1000
1000.01
1000.45
1006.79
1016.05
1015.22
1010.3
1010.27
1010.24
1008.88
1001.89
998.938
994.249
988.915
986.726
988.273
986.911
980.782
975.381
939.009
830.293
803.58
818.338
996.416
998.41
999.207
1000.31
1002.59
1004.83
1005.37
1005
1003.05
1000.76
991.479
954.594
905.778
878.126
889.429
922.871
941.546
932.362
907.257
725.761
492.427
457.554
563.672
864.627
923.443
968.353
985.266
995.039
998.356
998.68
998.56
996.989
972.928
864.424
737.355
662.93
623.608
657.525
757.906
800.623
691.59
545.219
307.236
41.3187
89.5972
418.833
632.531
654.347
837.998
938.751
978.416
984.708
980.359
960.032
886.804
758.196
593.792
530.2
528.153
565.736
599.877
613.325
592.923
454.865
139.642
4.4067
3.08927
5.50187
87.8036
576.336
577.474
699.501
824.355
869.982
865.196
793.705
655.408
585.099
562.178
536.705
526.585
534.564
549.854
551.625
538.294
357.62
58.2334
11.8854
3.42024
3.42108
4.5143
10.3898
555.925
571.606
588.349
631.662
623.755
579.066
563.807
552.824
537.556
535.177
525.15
525.791
529.604
530.127
517.712
342.671
50.6215
3.49234
13.9674
88.7485
137.924
136.877
155.871
436.172
440.811
357.192
211.487
80.5114
60.0619
127.892
329.636
444.676
473.92
483.987
498.91
507.27
501.499
365.985
66.3611
2.41848
1.21284
10.7954
86.734
183.41
185.755
99.1002
197.749
58.5247
22.4212
4.77769
1.72362
1.77163
7.85451
40.2432
70.556
78.285
212.679
416.844
466.816
427.203
151.776
5.27234
1.03567
1.16345
2.09783
1.32308
1.23946
1.42675
1.11549
8.89215
1.81558
1.119
1.00442
1.00041
1.00232
1.09639
1.62984
1.94256
1.52093
7.22186
63.4706
160.446
174.413
48.0573
2.01576
1.01614
1.01714
1.01932
1.0024
1.00049
1.00037
1.00037
1.03933
1.00137
1.00008
1.00002
1.00001
1.00001
1.00015
1.00113
1.00124
1.00034
1.03647
1.91233
5.01298
7.97314
8.48345
2.79178
1.02063
1.00064
1.00042
1.00023
1.00024
1.00026
1.00028
1.00005
1.00002
1.00002
1.00001
1.00001
1
1
1.00002
1.00003
1.00003
1.00006
1.00305
1.06569
1.32964
1.78055
2.09698
1.12561
1.00125
1.00044
1.00023
1.00023
1.00029
1.00033
1.00004
1.00002
1.00003
1.00002
1.00001
1
1
1
1.00001
1.00001
1.00002
1.00002
1.00016
1.00272
1.0474
1.203
1.22957
1.01093
1.00066
1.00031
1.00025
1.00031
1.00045
1.00006
1.00007
1.00006
1.00004
1.00001
1
1.00001
1.00001
1.00001
1.00001
1.00001
1.00001
1.00002
1.00003
1.00037
1.01651
1.10836
1.05801
1.01117
1.00157
1.00066
1.00047
1.00051
1.0001
1.00011
1.00006
1.00004
1.00001
1
1.00001
1.00001
1.00001
1.00001
1.00001
1.00002
1.00002
1.00002
1.00004
1.00017
1.00501
1.03279
1.03315
1.02069
1.00444
1.00106
1.0006
1.00011
1.0001
1.00005
1.00004
1.00002
1
1
1.00001
1.00001
1.00001
1.00002
1.00003
1.00002
1.00002
1.00001
1.00002
1.00006
1.00429
1.01246
1.01141
1.01137
1.01046
1.00538
1.0001
1.00005
1.00005
1.00004
1.00001
1
1
1.00001
1.00001
1.00001
1.00003
1.00003
1.00002
1.00002
1.00001
1.00001
1.00001
1.0001
1.00046
1.00114
1.00287
1.00281
1.00431
1.00007
1.00005
1.00005
1.00002
1.00001
1
1
1
1
1.00001
1.00002
1.00002
1.00001
1.00001
1.00001
1.00002
1.00002
1.00003
1.00004
1.00008
1.0002
1.0003
1.00062
1.00007
1.00006
1.00003
1.00001
1
0.999999
1
1
1
1
1
1
1
1.00001
1.00002
1.00003
1.00004
1.00003
1.00003
1.00004
1.00006
1.00018
1.0004
1.00005
1.00003
1.00001
1
0.999999
1
1
1
1
1
1
1
1
1
1.00001
1.00005
1.00006
1.00006
1.00004
1.00003
1.00004
1.00008
1.00023
1.00002
1.00001
1
0.999999
0.999999
1
1
1
1
1
1
1
1
1
1.00001
1.00004
1.00006
1.00006
1.00004
1.00002
1.00003
1.00004
1.00008
1
1
0.999999
0.999999
1
1
1
1
1
1
1
1
1
1
1.00001
1.00002
1.00003
1.00003
1.00002
1.00001
1.00001
1.00002
1.00003
0.999999
0.999999
0.999999
0.999999
1
1
1
1
1
1
1
1
1
1
1.00001
1.00001
1.00001
1.00001
1.00001
1.00001
1
1.00001
1.00001
0.999999
0.999999
0.999999
0.999999
1
1
1
1
1
1
1
1
1
1
1
1.00001
1.00001
1.00001
1.00001
1.00001
1
1
1
0.999999
0.999999
0.999999
1
1
1
1
1
1
1
1
1
1
1
1
1
1
1.00001
1.00001
1
1
1
1
0.999999
0.999999
0.999999
1
1
1
1
1
1
1
1
1
1
1
1
1
1
1
1
1
1
1
1
0.999999
0.999999
0.999999
1
1
1
1
1
1
1
1
1
1
1
1
1
1
1
1
1
1
0.999999
0.999999
0.999999
0.999999
1
1
1
1
1
1
1
1
1
1
1
1
1
1
1
1
1
1
0.999999
0.999999
0.999999
0.999999
0.999999
1
1
1
1
1
1
1
1
1
1
1
1
1
1
1
1
1
0.999999
0.999999
0.999999
0.999999
0.999999
1
1
1
1
1
1
1
1
1
1
1
1
1
1
1
1
1
1
1
0.999999
0.999999
0.999999
0.999999
1
1
1
1
1
1
1
1
1
1
1
1
1
1
1
1
1
1
1
1
0.999999
0.999999
1
1
1
1
1
1
1
1
1
1
1
1
1
1
1
1
1
1
1
1
1
0.999999
0.999999
1
1
1
1
1
1
1
1
1
1
1
1
1
1
1
1
1
1
1
1
1
1
0.999999
1
1
1
1
1
1
1
1
1
1
1
1
1
1
1
1
1
1
1
1
1
1
0.999999
1
1
1
1
1
1
1
1
1
1
1
1
1
1
1
1
1
1
1
1
1
1
0.999999
1
1
1
1
1
1
1
1
1
1
1
1
1
1
1
1
1
1
1
1
1
1
0.999999
1
1
1
1
1
1
1
1
1
1
1
1
1
1
1
1
1
1
1
1
1
1
0.999999
1
1
1
1
1
1
1
1
1
1
1
1
1
1
1
1
1
1
1
1
1
1
0.999999
1
1
1
1
1
1
1
1
1
1
1
1
1
1
1
1
1
1
0.999999
0.999999
1
1
1
1
1
1
1
1
1
1
1
1
1
1
1
1
1
1
1
1
0.999999
0.999999
0.999999
1
1
1
1
1
1
1
1
1
1
1
1
1
1
1
1
1
1
1
0.999999
0.999999
0.999999
0.999999
0.999999
1
0.999999
1
1
1
1
1
1
1
1
1
1
1
1
1
1
1
1
1
0.999999
0.999999
0.999999
0.999999
0.999999
0.999999
1715.49
1800.81
1494.71
1208.02
655.745
503.292
492.937
504.923
538.301
514.141
512.765
518.09
511.674
507.628
510.307
520.982
272.182
325.463
375.648
462.942
71.8003
108.306
106.255
142.751
143.018
43.221
7.92891
4.80229
1.1375
1.07548
1.00589
1.00072
1.00538
1.00045
1.00044
1.00055
1.00028
1.00034
1.00038
1.00048
1.00028
1.00034
1.0004
1.00043
1.00039
1.00041
1.00046
1.00051
1.00052
1.00057
1.00072
1.00088
1.00055
1.00056
1.00055
1.0006
1.00064
1.00064
1.00065
1.00069
1.00146
1.0007
1.00072
1.00073
1.00468
1.00473
1.00476
1.0033
1.00153
1.00366
1.00213
1.00082
1.00054
1.00065
1.00066
1.00069
1.0003
1.00038
1.00045
1.00048
1.0001
1.00012
1.00013
1.00016
1.00003
1.00005
1.00008
1.00008
1.00001
1.00002
1.00002
1.00002
1
1
1
1
1
1
1
1
1
0.999999
0.999999
0.999999
0.999999
0.999999
0.999998
0.999998
0.999999
0.999998
0.999998
0.999998
0.999998
0.999998
0.999998
0.999998
0.999999
0.999998
0.999998
0.999998
0.999999
0.999998
0.999998
0.999998
0.999999
0.999999
0.999998
0.999998
0.999999
0.999999
0.999998
0.999998
0.999999
0.999999
0.999998
0.999998
0.999999
0.999999
0.999998
0.999997
0.999999
0.999999
0.999998
0.999997
0.999999
0.999998
0.999998
0.999997
0.999999
0.999999
0.999998
0.999998
0.999999
0.999998
0.999998
0.999998
0.999999
0.999999
0.999998
0.999998
0.999999
0.999998
0.999997
0.999998
0.999998
0.999998
0.999998
0.999999
569.476
490.097
497.809
498.151
497.129
502.844
527.021
726.53
870.769
860.581
865.241
843.746
714.676
612.91
557.259
556.713
676.028
949.108
1213.34
509.315
513.175
514.989
509.168
504.041
500.766
523.39
663.911
836.833
873.002
864.607
852.35
784.434
671.213
564.478
546.488
604.261
756.121
979.251
527.364
534.424
538.743
537.216
522.216
512.21
532.653
658.87
799.891
850.605
850.187
841.259
791.554
702.023
598.017
565.539
603.303
755.358
978.015
530.133
537.731
547.555
553.532
551.442
544.608
563.203
658.801
738.658
764.614
769.701
774.206
772.6
697.003
611.387
580.369
620.66
757.165
877.636
503.609
528.354
544.719
561.069
571.317
576.031
590.959
644.455
685.931
698.195
698.995
699.415
716.07
662.214
615.569
616.908
675.916
735.883
749.457
300.054
472.124
532.425
560.062
582.077
594.571
604.129
619.418
625.978
627.79
626.29
630.764
631.679
634.56
638.554
670.039
682.6
675.749
658.266
17.6612
159.172
439.303
545.364
575.977
553.927
537.9
580.082
605.122
610.651
621.051
639.547
656.195
667.752
665.37
661.977
636.739
584.893
581.401
1.08722
8.68279
124.886
422.757
541.471
499.514
451.35
451.776
590.72
651.505
668.204
672.633
671.828
663.993
639.081
520.415
416.777
341.348
395.633
1.00063
1.10698
9.96784
129.99
419.29
531.074
563.528
509.076
535.511
631.409
662.701
655.564
627.695
537.24
371.941
152.264
33.6737
16.0867
40.0904
1.00052
1.00078
1.21238
15.5455
174.401
475.216
583.74
612.172
624.949
625.712
616.237
547.912
415.778
159.537
12.2475
1.04814
1.00218
1.00206
1.00546
1.00046
1.00047
1.00085
1.22429
14.4373
155.643
418.69
521.555
545.218
539.939
489.938
298.221
40.4801
1.20753
1.00125
1.00126
1.00168
1.00091
1.00076
1.0006
1.0005
1.00034
1.00029
1.0189
3.53803
60.5353
271.018
388.103
377.934
169.611
13.2608
1.00875
1.00116
1.00152
1.00586
1.01063
1.00696
1.00095
1.00105
1.00098
1.00053
1.00021
1.00026
1.00256
1.61095
14.9862
51.6124
53.3165
4.43835
1.00262
1.00084
1.00114
1.00779
1.01171
1.01172
1.01166
1.00232
1.00101
1.00119
1.00107
1.00034
1.00012
1.00032
1.01663
1.10796
1.1625
1.0955
1.00767
1.00095
1.00086
1.00091
1.00332
1.00752
1.01087
1.01163
1.00218
1.00074
1.00117
1.00123
1.00073
1.00017
1.00008
1.00008
1.00029
1.00084
1.00105
1.00107
1.00111
1.00092
1.00092
1.00075
1.00074
1.00144
1.00274
1.00098
1.00076
1.00107
1.00123
1.00075
1.00026
1.00007
1.00005
1.00014
1.0009
1.00105
1.00112
1.00104
1.00087
1.00088
1.00071
1.00066
1.0006
1.00059
1.00072
1.00099
1.0011
1.00101
1.00068
1.00019
1.00007
1.00004
1.00014
1.00067
1.00097
1.00103
1.00104
1.00101
1.00072
1.00062
1.00056
1.00051
1.00057
1.00071
1.00084
1.00116
1.00113
1.0005
1.00013
1.00005
1.00003
1.00004
1.00009
1.00043
1.00094
1.00107
1.00098
1.00059
1.00044
1.00038
1.00042
1.00091
1.00214
1.00098
1.00111
1.0008
1.00025
1.00007
1.00003
1.00001
1.00001
1.00005
1.00011
1.00019
1.00031
1.00034
1.00025
1.00016
1.00021
1.00037
1.0028
1.00329
1.00048
1.00038
1.00019
1.00009
1.00003
1.00001
1
1
1.00002
1.00003
1.00005
1.00007
1.00007
1.00005
1.00004
1.00013
1.00103
1.00292
1.00277
1.00014
1.00009
1.00004
1.00002
1.00001
1
1
0.999999
1
1
1.00001
1.00001
1.00001
1.00002
1.00005
1.00018
1.00131
1.00298
1.00073
1.00005
1.00002
1.00001
1
1
0.999999
0.999998
0.999998
0.999999
1
1
1.00001
1.00002
1.00004
1.0001
1.00026
1.00054
1.00237
1.00073
1.00001
1
1
0.999999
0.999998
0.999998
0.999998
0.999998
0.999999
1
1
1.00001
1.00003
1.00006
1.00022
1.00037
1.00052
1.00075
1.0007
1
1
0.999999
0.999999
0.999998
0.999998
0.999998
0.999998
0.999999
1
1
1.00001
1.00004
1.00014
1.00035
1.00049
1.00063
1.00082
1.00067
0.999999
0.999999
0.999999
0.999998
0.999998
0.999998
0.999998
0.999998
0.999999
1
1
1.00002
1.00005
1.00035
1.00061
1.00064
1.00075
1.00094
1.00063
0.999999
0.999998
0.999998
0.999998
0.999997
0.999997
0.999998
0.999998
0.999999
1
1.00001
1.00002
1.00006
1.00079
1.00526
1.003
1.00161
1.00121
1.00093
0.999998
0.999998
0.999997
0.999997
0.999997
0.999997
0.999998
0.999998
0.999999
1
1.00001
1.00003
1.00009
1.00101
1.01342
1.01358
1.00954
1.00655
1.00169
0.999998
0.999997
0.999997
0.999997
0.999997
0.999997
0.999998
0.999998
0.999999
1
1.00001
1.00003
1.0001
1.00087
1.01232
1.01808
1.01806
1.01207
1.00161
0.999997
0.999997
0.999997
0.999997
0.999997
0.999997
0.999998
0.999999
0.999999
1
1.00001
1.00003
1.00009
1.00049
1.00125
1.01436
1.01799
1.00444
1.00074
0.999997
0.999997
0.999996
0.999996
0.999997
0.999997
0.999998
0.999999
0.999999
1
1.00001
1.00003
1.00007
1.00038
1.00076
1.00109
1.00219
1.00107
1.00038
0.999997
0.999996
0.999996
0.999997
0.999997
0.999998
0.999998
0.999999
1
1
1.00001
1.00003
1.00008
1.00031
1.00052
1.00073
1.00127
1.00062
1.00027
0.999997
0.999996
0.999996
0.999997
0.999997
0.999998
0.999998
0.999999
1
1
1.00002
1.00005
1.00017
1.00033
1.00044
1.00059
1.00087
1.00046
1.00021
0.999997
0.999996
0.999997
0.999997
0.999998
0.999998
0.999999
0.999999
1
1.00001
1.00002
1.00008
1.00029
1.00045
1.00053
1.00091
1.00058
1.00037
1.0001
0.999997
0.999997
0.999997
0.999998
0.999998
0.999999
0.999999
0.999999
1
1.00001
1.00003
1.00013
1.0004
1.0006
1.00101
1.00163
1.0005
1.00019
1.00005
0.999997
0.999997
0.999997
0.999998
0.999998
0.999999
0.999999
0.999999
1
1.00001
1.00003
1.00014
1.00044
1.0008
1.00148
1.00135
1.00031
1.00009
1.00002
0.999997
0.999997
0.999998
0.999998
0.999999
0.999999
0.999999
0.999999
1
1.00001
1.00002
1.00009
1.00034
1.00047
1.00087
1.00038
1.00015
1.00003
1.00001
0.999997
0.999998
0.999998
0.999999
0.999999
0.999999
0.999999
0.999999
1
1
1.00001
1.00004
1.00018
1.00025
1.00027
1.00015
1.00007
1.00001
1
0.999998
0.999998
0.999999
0.999999
0.999999
0.999999
0.999999
0.999999
1
1
1
1.00001
1.00006
1.00008
1.00008
1.00005
1.00002
1.00001
1
0.999998
0.999999
0.999999
0.999999
0.999999
0.999999
0.999999
0.999999
1
1
1
1
1.00001
1.00002
1.00001
1.00001
1.00001
1
1
0.999998
0.999999
0.999999
0.999999
0.999999
0.999999
0.999999
0.999999
1
1
1
1
1
1
1
1
1
1
1
0.999999
0.999999
0.999999
0.999999
0.999999
0.999999
1
1
1
1
1
1
1
1
1
1
1
1
1
0.999999
0.999999
1
1
1
1
1
1
1
1
1
1
1
1
1
1
1
1
1
)
;

boundaryField
{
    leftWall
    {
        type            calculated;
        value           nonuniform List<scalar> 
50
(
13529
13528.6
11806.9
2201.44
1010.05
1000.1
1000.09
1000.07
1000.03
1000
996.416
864.627
632.531
576.336
555.925
436.172
197.749
8.89215
1.03933
1.00005
1.00004
1.00006
1.0001
1.00011
1.0001
1.00007
1.00007
1.00005
1.00002
1
0.999999
0.999999
0.999999
0.999999
0.999999
0.999999
0.999999
0.999999
0.999999
1
1
1
1
1
1
1
1
1
1
1
)
;
    }
    rightWall
    {
        type            calculated;
        value           nonuniform List<scalar> 
50
(
12706.4
12707.4
12707.6
12696.7
12568.4
12404.9
11884.6
7102.67
1213.34
979.251
978.015
877.636
749.457
658.266
581.401
395.633
40.0904
1.00546
1.00076
1.00095
1.00232
1.00218
1.00098
1.00072
1.00071
1.00214
1.00329
1.00277
1.00073
1.00073
1.0007
1.00067
1.00063
1.00093
1.00169
1.00161
1.00074
1.00038
1.00027
1.00021
1.0001
1.00005
1.00002
1.00001
1
1
1
1
1
1
)
;
    }
    lowerWall
    {
        type            calculated;
        value           nonuniform List<scalar> 
62
(
13529
13529
13529
13529
13529
13529
13529
13529
13529
13529
13529
13529
13529
13529
13529
13529
13529
13529
13529
13529
13529
13528.9
13528.9
13528.9
13528.9
13528.8
13528.8
13508.6
11443.1
1700.64
1041.65
1715.49
1800.81
1494.71
1208.02
11825.4
7147.14
879.755
618.429
808.413
400.4
507.173
593.092
11825.4
10464.6
10421.9
11016.5
11835.7
12347.9
12524.6
12573.8
12602.2
12619.7
12639
12663.4
12682.9
12695.8
12703.8
12707.3
12707.2
12707.3
12706.4
)
;
    }
    atmosphere
    {
        type            calculated;
        value           nonuniform List<scalar> 
46
(
1
1
1
1
1
1
1
1
1
1
1
1
1
1
1
1
1
0.999999
0.999999
0.999999
0.999999
0.999999
0.999999
0.999998
0.999998
0.999998
1
1
1
1
1
1
1
1
1
1
1
1
1
1
1
1
1
1
1
1
)
;
    }
    defaultFaces
    {
        type            empty;
    }
}


// ************************************************************************* //
