/*--------------------------------*- C++ -*----------------------------------*\
| =========                 |                                                 |
| \\      /  F ield         | OpenFOAM: The Open Source CFD Toolbox           |
|  \\    /   O peration     | Version:  2.4.0                                 |
|   \\  /    A nd           | Web:      www.OpenFOAM.org                      |
|    \\/     M anipulation  |                                                 |
\*---------------------------------------------------------------------------*/
FoamFile
{
    version     2.0;
    format      ascii;
    class       volVectorField;
    location    "0.9";
    object      U;
}
// * * * * * * * * * * * * * * * * * * * * * * * * * * * * * * * * * * * * * //

dimensions      [0 1 -1 0 0 0 0];

internalField   nonuniform List<vector> 
2268
(
(-0.0240937 -0.0874182 0)
(-0.0810466 -0.085557 0)
(-0.146108 -0.0652422 0)
(-0.219997 -0.0340378 0)
(-0.267544 -0.0113152 0)
(-0.294382 0.00601699 0)
(-0.296698 0.00971922 0)
(-0.284107 0.00893069 0)
(-0.2605 0.0065093 0)
(-0.23621 0.00342493 0)
(-0.218191 -0.00128495 0)
(-0.201317 -0.00713889 0)
(-0.177366 -0.00765263 0)
(-0.154832 -0.0077516 0)
(-0.137371 -0.00654275 0)
(-0.128089 -0.00391192 0)
(-0.120491 -0.00371743 0)
(-0.11036 -0.00461339 0)
(-0.0916651 -0.00507549 0)
(-0.0618262 -0.00724908 0)
(-0.0373952 -0.000942135 0)
(-0.030628 0.00148335 0)
(-0.0239135 -0.00894899 0)
(-0.0210969 0.142767 0)
(-0.0715803 0.148365 0)
(-0.125255 0.122468 0)
(-0.199337 0.0820874 0)
(-0.254134 0.0423613 0)
(-0.29047 0.00470888 0)
(-0.300824 -0.0153676 0)
(-0.289638 -0.0260388 0)
(-0.264235 -0.0287921 0)
(-0.238972 -0.022299 0)
(-0.217138 -0.0143782 0)
(-0.19483 -0.0118455 0)
(-0.172774 -0.0141729 0)
(-0.153025 -0.0115286 0)
(-0.137863 -0.0062553 0)
(-0.127979 -0.00407175 0)
(-0.117307 -0.00459643 0)
(-0.106045 -0.00883969 0)
(-0.0856307 -0.0167248 0)
(-0.0560747 -0.0201712 0)
(-0.0322223 -0.0144906 0)
(-0.00867928 -0.00794319 0)
(-0.00268744 -0.0187117 0)
(-0.020503 -0.0477577 0)
(-0.0942584 -0.0405455 0)
(-0.17628 0.0239518 0)
(-0.232644 0.0497884 0)
(-0.270715 0.0388065 0)
(-0.296947 0.0295659 0)
(-0.307581 0.00881824 0)
(-0.292707 -0.0112199 0)
(-0.265142 -0.0195073 0)
(-0.236475 -0.0206579 0)
(-0.209534 -0.0236369 0)
(-0.186361 -0.027201 0)
(-0.169479 -0.0253011 0)
(-0.154945 -0.0207692 0)
(-0.140491 -0.0149779 0)
(-0.130374 -0.0120647 0)
(-0.114617 -0.0138834 0)
(-0.0995989 -0.0205609 0)
(-0.0812727 -0.0298575 0)
(-0.0580849 -0.0334851 0)
(-0.0369651 -0.0236592 0)
(-0.00110655 -0.0101531 0)
(0.00235098 -0.00699931 0)
(-0.0492522 0.309875 0)
(-0.148474 0.24636 0)
(-0.236152 0.137173 0)
(-0.300021 0.101192 0)
(-0.343275 0.0600676 0)
(-0.343919 0.0168969 0)
(-0.32487 -0.0185459 0)
(-0.300893 -0.0451676 0)
(-0.2707 -0.0527432 0)
(-0.235427 -0.0456274 0)
(-0.205983 -0.0381159 0)
(-0.184671 -0.0355031 0)
(-0.170452 -0.0363447 0)
(-0.157237 -0.0329988 0)
(-0.140857 -0.0237026 0)
(-0.123838 -0.0198171 0)
(-0.104601 -0.0193429 0)
(-0.090842 -0.021953 0)
(-0.0794199 -0.0325868 0)
(-0.0701722 -0.0386757 0)
(-0.0506682 -0.0426617 0)
(-0.0060217 -0.0316242 0)
(0.00381141 -0.0285106 0)
(-0.0282974 -0.0210511 0)
(-0.0863183 0.0799546 0)
(-0.328171 0.211819 0)
(-0.394317 0.121466 0)
(-0.403556 0.0648945 0)
(-0.393879 0.0208679 0)
(-0.368458 -0.0138433 0)
(-0.342405 -0.040888 0)
(-0.312863 -0.0535533 0)
(-0.274221 -0.0495022 0)
(-0.235336 -0.0403591 0)
(-0.205245 -0.0307805 0)
(-0.185911 -0.0229139 0)
(-0.172398 -0.0191641 0)
(-0.149438 -0.0178865 0)
(-0.123336 -0.0208665 0)
(-0.10136 -0.0260639 0)
(-0.090278 -0.0341081 0)
(-0.0812651 -0.0437564 0)
(-0.0701364 -0.0508941 0)
(-0.0503928 -0.0523994 0)
(-0.0245808 -0.0229417 0)
(-0.00734521 0.00529704 0)
(-0.0589702 0.264815 0)
(-0.154288 0.270352 0)
(-0.340793 0.266148 0)
(-0.534865 0.161021 0)
(-0.514332 0.0611749 0)
(-0.475818 0.00311222 0)
(-0.42981 -0.0390555 0)
(-0.387441 -0.0619853 0)
(-0.347396 -0.074711 0)
(-0.302272 -0.08386 0)
(-0.252144 -0.0885034 0)
(-0.213364 -0.0827001 0)
(-0.196476 -0.0766998 0)
(-0.190862 -0.0730408 0)
(-0.183172 -0.0659299 0)
(-0.166888 -0.0563258 0)
(-0.13979 -0.0435076 0)
(-0.1073 -0.0355325 0)
(-0.0844061 -0.0417899 0)
(-0.059288 -0.0555987 0)
(-0.0213327 -0.0745555 0)
(0.000329719 -0.0745906 0)
(-0.0192994 -0.0685397 0)
(-0.0329481 0.172333 0)
(-0.101253 0.260459 0)
(-0.221621 0.319296 0)
(-0.533176 0.19106 0)
(-0.572815 0.04115 0)
(-0.554228 -0.0161417 0)
(-0.487673 -0.0596058 0)
(-0.414538 -0.104506 0)
(-0.369121 -0.123976 0)
(-0.331164 -0.111433 0)
(-0.262206 -0.0734411 0)
(-0.178137 -0.028657 0)
(-0.135958 -0.00111514 0)
(-0.132657 0.00292348 0)
(-0.150799 -0.0147833 0)
(-0.171808 -0.0467045 0)
(-0.170948 -0.0668293 0)
(-0.129357 -0.0758033 0)
(-0.0828689 -0.0840181 0)
(-0.0492362 -0.0978518 0)
(-0.0357372 -0.0936565 0)
(-0.0976487 0.00355607 0)
(-0.102228 0.15865 0)
(-0.0227178 0.269973 0)
(-0.0580067 0.324237 0)
(-0.0588805 0.447138 0)
(-0.297111 0.328706 0)
(-0.468286 0.0849895 0)
(-0.47288 -0.0546918 0)
(-0.439255 -0.122647 0)
(-0.415445 -0.100506 0)
(-0.399691 -0.0537039 0)
(-0.364069 -0.0390615 0)
(-0.280556 -0.0639767 0)
(-0.201027 -0.0693735 0)
(-0.109673 -0.0492888 0)
(-0.0460224 -0.0118395 0)
(-0.0192642 0.03063 0)
(-0.0515967 0.0689702 0)
(-0.0713319 0.0621588 0)
(-0.0666364 0.0445515 0)
(-0.0483111 0.0449059 0)
(-0.0408429 0.0346542 0)
(-0.0865354 0.06604 0)
(-0.218518 0.0194593 0)
(-0.126142 -0.252316 0)
(-0.0221803 -0.189711 0)
(0.195235 -0.257766 0)
(0.287844 -0.315767 0)
(0.334433 -0.369479 0)
(0.359333 -0.416771 0)
(0.372789 -0.437187 0)
(0.372116 -0.433637 0)
(0.381928 -0.406466 0)
(0.392513 -0.378153 0)
(0.406887 -0.351244 0)
(0.394116 -0.309816 0)
(0.376832 -0.254091 0)
(0.365987 -0.219618 0)
(0.371101 -0.184985 0)
(0.347388 -0.129792 0)
(0.25331 -0.0639937 0)
(0.0882703 -0.0379953 0)
(-0.0792488 -0.071428 0)
(-0.0426006 -0.108649 0)
(0.0314162 0.0603222 0)
(0.244467 0.127119 0)
(0.361441 0.271873 0)
(0.433569 0.343514 0)
(0.477212 0.396735 0)
(0.469057 0.417429 0)
(0.439101 0.402121 0)
(0.421583 0.34537 0)
(0.419078 0.305389 0)
(0.412874 0.280598 0)
(0.372627 0.252961 0)
(0.265045 0.20664 0)
(0.143494 0.165644 0)
(0.114771 0.14729 0)
(0.229462 0.160682 0)
(0.202967 0.155734 0)
(0.0761152 0.140001 0)
(-0.0534864 0.111236 0)
(-0.0767697 0.0320253 0)
(0.200714 0.0383387 0)
(0.142563 -0.249861 0)
(0.207826 -0.328487 0)
(0.268677 -0.370197 0)
(0.349629 -0.379157 0)
(0.435206 -0.361199 0)
(0.441819 -0.352181 0)
(0.411839 -0.327771 0)
(0.325403 -0.295298 0)
(0.213351 -0.238519 0)
(-0.0410365 -0.09542 0)
(-0.491336 0.0364837 0)
(-0.530963 -0.0631342 0)
(-0.452239 -0.128991 0)
(-0.233845 -0.122313 0)
(0.117402 0.0726762 0)
(0.0435361 0.114711 0)
(-0.0419332 0.044638 0)
(-0.0232071 -0.121014 0)
(0.176534 -0.264725 0)
(0.1156 -0.0847111 0)
(0.193653 0.0805255 0)
(0.245627 0.139128 0)
(0.341289 0.211322 0)
(0.38549 0.266742 0)
(0.333123 0.330692 0)
(0.269613 0.303434 0)
(0.139661 0.298243 0)
(0.0212984 0.327606 0)
(-0.154423 0.358404 0)
(-0.515428 0.238125 0)
(-0.522747 0.0326134 0)
(-0.480969 -0.0787344 0)
(-0.399926 -0.138012 0)
(-0.107902 0.00560759 0)
(0.00914159 0.145851 0)
(-0.0345047 0.0961284 0)
(0.0155811 -0.0377611 0)
(0.084405 -0.309904 0)
(-0.114307 -0.14138 0)
(-0.0187857 -0.224057 0)
(0.0399338 -0.284113 0)
(0.133518 -0.280329 0)
(0.185722 -0.231893 0)
(0.156816 -0.176801 0)
(0.126386 -0.119496 0)
(0.092249 -0.0629393 0)
(0.033903 0.0750975 0)
(-0.0465163 0.323223 0)
(-0.369624 0.319756 0)
(-0.404843 -0.00944971 0)
(-0.428139 -0.129518 0)
(-0.425887 -0.248651 0)
(-0.290689 -0.060677 0)
(-0.0496411 0.111269 0)
(-0.0436884 0.0781927 0)
(0.0344157 -0.0994138 0)
(0.027388 -0.141038 0)
(-0.132107 -0.122626 0)
(0.00570525 -0.108632 0)
(0.0530272 -0.0899617 0)
(0.122813 -0.0109115 0)
(0.199397 0.162541 0)
(0.059703 0.240878 0)
(-0.0308179 0.197367 0)
(-0.0626963 0.195653 0)
(-0.0622351 0.229761 0)
(-0.010392 0.381818 0)
(-0.13369 0.387681 0)
(-0.281727 0.117369 0)
(-0.372207 -0.0668959 0)
(-0.386317 -0.171122 0)
(-0.339801 -0.174489 0)
(-0.110507 0.0237165 0)
(-0.0475828 0.054022 0)
(0.0503741 -0.0582171 0)
(0.0976614 -0.178598 0)
(-0.13226 -0.131506 0)
(-0.00389834 -0.204169 0)
(0.00810246 -0.213827 0)
(0.0187091 -0.206606 0)
(0.0457353 -0.11023 0)
(0.0189601 0.0459143 0)
(-0.0952716 0.0446051 0)
(-0.11674 0.0623207 0)
(-0.108196 0.167886 0)
(-0.0217038 0.38486 0)
(0.00590446 0.424473 0)
(-0.247599 0.0934508 0)
(-0.349341 -0.147005 0)
(-0.358248 -0.181814 0)
(-0.408474 -0.114478 0)
(-0.212907 -0.0369203 0)
(-0.0604309 0.00664374 0)
(0.0511242 -0.107122 0)
(0.128497 -0.210436 0)
(-0.119264 -0.108335 0)
(-0.0224256 -0.208322 0)
(-0.026317 -0.183492 0)
(0.04454 -0.128459 0)
(-0.0298923 0.093394 0)
(-0.0514582 0.184686 0)
(-0.157337 0.15224 0)
(-0.186537 0.118224 0)
(-0.178052 0.151888 0)
(-0.0767461 0.343036 0)
(0.0768518 0.454466 0)
(-0.141765 0.223521 0)
(-0.314282 -0.114895 0)
(-0.332817 -0.23146 0)
(-0.412104 -0.139223 0)
(-0.362199 -0.0957381 0)
(-0.131038 -0.050157 0)
(0.00644598 -0.0330094 0)
(0.0169706 0.217493 0)
(0.0444763 0.274309 0)
(0.117385 0.386596 0)
(0.198024 0.400038 0)
(0.137993 0.275364 0)
(0.0186308 0.130159 0)
(-0.119188 0.0275127 0)
(-0.213627 -0.0586934 0)
(-0.239354 -0.169621 0)
(-0.174786 -0.263347 0)
(-0.133336 -0.267894 0)
(-0.0978392 -0.222017 0)
(-0.0585382 -0.175791 0)
(-0.0385192 -0.150004 0)
(-0.0331595 -0.161633 0)
(-0.0373364 -0.218286 0)
(-0.0376576 -0.257581 0)
(-0.0382589 -0.275046 0)
(-0.0318635 -0.275282 0)
(0.0161326 -0.248713 0)
(0.064673 -0.177293 0)
(0.137183 -0.0798764 0)
(-0.0257551 -0.0605589 0)
(0.0302048 0.228721 0)
(0.0876724 0.26417 0)
(0.142836 0.309642 0)
(0.220001 0.307126 0)
(0.261745 0.206611 0)
(0.244869 0.0949257 0)
(0.219935 0.0030353 0)
(0.205374 -0.0705741 0)
(0.187007 -0.135002 0)
(0.166832 -0.171603 0)
(0.150214 -0.171613 0)
(0.173253 -0.151122 0)
(0.214947 -0.0975185 0)
(0.238138 -0.0111161 0)
(0.238775 0.0791888 0)
(0.195798 0.154663 0)
(0.127465 0.145192 0)
(0.0611733 0.0934092 0)
(0.0194254 0.0333019 0)
(0.0401584 -0.0442146 0)
(0.1079 0.000704045 0)
(0.0676162 0.139887 0)
(-0.0218761 0.221634 0)
(0.0687106 0.116143 0)
(0.134394 0.172458 0)
(0.185897 0.229792 0)
(0.217595 0.234575 0)
(0.252142 0.199631 0)
(0.253408 0.136467 0)
(0.244747 0.063284 0)
(0.224858 -0.00379583 0)
(0.202117 -0.0629853 0)
(0.180971 -0.133764 0)
(0.170209 -0.19813 0)
(0.198982 -0.223284 0)
(0.207933 -0.174984 0)
(0.204294 -0.117521 0)
(0.160755 -0.0866666 0)
(0.126038 -0.0690425 0)
(0.120498 -0.0938012 0)
(0.123692 -0.132553 0)
(0.0613243 -0.195418 0)
(-0.097911 -0.284822 0)
(-0.218611 -0.181665 0)
(-0.45405 0.0974475 0)
(-0.877551 0.414708 0)
(0.0735631 0.00364061 0)
(0.139264 0.130128 0)
(0.160893 0.205758 0)
(0.167265 0.213681 0)
(0.191125 0.191642 0)
(0.194132 0.131985 0)
(0.180653 0.0559923 0)
(0.157308 -0.0260225 0)
(0.139799 -0.110565 0)
(0.134089 -0.193484 0)
(0.145763 -0.290819 0)
(0.156261 -0.285626 0)
(0.0941203 -0.191958 0)
(0.0718258 -0.0173216 0)
(-0.0414908 0.117264 0)
(-0.133451 0.141121 0)
(-0.284101 0.105158 0)
(-0.463329 0.160727 0)
(-0.490378 0.248742 0)
(-0.739488 -0.0250307 0)
(-0.69361 0.50971 0)
(-1.15126 0.848945 0)
(-1.21142 0.801372 0)
(0.0408826 -0.110966 0)
(0.0636551 0.10607 0)
(0.0618184 0.214567 0)
(0.0307649 0.18695 0)
(0.0652012 0.163757 0)
(0.0537923 0.134943 0)
(0.0387568 0.0781673 0)
(0.0235442 0.0114703 0)
(0.0145409 -0.0491833 0)
(-0.115584 -0.131733 0)
(-0.416827 -0.143107 0)
(-0.674563 -0.062765 0)
(-0.787816 -0.017401 0)
(-0.896539 0.0854121 0)
(-0.93184 0.211959 0)
(-1.03282 0.267531 0)
(-1.07915 0.257556 0)
(-1.10772 0.103472 0)
(-1.10202 0.0595044 0)
(-1.22475 1.092 0)
(-2.57128 0.146925 0)
(-2.45134 1.11108 0)
(-1.84986 1.36046 0)
(-0.0535406 -0.0854592 0)
(-0.0822175 0.155037 0)
(-0.0759157 0.251077 0)
(-0.0936857 0.243972 0)
(-0.0549242 0.222893 0)
(-0.0422932 0.20125 0)
(-0.0649196 0.148498 0)
(-0.214841 0.0224688 0)
(-0.578108 0.111652 0)
(-0.816242 0.280963 0)
(-1.04877 0.113826 0)
(-1.06397 0.0311832 0)
(-1.14068 0.0494067 0)
(-1.2072 0.183756 0)
(-1.20524 0.234379 0)
(-1.25124 0.229876 0)
(-1.39379 0.140219 0)
(-1.84548 0.508614 0)
(-3.28231 1.71521 0)
(-3.90089 1.12707 0)
(-3.53134 0.495382 0)
(-2.75445 0.593308 0)
(-1.89744 1.33372 0)
(-0.0494923 -0.00816192 0)
(-0.0766421 0.141236 0)
(-0.0617857 0.189145 0)
(-0.116528 0.124673 0)
(-0.138379 0.0469508 0)
(-0.166206 0.0768877 0)
(-0.329214 0.21481 0)
(-0.899885 0.475255 0)
(-1.19558 0.524225 0)
(-1.24647 0.318861 0)
(-1.20603 0.121443 0)
(-1.20344 0.0704794 0)
(-1.21477 0.0846335 0)
(-1.19066 0.192704 0)
(-1.19062 0.228314 0)
(-1.22303 0.344398 0)
(-1.52217 0.972871 0)
(-2.40726 2.29984 0)
(-3.04102 1.4183 0)
(-2.10793 -0.230267 0)
(-1.73008 -0.499527 0)
(-1.36514 -0.557949 0)
(-0.863219 -0.6961 0)
(-0.130539 0.0601222 0)
(-0.121755 0.10769 0)
(-0.194256 0.170614 0)
(-0.173049 0.221111 0)
(-0.164456 0.449802 0)
(-0.46573 0.716274 0)
(-0.849513 0.828119 0)
(-1.33561 0.706012 0)
(-1.44437 0.433299 0)
(-1.3984 0.115158 0)
(-1.35276 0.0024923 0)
(-1.22691 0.0216105 0)
(-1.14903 0.115032 0)
(-1.09993 0.136537 0)
(-1.02945 0.225069 0)
(-0.926188 0.828606 0)
(-1.36524 2.01998 0)
(-2.15084 2.13982 0)
(-2.18311 1.14001 0)
(-1.6334 -0.49418 0)
(-1.42208 -0.630161 0)
(-1.2089 -0.63793 0)
(-1.07019 -0.443582 0)
(-0.198545 0.0929224 0)
(-0.0948676 0.467291 0)
(-0.335517 0.7815 0)
(-0.593222 0.622978 0)
(-0.572498 0.403637 0)
(-0.548837 0.89643 0)
(-0.722902 1.81712 0)
(-1.47823 1.32862 0)
(-1.65527 0.794425 0)
(-1.52644 0.395974 0)
(-1.34297 -0.0681029 0)
(-1.16413 -0.142744 0)
(-1.05724 -0.0547741 0)
(-0.982235 0.0121498 0)
(-0.823036 0.228337 0)
(-0.459897 1.41571 0)
(-1.21291 1.90101 0)
(-1.37183 2.04388 0)
(-0.946161 1.20054 0)
(-0.807934 -0.244274 0)
(-1.28069 -0.253423 0)
(-1.57503 0.174592 0)
(-1.85777 0.16735 0)
(-0.34993 0.873758 0)
(-0.447842 0.462792 0)
(-0.512991 0.373983 0)
(-0.435579 0.206216 0)
(-0.554656 0.306955 0)
(-0.598464 0.665993 0)
(-0.445511 1.46688 0)
(-0.521956 1.67128 0)
(-0.764733 0.93557 0)
(-0.737465 0.100771 0)
(-1.00051 -0.174487 0)
(-1.20317 -0.0521774 0)
(-1.05814 -0.071631 0)
(-0.956381 -0.0907929 0)
(-0.886435 0.227378 0)
(-0.735556 1.30641 0)
(-0.795001 1.88772 0)
(-0.715093 1.83339 0)
(-0.392531 0.895942 0)
(-0.558221 -0.322784 0)
(-1.0237 -0.616111 0)
(-1.18249 -0.529119 0)
(-1.21978 -0.190074 0)
(-0.186938 0.737044 0)
(-0.278386 0.46213 0)
(-0.390798 0.415578 0)
(-0.356118 0.367683 0)
(-0.434806 0.431218 0)
(-0.516441 0.707987 0)
(-0.40089 1.13714 0)
(-0.0948849 1.30071 0)
(0.0385204 0.898175 0)
(-0.0422497 0.387507 0)
(-0.30095 0.181642 0)
(-0.566314 -0.0388759 0)
(-0.777602 -0.178926 0)
(-1.03003 0.0483551 0)
(-1.07638 0.290799 0)
(-0.812298 1.01183 0)
(-0.542357 1.69129 0)
(-0.377969 1.59283 0)
(-0.124698 0.897736 0)
(-0.341802 0.311216 0)
(-0.800147 0.25138 0)
(-1.24394 0.295885 0)
(-1.59322 0.113897 0)
(-0.156846 0.887881 0)
(-0.168303 0.643256 0)
(-0.308736 0.451508 0)
(-0.298149 0.404007 0)
(-0.323942 0.482126 0)
(-0.282139 0.705185 0)
(-0.212853 0.983498 0)
(-0.0189732 1.06931 0)
(0.177165 0.822591 0)
(0.113548 0.457881 0)
(-0.0407417 0.314301 0)
(-0.14461 0.235686 0)
(-0.321427 0.170984 0)
(-0.631037 0.0728596 0)
(-0.80168 0.109574 0)
(-0.769871 0.66178 0)
(-0.398938 1.42713 0)
(-0.151853 1.49378 0)
(-0.0322642 1.05043 0)
(-0.313729 0.548001 0)
(-0.595714 0.294919 0)
(-0.862418 0.282192 0)
(-1.01357 0.230863 0)
(-0.138612 1.11883 0)
(-0.0844598 0.753936 0)
(-0.216092 0.485615 0)
(-0.182357 0.408982 0)
(-0.19144 0.44492 0)
(-0.141964 0.621506 0)
(-0.00614005 0.837424 0)
(0.135233 0.933948 0)
(0.217052 0.789078 0)
(0.206191 0.550968 0)
(0.0800294 0.390443 0)
(0.0499196 0.291203 0)
(-0.0331295 0.30569 0)
(-0.134198 0.380006 0)
(-0.31151 0.418826 0)
(-0.485989 0.547626 0)
(-0.323478 0.94395 0)
(-0.0440339 1.20997 0)
(0.137564 1.11437 0)
(-0.00284397 0.864089 0)
(-0.196947 0.615487 0)
(-0.392846 0.453277 0)
(-0.501803 0.267319 0)
(-0.0536923 1.18425 0)
(0.0105906 0.800014 0)
(-0.0892643 0.515245 0)
(-0.0651647 0.403972 0)
(-0.07897 0.416495 0)
(-0.0307139 0.52914 0)
(0.0728436 0.671702 0)
(0.241842 0.840317 0)
(0.300971 0.774182 0)
(0.295104 0.641759 0)
(0.212497 0.473213 0)
(0.191239 0.346355 0)
(0.138979 0.359529 0)
(0.107169 0.420935 0)
(0.0784398 0.514003 0)
(0.0301416 0.644924 0)
(0.0500075 0.82298 0)
(0.230274 0.956175 0)
(0.413116 0.971629 0)
(0.517684 0.877825 0)
(0.600812 0.76496 0)
(0.620634 0.615274 0)
(0.529348 0.425662 0)
(0.0204067 1.14102 0)
(0.0989877 0.808691 0)
(0.0356341 0.542198 0)
(0.0397303 0.413171 0)
(0.0136557 0.407108 0)
(0.050177 0.473973 0)
(0.101617 0.541353 0)
(0.242031 0.698764 0)
(0.334449 0.735016 0)
(0.345549 0.669419 0)
(0.32511 0.526122 0)
(0.301678 0.384013 0)
(0.256038 0.386581 0)
(0.24407 0.429698 0)
(0.252693 0.507012 0)
(0.295646 0.613442 0)
(0.369535 0.741954 0)
(0.547736 0.817574 0)
(0.698167 0.853305 0)
(0.87703 0.733673 0)
(0.969141 0.637951 0)
(1.14143 0.523273 0)
(1.12883 0.373712 0)
(0.0640952 1.01145 0)
(0.145679 0.795275 0)
(0.117252 0.559377 0)
(0.122277 0.431431 0)
(0.0901267 0.413248 0)
(0.106175 0.452172 0)
(0.121819 0.482221 0)
(0.192679 0.578488 0)
(0.298438 0.681584 0)
(0.352257 0.64734 0)
(0.371225 0.528568 0)
(0.357327 0.416174 0)
(0.322571 0.409871 0)
(0.316357 0.433811 0)
(0.331578 0.478871 0)
(0.390648 0.543451 0)
(0.484975 0.605327 0)
(0.648536 0.637679 0)
(0.801992 0.688013 0)
(1.00784 0.611557 0)
(1.07654 0.480112 0)
(1.23079 0.369846 0)
(1.32834 0.285405 0)
(0.0631159 0.900535 0)
(0.150527 0.768078 0)
(0.15834 0.560467 0)
(0.169564 0.443966 0)
(0.137808 0.420082 0)
(0.140421 0.443106 0)
(0.141569 0.458961 0)
(0.163334 0.51191 0)
(0.242099 0.584854 0)
(0.322069 0.590166 0)
(0.371272 0.520617 0)
(0.366792 0.441549 0)
(0.34398 0.426999 0)
(0.342813 0.432832 0)
(0.35695 0.447199 0)
(0.404304 0.468051 0)
(0.488414 0.484881 0)
(0.605891 0.480667 0)
(0.722771 0.457837 0)
(0.947708 0.484374 0)
(1.0026 0.373382 0)
(1.0969 0.210966 0)
(1.25387 0.173629 0)
(0.0612604 0.796164 0)
(0.139589 0.711031 0)
(0.176393 0.5456 0)
(0.181266 0.453857 0)
(0.157695 0.430447 0)
(0.156411 0.44289 0)
(0.157692 0.450993 0)
(0.166281 0.477344 0)
(0.213868 0.512665 0)
(0.27985 0.520591 0)
(0.338495 0.496818 0)
(0.347995 0.451449 0)
(0.339545 0.434112 0)
(0.344874 0.426237 0)
(0.362778 0.417659 0)
(0.400175 0.40819 0)
(0.459785 0.398449 0)
(0.536603 0.368352 0)
(0.617265 0.31694 0)
(0.747152 0.336617 0)
(0.837943 0.259144 0)
(0.912735 0.085454 0)
(1.00288 0.0347739 0)
(0.0606396 0.696927 0)
(0.121553 0.644205 0)
(0.174327 0.528616 0)
(0.174011 0.460259 0)
(0.159543 0.440474 0)
(0.161113 0.441137 0)
(0.166401 0.444284 0)
(0.176482 0.455779 0)
(0.208236 0.467171 0)
(0.25168 0.469511 0)
(0.294221 0.460757 0)
(0.315445 0.442235 0)
(0.32857 0.42978 0)
(0.346033 0.410133 0)
(0.369542 0.38968 0)
(0.400989 0.365243 0)
(0.444493 0.341328 0)
(0.494426 0.299635 0)
(0.545497 0.253746 0)
(0.607994 0.243441 0)
(0.6888 0.17056 0)
(0.737129 0.0453152 0)
(0.756359 -0.00239066 0)
(0.0501414 0.61503 0)
(0.0986052 0.584882 0)
(0.150554 0.507478 0)
(0.153786 0.46279 0)
(0.153718 0.442218 0)
(0.159124 0.43802 0)
(0.168136 0.434232 0)
(0.182039 0.436952 0)
(0.20706 0.436402 0)
(0.236482 0.434872 0)
(0.269342 0.43144 0)
(0.295764 0.419827 0)
(0.320572 0.406495 0)
(0.347132 0.385019 0)
(0.374045 0.361825 0)
(0.402926 0.331943 0)
(0.435347 0.302074 0)
(0.466437 0.258847 0)
(0.497903 0.22101 0)
(0.527639 0.193769 0)
(0.578295 0.121174 0)
(0.582636 0.0344713 0)
(0.572079 0.00514861 0)
(0.0362358 0.552295 0)
(0.0776884 0.535064 0)
(0.121391 0.483921 0)
(0.133041 0.45491 0)
(0.143048 0.437093 0)
(0.153506 0.42934 0)
(0.164941 0.420619 0)
(0.180587 0.417852 0)
(0.201758 0.412695 0)
(0.224705 0.40814 0)
(0.252389 0.403289 0)
(0.280283 0.393636 0)
(0.307863 0.37775 0)
(0.336936 0.357441 0)
(0.363161 0.333086 0)
(0.391116 0.304597 0)
(0.415969 0.275709 0)
(0.435965 0.236387 0)
(0.45451 0.200555 0)
(0.472125 0.165164 0)
(0.497056 0.1069 0)
(0.486806 0.0526267 0)
(0.466143 0.031687 0)
(0.0256462 0.50475 0)
(0.0615598 0.493116 0)
(0.0979453 0.460123 0)
(0.114651 0.439917 0)
(0.129147 0.42438 0)
(0.143787 0.414922 0)
(0.157903 0.405827 0)
(0.174175 0.399703 0)
(0.193037 0.391911 0)
(0.213202 0.384519 0)
(0.236366 0.376728 0)
(0.262659 0.365422 0)
(0.288597 0.348846 0)
(0.314613 0.329281 0)
(0.339007 0.305732 0)
(0.36151 0.279126 0)
(0.382588 0.253343 0)
(0.399209 0.218727 0)
(0.415192 0.184346 0)
(0.426936 0.14783 0)
(0.438391 0.104188 0)
(0.430236 0.0674247 0)
(0.417037 0.0517434 0)
(0.0195193 0.467042 0)
(0.050368 0.4576 0)
(0.0814172 0.436145 0)
(0.100659 0.42156 0)
(0.11792 0.408924 0)
(0.134346 0.399539 0)
(0.150176 0.390131 0)
(0.167144 0.382239 0)
(0.185075 0.3734 0)
(0.204062 0.364128 0)
(0.224304 0.353211 0)
(0.247587 0.340381 0)
(0.270699 0.324678 0)
(0.293153 0.305942 0)
(0.314189 0.283479 0)
(0.333263 0.258857 0)
(0.351601 0.233152 0)
(0.367556 0.20265 0)
(0.379946 0.171056 0)
(0.38847 0.138711 0)
(0.396268 0.105205 0)
(0.389772 0.0766134 0)
(0.389458 0.0598277 0)
(0.015869 0.43611 0)
(0.0422315 0.427478 0)
(0.0693127 0.413086 0)
(0.0891825 0.402155 0)
(0.107514 0.39167 0)
(0.124663 0.382517 0)
(0.141357 0.373101 0)
(0.158487 0.364381 0)
(0.176078 0.354892 0)
(0.194498 0.345046 0)
(0.213375 0.333221 0)
(0.233205 0.319185 0)
(0.253015 0.303416 0)
(0.272833 0.285326 0)
(0.291618 0.265109 0)
(0.308364 0.241649 0)
(0.324303 0.217282 0)
(0.337459 0.189775 0)
(0.34876 0.162086 0)
(0.357091 0.131123 0)
(0.364025 0.102382 0)
(0.361113 0.0790018 0)
(0.36659 0.058737 0)
(0.0135238 0.409359 0)
(0.0365018 0.401216 0)
(0.0604333 0.390945 0)
(0.0798998 0.382431 0)
(0.0982837 0.373674 0)
(0.115646 0.365201 0)
(0.132466 0.35614 0)
(0.149298 0.347087 0)
(0.166428 0.337098 0)
(0.183973 0.326767 0)
(0.201815 0.314586 0)
(0.219024 0.300397 0)
(0.236609 0.284376 0)
(0.253329 0.267126 0)
(0.270005 0.247033 0)
(0.28567 0.225482 0)
(0.300043 0.202936 0)
(0.312402 0.178114 0)
(0.322693 0.151524 0)
(0.329841 0.124334 0)
(0.335144 0.101236 0)
(0.336938 0.0768431 0)
(0.345013 0.0524988 0)
(0.0118724 0.386301 0)
(0.0322828 0.378565 0)
(0.0536609 0.370761 0)
(0.0721319 0.363869 0)
(0.0897089 0.356238 0)
(0.106549 0.348173 0)
(0.122913 0.339391 0)
(0.139086 0.330195 0)
(0.155273 0.320028 0)
(0.171551 0.309055 0)
(0.187949 0.297446 0)
(0.204529 0.283651 0)
(0.220629 0.26851 0)
(0.236258 0.25121 0)
(0.251095 0.232033 0)
(0.264258 0.211989 0)
(0.276159 0.189946 0)
(0.287172 0.167509 0)
(0.296318 0.143688 0)
(0.303465 0.118506 0)
(0.31066 0.0946966 0)
(0.315129 0.0719941 0)
(0.321706 0.0486478 0)
(0.0106061 0.365352 0)
(0.0290075 0.358014 0)
(0.0484015 0.351752 0)
(0.0658198 0.345986 0)
(0.0825446 0.339292 0)
(0.0986555 0.331784 0)
(0.114351 0.32346 0)
(0.129732 0.314386 0)
(0.14506 0.304274 0)
(0.160122 0.293508 0)
(0.175266 0.281515 0)
(0.189973 0.267853 0)
(0.204043 0.252971 0)
(0.21808 0.236647 0)
(0.230856 0.218845 0)
(0.243195 0.199206 0)
(0.254707 0.178998 0)
(0.264699 0.157267 0)
(0.274065 0.134703 0)
(0.280537 0.111838 0)
(0.28648 0.0898001 0)
(0.291554 0.0667334 0)
(0.298075 0.042969 0)
(0.00948665 0.346711 0)
(0.0260745 0.339675 0)
(0.0436248 0.334292 0)
(0.0598392 0.329218 0)
(0.0755655 0.323169 0)
(0.090761 0.316195 0)
(0.105542 0.308242 0)
(0.119974 0.299393 0)
(0.134244 0.289573 0)
(0.148159 0.278985 0)
(0.162145 0.267237 0)
(0.17579 0.254178 0)
(0.188982 0.2394 0)
(0.201661 0.223639 0)
(0.213531 0.206449 0)
(0.22461 0.188323 0)
(0.234361 0.168859 0)
(0.242988 0.148781 0)
(0.25105 0.127866 0)
(0.257535 0.105477 0)
(0.264079 0.0834291 0)
(0.26913 0.0614566 0)
(0.274513 0.0386786 0)
(0.00858768 0.329684 0)
(0.0237582 0.322938 0)
(0.0398015 0.318213 0)
(0.0548528 0.313685 0)
(0.0695061 0.308136 0)
(0.0837462 0.301596 0)
(0.097571 0.293978 0)
(0.111034 0.285362 0)
(0.124181 0.275754 0)
(0.137063 0.265184 0)
(0.14976 0.25366 0)
(0.162024 0.240941 0)
(0.173816 0.22694 0)
(0.185099 0.211782 0)
(0.195594 0.195505 0)
(0.205354 0.178027 0)
(0.214568 0.159422 0)
(0.222842 0.139946 0)
(0.230522 0.11999 0)
(0.236747 0.0995499 0)
(0.242247 0.0785475 0)
(0.246773 0.0568214 0)
(0.251522 0.0345453 0)
(0.0077487 0.31437 0)
(0.0215574 0.307805 0)
(0.0361536 0.303525 0)
(0.0499757 0.299395 0)
(0.063467 0.294268 0)
(0.0766577 0.288099 0)
(0.089499 0.28087 0)
(0.102019 0.272648 0)
(0.114191 0.263435 0)
(0.12607 0.253219 0)
(0.137619 0.242045 0)
(0.148879 0.229777 0)
(0.159649 0.216255 0)
(0.169886 0.201662 0)
(0.179392 0.186045 0)
(0.188293 0.169224 0)
(0.196486 0.151618 0)
(0.203676 0.133123 0)
(0.210269 0.113945 0)
(0.215922 0.0938564 0)
(0.221115 0.073499 0)
(0.225259 0.0526202 0)
(0.229264 0.0311152 0)
(0.00703694 0.300302 0)
(0.0196436 0.293842 0)
(0.0329341 0.289848 0)
(0.0456162 0.286012 0)
(0.0580152 0.281185 0)
(0.0701643 0.275292 0)
(0.0819944 0.268364 0)
(0.0935008 0.260452 0)
(0.104647 0.251532 0)
(0.115466 0.241632 0)
(0.125907 0.230746 0)
(0.136063 0.218931 0)
(0.145697 0.206001 0)
(0.154836 0.192004 0)
(0.163446 0.177004 0)
(0.171441 0.160893 0)
(0.17876 0.143879 0)
(0.18536 0.126179 0)
(0.191231 0.107881 0)
(0.196303 0.0888869 0)
(0.200732 0.0692941 0)
(0.204339 0.0490014 0)
(0.20767 0.0281677 0)
(0.00633165 0.287662 0)
(0.0178146 0.281406 0)
(0.0298849 0.277665 0)
(0.0414738 0.274104 0)
(0.0528155 0.269577 0)
(0.063926 0.263998 0)
(0.0747294 0.257389 0)
(0.0852243 0.249794 0)
(0.0954052 0.241202 0)
(0.105231 0.231652 0)
(0.114661 0.22112 0)
(0.123731 0.20962 0)
(0.13236 0.197067 0)
(0.140512 0.183532 0)
(0.148176 0.169145 0)
(0.155255 0.153759 0)
(0.161722 0.137492 0)
(0.167567 0.120562 0)
(0.172663 0.10289 0)
(0.177151 0.0844748 0)
(0.181005 0.0654981 0)
(0.184128 0.0458978 0)
(0.186786 0.0257599 0)
(0.00570272 0.276105 0)
(0.016106 0.269809 0)
(0.0270276 0.266208 0)
(0.037559 0.262852 0)
(0.0478722 0.258568 0)
(0.05797 0.253267 0)
(0.0677726 0.247005 0)
(0.0772535 0.239766 0)
(0.0863975 0.23155 0)
(0.095224 0.222349 0)
(0.103695 0.212213 0)
(0.111813 0.201138 0)
(0.119561 0.189152 0)
(0.126846 0.176205 0)
(0.133641 0.162325 0)
(0.139856 0.147422 0)
(0.145433 0.131687 0)
(0.150411 0.115308 0)
(0.154833 0.0983209 0)
(0.158728 0.0806416 0)
(0.161975 0.0623465 0)
(0.164558 0.0433949 0)
(0.166584 0.0239122 0)
(0.00509383 0.265804 0)
(0.0145514 0.259604 0)
(0.0244126 0.25622 0)
(0.0339446 0.253065 0)
(0.0432453 0.248991 0)
(0.0523402 0.243954 0)
(0.0611371 0.237915 0)
(0.0696385 0.230917 0)
(0.0778069 0.222996 0)
(0.0856534 0.214123 0)
(0.0931715 0.204308 0)
(0.100301 0.193592 0)
(0.107047 0.181938 0)
(0.113403 0.169358 0)
(0.119325 0.156013 0)
(0.124775 0.141882 0)
(0.129721 0.126905 0)
(0.134096 0.111105 0)
(0.137796 0.0945575 0)
(0.140947 0.0774028 0)
(0.143563 0.0597199 0)
(0.145605 0.0414263 0)
(0.147032 0.022579 0)
(0.00455316 0.256429 0)
(0.0130545 0.250207 0)
(0.0218993 0.24686 0)
(0.03046 0.243893 0)
(0.0387857 0.240052 0)
(0.0469402 0.235271 0)
(0.0548234 0.229602 0)
(0.0624302 0.223005 0)
(0.0697146 0.215461 0)
(0.0766568 0.206972 0)
(0.0832317 0.197525 0)
(0.0893941 0.187131 0)
(0.0951653 0.175797 0)
(0.100586 0.163651 0)
(0.105609 0.150674 0)
(0.11018 0.136846 0)
(0.114275 0.122272 0)
(0.117903 0.107201 0)
(0.121142 0.0915178 0)
(0.123825 0.0750092 0)
(0.12582 0.057787 0)
(0.127282 0.0399974 0)
(0.128135 0.0217317 0)
(0.0040472 0.248083 0)
(0.0117014 0.24193 0)
(0.0194755 0.238823 0)
(0.0271021 0.236045 0)
(0.0344858 0.232384 0)
(0.041735 0.22783 0)
(0.0487759 0.222405 0)
(0.055577 0.216066 0)
(0.0621023 0.208761 0)
(0.0682798 0.200604 0)
(0.0740828 0.191576 0)
(0.0795095 0.181664 0)
(0.0845677 0.170866 0)
(0.0891144 0.159152 0)
(0.0931696 0.146571 0)
(0.0967446 0.133193 0)
(0.0998745 0.119086 0)
(0.102631 0.104146 0)
(0.104916 0.0885673 0)
(0.10681 0.0726833 0)
(0.108453 0.0563025 0)
(0.109506 0.0391736 0)
(0.109843 0.0214404 0)
(0.00364387 0.240732 0)
(0.0103709 0.234516 0)
(0.0172087 0.231402 0)
(0.0238701 0.228773 0)
(0.0302952 0.225273 0)
(0.0365951 0.220896 0)
(0.0427321 0.215626 0)
(0.0486768 0.209532 0)
(0.0543421 0.202658 0)
(0.0597265 0.194923 0)
(0.0647428 0.186292 0)
(0.0693323 0.176739 0)
(0.073526 0.166304 0)
(0.0773434 0.155061 0)
(0.0808036 0.143031 0)
(0.0838629 0.13025 0)
(0.0865445 0.116674 0)
(0.0885791 0.102346 0)
(0.0900459 0.0873576 0)
(0.0911533 0.0715145 0)
(0.0916689 0.0551331 0)
(0.0920467 0.0385797 0)
(0.0920029 0.0215547 0)
(0.00338742 0.233981 0)
(0.00921163 0.228419 0)
(0.0146745 0.225593 0)
(0.0202799 0.223163 0)
(0.0256468 0.219815 0)
(0.0309657 0.215547 0)
(0.0361607 0.210403 0)
(0.0412435 0.204425 0)
(0.0462591 0.197625 0)
(0.0510472 0.190083 0)
(0.0555752 0.181789 0)
(0.0597582 0.172696 0)
(0.0634469 0.162717 0)
(0.0666435 0.151864 0)
(0.0693507 0.140192 0)
(0.0715274 0.127675 0)
(0.0732226 0.114421 0)
(0.0745959 0.100608 0)
(0.075709 0.0861485 0)
(0.0762944 0.0710913 0)
(0.0763247 0.0554127 0)
(0.0758109 0.0388637 0)
(0.074837 0.0219722 0)
(0.00295155 0.228068 0)
(0.00763407 0.22268 0)
(0.0118481 0.219725 0)
(0.016292 0.217191 0)
(0.0204719 0.213858 0)
(0.0247215 0.209757 0)
(0.0287589 0.204803 0)
(0.0327059 0.19908 0)
(0.0364803 0.192631 0)
(0.0401912 0.18544 0)
(0.0438029 0.177534 0)
(0.047273 0.168845 0)
(0.0505497 0.159371 0)
(0.0535214 0.149115 0)
(0.0561383 0.138078 0)
(0.0583147 0.126244 0)
(0.0599757 0.113646 0)
(0.0610978 0.100244 0)
(0.0615812 0.0860664 0)
(0.0615813 0.0713193 0)
(0.0612494 0.0560017 0)
(0.06047 0.0402701 0)
(0.0588236 0.0239159 0)
(0.00254881 0.223236 0)
(0.00558649 0.21939 0)
(0.0076018 0.217214 0)
(0.00998966 0.214969 0)
(0.0121629 0.211779 0)
(0.0146141 0.207735 0)
(0.0169648 0.20277 0)
(0.0193754 0.196959 0)
(0.0217903 0.190343 0)
(0.024258 0.182917 0)
(0.0267646 0.174757 0)
(0.0293262 0.165939 0)
(0.0318974 0.156443 0)
(0.0344027 0.146252 0)
(0.0368433 0.135343 0)
(0.0391471 0.12378 0)
(0.041175 0.111522 0)
(0.0428467 0.0986283 0)
(0.044061 0.085118 0)
(0.0447145 0.0710481 0)
(0.0446524 0.0563984 0)
(0.043846 0.0411248 0)
(0.0422511 0.0253372 0)
(0.00167857 0.219777 0)
(0.00267332 0.217141 0)
(0.003068 0.214419 0)
(0.00422958 0.211543 0)
(0.00509703 0.208096 0)
(0.00631545 0.20398 0)
(0.00754333 0.199122 0)
(0.00888841 0.193495 0)
(0.0103412 0.187078 0)
(0.0118711 0.17988 0)
(0.013517 0.171964 0)
(0.0152769 0.163386 0)
(0.017107 0.15412 0)
(0.0189506 0.144099 0)