/*--------------------------------*- C++ -*----------------------------------*\
| =========                 |                                                 |
| \\      /  F ield         | OpenFOAM: The Open Source CFD Toolbox           |
|  \\    /   O peration     | Version:  2.4.0                                 |
|   \\  /    A nd           | Web:      www.OpenFOAM.org                      |
|    \\/     M anipulation  |                                                 |
\*---------------------------------------------------------------------------*/
FoamFile
{
    version     2.0;
    format      ascii;
    class       volVectorField;
    location    "0.9";
    object      U.air;
}
// * * * * * * * * * * * * * * * * * * * * * * * * * * * * * * * * * * * * * //

dimensions      [0 1 -1 0 0 0 0];

internalField   nonuniform List<vector> 
2268
(
(-0.0240937 -0.0874179 0)
(-0.0810465 -0.0855567 0)
(-0.146107 -0.065242 0)
(-0.219997 -0.0340376 0)
(-0.267544 -0.011315 0)
(-0.294383 0.00601716 0)
(-0.296698 0.00971935 0)
(-0.284107 0.00893083 0)
(-0.2605 0.00650944 0)
(-0.23621 0.00342505 0)
(-0.218191 -0.00128488 0)
(-0.201317 -0.00713884 0)
(-0.177366 -0.00765261 0)
(-0.154833 -0.00775159 0)
(-0.137371 -0.00654274 0)
(-0.12809 -0.00391189 0)
(-0.120491 -0.0037174 0)
(-0.11036 -0.00461335 0)
(-0.0916654 -0.00507543 0)
(-0.0618265 -0.00724904 0)
(-0.0373956 -0.000942107 0)
(-0.0306283 0.00148329 0)
(-0.0239135 -0.00894902 0)
(-0.021097 0.142769 0)
(-0.0715803 0.148366 0)
(-0.125255 0.122469 0)
(-0.199338 0.0820879 0)
(-0.254135 0.0423617 0)
(-0.29047 0.00470923 0)
(-0.300825 -0.0153673 0)
(-0.289638 -0.0260385 0)
(-0.264235 -0.0287917 0)
(-0.238972 -0.0222987 0)
(-0.217138 -0.014378 0)
(-0.19483 -0.0118454 0)
(-0.172774 -0.0141728 0)
(-0.153025 -0.0115285 0)
(-0.137863 -0.00625521 0)
(-0.127979 -0.00407163 0)
(-0.117307 -0.00459628 0)
(-0.106045 -0.00883951 0)
(-0.085631 -0.0167246 0)
(-0.056075 -0.020171 0)
(-0.0322227 -0.0144905 0)
(-0.00867957 -0.0079432 0)
(-0.00268752 -0.0187118 0)
(-0.0194578 -0.0553216 0)
(-0.0945564 -0.039581 0)
(-0.176473 0.0246137 0)
(-0.232645 0.0497906 0)
(-0.270715 0.0388073 0)
(-0.296947 0.0295665 0)
(-0.307581 0.00881886 0)
(-0.292707 -0.0112193 0)
(-0.265142 -0.0195067 0)
(-0.236475 -0.0206574 0)
(-0.209534 -0.0236366 0)
(-0.186361 -0.0272007 0)
(-0.169479 -0.0253009 0)
(-0.154945 -0.020769 0)
(-0.140492 -0.0149777 0)
(-0.130374 -0.0120645 0)
(-0.114617 -0.0138831 0)
(-0.0995991 -0.0205606 0)
(-0.081273 -0.0298571 0)
(-0.0580853 -0.0334847 0)
(-0.0369655 -0.0236588 0)
(-0.00110688 -0.0101528 0)
(0.00235087 -0.00699934 0)
(-0.0339993 0.110696 0)
(-0.123043 0.102653 0)
(-0.226933 0.110985 0)
(-0.300531 0.10242 0)
(-0.343401 0.0605982 0)
(-0.34392 0.0169043 0)
(-0.32487 -0.0185446 0)
(-0.300893 -0.0451666 0)
(-0.2707 -0.0527422 0)
(-0.235427 -0.0456266 0)
(-0.205983 -0.0381153 0)
(-0.184671 -0.0355027 0)
(-0.170452 -0.0363443 0)
(-0.157237 -0.0329984 0)
(-0.140857 -0.0237022 0)
(-0.123838 -0.0198167 0)
(-0.104601 -0.0193423 0)
(-0.0908422 -0.0219524 0)
(-0.0794202 -0.0325861 0)
(-0.0701727 -0.0386735 0)
(-0.0506687 -0.042554 0)
(-0.00602205 -0.0314068 0)
(0.00381129 -0.0284854 0)
(-0.0278434 -0.0279472 0)
(-0.096281 0.0421759 0)
(-0.308087 0.105909 0)
(-0.388337 0.105887 0)
(-0.403883 0.0661682 0)
(-0.393928 0.021461 0)
(-0.368459 -0.0138236 0)
(-0.342405 -0.0408854 0)
(-0.312863 -0.0535512 0)
(-0.27422 -0.0494912 0)
(-0.235333 -0.0402786 0)
(-0.20524 -0.0306171 0)
(-0.185908 -0.022756 0)
(-0.172397 -0.0190472 0)
(-0.149437 -0.0178369 0)
(-0.123336 -0.020835 0)
(-0.10136 -0.0259809 0)
(-0.0902782 -0.0340628 0)
(-0.0812654 -0.0437274 0)
(-0.0701362 -0.0508448 0)
(-0.0503926 -0.0495588 0)
(-0.0245784 -0.0101037 0)
(-0.00734187 0.0123259 0)
(-0.0589912 0.264792 0)
(-0.189192 0.238552 0)
(-0.40922 0.147253 0)
(-0.522213 0.104488 0)
(-0.513788 0.0588371 0)
(-0.475897 0.00443271 0)
(-0.429809 -0.03842 0)
(-0.387404 -0.0612221 0)
(-0.347273 -0.0732081 0)
(-0.302158 -0.0825816 0)
(-0.252177 -0.0888887 0)
(-0.213467 -0.0844626 0)
(-0.196526 -0.078405 0)
(-0.190868 -0.0741659 0)
(-0.183171 -0.0659717 0)
(-0.166907 -0.0552873 0)
(-0.139817 -0.0416895 0)
(-0.107319 -0.033613 0)
(-0.0843982 -0.0400404 0)
(-0.0591925 -0.0539397 0)
(-0.0205738 -0.0669802 0)
(0.00103548 -0.0344404 0)
(-0.0192834 -0.0472299 0)
(-0.0329496 0.172326 0)
(-0.115374 0.248341 0)
(-0.322767 0.190203 0)
(-0.53983 0.0861111 0)
(-0.570777 0.0245087 0)
(-0.554234 -0.016033 0)
(-0.48767 -0.0595376 0)
(-0.415095 -0.111585 0)
(-0.370458 -0.148545 0)
(-0.332836 -0.166908 0)
(-0.26595 -0.167072 0)
(-0.184571 -0.145772 0)
(-0.142982 -0.122248 0)
(-0.138942 -0.11506 0)
(-0.156814 -0.118062 0)
(-0.175603 -0.127724 0)
(-0.172898 -0.130437 0)
(-0.130406 -0.127254 0)
(-0.0838098 -0.130844 0)
(-0.0506112 -0.148746 0)
(-0.0374703 -0.158053 0)
(-0.101892 -0.0946149 0)
(-0.119119 -0.0685112 0)
(-0.0227175 0.269984 0)
(-0.059481 0.322682 0)
(-0.134366 0.346501 0)
(-0.363807 0.158534 0)
(-0.473267 0.00127577 0)
(-0.473007 -0.105462 0)
(-0.437898 -0.185365 0)
(-0.408659 -0.20299 0)
(-0.38333 -0.195876 0)
(-0.332315 -0.2087 0)
(-0.252458 -0.20649 0)
(-0.198042 -0.145886 0)
(-0.111969 -0.109575 0)
(-0.0500783 -0.0580094 0)
(-0.0244588 -0.00722503 0)
(-0.0599426 0.0266133 0)
(-0.0840324 -0.00257456 0)
(-0.080472 -0.0406136 0)
(-0.0578471 -0.0589668 0)
(-0.0485987 -0.0749341 0)
(-0.087427 -0.0411963 0)
(-0.233387 -0.0375971 0)
(-0.130183 -0.351337 0)
(-0.0232155 -0.0169515 0)
(0.188245 -0.113748 0)
(0.285384 -0.246581 0)
(0.334141 -0.34618 0)
(0.358679 -0.384925 0)
(0.371022 -0.398242 0)
(0.369701 -0.391904 0)
(0.380645 -0.311564 0)
(0.391968 -0.114092 0)
(0.40365 -0.00349317 0)
(0.380885 0.0899942 0)
(0.359455 0.102093 0)
(0.35885 0.0300625 0)
(0.371794 -0.0109564 0)
(0.349103 -0.062615 0)
(0.242648 -0.0561936 0)
(0.0759174 0.0172627 0)
(-0.0820297 -0.0353292 0)
(-0.0436999 -0.0873073 0)
(0.0495117 0.439045 0)
(0.273159 -0.208648 0)
(0.367111 0.0218645 0)
(0.422139 0.12793 0)
(0.468013 0.178582 0)
(0.474718 0.197072 0)
(0.454065 0.197227 0)
(0.391032 0.149844 0)
(0.312253 -0.00660028 0)
(0.246342 -0.0553192 0)
(0.169431 0.0836599 0)
(0.0688843 0.472274 0)
(0.00595399 0.447035 0)
(0.0410851 0.334362 0)
(0.185204 0.235881 0)
(0.180861 0.177979 0)
(0.0681007 0.187593 0)
(-0.0565943 0.151011 0)
(-0.0787931 0.0549327 0)
(0.153293 0.51455 0)
(0.0447603 -0.341743 0)
(0.178952 0.0594522 0)
(0.268146 -0.26343 0)
(0.34773 -0.326518 0)
(0.431294 -0.307681 0)
(0.433781 -0.302312 0)
(0.395537 -0.332911 0)
(0.238344 -0.14354 0)
(0.00408971 -0.0398403 0)
(-0.308209 0.0205542 0)
(-0.646167 0.295988 0)
(-0.678694 0.23249 0)
(-0.520054 -0.0080491 0)
(-0.256936 -0.0789486 0)
(0.0975008 0.111567 0)
(0.0280103 0.135617 0)
(-0.0452284 0.0736904 0)
(-0.0248054 -0.101881 0)
(0.232115 0.12671 0)
(0.299726 0.355273 0)
(0.389404 0.50291 0)
(0.340076 0.181598 0)
(0.365138 0.219715 0)
(0.383816 0.27556 0)
(0.32241 0.36047 0)
(0.202835 0.343385 0)
(0.000457242 0.651772 0)
(-0.131603 0.874125 0)
(-0.333583 0.758447 0)
(-0.530078 0.463501 0)
(-0.568862 0.322663 0)
(-0.507803 -0.00514891 0)
(-0.407839 -0.106902 0)
(-0.115452 0.0341311 0)
(0.00234543 0.167649 0)
(-0.0368751 0.122326 0)
(0.0143604 -0.0154072 0)
(0.0843106 0.0383697 0)
(-0.0863377 0.0852699 0)
(0.0202561 -0.194305 0)
(0.0502491 -0.286966 0)
(0.136014 -0.23337 0)
(0.187807 -0.225314 0)
(0.145635 -0.14628 0)
(0.111042 -0.0940268 0)
(0.0640511 -0.24375 0)
(0.000458008 0.16331 0)
(-0.0955158 0.285007 0)
(-0.305806 0.135653 0)
(-0.363525 -0.0932087 0)
(-0.393233 -0.226846 0)
(-0.414216 -0.213148 0)
(-0.298723 -0.0315003 0)
(-0.0551707 0.126731 0)
(-0.0469166 0.0960322 0)
(0.0329559 -0.0758592 0)
(0.0217425 0.118526 0)
(-0.026339 0.155116 0)
(0.154564 0.174873 0)
(0.114355 0.0669128 0)
(0.15819 0.0669278 0)
(0.205287 0.235326 0)
(0.0445976 0.267367 0)
(-0.0500128 0.245507 0)
(-0.0762565 0.235814 0)
(-0.0725941 0.484957 0)
(-0.0185564 0.437979 0)
(-0.138651 0.168218 0)
(-0.236063 -0.107671 0)
(-0.291196 -0.256097 0)
(-0.3317 -0.212893 0)
(-0.358228 -0.0181442 0)
(-0.123558 0.0679073 0)
(-0.0502853 0.0654296 0)
(0.0487722 -0.0330472 0)
(0.116678 0.0917907 0)
(-0.0062109 0.125077 0)
(0.174298 0.0327489 0)
(0.147118 0.0436443 0)
(0.0525815 0.00838664 0)
(0.0156335 0.0651709 0)
(0.0149026 0.034402 0)
(-0.106283 0.05046 0)
(-0.118691 0.116383 0)
(-0.109242 0.317285 0)
(-0.0189093 0.422515 0)
(0.00352115 0.331554 0)
(-0.231533 -0.0585623 0)
(-0.259988 -0.226284 0)
(-0.284074 -0.204255 0)
(-0.420429 0.0867877 0)
(-0.281381 0.20758 0)
(-0.0667087 0.0998934 0)
(0.0513274 -0.0467637 0)
(0.138862 0.0717592 0)
(0.00924527 0.119003 0)
(0.186891 0.0446586 0)
(0.137731 0.142705 0)
(0.197111 0.245377 0)
(0.00636812 0.300365 0)
(-0.0992519 0.222411 0)
(-0.176536 0.191617 0)
(-0.237431 0.319253 0)
(-0.223169 0.480467 0)
(-0.081764 0.531285 0)
(0.0843449 0.577356 0)
(-0.114893 0.207927 0)
(-0.25953 0.0155407 0)
(-0.235112 -0.0706587 0)
(-0.340337 -0.116749 0)
(-0.459699 0.0639662 0)
(-0.219128 0.118602 0)
(-0.00729161 0.0638985 0)
(0.0169753 0.217919 0)
(0.0444655 0.274483 0)
(0.0926053 0.352585 0)
(0.0859855 0.26924 0)
(0.0263238 0.144074 0)
(-0.0183926 0.0335195 0)
(-0.0985372 -0.0512851 0)
(-0.166125 -0.125628 0)
(-0.189726 -0.221149 0)
(-0.141237 -0.306384 0)
(-0.11425 -0.308205 0)
(-0.0976093 -0.252958 0)
(-0.0591402 -0.179945 0)
(-0.038264 -0.148419 0)
(-0.0326553 -0.157676 0)
(-0.0366888 -0.214634 0)
(-0.0370491 -0.253601 0)
(-0.0377863 -0.270512 0)
(-0.0315494 -0.269746 0)
(0.016234 -0.237287 0)
(0.0642033 0.00214964 0)
(0.132857 0.0756661 0)
(-0.121604 -0.139194 0)
(0.0302717 0.229833 0)
(0.0877957 0.264808 0)
(0.142712 0.309609 0)
(0.20993 0.294143 0)
(0.239701 0.180934 0)
(0.228518 0.0710916 0)
(0.210489 -0.0159142 0)
(0.198084 -0.0898271 0)
(0.182125 -0.153945 0)
(0.164677 -0.189045 0)
(0.15055 -0.174376 0)
(0.173349 -0.147656 0)
(0.215186 -0.0846454 0)
(0.238511 0.0253631 0)
(0.239676 0.0955091 0)
(0.196829 0.174247 0)
(0.128789 0.15613 0)
(0.0630537 0.101385 0)
(0.0218794 0.0434035 0)
(0.0600153 0.159771 0)
(0.0543303 0.544388 0)
(-0.18971 0.564179 0)
(-0.428476 0.267571 0)
(0.068846 0.118068 0)
(0.134616 0.173855 0)
(0.186115 0.230834 0)
(0.217333 0.234573 0)
(0.249575 0.19592 0)
(0.248728 0.128475 0)
(0.241113 0.0550151 0)
(0.223069 -0.0103247 0)
(0.201918 -0.0659502 0)
(0.181095 -0.130735 0)
(0.17182 -0.121629 0)
(0.204719 0.0527148 0)
(0.223527 0.182059 0)
(0.220348 0.294418 0)
(0.166894 0.291839 0)
(0.135401 0.252453 0)
(0.132669 0.103173 0)
(0.12815 0.0230835 0)
(0.127586 0.00990655 0)
(0.140445 0.260094 0)
(-0.127809 0.392006 0)
(-0.974185 0.673352 0)
(-1.73809 0.886304 0)
(0.0735767 0.0027609 0)
(0.139436 0.13332 0)
(0.161183 0.209052 0)
(0.167574 0.216127 0)
(0.191234 0.192719 0)
(0.194117 0.132285 0)
(0.180622 0.0561708 0)
(0.157292 -0.0242905 0)
(0.140388 -0.0743759 0)
(0.179778 -0.178064 0)
(0.355465 -0.255411 0)
(0.468875 0.0114987 0)
(0.304822 0.255914 0)
(0.148713 0.476522 0)
(-0.0628433 0.573369 0)
(-0.169015 0.521661 0)
(-0.215802 0.45507 0)
(-0.248998 0.548899 0)
(-0.245792 0.751489 0)
(-0.586227 0.280745 0)
(-0.665998 0.603688 0)
(-1.26677 1.00502 0)
(-1.8433 1.41394 0)
(0.0396989 -0.119902 0)
(0.0629494 0.0884108 0)
(0.0619237 0.211688 0)
(0.030762 0.188926 0)
(0.0652082 0.165541 0)
(0.0536284 0.136257 0)
(0.0380007 0.0796937 0)
(0.0206862 0.0148016 0)
(-0.0199049 -0.0179145 0)
(-0.0849698 -0.0617536 0)
(-0.111247 0.0579438 0)
(-0.238655 0.0649752 0)
(-0.450015 0.103982 0)
(-0.761712 0.244184 0)
(-0.947156 0.379202 0)
(-0.971684 0.50135 0)
(-0.854785 0.609019 0)
(-0.86391 0.493454 0)
(-1.01905 0.248653 0)
(-1.22207 1.10482 0)
(-2.57841 0.14883 0)
(-2.46492 1.1177 0)
(-1.98347 1.49978 0)
(-0.0529763 0.0933973 0)
(-0.0832514 0.26277 0)
(-0.0765102 0.248286 0)
(-0.0929003 0.37658 0)
(-0.0533465 0.508638 0)
(-0.0397507 0.546659 0)
(-0.0697014 0.404724 0)
(-0.215402 0.0886558 0)
(-0.555083 0.224833 0)
(-0.668304 0.465396 0)
(-0.784914 0.470297 0)
(-0.799874 0.286936 0)
(-0.90519 0.210575 0)
(-1.08675 0.317708 0)
(-1.12333 0.460835 0)
(-1.05597 0.56402 0)
(-1.15155 0.465538 0)
(-1.80882 0.646445 0)
(-3.3096 1.76959 0)
(-3.91024 1.13598 0)
(-3.54048 0.500829 0)
(-2.76418 0.601467 0)
(-1.90965 1.37464 0)
(-0.0371966 0.360765 0)
(-0.0284058 0.543354 0)
(0.0214851 0.500217 0)
(0.00585884 0.631963 0)
(-0.0938414 0.563791 0)
(-0.280392 0.621539 0)
(-0.67688 0.896707 0)
(-1.16211 1.11822 0)
(-1.16487 1.01895 0)
(-1.13835 0.791205 0)
(-0.999335 0.495469 0)
(-1.02213 0.36729 0)
(-1.09302 0.295045 0)
(-1.04351 0.382207 0)
(-0.981216 0.510471 0)
(-1.02034 0.61413 0)
(-1.47544 1.09048 0)
(-2.40812 2.31418 0)
(-3.06958 1.47406 0)
(-2.15752 -0.132634 0)
(-1.78013 -0.408108 0)
(-1.39098 -0.467988 0)
(-0.784098 -0.622081 0)
(-0.0622776 0.41124 0)
(-0.0265492 0.451559 0)
(-0.155692 0.475776 0)
(-0.151481 0.43443 0)
(-0.156638 0.563884 0)
(-0.491569 0.826566 0)
(-0.914459 1.04809 0)
(-1.4125 1.18696 0)
(-1.44716 0.955285 0)
(-1.42319 0.642359 0)
(-1.42458 0.476735 0)
(-1.29096 0.368125 0)
(-1.10839 0.374507 0)
(-0.914998 0.385838 0)
(-0.821451 0.419041 0)
(-0.860327 0.916281 0)
(-1.36275 2.02541 0)
(-2.15092 2.14109 0)
(-2.18939 1.17921 0)
(-1.62942 -0.433526 0)
(-1.443 -0.547103 0)
(-1.23624 -0.532583 0)
(-1.06774 -0.331355 0)
(-0.179324 0.250157 0)
(-0.0763335 0.543222 0)
(-0.336445 0.823233 0)
(-0.595414 0.629978 0)
(-0.572851 0.40481 0)
(-0.548622 0.898126 0)
(-0.710464 1.83992 0)
(-1.45323 1.41928 0)
(-1.64912 0.89735 0)
(-1.53349 0.503244 0)
(-1.36821 0.0983304 0)
(-1.22593 0.0907394 0)
(-1.07377 0.247232 0)
(-0.897936 0.221997 0)
(-0.752763 0.324339 0)
(-0.451205 1.42495 0)
(-1.21286 1.90116 0)
(-1.37168 2.0448 0)
(-0.943993 1.20508 0)
(-0.807204 -0.243825 0)
(-1.2807 -0.253107 0)
(-1.57543 0.175496 0)
(-1.85795 0.167615 0)
(-0.350976 0.893039 0)
(-0.448029 0.463983 0)
(-0.513026 0.374123 0)
(-0.43558 0.206219 0)
(-0.554656 0.306955 0)
(-0.598461 0.665994 0)
(-0.445184 1.4671 0)
(-0.51999 1.67315 0)
(-0.762639 0.937302 0)
(-0.736684 0.101257 0)
(-0.997162 -0.171503 0)
(-1.21024 -0.0091782 0)
(-1.06432 0.0282454 0)
(-0.951439 -0.0185893 0)
(-0.877736 0.265253 0)
(-0.733591 1.30824 0)
(-0.794973 1.88776 0)
(-0.715069 1.83345 0)
(-0.392505 0.89597 0)
(-0.558221 -0.322786 0)
(-1.0237 -0.616111 0)
(-1.18248 -0.529119 0)
(-1.21978 -0.190074 0)
(-0.186932 0.737108 0)
(-0.278386 0.462131 0)
(-0.390799 0.415579 0)
(-0.356119 0.367683 0)
(-0.434806 0.431218 0)
(-0.516441 0.707987 0)
(-0.40089 1.13714 0)
(-0.0948832 1.30071 0)
(0.0385221 0.898176 0)
(-0.0422496 0.387507 0)
(-0.300935 0.181665 0)
(-0.566029 -0.0383828 0)
(-0.776681 -0.177622 0)
(-1.03045 0.0530561 0)
(-1.0772 0.297587 0)
(-0.811108 1.01505 0)
(-0.542318 1.69132 0)
(-0.377969 1.59283 0)
(-0.124698 0.897736 0)
(-0.341802 0.311216 0)
(-0.800147 0.25138 0)
(-1.24393 0.295884 0)
(-1.59322 0.113897 0)
(-0.156846 0.887882 0)
(-0.168303 0.643256 0)
(-0.308736 0.451508 0)
(-0.298149 0.404007 0)
(-0.323942 0.482127 0)
(-0.282139 0.705185 0)
(-0.212853 0.983498 0)
(-0.0189732 1.06931 0)
(0.177165 0.822591 0)
(0.113548 0.457882 0)
(-0.0407417 0.314301 0)
(-0.14461 0.235686 0)
(-0.321407 0.170999 0)
(-0.630886 0.0729074 0)
(-0.801276 0.109638 0)
(-0.76911 0.662899 0)
(-0.398726 1.42738 0)
(-0.151852 1.49378 0)
(-0.0322641 1.05043 0)
(-0.313729 0.548001 0)
(-0.595714 0.294919 0)
(-0.862417 0.282192 0)
(-1.01357 0.230863 0)
(-0.138613 1.11883 0)
(-0.0844599 0.753937 0)
(-0.216092 0.485615 0)
(-0.182357 0.408983 0)
(-0.19144 0.44492 0)
(-0.141964 0.621506 0)
(-0.00614006 0.837424 0)
(0.135233 0.933948 0)
(0.217053 0.789079 0)
(0.206191 0.550968 0)
(0.0800294 0.390443 0)
(0.0499197 0.291203 0)
(-0.0331295 0.30569 0)
(-0.134197 0.380007 0)
(-0.311473 0.418835 0)
(-0.485812 0.547725 0)
(-0.323165 0.94426 0)
(-0.0440187 1.20998 0)
(0.137564 1.11437 0)
(-0.00284396 0.864088 0)
(-0.196947 0.615487 0)
(-0.392846 0.453276 0)
(-0.501803 0.267319 0)
(-0.0536924 1.18425 0)
(0.0105906 0.800014 0)
(-0.0892644 0.515246 0)
(-0.0651648 0.403972 0)
(-0.0789701 0.416495 0)
(-0.0307139 0.52914 0)
(0.0728436 0.671702 0)
(0.241842 0.840317 0)
(0.300971 0.774182 0)
(0.295104 0.641759 0)
(0.212497 0.473214 0)
(0.191239 0.346355 0)
(0.138979 0.359529 0)
(0.107169 0.420935 0)
(0.0784399 0.514003 0)
(0.0301555 0.64493 0)
(0.0501746 0.823069 0)
(0.230374 0.956229 0)
(0.413126 0.971635 0)
(0.517684 0.877824 0)
(0.600811 0.76496 0)
(0.620634 0.615273 0)
(0.529347 0.425662 0)
(0.0204067 1.14102 0)
(0.0989877 0.808692 0)
(0.0356341 0.542199 0)
(0.0397304 0.413171 0)
(0.0136557 0.407108 0)
(0.0501771 0.473973 0)
(0.101617 0.541353 0)
(0.242032 0.698764 0)
(0.334449 0.735016 0)
(0.345549 0.669419 0)
(0.32511 0.526122 0)
(0.301678 0.384013 0)
(0.256038 0.386581 0)
(0.24407 0.429698 0)
(0.252693 0.507012 0)
(0.295646 0.613442 0)
(0.36954 0.741956 0)
(0.547784 0.817594 0)
(0.698213 0.853321 0)
(0.877047 0.733678 0)
(0.969141 0.637951 0)
(1.14143 0.523273 0)
(1.12883 0.373711 0)
(0.0640952 1.01145 0)
(0.145679 0.795275 0)
(0.117252 0.559377 0)
(0.122277 0.431432 0)
(0.0901268 0.413248 0)
(0.106175 0.452172 0)
(0.12182 0.482221 0)
(0.192679 0.578488 0)
(0.298438 0.681584 0)
(0.352257 0.647341 0)
(0.371226 0.528568 0)
(0.357327 0.416174 0)
(0.322571 0.409871 0)
(0.316357 0.433811 0)
(0.331578 0.478871 0)
(0.390648 0.543451 0)
(0.484975 0.605327 0)
(0.648539 0.63768 0)
(0.802003 0.688015 0)
(1.00785 0.611558 0)
(1.07654 0.48011 0)
(1.23079 0.369843 0)
(1.32834 0.285404 0)
(0.0631159 0.900535 0)
(0.150527 0.768079 0)
(0.15834 0.560467 0)
(0.169565 0.443966 0)
(0.137808 0.420083 0)
(0.140421 0.443107 0)
(0.141569 0.458961 0)
(0.163334 0.511911 0)
(0.242099 0.584854 0)
(0.322069 0.590166 0)
(0.371272 0.520617 0)
(0.366792 0.441549 0)
(0.34398 0.426999 0)
(0.342813 0.432832 0)
(0.35695 0.447199 0)
(0.404304 0.468051 0)
(0.488414 0.484881 0)
(0.605891 0.480667 0)
(0.722771 0.457837 0)
(0.947708 0.484374 0)
(1.0026 0.373381 0)
(1.0969 0.210965 0)
(1.25387 0.173628 0)
(0.0612604 0.796165 0)
(0.139589 0.711031 0)
(0.176393 0.545601 0)
(0.181266 0.453857 0)
(0.157695 0.430447 0)
(0.156411 0.442891 0)
(0.157692 0.450993 0)
(0.166281 0.477344 0)
(0.213869 0.512666 0)
(0.27985 0.520591 0)
(0.338495 0.496818 0)
(0.347995 0.451449 0)
(0.339546 0.434112 0)
(0.344874 0.426237 0)
(0.362779 0.417659 0)
(0.400175 0.40819 0)
(0.459785 0.398449 0)
(0.536603 0.368352 0)
(0.617266 0.31694 0)
(0.747152 0.336617 0)
(0.837943 0.259144 0)
(0.912734 0.085454 0)
(1.00288 0.0347739 0)
(0.0606397 0.696928 0)
(0.121553 0.644206 0)
(0.174327 0.528616 0)
(0.174011 0.46026 0)
(0.159543 0.440474 0)
(0.161113 0.441137 0)
(0.166401 0.444284 0)
(0.176482 0.455779 0)
(0.208236 0.467171 0)
(0.25168 0.469511 0)
(0.294221 0.460757 0)
(0.315446 0.442235 0)
(0.32857 0.42978 0)
(0.346033 0.410133 0)
(0.369542 0.38968 0)
(0.400989 0.365243 0)
(0.444493 0.341328 0)
(0.494426 0.299635 0)
(0.545497 0.253746 0)
(0.607994 0.243441 0)
(0.6888 0.17056 0)
(0.737129 0.0453152 0)
(0.756358 -0.00239066 0)
(0.0501414 0.61503 0)
(0.0986053 0.584882 0)
(0.150554 0.507478 0)
(0.153786 0.46279 0)
(0.153718 0.442218 0)
(0.159124 0.43802 0)
(0.168136 0.434232 0)
(0.182039 0.436952 0)
(0.20706 0.436402 0)
(0.236482 0.434872 0)
(0.269342 0.43144 0)
(0.295764 0.419827 0)
(0.320572 0.406495 0)
(0.347132 0.385019 0)
(0.374046 0.361825 0)
(0.402926 0.331943 0)
(0.435347 0.302074 0)
(0.466437 0.258847 0)
(0.497903 0.22101 0)
(0.527639 0.193769 0)
(0.578295 0.121174 0)
(0.582636 0.0344713 0)
(0.572079 0.00514861 0)
(0.0362359 0.552295 0)
(0.0776885 0.535064 0)
(0.121391 0.483922 0)
(0.133041 0.45491 0)
(0.143048 0.437093 0)
(0.153506 0.42934 0)
(0.164942 0.420619 0)
(0.180587 0.417852 0)
(0.201758 0.412695 0)
(0.224705 0.40814 0)
(0.252389 0.403289 0)
(0.280283 0.393636 0)
(0.307863 0.37775 0)
(0.336937 0.357441 0)
(0.363161 0.333087 0)
(0.391116 0.304598 0)
(0.415969 0.27571 0)
(0.435965 0.236387 0)
(0.45451 0.200555 0)
(0.472125 0.165164 0)
(0.497056 0.1069 0)
(0.486806 0.0526267 0)
(0.466143 0.031687 0)
(0.0256462 0.50475 0)
(0.0615599 0.493117 0)
(0.0979454 0.460123 0)
(0.114651 0.439918 0)
(0.129147 0.42438 0)
(0.143787 0.414922 0)
(0.157903 0.405827 0)
(0.174175 0.399703 0)
(0.193037 0.391911 0)
(0.213202 0.384519 0)
(0.236366 0.376728 0)
(0.262659 0.365422 0)
(0.288597 0.348846 0)
(0.314613 0.329281 0)
(0.339007 0.305732 0)
(0.36151 0.279126 0)
(0.382588 0.253343 0)
(0.39921 0.218727 0)
(0.415192 0.184346 0)
(0.426936 0.14783 0)
(0.438391 0.104189 0)
(0.430236 0.0674247 0)
(0.417037 0.0517434 0)
(0.0195193 0.467042 0)
(0.0503681 0.4576 0)
(0.0814172 0.436145 0)
(0.100659 0.42156 0)
(0.11792 0.408924 0)
(0.134346 0.399539 0)
(0.150176 0.390131 0)
(0.167144 0.382239 0)
(0.185075 0.3734 0)
(0.204062 0.364128 0)
(0.224304 0.353211 0)
(0.247587 0.340382 0)
(0.270699 0.324678 0)
(0.293153 0.305943 0)
(0.314189 0.283479 0)
(0.333263 0.258857 0)
(0.351601 0.233152 0)
(0.367556 0.202651 0)
(0.379946 0.171056 0)
(0.388471 0.138711 0)
(0.396268 0.105205 0)
(0.389772 0.0766134 0)
(0.389458 0.0598277 0)
(0.015869 0.43611 0)
(0.0422315 0.427478 0)
(0.0693127 0.413086 0)
(0.0891825 0.402155 0)
(0.107514 0.39167 0)
(0.124663 0.382517 0)
(0.141357 0.373101 0)
(0.158487 0.364381 0)
(0.176078 0.354892 0)
(0.194498 0.345047 0)
(0.213375 0.333221 0)
(0.233205 0.319186 0)
(0.253015 0.303416 0)
(0.272833 0.285326 0)
(0.291618 0.265109 0)
(0.308365 0.241649 0)
(0.324303 0.217282 0)
(0.33746 0.189776 0)
(0.34876 0.162086 0)
(0.357092 0.131123 0)
(0.364025 0.102382 0)
(0.361113 0.0790018 0)
(0.36659 0.058737 0)
(0.0135238 0.40936 0)
(0.0365018 0.401216 0)
(0.0604333 0.390945 0)
(0.0798998 0.382431 0)
(0.0982837 0.373674 0)
(0.115647 0.365201 0)
(0.132466 0.35614 0)
(0.149298 0.347087 0)
(0.166428 0.337098 0)
(0.183973 0.326768 0)
(0.201815 0.314586 0)
(0.219024 0.300397 0)
(0.236609 0.284376 0)
(0.253329 0.267126 0)
(0.270006 0.247033 0)
(0.28567 0.225482 0)
(0.300043 0.202936 0)
(0.312402 0.178115 0)
(0.322693 0.151524 0)
(0.329841 0.124334 0)
(0.335144 0.101236 0)
(0.336938 0.0768432 0)
(0.345013 0.0524989 0)
(0.0118724 0.386301 0)
(0.0322828 0.378565 0)
(0.0536609 0.370761 0)
(0.072132 0.363869 0)
(0.0897089 0.356238 0)
(0.106549 0.348173 0)
(0.122913 0.339391 0)
(0.139086 0.330195 0)
(0.155273 0.320028 0)
(0.171551 0.309055 0)
(0.187949 0.297446 0)
(0.204529 0.283651 0)
(0.220629 0.26851 0)
(0.236258 0.25121 0)
(0.251095 0.232033 0)
(0.264259 0.211989 0)
(0.276159 0.189946 0)
(0.287173 0.167509 0)
(0.296318 0.143688 0)
(0.303465 0.118506 0)
(0.31066 0.0946967 0)
(0.315129 0.0719942 0)
(0.321707 0.0486479 0)
(0.0106061 0.365353 0)
(0.0290075 0.358014 0)
(0.0484015 0.351753 0)
(0.0658198 0.345987 0)
(0.0825447 0.339292 0)
(0.0986555 0.331784 0)
(0.114351 0.32346 0)
(0.129732 0.314386 0)
(0.14506 0.304274 0)
(0.160122 0.293508 0)
(0.175266 0.281515 0)
(0.189973 0.267853 0)
(0.204043 0.252971 0)
(0.21808 0.236647 0)
(0.230856 0.218845 0)
(0.243195 0.199206 0)
(0.254707 0.178998 0)
(0.264699 0.157267 0)
(0.274065 0.134703 0)
(0.280537 0.111838 0)
(0.28648 0.0898002 0)
(0.291555 0.0667335 0)
(0.298075 0.0429691 0)
(0.00948666 0.346711 0)
(0.0260746 0.339675 0)
(0.0436248 0.334292 0)
(0.0598392 0.329218 0)
(0.0755656 0.323169 0)
(0.090761 0.316195 0)
(0.105542 0.308242 0)
(0.119974 0.299393 0)
(0.134244 0.289573 0)
(0.148159 0.278985 0)
(0.162145 0.267237 0)
(0.17579 0.254178 0)
(0.188982 0.2394 0)
(0.201661 0.22364 0)
(0.213531 0.206449 0)
(0.22461 0.188323 0)
(0.234361 0.168859 0)
(0.242988 0.148781 0)
(0.25105 0.127866 0)
(0.257535 0.105477 0)
(0.264079 0.0834292 0)
(0.26913 0.0614566 0)
(0.274513 0.0386787 0)
(0.00858768 0.329685 0)
(0.0237583 0.322938 0)
(0.0398015 0.318213 0)
(0.0548528 0.313685 0)
(0.0695061 0.308136 0)
(0.0837462 0.301597 0)
(0.097571 0.293978 0)
(0.111034 0.285362 0)
(0.124181 0.275754 0)
(0.137063 0.265184 0)
(0.14976 0.25366 0)
(0.162024 0.240941 0)
(0.173816 0.22694 0)
(0.185099 0.211782 0)
(0.195594 0.195505 0)
(0.205354 0.178027 0)
(0.214568 0.159422 0)
(0.222842 0.139946 0)
(0.230522 0.11999 0)
(0.236748 0.0995499 0)
(0.242247 0.0785476 0)
(0.246773 0.0568214 0)
(0.251522 0.0345454 0)
(0.0077487 0.31437 0)
(0.0215574 0.307805 0)
(0.0361536 0.303525 0)
(0.0499757 0.299396 0)
(0.063467 0.294268 0)
(0.0766577 0.288099 0)
(0.089499 0.28087 0)
(0.102019 0.272648 0)
(0.114191 0.263435 0)
(0.12607 0.253219 0)
(0.137619 0.242045 0)
(0.148879 0.229777 0)
(0.159649 0.216255 0)
(0.169886 0.201662 0)
(0.179392 0.186045 0)
(0.188293 0.169224 0)
(0.196486 0.151618 0)
(0.203676 0.133124 0)
(0.210269 0.113945 0)
(0.215922 0.0938564 0)
(0.221115 0.073499 0)
(0.225259 0.0526202 0)
(0.229264 0.0311153 0)
(0.00703694 0.300303 0)
(0.0196436 0.293842 0)
(0.0329341 0.289848 0)
(0.0456162 0.286012 0)
(0.0580152 0.281185 0)
(0.0701643 0.275292 0)
(0.0819944 0.268364 0)
(0.0935008 0.260452 0)
(0.104647 0.251532 0)
(0.115466 0.241632 0)
(0.125907 0.230746 0)
(0.136063 0.218931 0)
(0.145697 0.206001 0)
(0.154836 0.192004 0)
(0.163446 0.177004 0)
(0.171441 0.160893 0)
(0.17876 0.143879 0)
(0.18536 0.126179 0)
(0.191231 0.107881 0)
(0.196303 0.0888869 0)
(0.200732 0.0692941 0)
(0.204339 0.0490014 0)
(0.20767 0.0281678 0)
(0.00633165 0.287662 0)
(0.0178146 0.281406 0)
(0.0298849 0.277665 0)
(0.0414738 0.274104 0)
(0.0528155 0.269577 0)
(0.063926 0.263998 0)
(0.0747294 0.257389 0)
(0.0852243 0.249794 0)
(0.0954052 0.241202 0)
(0.105231 0.231652 0)
(0.114661 0.22112 0)
(0.123731 0.20962 0)
(0.13236 0.197067 0)
(0.140512 0.183532 0)
(0.148176 0.169145 0)
(0.155255 0.153759 0)
(0.161722 0.137492 0)
(0.167567 0.120562 0)
(0.172662 0.10289 0)
(0.177151 0.0844748 0)
(0.181005 0.0654982 0)
(0.184128 0.0458978 0)
(0.186787 0.0257599 0)
(0.00570272 0.276106 0)
(0.016106 0.26981 0)
(0.0270276 0.266208 0)
(0.037559 0.262853 0)
(0.0478722 0.258569 0)
(0.05797 0.253267 0)
(0.0677726 0.247005 0)
(0.0772535 0.239766 0)
(0.0863975 0.23155 0)
(0.095224 0.222349 0)
(0.103695 0.212213 0)
(0.111813 0.201138 0)
(0.119561 0.189152 0)
(0.126846 0.176205 0)
(0.133641 0.162325 0)
(0.139856 0.147422 0)
(0.145433 0.131687 0)
(0.150411 0.115308 0)
(0.154833 0.0983209 0)
(0.158728 0.0806416 0)
(0.161975 0.0623465 0)
(0.164558 0.0433949 0)
(0.166584 0.0239122 0)
(0.00509383 0.265804 0)
(0.0145515 0.259604 0)
(0.0244126 0.25622 0)
(0.0339446 0.253065 0)
(0.0432453 0.248991 0)
(0.0523402 0.243954 0)
(0.0611371 0.237915 0)
(0.0696385 0.230917 0)
(0.0778068 0.222996 0)
(0.0856534 0.214123 0)
(0.0931715 0.204308 0)
(0.100301 0.193592 0)
(0.107047 0.181938 0)
(0.113403 0.169358 0)
(0.119325 0.156013 0)
(0.124775 0.141882 0)
(0.129721 0.126905 0)
(0.134096 0.111105 0)
(0.137796 0.0945575 0)
(0.140947 0.0774028 0)
(0.143563 0.0597199 0)
(0.145606 0.0414263 0)
(0.147032 0.022579 0)
(0.00455317 0.256429 0)
(0.0130545 0.250207 0)
(0.0218993 0.24686 0)
(0.0304601 0.243893 0)
(0.0387857 0.240052 0)
(0.0469402 0.235271 0)
(0.0548234 0.229602 0)
(0.0624302 0.223005 0)
(0.0697146 0.215461 0)
(0.0766568 0.206972 0)
(0.0832317 0.197525 0)
(0.0893941 0.187131 0)
(0.0951653 0.175797 0)
(0.100586 0.163651 0)
(0.105609 0.150674 0)
(0.11018 0.136846 0)
(0.114275 0.122272 0)
(0.117902 0.107201 0)
(0.121142 0.0915178 0)
(0.123825 0.0750092 0)
(0.12582 0.057787 0)
(0.127282 0.0399974 0)
(0.128135 0.0217317 0)
(0.0040472 0.248083 0)
(0.0117014 0.24193 0)
(0.0194755 0.238823 0)
(0.0271021 0.236045 0)
(0.0344858 0.232384 0)
(0.041735 0.22783 0)
(0.0487759 0.222405 0)
(0.055577 0.216066 0)
(0.0621023 0.208761 0)
(0.0682798 0.200604 0)
(0.0740827 0.191576 0)
(0.0795094 0.181664 0)
(0.0845677 0.170866 0)
(0.0891144 0.159152 0)
(0.0931696 0.146571 0)
(0.0967446 0.133193 0)
(0.0998745 0.119086 0)
(0.102631 0.104146 0)
(0.104916 0.0885673 0)
(0.10681 0.0726833 0)
(0.108453 0.0563025 0)
(0.109506 0.0391736 0)
(0.109843 0.0214405 0)
(0.00364387 0.240732 0)
(0.0103709 0.234516 0)
(0.0172087 0.231402 0)
(0.0238701 0.228773 0)
(0.0302952 0.225273 0)
(0.0365951 0.220896 0)
(0.0427321 0.215626 0)
(0.0486768 0.209532 0)
(0.0543421 0.202658 0)
(0.0597265 0.194923 0)
(0.0647428 0.186292 0)
(0.0693323 0.176739 0)
(0.073526 0.166304 0)
(0.0773434 0.155061 0)
(0.0808036 0.143031 0)
(0.0838629 0.13025 0)
(0.0865445 0.116674 0)
(0.0885791 0.102346 0)
(0.0900459 0.0873576 0)
(0.0911533 0.0715145 0)
(0.0916689 0.0551331 0)
(0.0920467 0.0385797 0)
(0.0920029 0.0215547 0)
(0.00338742 0.233981 0)
(0.00921163 0.228419 0)
(0.0146745 0.225594 0)
(0.0202799 0.223163 0)
(0.0256468 0.219815 0)
(0.0309657 0.215547 0)
(0.0361607 0.210403 0)
(0.0412435 0.204425 0)
(0.0462591 0.197625 0)
(0.0510472 0.190083 0)
(0.0555752 0.181789 0)
(0.0597582 0.172696 0)
(0.0634469 0.162717 0)
(0.0666435 0.151864 0)
(0.0693507 0.140192 0)
(0.0715274 0.127675 0)
(0.0732226 0.114421 0)
(0.0745959 0.100608 0)
(0.075709 0.0861485 0)
(0.0762945 0.0710913 0)
(0.0763247 0.0554127 0)
(0.075811 0.0388637 0)
(0.0748371 0.0219723 0)
(0.00295155 0.228068 0)
(0.00763407 0.22268 0)
(0.0118481 0.219725 0)
(0.016292 0.217191 0)
(0.0204719 0.213858 0)
(0.0247215 0.209757 0)
(0.0287589 0.204803 0)
(0.0327059 0.19908 0)
(0.0364803 0.192631 0)
(0.0401912 0.18544 0)
(0.0438029 0.177534 0)
(0.047273 0.168845 0)
(0.0505497 0.159371 0)
(0.0535214 0.149115 0)
(0.0561382 0.138078 0)
(0.0583147 0.126244 0)
(0.0599758 0.113646 0)
(0.0610978 0.100244 0)
(0.0615813 0.0860664 0)
(0.0615813 0.0713194 0)
(0.0612494 0.0560017 0)
(0.0604701 0.0402701 0)
(0.0588236 0.0239159 0)
(0.00254881 0.223236 0)
(0.00558649 0.21939 0)
(0.0076018 0.217214 0)
(0.00998966 0.214969 0)
(0.0121629 0.211779 0)
(0.0146141 0.207735 0)
(0.0169648 0.20277 0)
(0.0193754 0.196959 0)
(0.0217903 0.190343 0)
(0.024258 0.182917 0)
(0.0267646 0.174757 0)
(0.0293262 0.165939 0)
(0.0318974 0.156443 0)
(0.0344027 0.146252 0)
(0.0368433 0.135343 0)
(0.0391471 0.12378 0)
(0.0411751 0.111522 0)
(0.0428467 0.0986283 0)
(0.044061 0.085118 0)
(0.0447146 0.0710481 0)
(0.0446525 0.0563984 0)
(0.043846 0.0411248 0)
(0.0422511 0.0253372 0)
(0.00167857 0.219777 0)
(0.00267332 0.217141 0)
(0.003068 0.214419 0)
(0.00422958 0.211543 0)
(0.00509703 0.208096 0)
(0.00631545 0.20398 0)
(0.00754333 0.199122 0)
(0.00888841 0.193495 0)
(0.0103412 0.187078 0)
(0.0118711 0.17988 0)
(0.013517 0.171964 0)
(0.0152769 0.163386 0)
(0.017107 0.15412 0)
(0.0189506 0.144099 0)
(0.020781 0.133432 0)
(0.0225148 0.122126 0)