/*--------------------------------*- C++ -*----------------------------------*\
| =========                 |                                                 |
| \\      /  F ield         | OpenFOAM: The Open Source CFD Toolbox           |
|  \\    /   O peration     | Version:  2.4.0                                 |
|   \\  /    A nd           | Web:      www.OpenFOAM.org                      |
|    \\/     M anipulation  |                                                 |
\*---------------------------------------------------------------------------*/
FoamFile
{
    version     2.0;
    format      ascii;
    class       volVectorField;
    location    "0.9";
    object      U.oil;
}
// * * * * * * * * * * * * * * * * * * * * * * * * * * * * * * * * * * * * * //

dimensions      [0 1 -1 0 0 0 0];

internalField   nonuniform List<vector> 
2268
(
(-0.0240937 -0.0874182 0)
(-0.0810465 -0.085557 0)
(-0.146107 -0.0652423 0)
(-0.219997 -0.0340378 0)
(-0.267544 -0.0113152 0)
(-0.294383 0.00601704 0)
(-0.296698 0.00971928 0)
(-0.284107 0.00893079 0)
(-0.2605 0.00650945 0)
(-0.23621 0.00342515 0)
(-0.218191 -0.00128463 0)
(-0.201317 -0.00713834 0)
(-0.177366 -0.00765164 0)
(-0.154833 -0.00774939 0)
(-0.137371 -0.00653726 0)
(-0.128089 -0.00390103 0)
(-0.120491 -0.00369923 0)
(-0.11036 -0.00458433 0)
(-0.0916642 -0.00497185 0)
(-0.0618064 -0.00633198 0)
(-0.0373107 0.00285302 0)
(-0.0305094 0.00902164 0)
(-0.0238614 0.000670289 0)
(-0.0210969 0.142768 0)
(-0.0715802 0.148365 0)
(-0.125255 0.122468 0)
(-0.199337 0.0820873 0)
(-0.254134 0.0423613 0)
(-0.29047 0.00470896 0)
(-0.300825 -0.0153675 0)
(-0.289638 -0.0260386 0)
(-0.264235 -0.0287918 0)
(-0.238972 -0.0222987 0)
(-0.217138 -0.0143777 0)
(-0.19483 -0.0118435 0)
(-0.172774 -0.014167 0)
(-0.153025 -0.0115188 0)
(-0.137863 -0.0062421 0)
(-0.127979 -0.00405334 0)
(-0.117307 -0.00456943 0)
(-0.106045 -0.00878934 0)
(-0.0856302 -0.0165805 0)
(-0.0560624 -0.0194502 0)
(-0.032138 -0.0115392 0)
(-0.00848111 -0.000632052 0)
(-0.0025602 -0.00792978 0)
(-0.0194544 -0.0553457 0)
(-0.0944653 -0.0398751 0)
(-0.176406 0.0243833 0)
(-0.232645 0.0497889 0)
(-0.270715 0.0388064 0)
(-0.296947 0.0295659 0)
(-0.307581 0.00881843 0)
(-0.292707 -0.0112196 0)
(-0.265142 -0.0195052 0)
(-0.236475 -0.0206495 0)
(-0.209534 -0.0236101 0)
(-0.186361 -0.0271009 0)
(-0.169479 -0.0250823 0)
(-0.154945 -0.0204951 0)
(-0.140491 -0.0147244 0)
(-0.130374 -0.0118687 0)
(-0.114617 -0.0137169 0)
(-0.0995988 -0.0203673 0)
(-0.0812714 -0.0293647 0)
(-0.0580771 -0.0322327 0)
(-0.0369188 -0.020782 0)
(-0.00105656 -0.00323609 0)
(0.00236166 0.005323 0)
(-0.0360148 0.137017 0)
(-0.126143 0.120175 0)
(-0.227049 0.111314 0)
(-0.30041 0.10213 0)
(-0.343354 0.0604025 0)
(-0.34392 0.0169003 0)
(-0.32487 -0.018545 0)
(-0.300893 -0.0451322 0)
(-0.270699 -0.0525258 0)
(-0.235425 -0.0451373 0)
(-0.205974 -0.0374308 0)
(-0.184653 -0.0345764 0)
(-0.170432 -0.035153 0)
(-0.157227 -0.0317116 0)
(-0.140859 -0.0224742 0)
(-0.123845 -0.018721 0)
(-0.104605 -0.0184263 0)
(-0.0908412 -0.0210911 0)
(-0.0794122 -0.0312819 0)
(-0.0701403 -0.0361443 0)
(-0.050496 -0.0382393 0)
(-0.00565491 -0.0246297 0)
(0.00403579 -0.0178545 0)
(-0.0280514 -0.024782 0)
(-0.0936635 0.0521001 0)
(-0.310715 0.119777 0)
(-0.388408 0.106071 0)
(-0.403808 0.0658746 0)
(-0.39391 0.0212433 0)
(-0.368458 -0.0137649 0)
(-0.342388 -0.0403071 0)
(-0.312807 -0.0517527 0)
(-0.274137 -0.0463032 0)
(-0.235249 -0.0355351 0)
(-0.205172 -0.0243843 0)
(-0.185859 -0.014539 0)
(-0.172361 -0.00992612 0)
(-0.14941 -0.00796285 0)
(-0.12331 -0.0127741 0)
(-0.101339 -0.0204191 0)
(-0.0902626 -0.0296527 0)
(-0.0812503 -0.0392883 0)
(-0.0701134 -0.044962 0)
(-0.0503752 -0.0443054 0)
(-0.0245281 -0.00785272 0)
(-0.00729197 0.0311746 0)
(-0.0589786 0.264804 0)
(-0.179404 0.247468 0)
(-0.399314 0.164464 0)
(-0.523051 0.108234 0)
(-0.513751 0.0586756 0)
(-0.475882 0.0041599 0)
(-0.429793 -0.0382206 0)
(-0.387243 -0.0598106 0)
(-0.346891 -0.0702376 0)
(-0.301581 -0.0780484 0)
(-0.251582 -0.0811016 0)
(-0.212987 -0.0694631 0)
(-0.196204 -0.0552766 0)
(-0.190796 -0.0465883 0)
(-0.183384 -0.0317104 0)
(-0.167195 -0.0178314 0)
(-0.139978 -0.00496237 0)
(-0.10738 0.00278714 0)
(-0.0843779 -0.00382536 0)
(-0.0591201 -0.0169051 0)
(-0.0207216 -0.0375673 0)
(0.00125584 -0.0305227 0)
(-0.01903 -0.0141364 0)
(-0.0329486 0.172328 0)
(-0.110139 0.252832 0)
(-0.306355 0.211148 0)
(-0.539044 0.0984907 0)
(-0.570805 0.0247277 0)
(-0.55422 -0.0162366 0)
(-0.487612 -0.0592659 0)
(-0.41493 -0.110297 0)
(-0.370258 -0.146052 0)
(-0.332501 -0.160358 0)
(-0.26486 -0.151173 0)
(-0.182463 -0.115164 0)
(-0.138424 -0.0748086 0)
(-0.132675 -0.056179 0)
(-0.149633 -0.0388174 0)
(-0.169427 -0.0267084 0)
(-0.168513 -0.0125182 0)
(-0.12748 0.0010109 0)
(-0.0812272 -0.00209982 0)
(-0.0478849 -0.0196383 0)
(-0.039798 -0.0440825 0)
(-0.106068 0.110833 0)
(-0.111502 0.252149 0)
(-0.0227174 0.26997 0)
(-0.0586357 0.323572 0)
(-0.118786 0.367277 0)
(-0.354988 0.181035 0)
(-0.472771 0.0096146 0)
(-0.473003 -0.102601 0)
(-0.438008 -0.180416 0)
(-0.409534 -0.189652 0)
(-0.385671 -0.175571 0)
(-0.33764 -0.181384 0)
(-0.258469 -0.177757 0)
(-0.197534 -0.1108 0)
(-0.104211 -0.0439315 0)
(-0.0297057 0.0122502 0)
(0.00795057 0.0785114 0)
(-0.0231795 0.129661 0)
(-0.0477503 0.139129 0)
(-0.0473302 0.127154 0)
(-0.0383697 0.1283 0)
(-0.044528 0.111894 0)
(-0.123517 0.132848 0)
(-0.265509 0.0781984 0)
(-0.166538 -0.22192 0)
(-0.000933816 -0.0438744 0)
(0.224813 -0.131186 0)
(0.298273 -0.193776 0)
(0.335444 -0.242064 0)
(0.357432 -0.280096 0)
(0.367666 -0.291116 0)
(0.362324 -0.282596 0)
(0.369549 -0.251444 0)
(0.379348 -0.219564 0)
(0.386216 -0.187192 0)
(0.353285 -0.135886 0)
(0.324573 -0.06933 0)
(0.319812 -0.0430337 0)
(0.334263 -0.00471529 0)
(0.309928 0.0485309 0)
(0.197358 0.106335 0)
(0.0454625 0.125141 0)
(-0.0910395 0.0948712 0)
(-0.0489458 0.0533742 0)
(0.0420897 0.185144 0)
(0.267966 0.242708 0)
(0.381842 0.39114 0)
(0.448134 0.447898 0)
(0.489164 0.510049 0)
(0.467196 0.511266 0)
(0.424555 0.492982 0)
(0.404939 0.44425 0)
(0.406783 0.408907 0)
(0.397233 0.379729 0)
(0.341729 0.362913 0)
(0.218522 0.352621 0)
(0.0993847 0.326343 0)
(0.0834019 0.310867 0)
(0.190072 0.3272 0)
(0.139674 0.332123 0)
(0.0281865 0.31165 0)
(-0.0682754 0.281321 0)
(-0.0868816 0.201106 0)
(0.192121 0.0578446 0)
(0.133931 -0.220282 0)
(0.201415 -0.299101 0)
(0.263358 -0.332433 0)
(0.348728 -0.336368 0)
(0.432922 -0.317704 0)
(0.430314 -0.276196 0)
(0.388706 -0.253514 0)
(0.297608 -0.22222 0)
(0.179151 -0.171899 0)
(-0.0587203 -0.00687094 0)
(-0.516578 0.142355 0)
(-0.575471 0.066246 0)
(-0.490438 0.0115839 0)
(-0.257249 0.0238253 0)
(0.0591464 0.216852 0)
(-0.0119636 0.266917 0)
(-0.0605414 0.195775 0)
(-0.0322523 0.0300769 0)
(0.149657 -0.397923 0)
(0.106972 -0.0952624 0)
(0.194063 0.0902072 0)
(0.244725 0.153009 0)
(0.340647 0.239246 0)
(0.388634 0.335324 0)
(0.328061 0.380253 0)
(0.246993 0.347819 0)
(0.115469 0.352979 0)
(-0.00910644 0.40792 0)
(-0.183823 0.467632 0)
(-0.538094 0.35903 0)
(-0.542868 0.167163 0)
(-0.506803 0.0798475 0)
(-0.435601 0.0310939 0)
(-0.167507 0.150847 0)
(-0.0397068 0.307837 0)
(-0.0540938 0.258585 0)
(0.00517443 0.123034 0)
(0.0734962 -0.413334 0)
(-0.116444 -0.148293 0)
(-0.0186258 -0.222761 0)
(0.0401103 -0.282454 0)
(0.133476 -0.277198 0)
(0.183415 -0.220095 0)
(0.144699 -0.13556 0)
(0.106819 -0.0658873 0)
(0.0774805 -0.000889678 0)
(0.0172996 0.139095 0)
(-0.0595873 0.405393 0)
(-0.367006 0.402792 0)
(-0.410402 0.0688989 0)
(-0.449042 -0.0376835 0)
(-0.47017 -0.124181 0)
(-0.356864 0.0773122 0)
(-0.0961168 0.258473 0)
(-0.0670853 0.223613 0)
(0.0230632 0.0482707 0)
(0.0254485 -0.248989 0)
(-0.136604 -0.130381 0)
(0.00594356 -0.107455 0)
(0.0534219 -0.0884033 0)
(0.123305 -0.00912856 0)
(0.199466 0.165331 0)
(0.0539156 0.26886 0)
(-0.0483697 0.257277 0)
(-0.0778589 0.264244 0)
(-0.0794346 0.307866 0)
(-0.0138158 0.466083 0)
(-0.125201 0.445779 0)
(-0.275202 0.139882 0)
(-0.382346 -0.0320141 0)
(-0.41051 -0.105612 0)
(-0.399052 -0.0496625 0)
(-0.159463 0.17316 0)
(-0.0701889 0.201575 0)
(0.0408304 0.0933817 0)
(0.093422 -0.203614 0)
(-0.13572 -0.134795 0)
(-0.00460441 -0.204675 0)
(0.00793646 -0.213667 0)
(0.0188404 -0.206014 0)
(0.0458668 -0.108938 0)
(0.0154448 0.058287 0)
(-0.114256 0.090159 0)
(-0.124532 0.119638 0)
(-0.111419 0.234227 0)
(-0.0195639 0.461572 0)
(0.0108199 0.467134 0)
(-0.241524 0.0997933 0)
(-0.354086 -0.129072 0)
(-0.364119 -0.159724 0)
(-0.442967 -0.0439514 0)
(-0.253515 0.105508 0)
(-0.0843313 0.149941 0)
(0.0419764 0.0321264 0)
(0.127195 -0.203621 0)
(-0.124163 -0.113484 0)
(-0.0238413 -0.20998 0)
(-0.027376 -0.185694 0)
(0.0436082 -0.130957 0)
(-0.0297489 0.0950043 0)
(-0.0512972 0.191359 0)
(-0.17285 0.203919 0)
(-0.196547 0.177723 0)
(-0.183332 0.212367 0)
(-0.0721995 0.413124 0)
(0.0888213 0.502598 0)
(-0.147464 0.225787 0)
(-0.320659 -0.10863 0)
(-0.336965 -0.220256 0)
(-0.417541 -0.1154 0)
(-0.385096 -0.0121665 0)
(-0.164766 0.0554835 0)
(-0.00864616 0.0773773 0)
(0.0169721 0.218637 0)
(0.0444775 0.275657 0)
(0.0997252 0.363694 0)
(0.105906 0.292337 0)
(0.0438948 0.164461 0)
(-0.0117942 0.0506225 0)
(-0.102654 -0.03545 0)
(-0.17601 -0.111165 0)
(-0.200896 -0.208647 0)
(-0.148879 -0.292507 0)
(-0.108128 -0.276102 0)
(-0.0635359 -0.150412 0)
(-0.0593676 -0.0929907 0)
(-0.0366232 -0.0662625 0)
(-0.0247189 -0.0799404 0)
(-0.0276177 -0.141693 0)
(-0.0311614 -0.19526 0)
(-0.0305884 -0.220999 0)
(-0.0189993 -0.220386 0)
(0.0343965 -0.177266 0)
(0.0766779 -0.0755839 0)
(0.119182 0.0216195 0)
(-0.10949 -0.013109 0)
(0.0307412 0.234802 0)
(0.088991 0.270949 0)
(0.146117 0.317588 0)
(0.216004 0.301634 0)
(0.247273 0.190025 0)
(0.233863 0.0796259 0)
(0.21368 -0.00824861 0)
(0.200467 -0.0822659 0)
(0.183472 -0.146193 0)
(0.163509 -0.164328 0)
(0.149818 -0.122494 0)
(0.189555 -0.0873944 0)
(0.233305 -0.027085 0)
(0.253215 0.0632246 0)
(0.250776 0.156399 0)
(0.205918 0.223638 0)
(0.138353 0.215787 0)
(0.0746068 0.17554 0)
(0.0351539 0.123272 0)
(0.0488319 0.0240826 0)
(0.0994648 0.0767144 0)
(0.0360003 0.224811 0)
(-0.0896601 0.2981 0)
(0.0757968 0.19935 0)
(0.147413 0.252342 0)
(0.203056 0.304974 0)
(0.236084 0.296836 0)
(0.264097 0.245551 0)
(0.257563 0.166152 0)
(0.241536 0.084512 0)
(0.21708 0.0136164 0)
(0.191216 -0.0416186 0)
(0.16875 -0.103012 0)
(0.165422 -0.162277 0)
(0.207263 -0.161138 0)
(0.217346 -0.104874 0)
(0.214022 -0.0468114 0)
(0.163602 -0.0195675 0)
(0.128187 -0.00810261 0)
(0.137984 -0.0369759 0)
(0.152049 -0.0799069 0)
(0.0877813 -0.146823 0)
(-0.0883113 -0.243783 0)
(-0.222688 -0.257599 0)
(-0.359611 -0.000470352 0)
(-0.935042 0.429995 0)
(0.0742595 0.0732941 0)
(0.145344 0.210993 0)
(0.168176 0.281249 0)
(0.177752 0.284618 0)
(0.197979 0.256397 0)
(0.195356 0.187728 0)
(0.174688 0.106133 0)
(0.15306 0.0243182 0)
(0.127336 -0.055585 0)
(0.116667 -0.1501 0)
(0.122075 -0.253861 0)
(0.143178 -0.246181 0)
(0.0950912 -0.159806 0)
(0.0773954 -0.0036617 0)
(-0.0245395 0.127122 0)
(-0.107997 0.166645 0)
(-0.26476 0.151807 0)
(-0.443866 0.197422 0)
(-0.506937 0.206646 0)
(-0.833937 -0.22725 0)
(-1.00939 -0.563642 0)
(-0.604562 0.100149 0)
(-1.08061 0.663863 0)
(0.0423277 -0.0801558 0)
(0.0649795 0.139744 0)
(0.0584572 0.269725 0)
(0.0313014 0.248297 0)
(0.0660616 0.223509 0)
(0.0472405 0.190432 0)
(0.0306094 0.126419 0)
(0.0160952 0.0459058 0)
(-0.00663027 -0.0262355 0)
(-0.134649 -0.120008 0)
(-0.398484 -0.135839 0)
(-0.676392 -0.0643009 0)
(-0.799198 -0.0262116 0)
(-0.894622 0.0767144 0)
(-0.918034 0.217988 0)
(-1.05095 0.280065 0)
(-1.09983 0.262863 0)
(-1.16454 0.028269 0)
(-1.31633 -0.433591 0)
(-1.61692 -0.793395 0)
(-0.855621 -0.316688 0)
(-0.948362 0.377187 0)
(-1.21434 0.694484 0)
(-0.0511504 -0.07049 0)
(-0.0789142 0.168696 0)
(-0.0747583 0.287446 0)
(-0.096158 0.301611 0)
(-0.0635402 0.288516 0)
(-0.0589331 0.267676 0)
(-0.0899285 0.201357 0)
(-0.235569 0.0463411 0)
(-0.585031 0.128312 0)
(-0.818169 0.28983 0)
(-1.04372 0.119406 0)
(-1.06463 0.0306397 0)
(-1.14561 0.0481065 0)
(-1.21246 0.187205 0)
(-1.21003 0.237248 0)
(-1.26674 0.222852 0)
(-1.52287 -0.0214619 0)
(-2.13498 -0.573032 0)
(-2.04004 -0.759089 0)
(-1.6301 -1.00724 0)
(-1.32315 -0.76538 0)
(-1.23193 -0.667101 0)
(-1.24613 -0.880967 0)
(-0.0475878 -0.000977199 0)
(-0.0723052 0.155493 0)
(-0.0543884 0.208561 0)
(-0.110276 0.147852 0)
(-0.140208 0.0532121 0)
(-0.158697 0.0416313 0)
(-0.326507 0.190367 0)
(-0.922373 0.499684 0)
(-1.20031 0.538885 0)
(-1.24897 0.32796 0)
(-1.20661 0.123693 0)
(-1.20453 0.0727507 0)
(-1.21642 0.0870347 0)
(-1.19134 0.196381 0)
(-1.19797 0.224814 0)
(-1.33659 0.204154 0)
(-1.96648 -0.123404 0)
(-2.23516 -0.570633 0)
(-1.9652 -0.680738 0)
(-1.87175 -0.689956 0)
(-1.59396 -0.743572 0)
(-1.28732 -0.804406 0)
(-1.04917 -0.863906 0)
(-0.140954 0.00544264 0)
(-0.137681 0.0508893 0)
(-0.213478 0.0254296 0)
(-0.210009 -0.134041 0)
(-0.214421 -0.231774 0)
(-0.252846 -0.204057 0)
(-0.676148 0.146112 0)
(-1.30654 0.444994 0)
(-1.44606 0.359786 0)
(-1.39682 0.0783453 0)
(-1.34896 -0.0226519 0)
(-1.22569 0.0101057 0)
(-1.15008 0.110966 0)
(-1.10579 0.130671 0)
(-1.1116 0.149934 0)
(-1.37201 0.238352 0)
(-2.24844 0.0841345 0)
(-1.95964 -0.838786 0)
(-1.86934 -0.823127 0)
(-1.65509 -0.788162 0)
(-1.38743 -0.775597 0)
(-1.16039 -0.820787 0)
(-1.07841 -0.912853 0)
(-0.228079 -0.148805 0)
(-0.238504 -0.12087 0)
(-0.314357 -0.191175 0)
(-0.27553 -0.380611 0)
(-0.317546 -0.453255 0)
(-0.710093 -0.239685 0)
(-1.64604 0.1617 0)
(-1.77671 0.260823 0)
(-1.69397 0.156385 0)
(-1.48809 -0.191324 0)
(-1.30875 -0.2952 0)
(-1.15159 -0.190467 0)
(-1.05607 -0.0779245 0)
(-0.997229 -0.0247747 0)
(-0.986606 0.00555785 0)
(-1.47242 0.340478 0)
(-1.87272 -0.212071 0)
(-1.83223 -0.790715 0)
(-1.93363 -0.869244 0)
(-1.9511 -0.947425 0)
(-1.2571 -0.927192 0)
(-1.09978 -0.902736 0)
(-1.0967 -1.00071 0)
(-0.284821 -0.326116 0)
(-0.333299 -0.267564 0)
(-0.362811 -0.231755 0)
(-0.356744 -0.104226 0)
(-0.543698 0.195347 0)
(-1.41416 0.448638 0)
(-2.14243 0.320522 0)
(-2.08005 0.19191 0)
(-1.8724 0.0189604 0)
(-1.48559 -0.364515 0)
(-1.26609 -0.411226 0)
(-1.15377 -0.352932 0)
(-1.04495 -0.2845 0)
(-0.965662 -0.22646 0)
(-0.970058 -0.136677 0)
(-1.70098 0.405491 0)
(-1.62505 0.546729 0)
(-1.40534 0.00282166 0)
(-1.07 0.16016 0)
(-0.580306 0.00428981 0)
(-0.95734 -0.583743 0)
(-1.1603 -0.535929 0)
(-1.19329 -0.199408 0)
(-0.268519 -0.071541 0)
(-0.292618 0.290566 0)
(-0.389183 0.390356 0)
(-0.355968 0.364708 0)
(-0.434773 0.429431 0)
(-0.521565 0.706134 0)
(-0.642101 1.03975 0)
(-0.843291 0.91547 0)
(-0.633846 0.610017 0)
(-0.148436 0.329959 0)
(-0.504074 -0.135586 0)
(-0.721728 -0.30813 0)
(-0.891237 -0.339779 0)
(-1.00083 -0.283459 0)
(-1.02233 -0.155256 0)
(-1.14253 0.116081 0)
(-1.50899 0.743408 0)
(-0.486227 1.48611 0)
(-0.168523 0.942076 0)
(-0.336737 0.323541 0)
(-0.79232 0.254188 0)
(-1.24265 0.28722 0)
(-1.59026 0.0926935 0)
(-0.158994 0.869014 0)
(-0.168109 0.641057 0)
(-0.308731 0.450206 0)
(-0.298165 0.403308 0)
(-0.323995 0.481778 0)
(-0.282303 0.704963 0)
(-0.213031 0.982636 0)
(-0.0228553 1.06688 0)
(0.172456 0.822986 0)
(0.113397 0.458868 0)
(-0.0400024 0.311391 0)
(-0.159845 0.19194 0)
(-0.472382 0.0591354 0)
(-0.858955 0.000397946 0)
(-1.05953 0.0688009 0)
(-1.11547 0.152693 0)
(-1.25315 0.406735 0)
(-0.312056 1.47096 0)
(-0.0613697 1.06093 0)
(-0.316022 0.554881 0)
(-0.598312 0.289115 0)
(-0.871166 0.266829 0)
(-1.01797 0.201619 0)
(-0.139069 1.11592 0)
(-0.084576 0.752255 0)
(-0.216101 0.483562 0)
(-0.182405 0.408139 0)
(-0.191485 0.444654 0)
(-0.14203 0.621338 0)
(-0.00628076 0.837149 0)
(0.135005 0.933704 0)
(0.216441 0.789197 0)
(0.206031 0.551076 0)
(0.0802556 0.390303 0)
(0.0505409 0.289049 0)
(-0.0373967 0.296742 0)
(-0.257471 0.310162 0)
(-0.703686 0.327088 0)
(-0.921725 0.304617 0)
(-1.00747 0.264295 0)
(-0.846868 0.863055 0)
(0.118193 1.12277 0)
(-0.0163919 0.865719 0)
(-0.210391 0.606539 0)
(-0.408212 0.43841 0)
(-0.516761 0.241381 0)
(-0.053801 1.1813 0)
(0.010848 0.796752 0)
(-0.0890202 0.512143 0)
(-0.0651692 0.402807 0)
(-0.0790137 0.416206 0)
(-0.0307625 0.529022 0)
(0.0726239 0.67142 0)
(0.24156 0.840128 0)
(0.300701 0.774144 0)
(0.295026 0.641834 0)
(0.212481 0.473042 0)
(0.191358 0.34613 0)
(0.139304 0.358383 0)
(0.106603 0.41781 0)
(0.0140507 0.494472 0)
(-0.389669 0.477865 0)
(-0.72195 0.406931 0)
(-0.639229 0.475264 0)
(-0.0772322 0.682751 0)
(0.475335 0.87378 0)
(0.583991 0.767229 0)
(0.602796 0.6201 0)
(0.507446 0.435109 0)
(0.0202018 1.13672 0)
(0.0988607 0.804308 0)
(0.0357523 0.53981 0)
(0.039694 0.412046 0)
(0.0136084 0.406773 0)
(0.0501516 0.4739 0)
(0.101493 0.541163 0)
(0.24175 0.698507 0)
(0.33417 0.734873 0)
(0.345405 0.669366 0)
(0.325078 0.525996 0)
(0.301763 0.383702 0)
(0.256165 0.386154 0)
(0.244137 0.429067 0)
(0.251269 0.504117 0)
(0.256202 0.602639 0)
(-0.0800653 0.60673 0)
(-0.195506 0.515507 0)
(-0.0182861 0.612966 0)
(0.455358 0.592681 0)
(0.887343 0.671851 0)
(1.13026 0.545449 0)
(1.11672 0.399801 0)
(0.0635538 1.00719 0)
(0.14495 0.792106 0)
(0.117117 0.557958 0)
(0.122188 0.430558 0)
(0.0900762 0.412959 0)
(0.106163 0.452127 0)
(0.121766 0.482104 0)
(0.19245 0.578199 0)
(0.298195 0.681372 0)
(0.352083 0.6472 0)
(0.37112 0.528348 0)
(0.357256 0.415695 0)
(0.322598 0.409338 0)
(0.316348 0.433304 0)
(0.331424 0.478197 0)
(0.389888 0.542282 0)
(0.478957 0.602632 0)
(0.323537 0.557711 0)
(0.350195 0.595752 0)
(0.624609 0.576978 0)
(0.812861 0.543886 0)
(1.05594 0.477647 0)
(1.25918 0.37514 0)
(0.0627293 0.896574 0)
(0.14997 0.765918 0)
(0.158178 0.55951 0)
(0.169471 0.443388 0)
(0.137773 0.419902 0)
(0.140416 0.443082 0)
(0.141546 0.458893 0)
(0.163238 0.511713 0)
(0.241969 0.584663 0)
(0.32191 0.589986 0)
(0.371017 0.520132 0)
(0.366609 0.440929 0)
(0.343867 0.426445 0)
(0.342728 0.432366 0)
(0.356833 0.446735 0)
(0.404131 0.467576 0)
(0.488101 0.484312 0)
(0.597216 0.477947 0)
(0.668941 0.474522 0)
(0.871204 0.493972 0)
(0.90366 0.425047 0)
(1.00781 0.2824 0)
(1.21172 0.278575 0)
(0.061174 0.794609 0)
(0.139462 0.710246 0)
(0.17626 0.544927 0)
(0.181212 0.453562 0)
(0.157684 0.430371 0)
(0.15641 0.442879 0)
(0.157682 0.450956 0)
(0.166263 0.47726 0)
(0.213844 0.512566 0)
(0.279791 0.520458 0)
(0.338334 0.496414 0)
(0.34782 0.45096 0)
(0.339451 0.433743 0)
(0.344776 0.42588 0)
(0.362653 0.417162 0)
(0.39996 0.407582 0)
(0.459484 0.39786 0)
(0.536216 0.367638 0)
(0.616276 0.315485 0)
(0.745931 0.335749 0)
(0.835362 0.261044 0)
(0.906846 0.0872962 0)
(1.00239 0.0511755 0)
(0.0605938 0.695859 0)
(0.121466 0.643624 0)
(0.174246 0.528216 0)
(0.173992 0.460144 0)
(0.159542 0.440453 0)
(0.161112 0.441129 0)
(0.166398 0.444265 0)
(0.17648 0.455756 0)
(0.208233 0.467139 0)
(0.251672 0.469455 0)
(0.294194 0.460581 0)
(0.315425 0.442006 0)
(0.328548 0.429622 0)
(0.345968 0.409907 0)
(0.369313 0.389129 0)
(0.400583 0.364304 0)
(0.444003 0.340235 0)
(0.493918 0.298723 0)
(0.544955 0.252945 0)
(0.607409 0.242694 0)
(0.688272 0.170172 0)
(0.734992 0.0439309 0)
(0.751929 -0.00250631 0)
(0.0501285 0.614479 0)
(0.0985795 0.584587 0)
(0.150531 0.507323 0)
(0.153784 0.462758 0)
(0.153717 0.44221 0)
(0.159122 0.438014 0)
(0.168134 0.434222 0)
(0.182038 0.436944 0)
(0.207059 0.436391 0)
(0.23648 0.434855 0)
(0.269341 0.431399 0)
(0.295758 0.419774 0)
(0.320565 0.406448 0)
(0.347094 0.384902 0)
(0.373886 0.361405 0)
(0.402407 0.330655 0)
(0.43472 0.300589 0)
(0.465746 0.25753 0)
(0.497424 0.220183 0)
(0.527247 0.193199 0)
(0.577737 0.120511 0)
(0.581692 0.0332729 0)
(0.569895 0.00363322 0)
(0.0362334 0.552063 0)
(0.0776837 0.534933 0)
(0.121389 0.483883 0)
(0.13304 0.454901 0)
(0.143047 0.437087 0)
(0.153505 0.429334 0)
(0.16494 0.420612 0)
(0.180585 0.417845 0)
(0.201756 0.412687 0)
(0.224703 0.408131 0)
(0.252387 0.403278 0)
(0.280281 0.39362 0)
(0.307859 0.377728 0)
(0.336914 0.357352 0)
(0.363043 0.332786 0)
(0.390761 0.303556 0)
(0.415433 0.274276 0)
(0.435396 0.235072 0)
(0.454118 0.199769 0)
(0.471964 0.164735 0)
(0.496824 0.106363 0)
(0.486457 0.0518721 0)
(0.465696 0.0304423 0)
(0.0256468 0.504697 0)
(0.0615597 0.493082 0)
(0.0979445 0.460114 0)
(0.11465 0.439911 0)
(0.129146 0.424374 0)
(0.143786 0.414915 0)
(0.157902 0.405821 0)
(0.174174 0.399697 0)
(0.193036 0.391904 0)
(0.2132 0.384512 0)
(0.236365 0.37672 0)
(0.262658 0.365412 0)
(0.288594 0.348829 0)
(0.314594 0.329213 0)
(0.338955 0.305473 0)
(0.361331 0.278456 0)
(0.382312 0.252395 0)
(0.398961 0.217825 0)
(0.415043 0.183778 0)
(0.426854 0.147557 0)
(0.438298 0.10387 0)
(0.430138 0.0670029 0)
(0.41697 0.0511298 0)
(0.0195191 0.46703 0)
(0.0503676 0.457592 0)
(0.0814165 0.436138 0)
(0.100658 0.421554 0)
(0.117919 0.408918 0)
(0.134345 0.399533 0)
(0.150175 0.390125 0)
(0.167142 0.382232 0)
(0.185074 0.373393 0)
(0.20406 0.364121 0)
(0.224303 0.353204 0)
(0.247585 0.340374 0)
(0.270697 0.324665 0)
(0.293143 0.305889 0)
(0.314144 0.283301 0)
(0.333209 0.25851 0)
(0.35153 0.232683 0)
(0.367479 0.202181 0)
(0.37987 0.17071 0)
(0.388415 0.138511 0)
(0.396231 0.105048 0)
(0.389739 0.0764221 0)
(0.389433 0.0595684 0)
(0.0158689 0.436104 0)
(0.0422311 0.427472 0)
(0.069312 0.41308 0)
(0.0891816 0.402149 0)
(0.107513 0.391664 0)
(0.124662 0.382511 0)
(0.141355 0.373095 0)
(0.158486 0.364375 0)
(0.176077 0.354886 0)
(0.194497 0.34504 0)
(0.213374 0.333214 0)
(0.233204 0.319179 0)
(0.253014 0.303407 0)
(0.272826 0.285293 0)
(0.291601 0.264998 0)
(0.308328 0.241463 0)
(0.324254 0.217049 0)
(0.337401 0.189515 0)
(0.348704 0.161843 0)
(0.35705 0.130963 0)
(0.363999 0.102291 0)
(0.361092 0.0789135 0)
(0.366575 0.0586157 0)
(0.0135236 0.409354 0)
(0.0365014 0.40121 0)
(0.0604327 0.39094 0)
(0.079899 0.382425 0)
(0.0982827 0.373668 0)
(0.115645 0.365196 0)
(0.132464 0.356134 0)
(0.149297 0.347082 0)
(0.166427 0.337092 0)
(0.183971 0.326761 0)
(0.201814 0.31458 0)
(0.219022 0.300391 0)
(0.236608 0.28437 0)
(0.253327 0.267108 0)
(0.269996 0.24698 0)
(0.285656 0.225387 0)
(0.300018 0.202795 0)
(0.312367 0.177933 0)
(0.32266 0.151347 0)
(0.329813 0.124213 0)
(0.335123 0.101167 0)
(0.336922 0.0767901 0)
(0.345001 0.0524478 0)
(0.0118723 0.386296 0)
(0.0322824 0.378559 0)
(0.0536603 0.370756 0)
(0.0721312 0.363864 0)
(0.0897079 0.356233 0)
(0.106547 0.348168 0)
(0.122912 0.339385 0)
(0.139085 0.33019 0)
(0.155272 0.320022 0)
(0.171549 0.309049 0)
(0.187948 0.297441 0)
(0.204527 0.283646 0)
(0.220628 0.268504 0)
(0.236257 0.251202 0)
(0.251092 0.232011 0)
(0.264251 0.211947 0)
(0.276145 0.18987 0)
(0.287152 0.167395 0)
(0.296297 0.143579 0)
(0.303446 0.118428 0)
(0.310645 0.094647 0)
(0.315116 0.0719609 0)
(0.321696 0.0486249 0)
(0.010606 0.365347 0)
(0.0290072 0.358009 0)
(0.0484009 0.351747 0)
(0.065819 0.345981 0)
(0.0825437 0.339287 0)
(0.0986543 0.331778 0)
(0.114349 0.323455 0)
(0.129731 0.314381 0)
(0.145059 0.304268 0)
(0.160121 0.293503 0)
(0.175265 0.28151 0)
(0.189972 0.267847 0)
(0.204042 0.252966 0)
(0.218079 0.236642 0)
(0.230854 0.218836 0)
(0.24319 0.199189 0)
(0.2547 0.178967 0)
(0.264688 0.157211 0)
(0.274051 0.134647 0)
(0.280523 0.111796 0)
(0.286468 0.0897716 0)
(0.291544 0.0667156 0)
(0.298065 0.0429588 0)
(0.00948653 0.346706 0)
(0.0260742 0.33967 0)
(0.0436243 0.334287 0)
(0.0598385 0.329213 0)
(0.0755646 0.323164 0)
(0.0907599 0.31619 0)
(0.10554 0.308237 0)
(0.119972 0.299388 0)
(0.134242 0.289568 0)
(0.148158 0.27898 0)
(0.162144 0.267232 0)
(0.175789 0.254173 0)
(0.188981 0.239395 0)
(0.20166 0.223635 0)
(0.213529 0.206443 0)
(0.224607 0.188316 0)
(0.234356 0.16885 0)
(0.24298 0.148762 0)
(0.25104 0.127845 0)
(0.257524 0.105459 0)
(0.264069 0.0834162 0)
(0.26912 0.0614489 0)
(0.274504 0.0386751 0)
(0.00858759 0.329679 0)
(0.023758 0.322933 0)
(0.039801 0.318208 0)
(0.0548521 0.31368 0)
(0.0695052 0.308131 0)
(0.0837451 0.301591 0)
(0.0975698 0.293973 0)
(0.111033 0.285357 0)
(0.12418 0.275749 0)
(0.137062 0.265179 0)
(0.149759 0.253655 0)
(0.162023 0.240936 0)
(0.173816 0.226936 0)
(0.185098 0.211777 0)
(0.195592 0.195501 0)
(0.205351 0.178022 0)
(0.214563 0.159418 0)
(0.222835 0.139941 0)
(0.230513 0.119984 0)
(0.236738 0.0995437 0)
(0.242238 0.0785429 0)
(0.246764 0.0568189 0)
(0.251514 0.0345449 0)
(0.00774859 0.314365 0)
(0.0215571 0.3078 0)
(0.0361531 0.30352 0)
(0.049975 0.299391 0)
(0.0634661 0.294264 0)
(0.0766566 0.288094 0)
(0.0894978 0.280865 0)
(0.102018 0.272643 0)
(0.11419 0.263431 0)
(0.126068 0.253214 0)
(0.137618 0.242041 0)
(0.148878 0.229772 0)
(0.159648 0.21625 0)
(0.169885 0.201657 0)
(0.17939 0.18604 0)
(0.18829 0.16922 0)
(0.196481 0.151614 0)
(0.203669 0.13312 0)
(0.210261 0.113942 0)
(0.215913 0.0938542 0)
(0.221106 0.0734975 0)
(0.225252 0.0526197 0)
(0.229257 0.0311158 0)
(0.00703686 0.300298 0)
(0.0196434 0.293837 0)
(0.0329336 0.289843 0)
(0.0456156 0.286007 0)
(0.0580144 0.28118 0)
(0.0701633 0.275287 0)
(0.0819933 0.26836 0)
(0.0934996 0.260447 0)
(0.104645 0.251527 0)
(0.115465 0.241627 0)
(0.125906 0.230741 0)
(0.136063 0.218927 0)
(0.145696 0.205997 0)
(0.154836 0.192 0)
(0.163445 0.177 0)
(0.171439 0.160889 0)
(0.178756 0.143875 0)
(0.185354 0.126176 0)
(0.191224 0.107878 0)
(0.196295 0.0888852 0)
(0.200725 0.0692932 0)
(0.204332 0.0490014 0)
(0.207664 0.0281686 0)
(0.00633154 0.287658 0)
(0.0178143 0.281401 0)
(0.0298845 0.277661 0)
(0.0414732 0.2741 0)
(0.0528147 0.269572 0)
(0.0639251 0.263993 0)
(0.0747284 0.257385 0)
(0.0852231 0.249789 0)
(0.095404 0.241198 0)
(0.10523 0.231648 0)
(0.11466 0.221116 0)
(0.12373 0.209616 0)
(0.132359 0.197063 0)
(0.140511 0.183528 0)
(0.148175 0.169141 0)
(0.155252 0.153755 0)
(0.161718 0.137488 0)
(0.167562 0.120559 0)
(0.172656 0.102888 0)
(0.177144 0.0844733 0)
(0.180998 0.0654975 0)
(0.184122 0.045898 0)
(0.186781 0.0257608 0)
(0.00570264 0.276101 0)
(0.0161057 0.269805 0)
(0.0270272 0.266203 0)
(0.0375584 0.262848 0)
(0.0478715 0.258564 0)
(0.0579691 0.253263 0)
(0.0677716 0.247 0)
(0.0772524 0.239761 0)
(0.0863964 0.231546 0)
(0.095223 0.222345 0)
(0.103694 0.212209 0)
(0.111812 0.201134 0)
(0.11956 0.189148 0)
(0.126845 0.176201 0)
(0.13364 0.162321 0)
(0.139854 0.147418 0)
(0.145429 0.131684 0)
(0.150406 0.115306 0)
(0.154827 0.0983189 0)
(0.158722 0.0806403 0)
(0.16197 0.062346 0)
(0.164552 0.0433951 0)
(0.16658 0.0239131 0)
(0.00509373 0.265799 0)
(0.0145512 0.259599 0)
(0.0244122 0.256216 0)
(0.0339441 0.253061 0)
(0.0432446 0.248987 0)
(0.0523394 0.24395 0)
(0.0611361 0.237911 0)
(0.0696375 0.230912 0)
(0.0778059 0.222992 0)
(0.0856525 0.214119 0)
(0.0931707 0.204304 0)
(0.1003 0.193589 0)
(0.107047 0.181934 0)
(0.113402 0.169354 0)
(0.119324 0.15601 0)
(0.124773 0.141879 0)
(0.129718 0.126902 0)
(0.134091 0.111103 0)
(0.137791 0.0945557 0)
(0.140942 0.0774017 0)
(0.143558 0.0597195 0)
(0.145601 0.0414266 0)
(0.147028 0.0225799 0)
(0.0045531 0.256425 0)
(0.0130543 0.250203 0)
(0.0218989 0.246856 0)
(0.0304595 0.243888 0)
(0.0387851 0.240047 0)
(0.0469394 0.235267 0)
(0.0548225 0.229598 0)
(0.0624293 0.223001 0)
(0.0697137 0.215457 0)
(0.076656 0.206969 0)
(0.083231 0.197521 0)
(0.0893935 0.187128 0)
(0.0951648 0.175793 0)
(0.100585 0.163648 0)
(0.105608 0.15067 0)
(0.110178 0.136843 0)
(0.114272 0.12227 0)
(0.117899 0.107199 0)
(0.121137 0.0915161 0)
(0.12382 0.0750082 0)
(0.125816 0.0577867 0)
(0.127278 0.0399977 0)
(0.128132 0.0217325 0)
(0.00404711 0.248079 0)
(0.0117011 0.241926 0)
(0.0194752 0.238818 0)
(0.0271017 0.23604 0)
(0.0344852 0.232379 0)
(0.0417344 0.227826 0)
(0.0487752 0.222401 0)
(0.0555763 0.216062 0)
(0.0621015 0.208757 0)
(0.0682791 0.2006 0)
(0.0740821 0.191573 0)
(0.079509 0.181661 0)
(0.0845673 0.170863 0)
(0.089114 0.159148 0)
(0.0931689 0.146568 0)
(0.0967432 0.13319 0)
(0.0998722 0.119084 0)
(0.102627 0.104144 0)
(0.104912 0.0885658 0)
(0.106805 0.0726825 0)
(0.108449 0.0563023 0)
(0.109502 0.0391739 0)
(0.10984 0.0214412 0)
(0.00364381 0.240727 0)
(0.0103708 0.234512 0)
(0.0172084 0.231397 0)
(0.0238697 0.228769 0)
(0.0302947 0.225269 0)
(0.0365945 0.220892 0)
(0.0427315 0.215622 0)
(0.0486762 0.209528 0)
(0.0543414 0.202654 0)
(0.0597258 0.194919 0)
(0.0647423 0.186289 0)
(0.0693319 0.176736 0)
(0.0735258 0.1663 0)
(0.0773431 0.155058 0)
(0.0808031 0.143028 0)
(0.0838619 0.130247 0)
(0.0865426 0.116671 0)
(0.0885763 0.102344 0)
(0.0900425 0.0873563 0)
(0.0911497 0.0715138 0)
(0.0916655 0.055133 0)
(0.0920438 0.03858 0)
(0.0920005 0.0215555 0)
(0.00338735 0.233977 0)
(0.00921144 0.228415 0)
(0.0146742 0.225589 0)
(0.0202795 0.223159 0)
(0.0256464 0.219811 0)
(0.0309652 0.215543 0)
(0.0361601 0.210399 0)
(0.041243 0.204421 0)
(0.0462585 0.197622 0)
(0.0510466 0.190079 0)
(0.0555747 0.181785 0)
(0.0597579 0.172693 0)
(0.0634466 0.162714 0)
(0.0666433 0.151861 0)
(0.0693504 0.140189 0)
(0.0715267 0.127673 0)
(0.0732213 0.114419 0)
(0.0745937 0.100607 0)
(0.0757063 0.0861475 0)
(0.0762914 0.0710909 0)
(0.0763218 0.0554128 0)
(0.0758084 0.0388641 0)
(0.074835 0.0219731 0)
(0.00295151 0.228064 0)
(0.00763393 0.222676 0)
(0.0118479 0.21972 0)
(0.0162917 0.217187 0)
(0.0204716 0.213854 0)
(0.0247211 0.209753 0)
(0.0287585 0.204799 0)
(0.0327055 0.199076 0)
(0.0364798 0.192627 0)
(0.0401908 0.185437 0)
(0.0438026 0.177531 0)
(0.0472726 0.168842 0)
(0.0505495 0.159368 0)
(0.0535213 0.149112 0)
(0.0561383 0.138075 0)
(0.0583147 0.126241 0)
(0.0599749 0.113644 0)
(0.0610962 0.100242 0)
(0.0615791 0.0860656 0)
(0.0615788 0.071319 0)
(0.0612469 0.0560018 0)
(0.0604679 0.0402707 0)
(0.0588219 0.0239168 0)
(0.00254876 0.223232 0)
(0.00558637 0.219385 0)
(0.00760163 0.21721 0)
(0.00998944 0.214965 0)
(0.0121626 0.211775 0)
(0.0146138 0.207731 0)
(0.0169645 0.202766 0)
(0.0193751 0.196955 0)
(0.02179 0.19034 0)
(0.0242577 0.182913 0)
(0.0267643 0.174753 0)
(0.029326 0.165936 0)
(0.0318973 0.15644 0)
(0.034403 0.146249 0)
(0.0368437 0.13534 0)
(0.0391472 0.123777 0)
(0.0411748 0.11152 0)
(0.0428457 0.0986263 0)
(0.0440594 0.0851166 0)
(0.0447126 0.0710473 0)
(0.0446505 0.0563982 0)
(0.0438442 0.0411251 0)
(0.0422497 0.0253381 0)
(0.00167854 0.219772 0)
(0.00267324 0.217137 0)
(0.0030679 0.214415 0)
(0.00422944 0.211539 0)
(0.00509687 0.208092 0)
(0.00631527 0.203976 0)
(0.00754313 0.199118 0)
(0.00888821 0.193491 0)
(0.010341 0.187074 0)
(0.0118709 0.179877 0)
(0.0135168 0.171961 0)
(0.0152768 0.163383 0)
(0.0171071 0.154117 0)