/*--------------------------------*- C++ -*----------------------------------*\
| =========                 |                                                 |
| \\      /  F ield         | OpenFOAM: The Open Source CFD Toolbox           |
|  \\    /   O peration     | Version:  2.4.0                                 |
|   \\  /    A nd           | Web:      www.OpenFOAM.org                      |
|    \\/     M anipulation  |                                                 |
\*---------------------------------------------------------------------------*/
FoamFile
{
    version     2.0;
    format      ascii;
    class       volVectorField;
    location    "0.9";
    object      U.water;
}
// * * * * * * * * * * * * * * * * * * * * * * * * * * * * * * * * * * * * * //

dimensions      [0 1 -1 0 0 0 0];

internalField   nonuniform List<vector> 
2268
(
(-0.024103 -0.0825579 0)
(-0.0810692 -0.0812373 0)
(-0.146131 -0.0633453 0)
(-0.220014 -0.0329409 0)
(-0.267554 -0.0105363 0)
(-0.294388 0.00629327 0)
(-0.2967 0.00983124 0)
(-0.284107 0.00902371 0)
(-0.260499 0.00659434 0)
(-0.236208 0.00349638 0)
(-0.218189 -0.00121891 0)
(-0.201315 -0.00706942 0)
(-0.177365 -0.00757953 0)
(-0.154832 -0.0076897 0)
(-0.137371 -0.00649943 0)
(-0.128089 -0.00388001 0)
(-0.120491 -0.00369167 0)
(-0.11036 -0.00458794 0)
(-0.0916653 -0.00504686 0)
(-0.0618264 -0.00721985 0)
(-0.0373955 -0.000929872 0)
(-0.0306282 0.00148578 0)
(-0.0239135 -0.0089471 0)
(-0.0219599 0.186953 0)
(-0.07392 0.18143 0)
(-0.126882 0.139984 0)
(-0.200313 0.0898082 0)
(-0.254622 0.0450723 0)
(-0.290631 0.00554707 0)
(-0.30085 -0.0149333 0)
(-0.289637 -0.0255151 0)
(-0.264228 -0.0282435 0)
(-0.238964 -0.0219258 0)
(-0.217131 -0.0140709 0)
(-0.194824 -0.0115502 0)
(-0.172769 -0.0139035 0)
(-0.153023 -0.0113588 0)
(-0.137862 -0.00615005 0)
(-0.127979 -0.00398791 0)
(-0.117307 -0.00452029 0)
(-0.106045 -0.00874232 0)
(-0.0856307 -0.016606 0)
(-0.0560746 -0.0200605 0)
(-0.0322221 -0.0144507 0)
(-0.00867926 -0.00793271 0)
(-0.00268746 -0.0187054 0)
(-0.0426543 0.112611 0)
(-0.148934 0.136204 0)
(-0.22757 0.200035 0)
(-0.244715 0.0933112 0)
(-0.272898 0.061734 0)
(-0.297205 0.0412945 0)
(-0.307614 0.0149426 0)
(-0.292682 -0.006646 0)
(-0.265083 -0.0162445 0)
(-0.236415 -0.0190784 0)
(-0.20949 -0.0227902 0)
(-0.186332 -0.0264978 0)
(-0.169463 -0.0246776 0)
(-0.154939 -0.0203428 0)
(-0.140489 -0.0147343 0)
(-0.130373 -0.0118839 0)
(-0.114616 -0.0136939 0)
(-0.0995986 -0.0202782 0)
(-0.0812719 -0.0295268 0)
(-0.0580837 -0.0332295 0)
(-0.036964 -0.0235502 0)
(-0.00110626 -0.00999024 0)
(0.0023509 -0.00646807 0)
(-0.0525922 0.353492 0)
(-0.166862 0.350275 0)
(-0.292784 0.298106 0)
(-0.36718 0.262857 0)
(-0.379934 0.215234 0)
(-0.35055 0.0749923 0)
(-0.325659 0.00788596 0)
(-0.300456 -0.0301311 0)
(-0.270234 -0.0420304 0)
(-0.23519 -0.0317204 0)
(-0.205887 -0.0207979 0)
(-0.184624 -0.0177815 0)
(-0.170429 -0.0196869 0)
(-0.15723 -0.0173081 0)
(-0.140858 -0.00964413 0)
(-0.123842 -0.00853116 0)
(-0.104603 -0.0117492 0)
(-0.0908418 -0.016797 0)
(-0.079418 -0.0270716 0)
(-0.0701696 -0.0304192 0)
(-0.0506598 -0.0288114 0)
(-0.00599889 -0.0155996 0)
(0.00381687 -0.0107042 0)
(-0.0283063 -0.020917 0)
(-0.0856689 0.0824167 0)
(-0.339702 0.272639 0)
(-0.450011 0.266598 0)
(-0.442261 0.215655 0)
(-0.40675 0.177109 0)
(-0.36904 0.0618865 0)
(-0.340941 -0.000267657 0)
(-0.311262 -0.014366 0)
(-0.271849 0.0204365 0)
(-0.23149 0.0765576 0)
(-0.201709 0.108271 0)
(-0.183775 0.115186 0)
(-0.171295 0.109139 0)
(-0.14916 0.0855208 0)
(-0.123517 0.0497923 0)
(-0.101612 0.0205266 0)
(-0.0903396 0.00171508 0)
(-0.0811901 -0.00721178 0)
(-0.0696089 -0.00271425 0)
(-0.048629 0.0318064 0)
(-0.0227361 0.105887 0)
(-0.00616045 0.177421 0)
(-0.0589697 0.264816 0)
(-0.153527 0.271044 0)
(-0.325519 0.292685 0)
(-0.56219 0.283129 0)
(-0.549379 0.211989 0)
(-0.485219 0.160988 0)
(-0.429589 0.122169 0)
(-0.379387 0.103214 0)
(-0.333431 0.0944634 0)
(-0.287291 0.0842376 0)
(-0.238365 0.0778089 0)
(-0.203756 0.0824892 0)
(-0.191663 0.0889839 0)
(-0.189888 0.0937996 0)
(-0.185616 0.102231 0)
(-0.170304 0.112368 0)
(-0.143263 0.12399 0)
(-0.109451 0.130298 0)
(-0.0834657 0.122915 0)
(-0.0551243 0.108924 0)
(-0.0140248 0.0916594 0)
(0.00864617 0.0910252 0)
(-0.0167133 0.0923459 0)
(-0.032948 0.172333 0)
(-0.101089 0.2606 0)
(-0.21157 0.332124 0)
(-0.52768 0.277739 0)
(-0.590497 0.185489 0)
(-0.561771 0.144176 0)
(-0.477899 0.0989759 0)
(-0.402523 0.0485213 0)
(-0.361566 0.0149666 0)
(-0.327599 0.00703201 0)
(-0.258411 0.0215111 0)
(-0.173871 0.0490075 0)
(-0.131749 0.0715115 0)
(-0.128674 0.0777454 0)
(-0.145971 0.068162 0)
(-0.167357 0.0484257 0)
(-0.16777 0.0377812 0)
(-0.127125 0.0354704 0)
(-0.0805824 0.0308238 0)
(-0.046092 0.0145881 0)
(-0.0352667 0.00996658 0)
(-0.0969487 0.081168 0)
(-0.100134 0.19099 0)
(-0.0227178 0.269973 0)
(-0.0579954 0.324249 0)
(-0.0560777 0.450874 0)
(-0.280879 0.370122 0)
(-0.463228 0.170029 0)
(-0.472634 0.0444408 0)
(-0.441307 -0.0279624 0)
(-0.419938 -0.0326659 0)
(-0.404237 -0.0141977 0)
(-0.367633 -0.0200209 0)
(-0.281866 -0.0573298 0)
(-0.20109 -0.0677729 0)
(-0.109637 -0.0482016 0)
(-0.0459833 -0.0111431 0)
(-0.0192447 0.0310615 0)
(-0.0515542 0.0694427 0)
(-0.0711574 0.0632662 0)
(-0.0663052 0.0468285 0)
(-0.0479785 0.0487044 0)
(-0.0404675 0.0390788 0)
(-0.0862625 0.069994 0)
(-0.217737 0.0196208 0)
(-0.12559 -0.250035 0)
(0.0011286 -0.0442838 0)
(0.229149 -0.136575 0)
(0.300117 -0.1961 0)
(0.337774 -0.244124 0)
(0.36048 -0.279364 0)
(0.369685 -0.294296 0)
(0.363741 -0.288645 0)
(0.371375 -0.251876 0)
(0.380589 -0.221398 0)
(0.386675 -0.198044 0)
(0.353728 -0.147703 0)
(0.324515 -0.0788362 0)
(0.319666 -0.0484987 0)
(0.336677 -0.0164278 0)
(0.325455 -0.013055 0)
(0.236441 0.0144637 0)
(0.0816084 -0.00269364 0)
(-0.0808723 -0.0450588 0)
(-0.0438247 -0.0701568 0)
(0.0448383 0.174935 0)
(0.25749 0.160633 0)
(0.360414 0.268066 0)
(0.431136 0.343877 0)
(0.474092 0.397613 0)
(0.4679 0.431079 0)
(0.440626 0.425606 0)
(0.41844 0.376883 0)
(0.40869 0.350609 0)
(0.400638 0.34978 0)
(0.357159 0.34867 0)
(0.236294 0.352009 0)
(0.110014 0.325989 0)
(0.088494 0.310505 0)
(0.189436 0.325532 0)
(0.142398 0.327909 0)
(0.0412006 0.257034 0)
(-0.0579578 0.148489 0)
(-0.0800411 0.0870253 0)
(0.216716 -0.0221615 0)
(0.15536 -0.280619 0)
(0.21443 -0.358672 0)
(0.272252 -0.395573 0)
(0.350012 -0.397325 0)
(0.435845 -0.373407 0)
(0.444993 -0.373364 0)
(0.418243 -0.348367 0)
(0.333106 -0.315556 0)
(0.223269 -0.257098 0)
(-0.0189995 -0.112032 0)
(-0.484965 0.105671 0)
(-0.555067 0.0647955 0)
(-0.469388 0.0131583 0)
(-0.232026 0.0299898 0)
(0.0647697 0.217263 0)
(0.00838526 0.204411 0)
(-0.0472811 0.0767264 0)
(-0.0263487 -0.0620687 0)
(0.149934 -0.538371 0)
(0.0643026 -0.287339 0)
(0.178593 -0.0342085 0)
(0.25106 0.0539643 0)
(0.343091 0.13296 0)
(0.38275 0.206969 0)
(0.335358 0.3088 0)
(0.278916 0.285189 0)
(0.149045 0.276959 0)
(0.030638 0.303332 0)
(-0.137091 0.342246 0)
(-0.513763 0.286741 0)
(-0.551836 0.151549 0)
(-0.510116 0.070288 0)
(-0.429987 0.0249722 0)
(-0.155712 0.150106 0)
(-0.0105573 0.194598 0)
(-0.0395593 0.130204 0)
(0.0109843 0.0387618 0)
(0.109434 -0.547982 0)
(-0.101965 -0.285325 0)
(-0.0304732 -0.315746 0)
(0.0296826 -0.38061 0)
(0.134957 -0.386397 0)
(0.201312 -0.311642 0)
(0.165776 -0.207295 0)
(0.132608 -0.136543 0)
(0.0964346 -0.0804967 0)
(0.0386381 0.0569648 0)
(-0.0406168 0.304792 0)
(-0.376122 0.326422 0)
(-0.445411 0.0533527 0)
(-0.460113 -0.0484498 0)
(-0.46948 -0.129401 0)
(-0.324435 0.0239402 0)
(-0.0599091 0.130113 0)
(-0.0488429 0.106849 0)
(0.0294533 -0.0295419 0)
(0.114542 -0.379849 0)
(-0.110126 -0.255333 0)
(-0.0250429 -0.232121 0)
(0.0183983 -0.225798 0)
(0.080561 -0.163882 0)
(0.19545 0.00241817 0)
(0.0744012 0.169822 0)
(-0.0223932 0.168612 0)
(-0.0575583 0.172412 0)
(-0.0573857 0.207714 0)
(-0.00927487 0.358538 0)
(-0.138931 0.366544 0)
(-0.335032 0.114557 0)
(-0.388345 -0.0924111 0)
(-0.409587 -0.128065 0)
(-0.407743 -0.0590534 0)
(-0.123102 0.0509556 0)
(-0.0520735 0.0886406 0)
(0.0467037 0.013013 0)
(0.145279 -0.329557 0)
(-0.0825198 -0.244441 0)
(-0.0378354 -0.314985 0)
(-0.0257291 -0.331461 0)
(-0.00323304 -0.320693 0)
(0.0346523 -0.220737 0)
(0.0435485 -0.0406168 0)
(-0.0855488 0.0212755 0)
(-0.114493 0.0457894 0)
(-0.107287 0.149175 0)
(-0.0223262 0.362405 0)
(0.00301752 0.399567 0)
(-0.274273 0.0924 0)
(-0.348344 -0.18816 0)
(-0.348912 -0.229548 0)
(-0.454117 -0.0741848 0)
(-0.266101 0.0910958 0)
(-0.0817258 0.0760608 0)
(0.0355914 0.00351333 0)
(0.142936 -0.316363 0)
(-0.0497855 -0.240304 0)
(-0.10342 -0.321172 0)
(-0.103743 -0.310819 0)
(-0.0297805 -0.254131 0)
(-0.0441265 -0.0579548 0)
(-0.0539836 0.0795882 0)
(-0.146234 0.115254 0)
(-0.183595 0.100788 0)
(-0.176197 0.131872 0)
(-0.0781907 0.320683 0)
(0.0704708 0.428828 0)
(-0.126354 0.2187 0)
(-0.271166 -0.158001 0)
(-0.319187 -0.28003 0)
(-0.412938 -0.18131 0)
(-0.384547 -0.0146103 0)
(-0.190007 0.0443523 0)
(-0.0140384 0.0671047 0)
(0.0169707 0.217493 0)
(0.0444767 0.27431 0)
(0.117778 0.387135 0)
(0.204727 0.407864 0)
(0.150715 0.290321 0)
(0.023044 0.141678 0)
(-0.121103 0.0348199 0)
(-0.216827 -0.054185 0)
(-0.241812 -0.167069 0)
(-0.175934 -0.261874 0)
(-0.133728 -0.267072 0)
(-0.0978847 -0.221646 0)
(-0.0585297 -0.175976 0)
(-0.0385258 -0.150362 0)
(-0.0332026 -0.162054 0)
(-0.0373977 -0.218762 0)
(-0.0377244 -0.258212 0)
(-0.0383637 -0.275778 0)
(-0.0320504 -0.276077 0)
(0.0158462 -0.249831 0)
(0.064298 -0.180471 0)
(0.137926 -0.0840635 0)
(-0.0186336 -0.0611362 0)
(0.0302048 0.228721 0)
(0.0876724 0.26417 0)
(0.142838 0.309646 0)
(0.220127 0.307289 0)
(0.262115 0.207041 0)
(0.245146 0.095329 0)
(0.220074 0.00331357 0)
(0.205482 -0.0702895 0)
(0.18708 -0.134719 0)
(0.166863 -0.171355 0)
(0.15021 -0.171611 0)
(0.173201 -0.151321 0)
(0.214727 -0.0983638 0)
(0.237793 -0.0128187 0)
(0.238446 0.077071 0)
(0.195553 0.152998 0)
(0.127171 0.143288 0)
(0.0606351 0.0901186 0)
(0.018609 0.0286323 0)
(0.0389477 -0.0537567 0)
(0.112328 -0.039292 0)
(0.0885344 0.0842731 0)
(0.017385 0.17785 0)
(0.0686595 0.115542 0)
(0.134352 0.172203 0)
(0.185869 0.229671 0)
(0.217579 0.23451 0)
(0.252164 0.199644 0)
(0.253465 0.136555 0)
(0.244797 0.0633853 0)
(0.224887 -0.00371197 0)
(0.202126 -0.0629513 0)
(0.180984 -0.133788 0)
(0.170296 -0.198779 0)
(0.198153 -0.229517 0)
(0.205747 -0.191313 0)
(0.201161 -0.140493 0)
(0.159946 -0.105782 0)
(0.125644 -0.0802325 0)
(0.118183 -0.101339 0)
(0.119252 -0.1408 0)
(0.0552761 -0.20653 0)
(-0.116184 -0.348043 0)
(-0.298515 -0.40585 0)
(-0.295579 -0.145456 0)
(-0.469708 0.298036 0)
(0.0733046 -0.0222192 0)
(0.138165 0.115508 0)
(0.160401 0.200657 0)
(0.166946 0.211526 0)
(0.191055 0.190979 0)
(0.194127 0.131771 0)
(0.180672 0.0558293 0)
(0.157322 -0.0261893 0)
(0.139878 -0.110912 0)
(0.135088 -0.195972 0)
(0.154376 -0.304533 0)
(0.166895 -0.331182 0)
(0.081812 -0.274285 0)
(0.0468033 -0.129084 0)
(-0.0614881 0.0197536 0)
(-0.145459 0.0841475 0)
(-0.297077 0.072665 0)
(-0.495878 0.0994646 0)
(-0.562068 0.130749 0)
(-1.20382 -0.316064 0)
(-0.805265 -0.474569 0)
(-0.384671 0.196526 0)
(-0.516404 0.38023 0)
(0.0368757 -0.196393 0)
(0.060689 0.030661 0)
(0.0634294 0.188129 0)
(0.03069 0.178386 0)
(0.0651624 0.161061 0)
(0.0539991 0.133192 0)
(0.03909 0.0761941 0)
(0.0241913 0.00847863 0)
(0.0207326 -0.0558928 0)
(-0.0977723 -0.142732 0)
(-0.501975 -0.179247 0)
(-0.844051 -0.104279 0)
(-0.926358 -0.0407923 0)
(-0.955302 0.052217 0)
(-0.968499 0.16243 0)
(-0.989932 0.204191 0)
(-1.0449 0.183103 0)
(-1.10931 -0.0417659 0)
(-1.73073 -1.09584 0)
(-1.82122 -0.929878 0)
(-1.00731 0.232039 0)
(-0.587391 0.349542 0)
(-0.538772 0.340508 0)
(-0.06679 -0.1686 0)
(-0.100233 0.080542 0)
(-0.077659 0.196296 0)
(-0.0923469 0.212759 0)
(-0.0518964 0.199831 0)
(-0.036151 0.176731 0)
(-0.0473551 0.111367 0)
(-0.168934 -0.0304429 0)
(-0.544502 0.0304221 0)
(-0.803316 0.218074 0)
(-1.12418 0.0265251 0)
(-1.1393 -0.0428993 0)
(-1.1787 0.00605602 0)
(-1.19648 0.132355 0)
(-1.18809 0.172554 0)
(-1.19749 0.173572 0)
(-1.35789 0.0157473 0)
(-2.11157 -0.863007 0)
(-1.90519 -1.07058 0)
(-1.75885 -1.07724 0)
(-1.59877 -0.987832 0)
(-1.28186 -0.790777 0)
(-0.98448 -0.752214 0)
(-0.0635891 -0.111469 0)
(-0.103038 0.0464389 0)
(-0.096283 0.098521 0)
(-0.134865 0.0561944 0)
(-0.1406 -0.042375 0)
(-0.134295 -0.0765704 0)
(-0.183444 -0.0149203 0)
(-0.707208 0.235636 0)
(-1.1398 0.336355 0)
(-1.22196 0.178677 0)
(-1.24418 0.00531482 0)
(-1.22666 -0.0250069 0)
(-1.21073 0.0214092 0)
(-1.20307 0.116541 0)
(-1.19427 0.137925 0)
(-1.23865 0.119488 0)
(-1.61444 -0.106945 0)
(-2.12676 -0.0833271 0)
(-1.79094 -1.11622 0)
(-1.74686 -1.17168 0)
(-1.47306 -1.05437 0)
(-1.35481 -1.04891 0)
(-1.09503 -1.04881 0)
(-0.191709 -0.179491 0)
(-0.18726 -0.141793 0)
(-0.232487 -0.189583 0)
(-0.217859 -0.272739 0)
(-0.203292 -0.397758 0)
(-0.186769 -0.398944 0)
(-0.213663 -0.274179 0)
(-0.882734 0.0454935 0)
(-1.35564 0.131627 0)
(-1.38204 -0.0692952 0)
(-1.33142 -0.135422 0)
(-1.18796 -0.0703736 0)
(-1.15639 0.0149282 0)
(-1.1407 0.035581 0)
(-1.16666 0.0388921 0)
(-1.39657 0.0257111 0)
(-2.3257 0.394184 0)
(-2.02663 1.27387 0)
(-1.51559 -0.623087 0)
(-1.26572 -0.897329 0)
(-1.20257 -0.916182 0)
(-1.17865 -0.943837 0)
(-1.16693 -1.06955 0)
(-0.268755 -0.295435 0)
(-0.293667 -0.368516 0)
(-0.301952 -0.368952 0)
(-0.306399 -0.397526 0)
(-0.300153 -0.38101 0)
(-0.289379 -0.282729 0)
(-0.42167 -0.17932 0)
(-1.19994 0.00819552 0)
(-1.57584 0.0169857 0)
(-1.41618 -0.307414 0)
(-1.24106 -0.367402 0)
(-1.11353 -0.264246 0)
(-1.03653 -0.160763 0)
(-1.01783 -0.129579 0)
(-1.01831 -0.147239 0)
(-1.33091 0.13915 0)
(-1.20665 1.79437 0)
(-1.41833 1.4217 0)
(-1.25267 0.316506 0)
(-1.06466 -0.26989 0)
(-1.14334 -0.459968 0)
(-1.27637 -0.436023 0)
(-1.62542 -0.231366 0)
(-0.311113 0.11027 0)
(-0.391796 0.0831594 0)
(-0.40464 -0.0449695 0)
(-0.414162 0.105506 0)
(-0.552206 0.296524 0)
(-0.597136 0.650544 0)
(-0.59777 1.20566 0)
(-0.995006 0.953844 0)
(-1.21961 0.491067 0)
(-0.934326 -0.0805928 0)
(-1.10562 -0.367376 0)
(-1.1227 -0.368616 0)
(-1.04749 -0.320686 0)
(-0.968976 -0.260381 0)
(-0.951563 -0.170066 0)
(-1.09786 0.89852 0)
(-0.845709 1.9037 0)
(-0.789203 1.7717 0)
(-0.418376 0.888614 0)
(-0.553508 -0.320287 0)
(-1.02148 -0.6171 0)
(-1.18034 -0.531012 0)
(-1.21787 -0.192396 0)
(-0.189673 0.709286 0)
(-0.278532 0.459634 0)
(-0.390848 0.413117 0)
(-0.356068 0.366011 0)
(-0.434801 0.430951 0)
(-0.516502 0.707621 0)
(-0.401157 1.13609 0)
(-0.0960226 1.29879 0)
(0.0375208 0.896367 0)
(-0.0421835 0.386061 0)
(-0.305222 0.172768 0)
(-0.605554 -0.104871 0)
(-0.828852 -0.246828 0)
(-1.01272 -0.148858 0)
(-1.03653 0.0450591 0)
(-0.92823 0.707186 0)
(-0.649862 1.68759 0)
(-0.38478 1.59212 0)
(-0.127296 0.898582 0)
(-0.341303 0.311968 0)
(-0.79984 0.251647 0)
(-1.24435 0.294636 0)
(-1.59266 0.110846 0)
(-0.156914 0.887525 0)
(-0.16837 0.642953 0)
(-0.308622 0.451072 0)
(-0.298158 0.403691 0)
(-0.32396 0.48197 0)
(-0.282195 0.705067 0)
(-0.212999 0.983411 0)
(-0.0191417 1.06938 0)
(0.177091 0.822693 0)
(0.11357 0.457942 0)
(-0.0406876 0.314266 0)
(-0.14452 0.234875 0)
(-0.325176 0.166349 0)
(-0.656752 0.0629918 0)
(-0.853584 0.112086 0)
(-0.868353 0.507944 0)
(-0.604196 1.24986 0)
(-0.199287 1.52137 0)
(-0.0378449 1.05314 0)
(-0.314179 0.547933 0)
(-0.596193 0.294039 0)
(-0.863755 0.280432 0)
(-1.01451 0.229225 0)
(-0.138653 1.11849 0)
(-0.0844821 0.753616 0)
(-0.21607 0.485244 0)
(-0.182402 0.408428 0)
(-0.191473 0.444721 0)
(-0.142 0.621416 0)
(-0.00623202 0.837339 0)
(0.135108 0.93393 0)
(0.216971 0.78912 0)
(0.206179 0.551003 0)
(0.080059 0.390435 0)
(0.0499912 0.291171 0)
(-0.0330644 0.305626 0)
(-0.134408 0.379759 0)
(-0.322938 0.415734 0)
(-0.526817 0.530421 0)
(-0.482862 0.851042 0)
(-0.154105 1.19164 0)
(0.101867 1.13217 0)
(-0.019152 0.868232 0)
(-0.20359 0.612709 0)
(-0.395034 0.450557 0)
(-0.503421 0.264727 0)
(-0.05372 1.18397 0)
(0.010582 0.799691 0)
(-0.0892483 0.514821 0)
(-0.0651625 0.402991 0)
(-0.0790217 0.416171 0)
(-0.0307365 0.529074 0)
(0.0727816 0.671625 0)
(0.241746 0.840266 0)
(0.300892 0.774177 0)
(0.295069 0.641757 0)
(0.212504 0.473193 0)
(0.191294 0.346309 0)
(0.139051 0.359449 0)
(0.107206 0.42085 0)
(0.0783795 0.513915 0)
(0.0235675 0.64175 0)
(-0.0662474 0.798189 0)
(0.142662 0.935553 0)
(0.351251 0.982638 0)
(0.496877 0.882072 0)
(0.59414 0.77621 0)
(0.616013 0.621766 0)
(0.527371 0.430157 0)
(0.0203684 1.1408 0)
(0.0989509 0.808437 0)
(0.0356083 0.541719 0)
(0.039673 0.412117 0)
(0.0135838 0.406628 0)
(0.0501594 0.473911 0)
(0.101587 0.541298 0)
(0.241958 0.698693 0)
(0.334378 0.734971 0)
(0.345508 0.669394 0)
(0.325101 0.526084 0)
(0.301697 0.383938 0)
(0.256073 0.386474 0)
(0.244091 0.429593 0)
(0.252698 0.506943 0)
(0.295632 0.613361 0)
(0.365446 0.741266 0)
(0.519753 0.807122 0)
(0.651798 0.852929 0)
(0.848601 0.741383 0)
(0.944 0.651903 0)
(1.13387 0.539209 0)
(1.12656 0.388588 0)
(0.064065 1.01123 0)
(0.145634 0.795056 0)
(0.117165 0.558545 0)
(0.122157 0.430374 0)
(0.0900431 0.412764 0)
(0.106161 0.452119 0)
(0.121807 0.482185 0)
(0.192627 0.578412 0)
(0.298378 0.681516 0)
(0.352215 0.647288 0)
(0.371202 0.52851 0)
(0.357319 0.416086 0)
(0.322573 0.409761 0)
(0.316355 0.433709 0)
(0.331571 0.478806 0)
(0.39064 0.543419 0)
(0.484965 0.605266 0)
(0.647242 0.636748 0)
(0.791055 0.685568 0)
(1.00089 0.612838 0)
(1.06824 0.486654 0)
(1.22704 0.376144 0)
(1.32557 0.291215 0)
(0.0630952 0.900177 0)
(0.150488 0.767729 0)
(0.158131 0.559296 0)
(0.16941 0.443013 0)
(0.137735 0.419716 0)
(0.140412 0.443069 0)
(0.141564 0.458938 0)
(0.163307 0.511852 0)
(0.242058 0.584784 0)
(0.322029 0.590095 0)
(0.371239 0.520538 0)
(0.366768 0.441456 0)
(0.343965 0.426904 0)
(0.342802 0.432755 0)
(0.35694 0.447152 0)
(0.404297 0.468027 0)
(0.488404 0.484861 0)
(0.605875 0.480608 0)
(0.722761 0.457571 0)
(0.947673 0.484058 0)
(1.0025 0.37307 0)
(1.09669 0.210828 0)
(1.25372 0.173834 0)
(0.0611611 0.794583 0)
(0.139384 0.70985 0)
(0.176163 0.544437 0)
(0.181133 0.453191 0)
(0.157661 0.43026 0)
(0.156409 0.442872 0)
(0.15769 0.450978 0)
(0.166274 0.477312 0)
(0.213851 0.512613 0)
(0.279824 0.520528 0)
(0.338466 0.49674 0)
(0.347973 0.451371 0)
(0.339532 0.434046 0)
(0.344865 0.426189 0)
(0.362773 0.417632 0)
(0.40017 0.408174 0)
(0.459777 0.398434 0)
(0.536589 0.368338 0)
(0.617244 0.316918 0)
(0.747122 0.3366 0)
(0.837898 0.259108 0)
(0.912668 0.0854183 0)
(1.0028 0.0347538 0)
(0.0605662 0.695165 0)
(0.121339 0.642727 0)
(0.174114 0.527665 0)
(0.17395 0.459928 0)
(0.159538 0.440416 0)
(0.161112 0.441128 0)
(0.1664 0.444274 0)
(0.176481 0.455765 0)
(0.208232 0.467144 0)
(0.251673 0.469474 0)
(0.294209 0.460706 0)
(0.315438 0.442188 0)
(0.328564 0.429743 0)
(0.346029 0.410106 0)
(0.36954 0.389664 0)
(0.400985 0.365231 0)
(0.444486 0.341317 0)
(0.494414 0.299622 0)
(0.545479 0.253733 0)
(0.607969 0.243427 0)
(0.688767 0.170547 0)
(0.73708 0.0452999 0)
(0.756286 -0.00238383 0)
(0.050091 0.613594 0)
(0.0985262 0.583938 0)
(0.150475 0.507019 0)
(0.15378 0.462692 0)
(0.153717 0.442205 0)
(0.159122 0.438013 0)
(0.168135 0.434224 0)
(0.182038 0.436944 0)
(0.207059 0.43639 0)
(0.23648 0.434856 0)
(0.269341 0.431417 0)
(0.295761 0.419805 0)
(0.32057 0.406477 0)
(0.34713 0.385004 0)
(0.374043 0.361815 0)
(0.402922 0.331934 0)
(0.43534 0.302064 0)
(0.466426 0.258838 0)
(0.497888 0.220999 0)
(0.527618 0.193756 0)
(0.578269 0.121156 0)
(0.582599 0.0344463 0)
(0.572029 0.00513247 0)
(0.0362222 0.551576 0)
(0.0776699 0.534631 0)
(0.121385 0.483799 0)
(0.13304 0.454892 0)
(0.143047 0.437087 0)
(0.153504 0.429333 0)
(0.16494 0.420612 0)
(0.180585 0.417845 0)
(0.201756 0.412688 0)
(0.224703 0.408132 0)
(0.252387 0.403279 0)
(0.280282 0.393625 0)
(0.307862 0.37774 0)
(0.336935 0.357431 0)
(0.363159 0.333078 0)
(0.391112 0.30459 0)
(0.415962 0.275702 0)
(0.435954 0.236379 0)
(0.454496 0.200547 0)
(0.472108 0.165154 0)
(0.497035 0.106887 0)
(0.486781 0.0526069 0)
(0.466116 0.0316595 0)
(0.0256487 0.504572 0)
(0.0615601 0.49301 0)
(0.0979446 0.460104 0)
(0.11465 0.439911 0)
(0.129146 0.424374 0)
(0.143786 0.414915 0)
(0.157902 0.405821 0)
(0.174174 0.399697 0)
(0.193036 0.391905 0)
(0.2132 0.384513 0)
(0.236365 0.376721 0)
(0.262658 0.365414 0)
(0.288596 0.348838 0)
(0.314612 0.329273 0)
(0.339005 0.305724 0)
(0.361506 0.279119 0)
(0.382581 0.253336 0)
(0.399199 0.21872 0)
(0.415179 0.184339 0)
(0.42692 0.147823 0)
(0.438374 0.10418 0)
(0.430218 0.0674126 0)
(0.417019 0.0517262 0)
(0.0195192 0.467013 0)
(0.0503676 0.457585 0)
(0.0814165 0.436138 0)
(0.100658 0.421553 0)
(0.117919 0.408918 0)
(0.134345 0.399533 0)
(0.150175 0.390125 0)
(0.167143 0.382232 0)
(0.185074 0.373394 0)
(0.204061 0.364122 0)
(0.224303 0.353205 0)
(0.247585 0.340375 0)
(0.270698 0.324671 0)
(0.293151 0.305936 0)
(0.314187 0.283473 0)
(0.333259 0.25885 0)
(0.351594 0.233145 0)
(0.367546 0.202644 0)
(0.379933 0.171051 0)
(0.388456 0.138706 0)
(0.396252 0.1052 0)
(0.389756 0.0766074 0)
(0.389443 0.0598197 0)
(0.0158688 0.436103 0)
(0.0422311 0.427472 0)
(0.069312 0.41308 0)
(0.0891816 0.402149 0)
(0.107513 0.391664 0)
(0.124662 0.382511 0)
(0.141355 0.373095 0)
(0.158486 0.364375 0)
(0.176077 0.354886 0)
(0.194497 0.34504 0)
(0.213374 0.333215 0)
(0.233204 0.319179 0)
(0.253014 0.30341 0)
(0.272832 0.28532 0)
(0.291616 0.265103 0)
(0.308361 0.241643 0)
(0.324297 0.217277 0)
(0.33745 0.18977 0)
(0.348748 0.162081 0)
(0.357078 0.131119 0)
(0.36401 0.102378 0)
(0.361099 0.0789988 0)
(0.366577 0.0587339 0)
(0.0135236 0.409354 0)
(0.0365014 0.40121 0)
(0.0604327 0.39094 0)
(0.079899 0.382425 0)
(0.0982827 0.373668 0)
(0.115645 0.365196 0)
(0.132464 0.356134 0)
(0.149297 0.347082 0)
(0.166427 0.337093 0)
(0.183971 0.326762 0)
(0.201814 0.31458 0)
(0.219022 0.300391 0)
(0.236608 0.284371 0)
(0.253328 0.26712 0)
(0.270004 0.247027 0)
(0.285667 0.225477 0)
(0.300036 0.20293 0)
(0.312393 0.178109 0)
(0.322682 0.151519 0)
(0.329828 0.12433 0)
(0.335131 0.101233 0)
(0.336925 0.0768413 0)
(0.345001 0.0524979 0)
(0.0118723 0.386296 0)
(0.0322824 0.378559 0)
(0.0536603 0.370755 0)
(0.0721312 0.363864 0)
(0.0897079 0.356233 0)
(0.106547 0.348168 0)
(0.122912 0.339385 0)
(0.139085 0.33019 0)
(0.155272 0.320023 0)
(0.171549 0.309049 0)
(0.187948 0.297441 0)
(0.204527 0.283646 0)
(0.220628 0.268505 0)
(0.236257 0.251205 0)
(0.251093 0.232028 0)
(0.264255 0.211984 0)
(0.276153 0.189941 0)
(0.287164 0.167505 0)
(0.296307 0.143684 0)
(0.303453 0.118502 0)
(0.310648 0.0946944 0)
(0.315117 0.0719929 0)
(0.321695 0.0486478 0)
(0.010606 0.365347 0)
(0.0290072 0.358009 0)
(0.0484009 0.351747 0)
(0.065819 0.345981 0)
(0.0825437 0.339287 0)
(0.0986543 0.331778 0)
(0.114349 0.323455 0)
(0.129731 0.314381 0)
(0.145059 0.304268 0)
(0.160121 0.293503 0)
(0.175265 0.28151 0)
(0.189972 0.267847 0)
(0.204042 0.252966 0)
(0.218079 0.236642 0)
(0.230855 0.21884 0)
(0.243191 0.199201 0)
(0.254701 0.178994 0)
(0.264691 0.157262 0)
(0.274054 0.134699 0)
(0.280525 0.111835 0)
(0.286469 0.0897983 0)
(0.291544 0.0667326 0)
(0.298065 0.0429693 0)
(0.00948653 0.346706 0)
(0.0260742 0.33967 0)
(0.0436243 0.334287 0)
(0.0598385 0.329213 0)
(0.0755646 0.323164 0)
(0.0907599 0.31619 0)
(0.10554 0.308237 0)
(0.119972 0.299388 0)
(0.134242 0.289568 0)
(0.148158 0.27898 0)
(0.162144 0.267232 0)
(0.175789 0.254173 0)
(0.188981 0.239395 0)
(0.20166 0.223635 0)
(0.213529 0.206444 0)
(0.224607 0.188319 0)
(0.234356 0.168855 0)
(0.24298 0.148777 0)
(0.251041 0.127863 0)
(0.257524 0.105475 0)
(0.264069 0.0834276 0)
(0.26912 0.0614561 0)
(0.274504 0.0386792 0)
(0.00858759 0.329679 0)
(0.023758 0.322933 0)
(0.039801 0.318208 0)
(0.0548521 0.31368 0)
(0.0695052 0.308131 0)
(0.0837451 0.301591 0)
(0.0975698 0.293973 0)
(0.111033 0.285357 0)
(0.12418 0.275749 0)
(0.137062 0.265179 0)
(0.149759 0.253655 0)
(0.162023 0.240936 0)
(0.173816 0.226936 0)
(0.185098 0.211778 0)
(0.195592 0.195501 0)
(0.205351 0.178023 0)
(0.214563 0.159418 0)
(0.222835 0.139943 0)
(0.230513 0.119987 0)
(0.236738 0.0995478 0)
(0.242238 0.0785463 0)
(0.246764 0.0568212 0)
(0.251514 0.0345462 0)
(0.00774859 0.314365 0)
(0.0215571 0.3078 0)
(0.0361531 0.30352 0)
(0.049975 0.299391 0)
(0.0634661 0.294264 0)
(0.0766566 0.288094 0)
(0.0894978 0.280865 0)
(0.102018 0.272643 0)
(0.11419 0.263431 0)
(0.126068 0.253214 0)
(0.137618 0.242041 0)
(0.148878 0.229773 0)
(0.159648 0.21625 0)
(0.169885 0.201657 0)
(0.17939 0.18604 0)
(0.18829 0.16922 0)
(0.196481 0.151615 0)
(0.203669 0.13312 0)
(0.210261 0.113942 0)
(0.215914 0.0938546 0)
(0.221106 0.073498 0)
(0.225252 0.0526202 0)
(0.229257 0.0311161 0)
(0.00703686 0.300298 0)
(0.0196434 0.293837 0)
(0.0329336 0.289843 0)
(0.0456156 0.286007 0)
(0.0580144 0.28118 0)
(0.0701633 0.275287 0)
(0.0819933 0.26836 0)
(0.0934996 0.260447 0)
(0.104645 0.251527 0)
(0.115465 0.241627 0)
(0.125906 0.230741 0)
(0.136063 0.218927 0)
(0.145696 0.205997 0)
(0.154836 0.192 0)
(0.163445 0.177 0)
(0.171439 0.160889 0)
(0.178756 0.143875 0)
(0.185354 0.126176 0)
(0.191224 0.107879 0)
(0.196295 0.0888853 0)
(0.200725 0.0692933 0)
(0.204332 0.0490015 0)
(0.207664 0.0281687 0)
(0.00633154 0.287658 0)
(0.0178143 0.281401 0)
(0.0298845 0.277661 0)
(0.0414732 0.2741 0)
(0.0528147 0.269572 0)
(0.0639251 0.263993 0)
(0.0747284 0.257385 0)
(0.0852231 0.249789 0)
(0.095404 0.241198 0)
(0.10523 0.231648 0)
(0.11466 0.221116 0)
(0.12373 0.209616 0)
(0.132359 0.197063 0)
(0.140511 0.183528 0)
(0.148175 0.169141 0)
(0.155252 0.153755 0)
(0.161718 0.137488 0)
(0.167562 0.120559 0)
(0.172656 0.102888 0)
(0.177144 0.0844734 0)
(0.180998 0.0654975 0)
(0.184122 0.045898 0)
(0.186781 0.0257608 0)
(0.00570264 0.276101 0)
(0.0161057 0.269805 0)
(0.0270272 0.266203 0)
(0.0375584 0.262848 0)
(0.0478715 0.258564 0)
(0.0579691 0.253263 0)
(0.0677716 0.247 0)
(0.0772524 0.239761 0)
(0.0863964 0.231546 0)
(0.095223 0.222345 0)
(0.103694 0.212209 0)
(0.111812 0.201134 0)
(0.11956 0.189148 0)
(0.126845 0.176201 0)
(0.13364 0.162321 0)
(0.139854 0.147418 0)
(0.145429 0.131684 0)
(0.150406 0.115306 0)
(0.154827 0.0983189 0)
(0.158722 0.0806403 0)
(0.16197 0.062346 0)
(0.164552 0.0433951 0)
(0.16658 0.0239131 0)
(0.00509373 0.265799 0)
(0.0145512 0.259599 0)
(0.0244122 0.256216 0)
(0.0339441 0.253061 0)
(0.0432446 0.248987 0)
(0.0523394 0.24395 0)
(0.0611361 0.237911 0)
(0.0696375 0.230912 0)
(0.0778059 0.222992 0)
(0.0856525 0.214119 0)
(0.0931707 0.204304 0)
(0.1003 0.193589 0)
(0.107047 0.181934 0)
(0.113402 0.169354 0)
(0.119324 0.15601 0)
(0.124773 0.141879 0)
(0.129718 0.126902 0)
(0.134091 0.111103 0)
(0.137791 0.0945557 0)
(0.140942 0.0774017 0)
(0.143558 0.0597195 0)
(0.145601 0.0414266 0)
(0.147028 0.0225799 0)
(0.0045531 0.256425 0)
(0.0130543 0.250203 0)
(0.0218989 0.246856 0)
(0.0304595 0.243888 0)
(0.0387851 0.240047 0)
(0.0469394 0.235267 0)
(0.0548225 0.229598 0)
(0.0624293 0.223001 0)
(0.0697137 0.215457 0)
(0.076656 0.206969 0)
(0.083231 0.197521 0)
(0.0893935 0.187128 0)
(0.0951648 0.175793 0)
(0.100585 0.163648 0)
(0.105608 0.15067 0)
(0.110178 0.136843 0)
(0.114272 0.12227 0)
(0.117899 0.107199 0)
(0.121137 0.0915161 0)
(0.12382 0.0750082 0)
(0.125816 0.0577867 0)
(0.127278 0.0399977 0)
(0.128132 0.0217325 0)
(0.00404711 0.248079 0)
(0.0117011 0.241926 0)
(0.0194752 0.238818 0)
(0.0271017 0.23604 0)
(0.0344852 0.232379 0)
(0.0417344 0.227826 0)
(0.0487752 0.222401 0)
(0.0555763 0.216062 0)
(0.0621015 0.208757 0)
(0.0682791 0.2006 0)
(0.0740821 0.191573 0)
(0.079509 0.181661 0)
(0.0845673 0.170863 0)
(0.089114 0.159148 0)
(0.0931689 0.146568 0)
(0.0967432 0.13319 0)
(0.0998722 0.119084 0)
(0.102627 0.104144 0)
(0.104912 0.0885658 0)
(0.106805 0.0726825 0)
(0.108449 0.0563023 0)
(0.109502 0.0391739 0)
(0.10984 0.0214412 0)
(0.00364381 0.240727 0)
(0.0103708 0.234512 0)
(0.0172084 0.231397 0)
(0.0238697 0.228769 0)
(0.0302947 0.225269 0)
(0.0365945 0.220892 0)
(0.0427315 0.215622 0)
(0.0486762 0.209528 0)
(0.0543414 0.202654 0)
(0.0597258 0.194919 0)
(0.0647423 0.186289 0)
(0.0693319 0.176736 0)
(0.0735258 0.1663 0)
(0.0773431 0.155058 0)
(0.0808031 0.143028 0)
(0.0838619 0.130247 0)
(0.0865426 0.116671 0)
(0.0885763 0.102344 0)
(0.0900425 0.0873563 0)
(0.0911497 0.0715138 0)
(0.0916655 0.055133 0)
(0.0920438 0.03858 0)
(0.0920005 0.0215555 0)
(0.00338735 0.233977 0)
(0.00921144 0.228415 0)
(0.0146742 0.225589 0)
(0.0202795 0.223159 0)
(0.0256464 0.219811 0)
(0.0309652 0.215543 0)
(0.0361601 0.210399 0)
(0.041243 0.204421 0)
(0.0462585 0.197622 0)
(0.0510466 0.190079 0)
(0.0555747 0.181785 0)
(0.0597579 0.172693 0)
(0.0634466 0.162714 0)
(0.0666433 0.151861 0)
(0.0693504 0.140189 0)
(0.0715267 0.127673 0)
(0.0732213 0.114419 0)
(0.0745937 0.100607 0)
(0.0757063 0.0861475 0)
(0.0762914 0.0710909 0)
(0.0763218 0.0554128 0)
(0.0758084 0.0388641 0)
(0.074835 0.0219731 0)
(0.00295151 0.228064 0)
(0.00763393 0.222676 0)
(0.0118479 0.21972 0)
(0.0162917 0.217187 0)
(0.0204716 0.213854 0)
(0.0247211 0.209753 0)
(0.0287585 0.204799 0)
(0.0327055 0.199076 0)
(0.0364798 0.192627 0)
(0.0401908 0.185437 0)
(0.0438026 0.177531 0)
(0.0472726 0.168842 0)
(0.0505495 0.159368 0)
(0.0535213 0.149112 0)
(0.0561383 0.138075 0)
(0.0583147 0.126241 0)
(0.0599749 0.113644 0)
(0.0610962 0.100242 0)
(0.0615791 0.0860656 0)
(0.0615788 0.071319 0)
(0.0612469 0.0560018 0)
(0.0604679 0.0402707 0)
(0.0588219 0.0239168 0)
(0.00254876 0.223232 0)
(0.00558637 0.219385 0)
(0.00760163 0.21721 0)
(0.00998944 0.214965 0)
(0.0121626 0.211775 0)
(0.0146138 0.207731 0)
(0.0169645 0.202766 0)
(0.0193751 0.196955 0)
(0.02179 0.19034 0)
(0.0242577 0.182913 0)
(0.0267643 0.174753 0)
(0.029326 0.165936 0)
(0.0318973 0.15644 0)
(0.034403 0.146249 0)
(0.0368437 0.13534 0)
(0.0391472 0.123777 0)
(0.0411748 0.11152 0)
(0.0428457 0.0986263 0)
(0.0440594 0.0851166 0)
(0.0447126 0.0710473 0)
(0.0446505 0.0563982 0)
(0.0438442 0.0411251 0)
(0.0422497 0.0253381 0)
(0.00167854 0.219772 0)
(0.00267324 0.217137 0)
(0.0030679 0.214415 0)
(0.00422944 0.211539 0)
(0.00509687 0.208092 0)
(0.00631527 0.203976 0)
(0.00754313 0.199118 0)
(0.00888821 0.193491 0)
(0.010341 0.187074 0)
(0.0118709 0.179877 0)
(0.0135168 0.171961 0)
(0.0152768 0.163383 0)
(0.0171071 0.154117 0)
(0.0189509 0.144096 0)
(0.0207814 0.133429 0)
(0.0225151 0.122123 0)