/*--------------------------------*- C++ -*----------------------------------*\
| =========                 |                                                 |
| \\      /  F ield         | OpenFOAM: The Open Source CFD Toolbox           |
|  \\    /   O peration     | Version:  2.4.0                                 |
|   \\  /    A nd           | Web:      www.OpenFOAM.org                      |
|    \\/     M anipulation  |                                                 |
\*---------------------------------------------------------------------------*/
FoamFile
{
    version     2.0;
    format      ascii;
    class       volScalarField;
    location    "0.1";
    object      alpha.water;
}
// * * * * * * * * * * * * * * * * * * * * * * * * * * * * * * * * * * * * * //

dimensions      [0 0 0 0 0 0 0];

internalField   nonuniform List<scalar> 
559
(
2.87791e-17
1.15236e-16
2.20345e-16
2.74894e-16
3.25536e-16
3.78179e-16
5.20316e-16
1.18633e-15
1.1191e-29
7.76541e-28
5.09273e-26
5.51601e-25
7.87166e-24
1.55972e-23
2.96463e-24
1.91526e-25
7.83883e-27
3.01575e-28
1.01457e-29
2.8121e-31
6.24718e-33
1.09531e-34
1.48606e-36
1.51094e-38
1.08828e-40
4.97397e-43
1.0891e-45
1.98945e-27
1.85079e-25
1.40559e-23
4.73789e-23
3.50234e-22
6.39172e-22
1.42058e-22
1.04876e-23
4.80534e-25
2.05068e-26
7.49398e-28
2.22809e-29
5.2944e-31
9.92847e-33
1.44148e-34
1.56898e-36
1.21e-38
5.92099e-41
1.38626e-43
3.87302e-25
3.18837e-23
1.88585e-21
2.69101e-21
8.14031e-21
1.20092e-20
3.09482e-21
2.72389e-22
1.48985e-23
7.17397e-25
2.77256e-26
8.48681e-28
2.06052e-29
3.94148e-31
5.83711e-33
6.48371e-35
5.10582e-37
2.55256e-39
6.10906e-42
4.9915e-23
2.74395e-21
1.18175e-19
1.06062e-19
1.36257e-19
1.40102e-19
3.97168e-20
4.26255e-21
2.96951e-22
1.564e-23
6.25019e-25
1.96123e-26
4.88403e-28
9.58862e-30
1.45858e-31
1.66577e-33
1.34986e-35
6.94734e-38
1.71158e-40
4.92152e-21
9.9652e-20
3.12699e-18
2.22926e-18
1.68893e-18
1.14274e-18
3.21024e-19
4.10129e-20
3.44461e-21
1.9504e-22
8.19879e-24
2.69792e-25
7.01843e-27
1.43294e-28
2.25665e-30
2.65755e-32
2.21396e-34
1.16921e-36
2.95353e-39
6.62204e-20
1.98844e-17
3.15263e-17
2.10642e-17
1.31647e-17
6.60097e-18
1.68282e-18
2.46656e-19
2.13751e-20
1.25806e-21
5.5605e-23
1.9239e-24
5.2522e-26
1.1248e-27
1.85849e-29
2.29647e-31
2.00641e-33
1.11008e-35
2.93354e-38
1.79186e-20
1.92235e-16
1.84775e-16
1.19821e-16
6.85221e-17
2.81376e-17
6.26038e-18
8.49877e-19
7.44505e-20
4.68127e-21
2.24519e-22
8.41645e-24
2.4799e-25
5.70927e-27
1.00969e-28
1.32902e-30
1.2306e-32
7.17776e-35
1.98927e-37
7.96163e-16
1.13211e-15
8.99876e-16
5.31427e-16
2.67178e-16
8.97004e-17
1.71985e-17
2.12062e-18
1.84469e-19
1.21887e-20
6.28312e-22
2.53997e-23
8.04349e-25
1.97989e-26
3.72541e-28
5.19734e-30
5.08635e-32
3.12868e-34
9.1254e-37
2.07282e-15
3.15837e-15
6.45729e-12
1.75445e-10
1.6226e-10
3.69293e-11
3.23306e-12
1.97029e-14
1.05565e-15
5.18092e-16
2.49669e-16
6.8456e-16
1.76112e-15
1.00909e-15
3.15173e-14
6.2326e-14
3.59627e-12
2.98422e-12
2.43948e-12
1.81529e-12
9.4689e-11
5.09242e-11
2.66968e-11
1.36307e-11
8.47546e-11
4.34248e-11
2.19022e-11
1.07816e-11
1.82233e-11
8.69769e-12
4.06019e-12
1.87951e-12
1.68114e-12
8.3332e-13
4.01047e-13
1.89231e-13
9.75707e-15
4.64355e-15
2.13351e-15
9.4723e-16
4.32811e-15
1.81398e-15
7.2796e-16
2.77356e-16
2.40246e-15
8.82593e-16
3.092e-16
1.03873e-16
1.4158e-15
4.57994e-16
1.3876e-16
4.25903e-17
8.3003e-16
2.29779e-16
6.07564e-17
1.80855e-17
3.6936e-16
8.5454e-17
2.17001e-17
1.70756e-18
8.83983e-17
1.72249e-17
2.29574e-18
2.63223e-19
8.50303e-18
1.56062e-18
2.67893e-19
5.53358e-20
1.48196e-19
7.70621e-20
5.54854e-20
1.11108e-20
6.9932e-21
1.62996e-20
1.08193e-20
1.94591e-21
5.50835e-15
6.14402e-15
3.87287e-15
1.98263e-15
8.63125e-16
2.34117e-16
3.69831e-17
3.89152e-18
3.2893e-19
2.27526e-20
1.26149e-21
5.53681e-23
1.90832e-24
5.11056e-26
1.04438e-27
1.57793e-29
1.66591e-31
1.10017e-33
3.426e-36
7.94051e-14
5.23475e-14
2.53757e-14
1.09257e-14
3.89089e-15
8.55696e-16
1.02993e-16
8.63176e-18
6.24021e-19
3.90131e-20
2.03837e-21
8.71144e-23
2.99182e-24
8.1012e-26
1.68772e-27
2.61016e-29
2.82603e-31
1.9156e-33
6.12533e-36
8.68135e-13
3.46915e-13
1.24428e-13
4.41199e-14
1.30854e-14
2.51514e-15
2.30161e-16
1.53453e-17
9.32619e-19
5.1568e-20
2.4641e-21
9.81937e-23
3.18129e-24
8.19457e-26
1.63537e-27
2.43728e-29
2.55493e-31
1.68213e-33
5.23234e-36
4.02713e-12
1.16056e-12
3.25147e-13
9.72764e-14
2.37742e-14
2.9364e-15
2.06897e-16
1.23303e-17
6.92154e-19
3.53997e-20
1.57606e-21
5.90224e-23
1.81025e-24
4.43813e-26
8.46111e-28
1.20759e-29
1.21423e-31
7.6756e-34
2.29283e-36
3.03673e-12
8.23497e-13
2.29892e-13
6.85494e-14
1.1214e-14
1.01071e-15
6.74631e-17
4.07824e-18
2.27826e-19
1.13083e-20
4.82548e-22
1.72369e-23
5.03822e-25
1.17811e-26
2.14508e-28
2.92784e-30
2.81864e-32
1.70758e-34
4.88958e-37
4.89446e-13
1.24945e-13
3.87645e-14
9.93135e-15
2.13761e-15
2.09653e-16
1.46358e-17
8.99547e-19
4.93977e-20
2.36496e-21
9.6391e-23
3.27505e-24
9.0959e-26
2.02196e-27
3.5037e-29
4.5572e-31
4.18649e-33
2.42349e-35
6.63518e-38
4.81511e-14
1.32118e-14
3.70897e-15
1.78174e-15
3.81575e-16
3.62822e-17
2.53899e-18
1.53737e-19
8.14721e-21
3.72179e-22
1.43901e-23
4.62746e-25
1.21607e-26
2.55999e-28
4.20675e-30
5.19746e-32
4.54357e-34
2.50766e-36
6.55209e-39
2.21957e-16
8.84325e-17
5.08278e-16
3.52477e-16
6.20982e-17
5.45719e-18
3.69866e-19
2.15497e-20
1.08794e-21
4.70362e-23
1.71561e-24
5.19949e-26
1.2884e-27
2.56081e-29
3.98029e-31
4.66114e-33
3.8709e-35
2.03433e-37
5.06705e-40
5.64614e-17
2.32078e-17
1.31782e-16
6.53017e-17
9.06939e-18
7.14466e-19
4.60046e-20
2.54559e-21
1.21428e-22
4.94164e-24
1.69382e-25
4.82413e-27
1.12458e-28
2.10655e-30
3.09256e-32
3.42902e-34
2.70331e-36
1.3523e-38
3.20919e-41
1.94566e-17
9.60661e-18
3.33776e-17
1.07556e-17
1.21456e-18
8.61303e-20
5.02898e-21
2.57243e-22
1.15371e-23
4.40472e-25
1.41558e-26
3.78303e-28
8.28766e-30
1.4621e-31
2.0266e-33
2.12735e-35
1.59221e-37
7.58306e-40
1.71425e-42
6.28461e-18
3.58861e-18
6.79826e-18
1.57177e-18
1.4854e-19
9.53694e-21
5.09719e-22
2.38593e-23
9.6493e-25
3.37443e-26
1.01595e-27
2.54712e-29
5.24393e-31
8.7157e-33
1.14113e-34
1.1347e-36
8.06765e-39
3.66063e-41
7.88254e-44
1.54556e-18
1.12996e-18
1.15955e-18
2.04913e-19
1.6648e-20
9.73599e-22
4.78626e-23
2.04353e-24
7.53565e-26
2.41193e-27
6.56878e-29
1.50087e-30
2.88293e-32
4.52022e-34
5.59615e-36
5.27753e-38
3.56807e-40
1.54395e-42
3.16539e-45
2.72482e-19
2.78544e-19
1.71028e-19
2.40532e-20
1.71475e-21
9.1828e-23
4.15419e-24
1.62269e-25
5.49286e-27
1.60685e-28
3.99581e-30
8.41404e-32
1.4897e-33
2.15032e-35
2.46745e-37
2.17593e-39
1.39197e-41
5.75305e-44
1.12218e-46
5.3635e-20
5.5678e-20
2.23731e-20
2.56377e-21
1.6273e-22
8.00286e-24
3.33213e-25
1.19667e-26
3.72769e-28
9.99654e-30
2.28932e-31
4.46403e-33
7.29234e-35
9.75192e-37
1.04489e-38
8.67273e-41
5.24747e-43
2.05439e-45
3.80077e-48
1.04153e-20
9.38165e-21
2.62528e-21
2.49565e-22
1.42377e-23
6.4383e-25
2.47111e-26
8.19046e-28
2.35248e-29
5.81681e-31
1.23426e-32
2.23161e-34
3.37856e-36
4.21215e-38
4.23835e-40
3.31825e-42
1.89757e-44
7.05343e-47
1.23918e-49
1.86088e-21
1.36254e-21
2.76654e-22
2.22197e-23
1.14635e-24
4.77353e-26
1.69335e-27
5.19506e-29
1.38025e-30
3.16498e-32
6.24474e-34
1.04936e-35
1.48066e-37
1.73073e-39
1.6399e-41
1.21163e-43
6.55654e-46
2.31833e-48
3.87292e-51
2.96372e-22
1.69066e-22
2.60876e-23
1.80103e-24
8.45916e-26
3.25314e-27
1.07007e-28
3.04803e-30
7.52426e-32
1.60738e-33
2.95702e-35
4.63639e-37
6.12979e-39
6.74319e-41
6.02527e-43
4.2064e-45
2.15917e-47
7.27781e-50
1.15705e-52
)
;

boundaryField
{
    leftWall
    {
        type            zeroGradient;
    }
    rightWall
    {
        type            zeroGradient;
    }
    lowerWall
    {
        type            zeroGradient;
    }
    atmosphere
    {
        type            inletOutlet;
        inletValue      nonuniform 0();
        value           nonuniform 0();
    }
    defaultFaces
    {
        type            empty;
    }
    procBoundary1to0
    {
        type            processor;
        value           nonuniform List<scalar> 
26
(
5.70944e-16
2.18204e-15
3.76832e-15
4.0613e-15
3.9791e-15
3.75175e-15
4.48546e-15
1.09822e-14
1.01373e-14
1.00244e-14
2.37832e-11
5.20044e-10
4.86101e-10
1.14448e-10
8.93517e-12
6.06185e-14
9.89872e-15
9.89872e-15
6.22463e-15
4.12484e-15
2.7941e-15
1.48503e-15
4.51329e-16
5.02659e-17
8.02968e-19
2.94192e-21
)
;
    }
    procBoundary1to3
    {
        type            processor;
        value           nonuniform List<scalar> 
23
(
1.91398e-21
3.13869e-21
1.85995e-21
2.86132e-22
4.11649e-23
1.77158e-23
2.17862e-24
1.31931e-25
5.68771e-27
2.02979e-28
6.21642e-30
1.65061e-31
3.80404e-33
7.59891e-35
1.30769e-36
1.9222e-38
2.39151e-40
2.48188e-42
2.09467e-44
1.385e-46
6.76113e-49
2.17644e-51
3.29711e-54
)
;
    }
}


// ************************************************************************* //
