/*--------------------------------*- C++ -*----------------------------------*\
| =========                 |                                                 |
| \\      /  F ield         | OpenFOAM: The Open Source CFD Toolbox           |
|  \\    /   O peration     | Version:  2.4.0                                 |
|   \\  /    A nd           | Web:      www.OpenFOAM.org                      |
|    \\/     M anipulation  |                                                 |
\*---------------------------------------------------------------------------*/
FoamFile
{
    version     2.0;
    format      ascii;
    class       volScalarField;
    location    "0.1";
    object      alpha.air;
}
// * * * * * * * * * * * * * * * * * * * * * * * * * * * * * * * * * * * * * //

dimensions      [0 0 0 0 0 0 0];

internalField   nonuniform List<scalar> 
559
(
1.59114e-34
2.22899e-33
1.54889e-32
6.79796e-32
2.40111e-31
6.9716e-31
1.98983e-30
5.331e-30
1.00001
1.00001
1.00002
1.00002
1.00001
1.00001
1.00001
1.00001
1.00001
1.00001
1.00001
1.00001
1.00001
1.00001
1.00001
1.00001
1
1
1
1.00001
1.00002
1.00002
1.00002
1.00001
1.00001
1
1
1.00001
0.999968
0.999997
1.00001
1.00001
1.00001
1.00001
1.00001
1.00001
1.00001
1.00001
1.00001
1.00001
1.00001
1.00001
1
1
0.999954
0.999722
0.99913
0.999607
0.999993
1
1.00001
1.00001
1
1
1
1
1
1.00002
1.00001
1
0.999997
0.999985
0.999669
0.99643
0.991894
0.99785
0.999974
1
1.00001
1.00001
1.00001
1.00001
1.00001
1.00001
1.00001
1.00001
0.999977
0.999934
0.996012
0.995374
0.995462
0.988864
0.969953
0.989777
0.999768
1
1
1
1
1
1
1
1
1
1
0.999977
0.971267
0.81771
0.818378
0.859939
0.886348
0.950356
0.997726
0.999997
1
1.00001
1.00001
1.00001
1.00001
1.00001
1.00001
1.00001
1.00001
1.00001
0.99997
0.603223
0.224494
0.227302
0.376658
0.724518
0.977656
0.999851
1
1.00001
1.00001
1.00001
1.00001
1.00001
1.00001
1.00001
1.00001
1.00001
1.00001
0.325375
0.0974635
0.0119254
0.0205691
0.167753
0.743251
0.988189
0.999967
1
1.00001
1.00001
1.00001
1.00001
1.00001
1.00001
1.00001
1.00001
1.00001
1.00001
1.59141e-29
3.00371e-29
2.79952e-18
1.69141e-14
3.01411e-13
2.2162e-12
4.76468e-11
2.93426e-10
3.07262e-17
8.73205e-16
8.35816e-15
9.67364e-15
3.38112e-16
3.62582e-15
1.02216e-13
2.51353e-13
1.559e-13
1.40406e-12
2.96397e-12
1.873e-12
2.15887e-12
1.1385e-11
9.05032e-12
1.03762e-11
5.99799e-12
4.04296e-11
2.76959e-11
3.13234e-11
4.44378e-11
1.14996e-10
7.46327e-11
1.09519e-10
3.4506e-10
2.86102e-10
3.70526e-10
5.77815e-08
8.5563e-10
1.22993e-09
1.41217e-08
4.74674e-05
2.52898e-09
6.1705e-09
4.13736e-06
0.00884225
7.30014e-09
1.84937e-07
0.000977958
0.189601
8.8245e-08
6.79052e-05
0.0579149
0.674512
1.13351e-05
0.00981427
0.456577
0.951237
0.00257723
0.240673
0.888623
0.999035
0.108957
0.762546
0.993786
0.999999
0.623154
0.973875
0.999961
1
0.964171
0.99988
0.999999
1
0.999777
0.999999
1
1
1.00798e-08
2.27978e-06
4.21587e-05
0.00755401
0.273265
0.85412
0.996363
0.999995
1
1
1
1
1
1
1
1
1
1
1
1.98212e-11
4.12367e-07
0.000409035
0.0658906
0.582896
0.963079
0.999712
1
1
1
1
1
1
1
1
1
1
1
1
5.477e-09
2.97167e-05
0.0107313
0.33789
0.88324
0.997208
0.999994
1
1
1
1
1
1
1
1
1
1
1
1
5.11475e-07
0.00104386
0.156262
0.777517
0.991503
0.99997
0.999998
0.999999
1
1
1
1
1
1
1
1
1
1
1
3.26607e-05
0.037339
0.582933
0.971295
0.999858
0.999997
0.999998
0.999999
1
1
1
1
1
1
1
1
1
1
1
0.00183736
0.311957
0.904992
0.998827
0.999997
0.999997
0.999998
0.999999
1
1
1
1
1
1
1
1
1
1
1
0.0575825
0.725816
0.991042
0.999987
0.999997
0.999997
0.999998
0.999999
1
1
1
1
1
1
1
1
1
1
1
0.327891
0.934694
0.999601
0.999997
0.999997
0.999997
0.999998
1
1
1
1
1
1
1
1
1
1
1
1
0.657708
0.990694
0.999994
0.999997
0.999997
0.999998
0.999999
1
1
1
1
1
1
1
1
1
1
1
1
0.893592
0.999596
0.999999
0.999998
0.999998
0.999998
1
1
1
1
1
1
1
1
1
1
1
1
1
0.984098
0.999999
0.999999
0.999998
0.999998
0.999999
1
1
1
1
1
1
1
1
1
1
1
1
1
0.999045
1
0.999999
0.999999
0.999999
1
1
1
1
0.999999
0.999999
0.999999
1
1
1
1
1
1
1
0.999995
1
0.999999
0.999999
1
1
1
1
0.999999
0.999999
0.999999
0.999999
1
1
1
1
1
1
1
1
1
1
1
1
1
1
0.999999
0.999998
0.999998
0.999998
0.999999
0.999999
1
1
1
1
1
1
1
1
1
1
1
0.999999
0.999999
0.999998
0.999997
0.999997
0.999998
0.999998
0.999999
0.999999
0.999999
0.999999
1
1
1
1
1
1
1
1
0.999999
0.999998
0.999997
0.999997
0.999997
0.999997
0.999998
0.999998
0.999999
0.999999
0.999999
0.999999
1
0.999999
1
1
1
1
1
1
0.999999
0.999998
0.999998
0.999998
0.999998
0.999998
0.999999
0.999999
0.999999
0.999999
0.999999
0.999998
1
)
;

boundaryField
{
    leftWall
    {
        type            alphaContactAngle;
        thetaProperties 
6
(

(
water
mercury
)
 90 0 0 0

(
water
air
)
 90 0 0 0

(
water
oil
)
 90 0 0 0

(
mercury
air
)
 90 0 0 0

(
oil
mercury
)
 90 0 0 0

(
oil
air
)
 90 0 0 0
);
        value           nonuniform 0();
    }
    rightWall
    {
        type            alphaContactAngle;
        thetaProperties 
6
(

(
water
mercury
)
 90 0 0 0

(
water
air
)
 90 0 0 0

(
water
oil
)
 90 0 0 0

(
mercury
air
)
 90 0 0 0

(
oil
mercury
)
 90 0 0 0

(
oil
air
)
 90 0 0 0
);
        value           nonuniform List<scalar> 
25
(
1
1.00001
1
1.00001
1
1.00001
1.00001
1.00001
1
1
1
1
1
1
1
1
1
1
1
1
1
1
1
0.999999
1
)
;
    }
    lowerWall
    {
        type            alphaContactAngle;
        thetaProperties 
6
(

(
water
mercury
)
 90 0 0 0

(
water
air
)
 90 0 0 0

(
water
oil
)
 90 0 0 0

(
mercury
air
)
 90 0 0 0

(
oil
mercury
)
 90 0 0 0

(
oil
air
)
 90 0 0 0
);
        value           nonuniform List<scalar> 
40
(
1.59114e-34
1.59114e-34
2.22899e-33
1.54889e-32
6.79796e-32
2.40111e-31
6.9716e-31
1.98983e-30
5.331e-30
3.07262e-17
8.73205e-16
8.35816e-15
9.67364e-15
1.00001
1.00001
1.00001
1.00002
0.999977
0.999977
0.99997
0.325375
1.00001
1.00001
1.00002
1.00002
1.00001
1.00001
1.00001
1.00001
1.00001
1.00001
1.00001
1.00001
1.00001
1.00001
1.00001
1.00001
1
1
1
)
;
    }
    atmosphere
    {
        type            inletOutlet;
        inletValue      nonuniform 0();
        value           nonuniform 0();
    }
    defaultFaces
    {
        type            empty;
    }
    procBoundary1to0
    {
        type            processor;
        value           nonuniform List<scalar> 
26
(
6.30536e-33
9.14968e-32
6.22758e-31
2.64284e-30
8.10493e-30
1.96589e-29
4.38181e-29
8.89148e-29
1.32605e-28
2.30203e-28
1.73213e-18
7.89514e-15
2.17445e-13
2.61736e-12
2.85316e-11
1.77562e-10
1.61457e-09
1.61457e-09
6.48716e-09
2.8384e-08
6.23466e-08
1.49851e-06
0.00101288
0.070511
0.582924
0.971946
)
;
    }
    procBoundary1to3
    {
        type            processor;
        value           nonuniform List<scalar> 
23
(
0.99996
1
1
1
1
1
1
1
1
1
1
0.999999
0.999998
0.999998
0.999999
0.999999
0.999999
0.999999
0.999999
0.999999
0.999999
0.999999
0.999998
)
;
    }
}


// ************************************************************************* //
