/*--------------------------------*- C++ -*----------------------------------*\
| =========                 |                                                 |
| \\      /  F ield         | OpenFOAM: The Open Source CFD Toolbox           |
|  \\    /   O peration     | Version:  2.4.0                                 |
|   \\  /    A nd           | Web:      www.OpenFOAM.org                      |
|    \\/     M anipulation  |                                                 |
\*---------------------------------------------------------------------------*/
FoamFile
{
    version     2.0;
    format      ascii;
    class       volScalarField;
    location    "0.1";
    object      p;
}
// * * * * * * * * * * * * * * * * * * * * * * * * * * * * * * * * * * * * * //

dimensions      [1 -1 -2 0 0 0 0];

internalField   nonuniform List<scalar> 
559
(
1483.55
1434.59
1371.43
1299.03
1216.66
1120.2
1002.02
852.515
8.53647
8.6071
8.75186
8.83839
8.82306
8.89629
8.95856
8.89532
8.67408
8.43359
8.22324
8.04584
7.9035
7.79369
7.70964
7.64669
7.60177
7.57284
7.55868
8.45964
8.53478
8.69955
8.79407
8.75442
8.81845
8.90356
8.85477
8.6233
8.36674
8.15472
7.97788
7.83712
7.72875
7.64576
7.58354
7.5391
7.51047
7.49645
8.36467
8.44487
8.65431
8.76628
8.67633
8.71498
8.84752
8.8294
8.56507
8.28589
8.07006
7.89905
7.76289
7.65764
7.57679
7.51602
7.47254
7.4445
7.43075
8.24312
8.33085
8.61732
8.76046
8.60225
8.57812
8.77266
8.79762
8.47867
8.17767
7.97111
7.80947
7.68086
7.58044
7.5028
7.4442
7.40214
7.37496
7.36162
8.11239
8.20166
8.57471
8.78968
8.55348
8.39775
8.69957
8.57865
8.30671
8.04868
7.85924
7.71062
7.59162
7.49746
7.424
7.36821
7.32801
7.30195
7.28915
7.82787
7.99946
8.43195
8.54484
8.02336
7.94856
8.30573
8.12677
8.09275
7.89685
7.73504
7.60349
7.49582
7.40913
7.34068
7.28829
7.25032
7.22563
7.21348
8.09973
7.72521
8.62216
8.00051
6.56434
7.18221
7.54942
7.80764
7.84933
7.72727
7.60095
7.48914
7.39417
7.3159
7.25316
7.20464
7.16924
7.14613
7.13472
6.09139
8.83408
11.3805
10.266
7.35559
6.05783
7.25364
7.55383
7.61371
7.55197
7.46028
7.36903
7.28753
7.21835
7.16182
7.11757
7.08501
7.06364
7.05306
520.302
626.384
594.831
534.988
480.931
423.323
363.907
306.248
-92.5648
-141.645
-45.9295
9.74066
485.371
398.931
326.957
260.138
493.398
414.819
336.962
271.089
464.561
413.192
356.858
300.483
420.855
378.806
331.185
277.643
366.448
327.161
280.044
231.887
307.258
265.733
216.069
162.629
249.403
206.961
160.3
115.258
195.375
153.073
104.685
48.9519
150.752
115.522
78.7995
23.2298
107.489
71.6299
23.6907
7.73649
71.4215
36.5265
6.07965
2.4885
39.5539
7.69341
2.72937
2.62402
8.29463
2.76477
2.41192
2.56154
3.0935
2.15533
2.3596
2.42784
2.04133
2.18656
2.26259
2.35937
1.85265
2.02941
2.18966
2.31891
21.893
24.7135
27.9562
19.2238
5.01264
5.93025
6.88132
7.17259
7.26604
7.2788
7.23453
7.17463
7.11451
7.06005
7.01376
6.97659
6.94879
6.93036
6.92119
156.508
89.7272
59.6119
11.188
5.77446
6.08673
6.5294
6.74482
6.86832
6.92477
6.92437
6.9001
6.86672
6.83193
6.79993
6.77296
6.75215
6.73808
6.731
185.921
119.048
64.8402
5.85072
5.90674
5.90941
6.23618
6.40009
6.52587
6.59575
6.62234
6.62462
6.61346
6.59626
6.57769
6.56062
6.54676
6.53709
6.53215
214.379
136.934
19.1533
5.51621
5.43566
5.66962
5.91443
6.07922
6.20892
6.28718
6.332
6.35347
6.35983
6.35741
6.35069
6.34265
6.33528
6.32979
6.3269
191.738
75.1832
8.51385
5.22224
5.26422
5.45577
5.63273
5.79146
5.91223
5.99743
6.05422
6.08935
6.1091
6.11864
6.12189
6.12171
6.12011
6.11841
6.11737
167.265
20.2733
4.92446
4.79123
5.05909
5.21599
5.37465
5.52067
5.63615
5.72455
5.78885
5.83358
5.86335
5.88225
5.89361
5.90002
5.90336
5.90493
5.90554
58.52
8.07986
4.30198
4.61363
4.80776
4.96963
5.12666
5.26305
5.37613
5.46619
5.53532
5.58671
5.62381
5.64986
5.66763
5.67937
5.68679
5.69111
5.69309
13.7486
3.94585
4.03898
4.3547
4.55235
4.73001
4.88514
5.01825
5.12985
5.22078
5.29296
5.34888
5.39122
5.42257
5.44525
5.46117
5.47185
5.47839
5.4815
7.35694
3.53513
3.93508
4.12516
4.32496
4.50222
4.65511
4.7859
4.8962
4.98728
5.0612
5.12004
5.16595
5.20109
5.22739
5.24647
5.25966
5.26793
5.27192
3.30094
3.34903
3.66752
3.90363
4.11118
4.28715
4.43814
4.56597
4.67472
4.76498
4.83959
4.90005
4.9482
4.98587
5.01469
5.03605
5.05107
5.06063
5.06528
2.49662
3.31108
3.45982
3.71694
3.91446
4.08684
4.23367
4.35892
4.46558
4.5532
4.62774
4.68876
4.73799
4.77713
4.80756
4.83043
4.84669
4.85715
4.86227
2.75385
3.08066
3.31664
3.54849
3.73716
3.90199
4.04282
4.16347
4.26624
4.35269
4.42555
4.4861
4.53523
4.57494
4.60622
4.62998
4.64691
4.65793
4.66338
2.70025
2.9585
3.18943
3.39997
3.57717
3.73182
3.86497
3.97966
4.07788
4.16138
4.23199
4.29108
4.33977
4.37932
4.41075
4.43497
4.45191
4.46325
4.46893
2.64783
2.88252
3.08186
3.26951
3.43216
3.57497
3.69907
3.80666
3.89945
3.97896
4.04662
4.10365
4.15108
4.18989
4.2209
4.24483
4.26209
4.2734
4.27894
2.58795
2.80492
2.98423
3.15249
3.29951
3.42962
3.54368
3.64334
3.72995
3.80474
3.86885
3.92326
3.96885
4.00639
4.03658
4.05998
4.07705
4.08821
4.09371
2.52916
2.72894
2.89566
3.04506
3.17675
3.29377
3.39726
3.48845
3.56837
3.63793
3.698
3.74934
3.79265
3.82854
3.85755
3.88016
3.89675
3.90764
3.91306
2.48411
2.66437
2.81489
2.94542
3.06165
3.16549
3.25823
3.3407
3.41363
3.47764
3.53335
3.58129
3.62199
3.65592
3.6835
3.70509
3.721
3.73147
3.73667
)
;

boundaryField
{
    leftWall
    {
        type            fixedFluxPressure;
        gradient        nonuniform 0();
        value           nonuniform 0();
    }
    rightWall
    {
        type            fixedFluxPressure;
        gradient        uniform 0;
        value           nonuniform List<scalar> 
25
(
7.55868
7.49645
7.43075
7.36162
7.28915
7.21348
7.13472
7.05306
6.92119
6.731
6.53215
6.3269
6.11737
5.90554
5.69309
5.4815
5.27192
5.06528
4.86227
4.66338
4.46893
4.27894
4.09371
3.91306
3.73667
)
;
    }
    lowerWall
    {
        type            fixedFluxPressure;
        gradient        nonuniform List<scalar> 
40
(
4905
0
0
0
0
0
0
0
0
4905
4905
4905
4905
0
0
0
0
0
0
0
0
9.81
9.81
9.81
9.81
9.81
9.81
9.81
9.81
9.81
9.81
9.81
9.81
9.81
9.81
9.81
9.81
9.81
9.81
9.81
)
;
        value           nonuniform List<scalar> 
40
(
1498.26
1483.55
1434.59
1371.43
1299.03
1216.66
1120.2
1002.02
852.515
-61.2661
-110.346
-14.6309
41.0393
8.53647
8.45964
8.36467
8.24312
8.11239
7.82787
8.09973
6.09139
8.5659
8.63653
8.78129
8.86782
8.85249
8.92572
8.98799
8.92475
8.70351
8.46302
8.25267
8.07527
7.93293
7.82312
7.73907
7.67612
7.6312
7.60227
7.58811
)
;
    }
    atmosphere
    {
        type            totalPressure;
        U               U.air;
        phi             phi.air;
        rho             rho;
        psi             none;
        gamma           1;
        p0              nonuniform 0();
        value           nonuniform 0();
    }
    defaultFaces
    {
        type            empty;
    }
    procBoundary1to0
    {
        type            processor;
        value           nonuniform List<scalar> 
26
(
1498.82
1435.83
1364.62
1292.22
1216.07
1137.37
1056.58
974.611
841.987
745.247
685.562
617.686
554.737
492.479
430.726
371.031
252.015
252.015
202.457
156.504
116.906
83.6019
49.3828
11.495
3.53045
1.59896
)
;
    }
    procBoundary1to3
    {
        type            processor;
        value           nonuniform List<scalar> 
23
(
2.05773
2.15622
2.26437
2.34799
2.46631
2.61517
2.74104
2.85172
2.95226
3.043
3.12506
3.19881
3.26466
3.32298
3.37413
3.41848
3.45636
3.48813
3.51407
3.53447
3.54956
3.55951
3.56447
)
;
    }
}


// ************************************************************************* //
