/*--------------------------------*- C++ -*----------------------------------*\
| =========                 |                                                 |
| \\      /  F ield         | OpenFOAM: The Open Source CFD Toolbox           |
|  \\    /   O peration     | Version:  2.4.0                                 |
|   \\  /    A nd           | Web:      www.OpenFOAM.org                      |
|    \\/     M anipulation  |                                                 |
\*---------------------------------------------------------------------------*/
FoamFile
{
    version     2.0;
    format      ascii;
    class       surfaceScalarField;
    location    "0.1";
    object      phi;
}
// * * * * * * * * * * * * * * * * * * * * * * * * * * * * * * * * * * * * * //

dimensions      [0 3 -1 0 0 0 0];

internalField   nonuniform List<scalar> 
1061
(
2.34984e-05
4.4824e-05
6.53238e-05
8.57006e-05
0.000108434
0.00013478
0.000168338
0.000212302
-1.08435e-05
1.08433e-05
-1.44685e-05
3.62462e-06
-1.09026e-05
-3.56636e-06
-4.52525e-06
-6.37747e-06
4.68186e-06
-9.20613e-06
2.24423e-05
-1.77597e-05
4.20309e-05
-1.95891e-05
5.29179e-05
-1.08877e-05
5.35371e-05
-6.19373e-07
4.93455e-05
4.19157e-06
4.2689e-05
6.65655e-06
3.57358e-05
6.95317e-06
2.93472e-05
6.38865e-06
2.35654e-05
5.78174e-06
1.8288e-05
5.27735e-06
1.33955e-05
4.89249e-06
8.77789e-06
4.61764e-06
4.33811e-06
4.43977e-06
4.33807e-06
-1.21576e-05
2.30006e-05
-1.59523e-05
7.41913e-06
-1.13319e-05
-8.18708e-06
-4.36017e-06
-1.33498e-05
4.95104e-06
-1.85172e-05
2.35705e-05
-3.63791e-05
4.52204e-05
-4.12388e-05
5.66225e-05
-2.22895e-05
5.68366e-05
-8.33242e-07
5.17582e-05
9.27019e-06
4.42758e-05
1.41392e-05
3.69358e-05
1.42933e-05
3.03147e-05
1.30099e-05
2.43472e-05
1.17493e-05
1.89008e-05
1.07238e-05
1.38482e-05
9.94518e-06
9.07598e-06
9.38995e-06
4.48111e-06
9.03474e-06
8.81933e-06
-1.45297e-05
3.75302e-05
-1.89652e-05
1.18545e-05
-1.18747e-05
-1.52776e-05
-3.12512e-06
-2.20991e-05
7.4839e-06
-2.91258e-05
2.73531e-05
-5.62481e-05
5.23485e-05
-6.62347e-05
6.50052e-05
-3.49468e-05
6.25519e-05
1.61976e-06
5.34809e-05
1.8341e-05
4.44804e-05
2.31397e-05
3.68167e-05
2.19569e-05
3.01582e-05
1.96684e-05
2.42135e-05
1.7694e-05
1.87982e-05
1.61391e-05
1.37749e-05
1.49685e-05
9.0288e-06
1.4136e-05
4.45864e-06
1.36049e-05
1.32779e-05
-1.89203e-05
5.64504e-05
-2.17875e-05
1.47217e-05
-7.20123e-06
-2.98637e-05
1.01818e-05
-3.94817e-05
2.68952e-05
-4.58383e-05
5.10542e-05
-8.04074e-05
7.86136e-05
-9.37944e-05
8.16935e-05
-3.8027e-05
6.70218e-05
1.62912e-05
5.36295e-05
3.17332e-05
4.40168e-05
3.27524e-05
3.63976e-05
2.95761e-05
2.98113e-05
2.62548e-05
2.39384e-05
2.35669e-05
1.85903e-05
2.14873e-05
1.36267e-05
1.99322e-05
8.93383e-06
1.8829e-05
4.41275e-06
1.81261e-05
1.76908e-05
-2.11104e-05
7.75605e-05
-1.11446e-05
4.75589e-06
2.43802e-05
-6.5388e-05
5.98047e-05
-7.49058e-05
9.06984e-05
-7.67324e-05
0.000119953
-0.000109662
0.000125166
-9.90081e-05
9.31693e-05
-6.03128e-06
6.73971e-05
4.20631e-05
5.2738e-05
4.63922e-05
4.32785e-05
4.22118e-05
3.57969e-05
3.70577e-05
2.93309e-05
3.27208e-05
2.35653e-05
2.93324e-05
1.83106e-05
2.67419e-05
1.3428e-05
2.48148e-05
8.80664e-06
2.34503e-05
4.35095e-06
2.25817e-05
2.20416e-05
1.29434e-06
7.62663e-05
5.15404e-05
-4.54901e-05
8.51648e-05
-9.90121e-05
0.000109325
-9.90647e-05
0.000137247
-0.000104654
0.000153141
-0.000125557
0.000134986
-8.08548e-05
8.88367e-05
4.01162e-05
6.4508e-05
6.63912e-05
5.12541e-05
5.96457e-05
4.22859e-05
5.11799e-05
3.50203e-05
4.43233e-05
2.87242e-05
3.90169e-05
2.31001e-05
3.49565e-05
1.79639e-05
3.18781e-05
1.31823e-05
2.95964e-05
8.64944e-06
2.79832e-05
4.27448e-06
2.69567e-05
2.63162e-05
4.16693e-05
3.45968e-05
7.98549e-05
-8.36759e-05
8.66467e-05
-0.000105804
0.000101459
-0.000113878
0.000126383
-0.000129577
0.000153313
-0.000152484
0.000112788
-4.03318e-05
7.85461e-05
7.43561e-05
6.05929e-05
8.43438e-05
4.94098e-05
7.08284e-05
4.10354e-05
5.95542e-05
3.40718e-05
5.12868e-05
2.7997e-05
4.50917e-05
2.25473e-05
4.04063e-05
1.75534e-05
3.6872e-05
1.28919e-05
3.4258e-05
8.46376e-06
3.24114e-05
4.18402e-06
3.12365e-05
3.05002e-05
9.13288e-05
-5.67318e-05
9.24528e-05
-8.47998e-05
9.55146e-05
-0.000108866
0.000104108
-0.000122471
0.000116485
-0.000141953
0.00013076
-0.000166758
9.40831e-05
-3.65515e-06
7.0088e-05
9.83504e-05
5.66239e-05
9.78075e-05
4.72269e-05
8.02253e-05
3.95421e-05
6.72389e-05
3.29662e-05
5.78626e-05
2.71605e-05
5.08975e-05
2.19153e-05
4.56515e-05
1.70855e-05
4.17017e-05
1.2561e-05
3.87825e-05
8.25237e-06
3.67201e-05
4.08119e-06
3.54077e-05
3.45815e-05
0.000106342
0.000286374
5.04514e-05
0.000240295
3.60044e-06
0.000216714
-2.57299e-05
0.000197562
-4.88703e-05
0.000183948
-6.85856e-05
0.000171952
-8.56703e-05
0.000159138
0.000145439
0.000249997
3.63765e-05
0.000230296
1.97009e-05
0.000225214
5.08262e-06
-3.65038e-06
0.000228864
0.000255874
2.0798e-05
0.000269613
5.96107e-06
0.000280957
-6.26121e-06
-1.28243e-05
0.000290131
0.000238485
-9.7321e-07
0.000252689
-8.24252e-06
0.000260728
-1.43004e-05
-1.90488e-05
0.000266952
0.000211994
-1.54056e-05
0.000223523
-1.97707e-05
0.000231521
-2.22985e-05
-2.79347e-05
0.000240407
0.000195597
-2.70549e-05
0.000205133
-2.93064e-05
0.000214845
-3.20101e-05
-3.79348e-05
0.000224845
0.00018133
-3.64331e-05
0.000190752
-3.87278e-05
0.000201825
-4.3083e-05
-4.7585e-05
0.000211475
0.000167431
-4.47262e-05
0.000177269
-4.85653e-05
0.00018744
-5.32544e-05
-5.55879e-05
0.000195443
0.000153412
-5.26988e-05
0.000161709
-5.68622e-05
0.000169097
-6.06424e-05
-6.17106e-05
0.000175219
0.000137462
-5.93852e-05
0.000143451
-6.2851e-05
0.000148394
-6.55854e-05
-6.98163e-05
0.000156499
0.000120104
-6.41082e-05
0.000124481
-6.72278e-05
0.00012782
-6.89239e-05
-7.46435e-05
0.000132646
0.000104181
-6.83439e-05
0.000107244
-7.02903e-05
0.000114289
-7.59697e-05
-7.03133e-05
0.000109958
8.69213e-05
-7.18947e-05
9.18257e-05
-7.51946e-05
0.000103378
-8.75226e-05
-1.82888e-05
5.13531e-05
6.7215e-05
-7.40209e-05
7.24023e-05
-8.03819e-05
2.20527e-05
-3.71737e-05
4.25112e-05
-3.87477e-05
4.69984e-05
-7.60767e-05
2.86479e-05
-6.20317e-05
-3.79765e-05
2.94504e-05
6.82011e-05
-6.36667e-05
2.93212e-05
-7.16067e-05
-4.42488e-05
1.15384e-05
-8.0915e-05
6.61163e-05
7.14392e-05
-8.41531e-05
-5.01689e-05
7.40696e-06
-0.000103298
6.46668e-05
-0.000105165
6.79834e-05
6.69135e-05
-0.000100639
-0.000133903
-0.0001282
-0.000121126
-0.000112289
0.000233297
-6.11645e-05
0.000246623
-9.81264e-05
0.000249228
-0.00011147
0.000250471
-0.000123716
0.000258107
-0.000149589
0.000224954
-0.000133605
0.000154323
6.69749e-05
0.00012627
0.000126402
0.000108397
0.000115681
9.26262e-05
9.59961e-05
7.85493e-05
8.13157e-05
6.59938e-05
7.04181e-05
5.46523e-05
6.22389e-05
4.42602e-05
5.60436e-05
3.45985e-05
5.13634e-05
2.54854e-05
4.78956e-05
1.67649e-05
4.54406e-05
8.29667e-06
4.38759e-05
4.28781e-05
0.000294366
-6.53995e-05
0.000286757
-9.05173e-05
0.000276833
-0.000101546
0.000274913
-0.000121796
0.000265105
-0.00013978
0.000161892
-3.03911e-05
0.00011331
0.000115556
0.000100338
0.000139375
9.09174e-05
0.000125101
8.03068e-05
0.000106607
6.9595e-05
9.20274e-05
5.93073e-05
8.07057e-05
4.95937e-05
7.19525e-05
4.04395e-05
6.51978e-05
3.1767e-05
6.00358e-05
2.34805e-05
5.61821e-05
1.54811e-05
5.34399e-05
7.67045e-06
5.16865e-05
5.05486e-05
0.000276314
-7.47611e-05
0.000273529
-8.77319e-05
0.00027419
-0.000102208
0.000307774
-0.00015538
0.000239259
-7.12652e-05
0.00012437
8.44979e-05
8.93377e-05
0.000150588
8.07094e-05
0.000148003
7.53523e-05
0.000130458
6.82389e-05
0.00011372
6.03015e-05
9.99648e-05
5.21395e-05
8.88677e-05
4.40711e-05
8.00209e-05
3.62219e-05
7.3047e-05
2.86189e-05
6.76387e-05
2.12408e-05
6.35602e-05
1.40425e-05
6.06381e-05
6.96762e-06
5.87614e-05
5.75161e-05
0.000250769
-8.51238e-05
0.000254618
-9.15807e-05
0.000281105
-0.000128695
0.000250839
-0.000125114
0.000140867
3.87068e-05
7.92231e-05
0.000146141
6.68934e-05
0.000162918
6.45625e-05
0.000150333
6.16797e-05
0.00013334
5.69769e-05
0.000118423
5.12074e-05
0.000105734
4.48949e-05
9.51802e-05
3.83657e-05
8.65501e-05
3.17998e-05
7.96128e-05
2.52849e-05
7.41536e-05
1.88526e-05
6.99925e-05
1.25019e-05
6.69888e-05
6.21309e-06
6.50502e-05
6.37292e-05
0.000238843
-9.91217e-05
0.00026242
-0.000115158
0.000292417
-0.000158694
0.000163283
4.02313e-06
7.23239e-05
0.000129666
5.06144e-05
0.000167851
4.97331e-05
0.000163799
5.07415e-05
0.000149325
4.95093e-05
0.000134572
4.66001e-05
0.000121332
4.25651e-05
0.000109769
3.78299e-05
9.99153e-05
3.26891e-05
9.16908e-05
2.73344e-05
8.49675e-05
2.1882e-05
7.96059e-05
1.63968e-05
7.54777e-05
1.09098e-05
7.24757e-05
5.43131e-06
7.05287e-05
6.91605e-05
0.000227446
-0.000115093
0.000267442
-0.000155154
0.000178983
-7.0235e-05
7.88625e-05
0.000104145
3.89267e-05
0.000169602
3.43899e-05
0.000172388
3.70664e-05
0.000161122
3.88382e-05
0.000147553
3.87184e-05
0.000134692
3.71475e-05
0.000122903
3.45012e-05
0.000112416
3.10984e-05
0.000103318
2.71869e-05
9.56023e-05
2.29473e-05
8.92071e-05
1.85046e-05
8.40486e-05
1.39413e-05
8.00409e-05
9.3101e-06
7.7107e-05
4.64361e-06
7.51951e-05
7.38041e-05
0.00022412
-0.000143771
0.000216662
-0.000147697
9.07441e-05
5.56848e-05
2.98384e-05
0.000165051
2.05131e-05
0.000178927
2.2902e-05
0.000169999
2.63785e-05
0.000157646
2.84412e-05
0.00014549
2.912e-05
0.000134013
2.85826e-05
0.00012344
2.7061e-05
0.000113937
2.47847e-05
0.000105594
2.19529e-05
9.84341e-05
1.87255e-05
9.24344e-05
1.52247e-05
8.75494e-05
1.15406e-05
8.3725e-05
7.73875e-06
8.09088e-05
3.86792e-06
7.90659e-05
7.7672e-05
0.000203619
-0.000172171
0.000106961
-5.10395e-05
2.38441e-05
0.000138802
6.54828e-06
0.000182347
8.52682e-06
0.000176949
1.29924e-05
0.000165534
1.66502e-05
0.000153988
1.91556e-05
0.000142985
2.05154e-05
0.000132654
2.08265e-05
0.000123129
2.02411e-05
0.000114522
1.89267e-05
0.000106909
1.70425e-05
0.000100318
1.4727e-05
9.47499e-05
1.20941e-05
9.01822e-05
9.2355e-06
8.65836e-05
6.22374e-06
8.39206e-05
3.11829e-06
8.21713e-05
8.07903e-05
0.000155043
-0.000170715
4.08067e-05
6.31972e-05
-6.59429e-06
0.000186204
-6.45316e-06
0.000182206
-1.36798e-06
0.000171864
3.73297e-06
0.000160433
7.76963e-06
0.000149952
1.07729e-05
0.000139982
1.27595e-05
0.000130667
1.38018e-05
0.000122086
1.40179e-05
0.000114306
1.35352e-05
0.000107391
1.2485e-05
0.000101368
1.09875e-05
9.62474e-05
9.14773e-06
9.2022e-05
7.05509e-06
8.86763e-05
4.78555e-06
8.61901e-05
2.40529e-06
8.45516e-05
8.31955e-05
5.26687e-05
-9.07381e-05
-2.70168e-05
0.000142883
-2.39646e-05
0.000183152
-1.75159e-05
0.000175758
-1.05136e-05
0.000164862
-4.98479e-06
0.000154904
-3.62527e-07
0.000145329
3.18467e-06
0.000136435
5.76142e-06
0.00012809
7.44697e-06
0.000120401
8.36403e-06
0.000113389
8.60659e-06
0.000107149
8.29268e-06
0.000101682
7.52739e-06
9.70127e-05
6.40756e-06
9.31418e-05
5.01884e-06
9.0065e-05
3.43829e-06
8.77706e-05
1.7362e-06
8.62536e-05
8.49317e-05
-5.40808e-08
1.92747e-05
-4.20349e-05
0.000184864
-3.36968e-05
0.000174814
-2.56042e-05
0.000167666
-1.8536e-05
0.000157794
-1.25815e-05
0.00014895
-7.70042e-06
0.000140449
-3.70091e-06
0.000132435
-5.96985e-07
0.000124986
1.70128e-06
0.000118102
3.2522e-06
0.000111838
4.12882e-06
0.000106272
4.46701e-06
0.000101344
4.35541e-06
9.71242e-05
3.88619e-06
9.3611e-05
3.13863e-06
9.08125e-05
2.19094e-06
8.87183e-05
1.11592e-06
8.73286e-05
8.60476e-05
-5.71251e-05
0.000127753
-5.05783e-05
0.000178317
-4.14285e-05
0.000165665
-3.29353e-05
0.000159173
-2.56674e-05
0.000150527
-1.94055e-05
0.000142688
-1.41287e-05
0.000135172
-9.766e-06
0.000128072
-6.23664e-06
0.000121457
-3.47302e-06
0.000115339
-1.43049e-06
0.000109795
6.37251e-08
0.000104778
9.96511e-07
0.000100411
1.47005e-06
9.66506e-05
1.58885e-06
9.34922e-05
1.41996e-06
9.09814e-05
1.04754e-06
8.90907e-05
5.44501e-07
8.78316e-05
8.65921e-05
-6.6745e-05
0.00015575
-5.63313e-05
0.000167904
-4.79547e-05
0.000157288
-3.94124e-05
0.000150631
-3.19908e-05
0.000143106
-2.54697e-05
0.000136167
-1.98479e-05
0.00012955
-1.50983e-05
0.000123323
-1.11573e-05
0.000117516
-7.97641e-06
0.000112158
-5.45846e-06
0.000107277
-3.56081e-06
0.00010288
-2.14639e-06
9.89967e-05
-1.15365e-06
9.56579e-05
-5.26454e-07
9.2865e-05
-1.58377e-07
9.06133e-05
2.77762e-09
8.89295e-05
2.31253e-08
8.78112e-05
8.66152e-05
-7.13951e-05
0.000163478
-6.21873e-05
0.000158696
-5.38034e-05
0.000148905
-4.52495e-05
0.000142077
-3.75971e-05
0.000135453
-3.079e-05
0.000129361
-2.48579e-05
0.000123618
-1.9773e-05
0.000118238
-1.54883e-05
0.000113231
-1.19314e-05
0.000108601
-9.02156e-06
0.000104368
-6.68609e-06
0.000100545
-4.85504e-06
9.71657e-05
-3.42363e-06
9.42265e-05
-2.34157e-06
9.17829e-05
-1.52932e-06
8.9801e-05
-9.16051e-07
8.83162e-05
-4.37896e-07
8.7333e-05
8.61773e-05
-7.75421e-05
0.000156867
-6.86981e-05
0.000149852
-5.92622e-05
0.000139469
-5.04793e-05
0.000133295
-4.24839e-05
0.000127458
-3.53827e-05
0.00012226
-2.91784e-05
0.000117414
-2.38251e-05
0.000112885
-1.92444e-05
0.000108651
-1.53701e-05
0.000104727
-1.21244e-05
0.000101122
-9.43791e-06
9.78581e-05
-7.2243e-06
9.49521e-05
-5.42779e-06
9.243e-05
-3.94856e-06
9.03037e-05
-2.74017e-06
8.85927e-05
-1.72543e-06
8.73015e-05
-8.24741e-07
8.64324e-05
8.53525e-05
-8.77477e-05
0.000143976
-7.50859e-05
0.00013719
-6.45652e-05
0.000128948
-5.50479e-05
0.000123777
-4.66545e-05
0.000119065
-3.92745e-05
0.00011488
-3.28335e-05
0.000110973
-2.72463e-05
0.000107298
-2.24306e-05
0.000103835
-1.8303e-05
0.000100599
-1.47839e-05
9.76028e-05
-1.17985e-05
9.48728e-05
-9.27813e-06
9.24317e-05
-7.1484e-06
9.03003e-05
-5.34162e-06
8.84969e-05
-3.78871e-06
8.70398e-05
-2.42391e-06
8.59367e-05
-1.19229e-06
8.52007e-05
8.41603e-05
-9.63663e-05
-8.08151e-05
-6.89566e-05
-5.87998e-05
-5.00425e-05
-4.24335e-05
-3.58078e-05
-3.0046e-05
-2.50481e-05
-2.07244e-05
-1.69943e-05
-1.37812e-05
-1.10114e-05
-8.61689e-06
-6.53074e-06
-4.6867e-06
-3.02363e-06
-1.47133e-06
)
;

boundaryField
{
    leftWall
    {
        type            calculated;
        value           nonuniform 0();
    }
    rightWall
    {
        type            calculated;
        value           uniform 0;
    }
    lowerWall
    {
        type            calculated;
        value           nonuniform List<scalar> 
40
(
-2.76407e-23
0
0
0
0
0
0
0
0
5.02259e-26
3.49824e-23
-1.25339e-22
-5.33178e-23
0
0
0
0
0
0
0
0
-3.12681e-23
1.03548e-22
-4.03901e-22
-3.57367e-22
5.00788e-22
1.32071e-22
8.89012e-23
7.16552e-23
5.29211e-23
-1.00783e-22
-5.3387e-23
-7.64161e-23
3.92285e-25
4.00234e-28
2.24288e-31
6.57169e-35
9.12983e-39
4.88941e-43
5.81589e-48
)
;
    }
    atmosphere
    {
        type            calculated;
        value           nonuniform 0();
    }
    defaultFaces
    {
        type            empty;
        value           nonuniform 0();
    }
    procBoundary1to0
    {
        type            processor;
        value           nonuniform List<scalar> 
26
(
-2.34983e-05
-2.13254e-05
-2.04999e-05
-2.03768e-05
-2.27334e-05
-2.63457e-05
-3.35587e-05
-4.39638e-05
-0.000180414
-0.000184405
-0.000169863
-0.000168232
-0.000160808
-0.000152237
-0.000142054
-0.000130323
-0.000100787
-0.000130776
-0.000115381
-9.99456e-05
-8.33705e-05
-6.50887e-05
-4.49426e-05
-3.37913e-05
-2.88445e-05
9.20482e-05
)
;
    }
    procBoundary1to3
    {
        type            processor;
        value           nonuniform List<scalar> 
23
(
4.92611e-05
5.89639e-05
6.09095e-05
5.80765e-05
0.000128053
0.000121639
0.00011709
0.000113621
0.000110308
0.000107271
0.000104348
0.000101536
9.88374e-05
9.62753e-05
9.38727e-05
9.16596e-05
8.9662e-05
8.79057e-05
8.64108e-05
8.51957e-05
8.42736e-05
8.36485e-05
8.26889e-05
)
;
    }
}


// ************************************************************************* //
