/*--------------------------------*- C++ -*----------------------------------*\
| =========                 |                                                 |
| \\      /  F ield         | OpenFOAM: The Open Source CFD Toolbox           |
|  \\    /   O peration     | Version:  2.4.0                                 |
|   \\  /    A nd           | Web:      www.OpenFOAM.org                      |
|    \\/     M anipulation  |                                                 |
\*---------------------------------------------------------------------------*/
FoamFile
{
    version     2.0;
    format      ascii;
    class       surfaceScalarField;
    location    "0.1";
    object      phi.mercury;
}
// * * * * * * * * * * * * * * * * * * * * * * * * * * * * * * * * * * * * * //

dimensions      [0 3 -1 0 0 0 0];

internalField   nonuniform List<scalar> 
1061
(
8.97297e-06
4.35553e-05
6.50002e-05
8.55817e-05
0.000108331
0.000134724
0.000168273
0.000212233
-1.08374e-05
1.08428e-05
-1.44571e-05
3.62947e-06
-1.0892e-05
-3.552e-06
-4.52644e-06
-6.35857e-06
4.6608e-06
-9.18889e-06
2.24183e-05
-1.7762e-05
4.20292e-05
-1.96446e-05
5.29375e-05
-1.11293e-05
5.35625e-05
-6.31769e-07
4.93696e-05
1.35694e-06
4.27061e-05
6.2805e-06
3.57484e-05
6.95209e-06
2.93564e-05
6.38723e-06
2.35721e-05
5.7803e-06
1.82927e-05
5.27594e-06
1.33986e-05
4.89108e-06
8.77961e-06
4.6162e-06
4.33867e-06
4.43829e-06
4.33676e-06
-1.21503e-05
2.29992e-05
-1.59392e-05
7.42448e-06
-1.13203e-05
-8.16345e-06
-4.35976e-06
-1.33147e-05
4.93137e-06
-1.85289e-05
2.35789e-05
-3.64284e-05
4.55047e-05
-4.23825e-05
5.67856e-05
-3.8133e-05
5.85133e-05
-4.00875e-05
5.52841e-05
-3.14453e-05
4.45113e-05
1.24314e-05
3.69478e-05
1.42824e-05
3.03237e-05
1.30046e-05
2.43538e-05
1.17449e-05
1.89054e-05
1.07199e-05
1.38512e-05
9.94142e-06
9.07765e-06
9.38629e-06
4.48168e-06
9.03113e-06
8.81562e-06
-1.45213e-05
3.7527e-05
-1.89469e-05
1.18507e-05
-1.18537e-05
-1.53579e-05
-3.09916e-06
-2.21774e-05
7.52407e-06
-2.94482e-05
2.82288e-05
-5.89575e-05
6.32635e-05
-9.5501e-05
0.000104065
-0.000137966
0.000111467
-0.000104568
7.60728e-05
-2.40633e-05
4.48763e-05
2.22037e-05
3.68297e-05
2.19469e-05
3.01675e-05
1.9662e-05
2.42203e-05
1.76888e-05
1.88029e-05
1.61343e-05
1.37779e-05
1.49637e-05
9.03051e-06
1.41312e-05
4.4592e-06
1.36001e-05
1.32734e-05
-1.89059e-05
5.59365e-05
-2.16244e-05
1.30657e-05
-6.88931e-06
-5.205e-05
1.05422e-05
-6.39221e-05
3.04254e-05
-7.66883e-05
7.72865e-05
-0.000117369
0.000133649
-0.000166568
0.000155294
-0.000170656
0.000119665
-8.28498e-05
5.5922e-05
2.74793e-05
4.40564e-05
3.26822e-05
3.64106e-05
2.95667e-05
2.98207e-05
2.62461e-05
2.39452e-05
2.35592e-05
1.8595e-05
2.148e-05
1.36297e-05
1.99251e-05
8.9355e-06
1.8822e-05
4.41334e-06
1.81192e-05
1.76837e-05
-1.92293e-05
7.53698e-05
2.18829e-05
-5.86951e-05
6.06855e-05
-0.000101317
8.74919e-05
-0.000117888
0.000118986
-0.00014094
0.000155575
-0.000176089
0.000175737
-0.000201522
0.000148614
-0.000140677
7.55879e-05
1.96327e-05
5.28057e-05
4.62233e-05
4.32965e-05
4.22059e-05
3.58106e-05
3.70507e-05
2.93406e-05
3.27135e-05
2.35722e-05
2.93252e-05
1.83154e-05
2.67347e-05
1.34311e-05
2.48074e-05
8.80837e-06
2.34429e-05
4.35153e-06
2.25742e-05
2.20345e-05
4.43979e-05
7.29483e-05
7.58127e-05
-7.97666e-05
8.88934e-05
-0.000104562
0.000106332
-0.000117815
0.000138698
-0.000141811
0.000173228
-0.000178655
0.000177386
-0.000195434
0.000109869
-4.63166e-05
6.48052e-05
6.52234e-05
5.12765e-05
5.9623e-05
4.23041e-05
5.11782e-05
3.50338e-05
4.43179e-05
2.87339e-05
3.90095e-05
2.31069e-05
3.49483e-05
1.79685e-05
3.18693e-05
1.31853e-05
2.95873e-05
8.65114e-06
2.7974e-05
4.27511e-06
2.69475e-05
2.63066e-05
6.72781e-05
-5.07714e-05
8.16954e-05
-8.0665e-05
8.61454e-05
-0.000104326
0.000100675
-0.000112857
0.000129896
-0.000131707
0.000158382
-0.000177131
0.000149153
-0.000157819
8.36658e-05
5.41939e-05
6.07e-05
8.39353e-05
4.94325e-05
7.08392e-05
4.10534e-05
5.95582e-05
3.40851e-05
5.1284e-05
2.80065e-05
4.50848e-05
2.2554e-05
4.03973e-05
1.75581e-05
3.68618e-05
1.28949e-05
3.42473e-05
8.46545e-06
3.24004e-05
4.18457e-06
3.12253e-05
3.04895e-05
9.25354e-05
-4.05842e-05
9.25483e-05
-8.24844e-05
9.55053e-05
-0.000108627
0.000104136
-0.000122122
0.000122268
-0.000143275
0.000145492
-0.000174814
0.000124316
-0.000134806
7.14682e-05
9.24079e-05
5.66762e-05
9.77405e-05
4.72479e-05
8.02507e-05
3.95585e-05
6.72483e-05
3.29785e-05
5.78631e-05
2.71694e-05
5.08923e-05
2.19216e-05
4.56432e-05
1.70899e-05
4.16917e-05
1.25639e-05
3.87714e-05
8.25398e-06
3.67085e-05
4.08182e-06
3.53961e-05
3.45696e-05
0.000106378
0.000286298
5.04487e-05
0.000240286
3.59442e-06
0.000216706
-2.57337e-05
0.000197552
-4.8873e-05
0.000183941
-6.85893e-05
0.000171948
-8.56742e-05
0.000159134
0.000145434
0.000249968
3.63962e-05
0.000230285
1.97074e-05
0.000225205
5.0827e-06
-3.65075e-06
0.000228853
0.000255862
2.08009e-05
0.000269599
5.96513e-06
0.000280947
-6.26734e-06
-1.28274e-05
0.000290123
0.000238477
-9.71296e-07
0.000252684
-8.24137e-06
0.000260722
-1.43045e-05
-1.90489e-05
0.000266945
0.000211985
-1.54045e-05
0.000223518
-1.9774e-05
0.000231515
-2.23007e-05
-2.79338e-05
0.000240401
0.000195594
-2.70576e-05
0.00020513
-2.93098e-05
0.000214838
-3.2008e-05
-3.79335e-05
0.000224838
0.000181326
-3.64356e-05
0.000190744
-3.87271e-05
0.000201817
-4.30805e-05
-4.75864e-05
0.000211457
0.000167426
-4.47274e-05
0.000177265
-4.85643e-05
0.000187439
-5.3254e-05
-5.55883e-05
0.000194476
0.000153407
-5.26986e-05
0.000161706
-5.68624e-05
0.000169095
-6.06432e-05
-6.17704e-05
0.000163189
0.000137459
-5.93852e-05
0.000143449
-6.28514e-05
0.000148178
-6.55876e-05
-7.07836e-05
0.000129908
0.000120101
-6.41086e-05
0.000124463
-6.72281e-05
0.000118692
-6.93772e-05
-8.14404e-05
0.000102742
0.000104179
-6.83445e-05
0.000105546
-7.03399e-05
8.04953e-05
-7.93582e-05
-8.91896e-05
6.82004e-05
8.67322e-05
-7.19086e-05
6.67618e-05
-7.71648e-05
5.15467e-05
-8.68281e-05
-6.63448e-05
3.90591e-05
5.79463e-05
-7.48316e-05
3.59235e-05
-8.22746e-05
1.9565e-05
-7.07005e-05
2.94886e-05
-3.04784e-05
2.31803e-05
-7.91917e-05
1.26378e-05
-7.75139e-05
-2.77836e-05
-2.03929e-06
6.81812e-05
-6.36482e-05
8.50998e-06
-8.06144e-05
-2.46611e-05
-3.51846e-05
-8.03807e-05
6.54586e-05
7.14254e-05
-8.41446e-05
-2.36621e-05
-4.84923e-05
-0.000100276
6.13709e-05
-0.000105147
6.79696e-05
6.69012e-05
-0.000100622
-0.000126377
-0.000128168
-0.000121095
-0.00011226
0.000233294
-6.11609e-05
0.000246629
-9.81297e-05
0.000249235
-0.000111476
0.000247608
-0.00012407
0.000263114
-0.000144317
0.000287997
-0.000167138
0.00019226
-3.84549e-05
0.000126519
0.000126245
0.000108438
0.000115757
9.26626e-05
9.60272e-05
7.85786e-05
8.13321e-05
6.60166e-05
7.04242e-05
5.46695e-05
6.22383e-05
4.42728e-05
5.60385e-05
3.46074e-05
5.13555e-05
2.54913e-05
4.7886e-05
1.67684e-05
4.54301e-05
8.29779e-06
4.38647e-05
4.28671e-05
0.000294364
-6.54006e-05
0.000286755
-9.05213e-05
0.00027539
-0.000101532
0.000270804
-0.00012394
0.000282137
-0.000145238
0.000251979
-0.000128999
0.0001183
9.07972e-05
0.000100341
0.000139463
9.09426e-05
0.000125157
8.03309e-05
0.000106638
6.9616e-05
9.2046e-05
5.93246e-05
8.07146e-05
4.96074e-05
7.19545e-05
4.04499e-05
6.51949e-05
3.17746e-05
6.00296e-05
2.34857e-05
5.61737e-05
1.54841e-05
5.34302e-05
7.67176e-06
5.16763e-05
5.05378e-05
0.000276312
-7.47658e-05
0.000273398
-8.77351e-05
0.000259532
-0.000105678
0.000275391
-0.000150209
0.000281991
-0.000158939
0.000161496
-4.04324e-06
8.93937e-05
0.000150488
8.07089e-05
0.000148065
7.53644e-05
0.000130497
6.82523e-05
0.000113746
6.03145e-05
9.99816e-05
5.2151e-05
8.88765e-05
4.40808e-05
8.00234e-05
3.62297e-05
7.30449e-05
2.86248e-05
6.76334e-05
2.12448e-05
6.35527e-05
1.40451e-05
6.06292e-05
6.96844e-06
5.87515e-05
5.75062e-05
0.000250752
-8.51315e-05
0.00024748
-9.22179e-05
0.000245086
-0.000136956
0.00025629
-0.000175171
0.000193962
-7.96851e-05
7.98301e-05
0.000143973
6.68733e-05
0.000162982
6.45583e-05
0.000150372
6.16825e-05
0.000133367
5.69821e-05
0.000118442
5.12137e-05
0.000105747
4.49014e-05
9.51868e-05
3.83716e-05
8.65517e-05
3.18049e-05
7.96106e-05
2.5289e-05
7.41485e-05
1.88556e-05
6.99853e-05
1.25036e-05
6.69802e-05
6.21394e-06
6.5041e-05
6.37195e-05
0.000237975
-9.91391e-05
0.000224871
-0.000124336
0.000227634
-0.000177493
0.000189538
-0.000140046
7.45454e-05
0.000118311
5.05715e-05
0.000167898
4.97152e-05
0.000163831
5.07342e-05
0.000149346
4.95062e-05
0.000134588
4.65998e-05
0.000121343
4.25665e-05
0.000109777
3.78323e-05
9.99186e-05
3.26918e-05
9.16906e-05
2.7337e-05
8.49644e-05
2.18843e-05
7.96005e-05
1.63986e-05
7.54705e-05
1.0911e-05
7.24674e-05
5.43164e-06
7.05194e-05
6.91513e-05
0.000208118
-0.000116798
0.000203294
-0.000168534
0.000184499
-0.00018526
8.67536e-05
4.01743e-05
3.88723e-05
0.000169592
3.43584e-05
0.000172402
3.70504e-05
0.000161131
3.88282e-05
0.000147561
3.87119e-05
0.000134698
3.71436e-05
0.000122907
3.44993e-05
0.000112417
3.10978e-05
0.000103318
2.71872e-05
9.55997e-05
2.29481e-05
8.92025e-05
1.85055e-05
8.40424e-05
1.39422e-05
8.00334e-05
9.31057e-06
7.70986e-05
4.64395e-06
7.51863e-05
7.37949e-05
0.000173702
-0.000152402
0.000162292
-0.000195754
0.00010452
-7.87682e-05
2.99746e-05
0.000164223
2.04744e-05
0.000178917
2.28793e-05
0.00016999
2.63633e-05
0.000157641
2.84302e-05
0.000145487
2.91119e-05
0.000134011
2.85769e-05
0.000123437
2.70572e-05
0.000113934
2.47823e-05
0.00010559
2.19516e-05
9.8429e-05
1.8725e-05
9.24282e-05
1.52246e-05
8.75423e-05
1.15407e-05
8.37171e-05
7.73893e-06
8.09003e-05
3.86786e-06
7.90569e-05
7.7663e-05
0.000149758
-0.000178147
0.000117584
-0.000176025
2.86859e-05
0.000106352
6.52046e-06
0.000182319
8.50675e-06
0.000176924
1.29763e-05
0.000165515
1.66374e-05
0.000153974
1.91454e-05
0.000142974
2.05074e-05
0.000132645
2.08203e-05
0.000123121
2.02366e-05
0.000114515
1.89235e-05
0.000106902
1.70404e-05
0.000100311
1.47256e-05
9.47423e-05
1.20934e-05
9.01742e-05
9.23509e-06
8.65752e-05
6.22345e-06
8.39117e-05
3.11829e-06
8.21624e-05
8.07811e-05
0.000117942
-0.000192454
6.0782e-05
-7.37272e-05
-6.5377e-06
0.000185894
-6.46294e-06
0.000182176
-1.37868e-06
0.000171835
3.72208e-06
0.00016041
7.75976e-06
0.000149933
1.07644e-05
0.000139966
1.27524e-05
0.000130654
1.37961e-05
0.000122075
1.40135e-05
0.000114296
1.35319e-05
0.000107382
1.24826e-05
0.000101359
1.09859e-05
9.62385e-05
9.14663e-06
9.20131e-05
7.05438e-06
8.86673e-05
4.78521e-06
8.6181e-05
2.40504e-06
8.45422e-05
8.31864e-05
8.30083e-05
-0.0001854
-1.84934e-05
0.000113681
-2.39657e-05
0.000183125
-1.75179e-05
0.000175725
-1.05192e-05
0.000164834
-4.99174e-06
0.00015488
-3.69592e-07
0.000145308
3.17816e-06
0.000136416
5.75577e-06
0.000128074
7.44229e-06
0.000120387
8.36028e-06
0.000113377
8.60365e-06
0.000107137
8.29043e-06
0.000101672
7.52573e-06
9.70027e-05
6.4064e-06
9.31322e-05
5.01807e-06
9.00555e-05
3.43776e-06
8.77611e-05
1.73606e-06
8.62443e-05
8.49222e-05
2.02157e-05
-0.000108079
-4.20156e-05
0.0001848
-3.36891e-05
0.000174785
-2.5603e-05
0.000167637
-1.85381e-05
0.000157767
-1.25854e-05
0.000148926
-7.70505e-06
0.000140427
-3.70544e-06
0.000132416
-6.01022e-07
0.000124969
1.69788e-06
0.000118087
3.2494e-06
0.000111825
4.12656e-06
0.00010626
4.4652e-06
0.000101333
4.35402e-06
9.71136e-05
3.88515e-06
9.36008e-05
3.13789e-06
9.08026e-05
2.19054e-06
8.87085e-05
1.11566e-06
8.73188e-05
8.60382e-05
-4.66636e-05
8.15222e-05
-5.05671e-05
0.000178298
-4.1419e-05
0.000165634
-3.29316e-05
0.000159147
-2.56671e-05
0.000150502
-1.94072e-05
0.000142665
-1.41313e-05
0.000135151
-9.76878e-06
0.000128054
-6.23915e-06
0.00012144
-3.47517e-06
0.000115323
-1.43225e-06
0.000109782
6.22505e-08
0.000104765
9.95295e-07
0.000100399
1.46905e-06
9.66395e-05
1.58808e-06
9.34816e-05
1.4194e-06
9.09711e-05
1.04713e-06
8.90806e-05
5.4445e-07
8.78219e-05
8.65824e-05
-6.66683e-05
0.000155594
-5.63143e-05
0.000167884
-4.79466e-05
0.000157264
-3.94076e-05
0.000150607
-3.1989e-05
0.000143083
-2.54697e-05
0.000136146
-1.98489e-05
0.000129531
-1.50995e-05
0.000123305
-1.11585e-05
0.0001175
-7.97736e-06
0.000112143
-5.45927e-06
0.000107264
-3.56149e-06
0.000102867
-2.14703e-06
9.89849e-05
-1.15421e-06
9.56467e-05
-5.26921e-07
9.28543e-05
-1.58743e-07
9.06029e-05
2.65393e-09
8.89195e-05
2.30091e-08
8.78012e-05
8.66054e-05
-7.13836e-05
0.000163459
-6.21741e-05
0.000158672
-5.37946e-05
0.000148882
-4.52438e-05
0.000142055
-3.7594e-05
0.000135432
-3.07888e-05
0.000129341
-2.48575e-05
0.000123601
-1.97731e-05
0.000118222
-1.54883e-05
0.000113217
-1.19315e-05
0.000108587
-9.02149e-06
0.000104355
-6.68612e-06
0.000100533
-4.85511e-06
9.71544e-05
-3.42377e-06
9.42157e-05
-2.34173e-06
9.17725e-05
-1.52941e-06
8.9791e-05
-9.16146e-07
8.83063e-05
-4.37983e-07
8.73232e-05
8.61676e-05
-7.75289e-05
0.000156842
-6.86859e-05
0.000149828
-5.92525e-05
0.000139447
-5.04725e-05
0.000133274
-4.24799e-05
0.000127439
-3.53801e-05
0.000122242
-2.91771e-05
0.000117398
-2.38239e-05
0.00011287
-1.92436e-05
0.000108637
-1.53692e-05
0.000104714
-1.21237e-05
0.00010111
-9.43732e-06
9.7847e-05
-7.22393e-06
9.49415e-05
-5.42758e-06
9.24198e-05
-3.94844e-06
9.02939e-05
-2.74011e-06
8.85831e-05
-1.72543e-06
8.7292e-05
-8.24694e-07
8.6423e-05
8.53431e-05
-8.77302e-05
0.00014395
-7.5072e-05
0.000137168
-6.45544e-05
0.000128928
-5.50402e-05
0.000123758
-4.6649e-05
0.000119047
-3.92711e-05
0.000114863
-3.28308e-05
0.000110958
-2.72444e-05
0.000107284
-2.24288e-05
0.000103823
-1.83016e-05
0.000100587
-1.47826e-05
9.75918e-05
-1.17975e-05
9.48623e-05
-9.27736e-06
9.24218e-05
-7.14788e-06
9.02907e-05
-5.34129e-06
8.84877e-05
-3.78852e-06
8.70307e-05
-2.42375e-06
8.59278e-05
-1.19217e-06
8.51918e-05
8.41515e-05
-9.63464e-05
-8.07993e-05
-6.89447e-05
-5.87908e-05
-5.00362e-05
-4.24286e-05
-3.58044e-05
-3.00429e-05
-2.50457e-05
-2.07221e-05
-1.69925e-05
-1.37797e-05
-1.10103e-05
-8.6161e-06
-6.53022e-06
-4.68639e-06
-3.02349e-06
-1.47108e-06
)
;

boundaryField
{
    leftWall
    {
        type            fixedValue;
        value           nonuniform 0();
    }
    rightWall
    {
        type            fixedValue;
        value           uniform 0;
    }
    lowerWall
    {
        type            fixedValue;
        value           uniform 0;
    }
    atmosphere
    {
        type            calculated;
        value           nonuniform 0();
    }
    defaultFaces
    {
        type            empty;
        value           nonuniform 0();
    }
    procBoundary1to0
    {
        type            processor;
        value           nonuniform List<scalar> 
26
(
-8.63957e-05
-5.80006e-05
-2.20625e-05
-2.08221e-05
-2.29795e-05
-2.64547e-05
-3.36237e-05
-4.40072e-05
-0.000180323
-0.00018439
-0.000169853
-0.000168227
-0.000160802
-0.000152232
-0.000142049
-0.000130318
-0.00010079
-0.000130771
-0.000115378
-9.99428e-05
-8.33676e-05
-6.502e-05
-4.09626e-05
-1.23596e-05
-2.83349e-06
5.60387e-05
)
;
    }
    procBoundary1to3
    {
        type            processor;
        value           nonuniform List<scalar> 
23
(
4.21035e-05
5.89522e-05
6.08993e-05
5.80675e-05
0.000128033
0.00012162
0.000117071
0.000113603
0.000110291
0.000107256
0.000104333
0.000101523
9.88252e-05
9.62642e-05
9.38621e-05
9.16497e-05
8.96524e-05
8.78965e-05
8.64019e-05
8.51871e-05
8.42651e-05
8.36402e-05
8.26805e-05
)
;
    }
}


// ************************************************************************* //
