/*--------------------------------*- C++ -*----------------------------------*\
| =========                 |                                                 |
| \\      /  F ield         | OpenFOAM: The Open Source CFD Toolbox           |
|  \\    /   O peration     | Version:  2.4.0                                 |
|   \\  /    A nd           | Web:      www.OpenFOAM.org                      |
|    \\/     M anipulation  |                                                 |
\*---------------------------------------------------------------------------*/
FoamFile
{
    version     2.0;
    format      ascii;
    class       volScalarField;
    location    "0.1";
    object      rho;
}
// * * * * * * * * * * * * * * * * * * * * * * * * * * * * * * * * * * * * * //

dimensions      [1 -3 0 0 0 0 0];

internalField   nonuniform List<scalar> 
559
(
500.018
500.001
500
499.999
499.999
499.999
499.999
499.999
1.00001
1.00001
1.00003
1.00011
1.00032
1.00038
1.00032
1.00014
1.00002
1.00001
1.00002
1.00001
1.00001
1.00001
1.00001
1.00001
1
1
1
1.00002
1.00005
1.00026
1.00109
1.00268
1.00283
1.00476
1.00595
1.00067
1.02061
1.00548
1.00024
1.00001
1.00001
1.00001
1.00001
1.00001
1.00001
1.00001
1.00007
1.0004
1.00171
1.00425
1.00701
1.00644
1.02939
1.14433
1.43808
1.1996
1.00643
1.00062
1.00005
1.00001
1
1
1
1
1
1.00043
1.00221
1.00825
1.00853
1.01324
1.17109
2.78815
5.05176
2.07919
1.0183
1.00258
1.00032
1.00003
1.00001
1.00001
1.00001
1.00001
1.00001
1.00001
1.01807
1.03918
2.99683
3.31463
3.26966
6.56064
15.9981
6.1061
1.11956
1.0032
1.00089
1.00012
1.00001
1.00001
1
1
1
1
1
1.01906
15.3452
91.9685
91.635
70.8955
57.7158
25.7766
2.14039
1.00641
1.00207
1.00044
1.00006
1.00001
1.00001
1.00001
1.00001
1.00001
1.00001
1.00001
1.02361
198.995
387.98
386.579
312.052
138.468
12.1528
1.07884
1.005
1.00132
1.00024
1.00003
1.00001
1.00001
1.00001
1.00001
1.00001
1.00001
1.00001
337.639
451.365
494.049
489.737
416.294
129.119
6.89475
1.01932
1.00306
1.00067
1.00012
1.00002
1.00001
1.00001
1.00001
1.00001
1.00001
1.00001
1.00001
499.999
500
500
500
500
500
500
500
499.999
499.999
499.999
499.999
500
500
500
500
500
500
500
500
500
500
500
500
500
500
500
500
500
500
500
499.999
500
500
500
499.999
500
500
499.999
499.975
500
500
499.997
495.586
500
500
499.511
405.388
500
499.966
471.1
163.419
499.994
495.102
272.167
25.3335
498.714
379.904
56.577
1.48227
445.63
119.489
4.10117
1.00134
189.045
14.0357
1.01995
1.00026
18.8772
1.05951
1.00012
1.0001
1.11024
1.00006
1.00005
1.00004
499.999
499.998
499.978
496.231
363.642
73.7946
2.81475
1.00364
1.00082
1.0002
1.00003
1.00001
1
1
1
1
1
1
1
500
499.999
499.795
467.12
209.135
19.4237
1.14325
1.00037
1.00021
1.00005
1.00001
1
1
1
1
1
1
1
1
499.999
499.984
494.644
331.393
59.2634
2.39277
1.00247
1.00009
1.00005
1.00001
1
1
1
1
1
1
1
1
1
499.999
499.478
422.026
112.02
5.24061
1.01404
1.00007
1.00002
1.00001
1
1
1
1
1
1
1
1
1
1
499.982
481.367
209.118
15.3261
1.07132
1.00024
1.00001
1
1
1
1
1
1
1
1
1
1
1
1
499.082
344.334
48.4111
1.58661
1.00085
1.00011
1.00001
1
1
1
1
1
1
1
1
1
1
1
1
471.265
137.82
5.4723
1.00691
1.00031
1.00005
1
0.999999
1
1
1
1
1
1
1
1
1
1
1
336.383
33.5903
1.20038
1.00055
1.00011
1.00002
0.999999
1
1
1
1
1
1
1
1
1
1
1
1
171.805
5.64623
1.00332
1.0002
1.00004
1
0.999999
1
1
1
1
1
1
1
1
1
1
1
1
54.0993
1.20326
1.00026
1.00004
1
0.999998
1
1
1
1
1
1
1
1
1
1
1
1
1
8.93678
1.00122
1.00007
1
0.999999
0.999999
1
1
1
1
1
1
1
1
1
1
1
1
1
1.4776
1.00022
1.00001
1
0.999999
1
1
1
1
0.999999
0.999999
0.999999
1
1
1
1
1
1
1
1.00301
1.00008
1
1
1
1
1
1
0.999999
0.999999
0.999999
0.999999
1
1
1
1
1
1
1
1.00025
1.00004
1
1
1
1
1
0.999999
0.999998
0.999998
0.999998
0.999999
0.999999
1
1
1
1
1
1
1.00012
1.00001
1
1
1
0.999999
0.999999
0.999998
0.999997
0.999997
0.999998
0.999998
0.999999
0.999999
0.999999
0.999999
1
1
1
1.00003
1.00001
1
1
1
0.999999
0.999998
0.999997
0.999997
0.999997
0.999997
0.999998
0.999998
0.999999
0.999999
0.999999
0.999999
1
0.999999
1.00002
1
1
1
1
1
0.999999
0.999998
0.999998
0.999998
0.999998
0.999998
0.999999
0.999999
0.999999
0.999999
0.999999
0.999998
1
)
;

boundaryField
{
    leftWall
    {
        type            calculated;
        value           nonuniform 0();
    }
    rightWall
    {
        type            calculated;
        value           nonuniform List<scalar> 
25
(
1
1.00001
1
1.00001
1
1.00001
1.00001
1.00001
1
1
1
1
1
1
1
1
1
1
1
1
1
1
1
0.999999
1
)
;
    }
    lowerWall
    {
        type            calculated;
        value           nonuniform List<scalar> 
40
(
500.018
500.018
500.001
500
499.999
499.999
499.999
499.999
499.999
499.999
499.999
499.999
499.999
1.00001
1.00002
1.00007
1.00043
1.01807
1.01906
1.02361
337.639
1.00001
1.00001
1.00003
1.00011
1.00032
1.00038
1.00032
1.00014
1.00002
1.00001
1.00002
1.00001
1.00001
1.00001
1.00001
1.00001
1
1
1
)
;
    }
    atmosphere
    {
        type            calculated;
        value           nonuniform 0();
    }
    defaultFaces
    {
        type            empty;
    }
    procBoundary1to0
    {
        type            processor;
        value           nonuniform List<scalar> 
26
(
506.782
500.458
500.005
500.001
500
500
500
500
500
500
500
500
500
500
500
500
500
500
500
500
500
499.999
499.495
464.815
209.121
14.9986
)
;
    }
    procBoundary1to3
    {
        type            processor;
        value           nonuniform List<scalar> 
23
(
1.02005
1.00003
1.00002
1.00002
1.00001
1
1
1
1
1
1
0.999999
0.999998
0.999998
0.999999
0.999999
0.999999
0.999999
0.999999
0.999999
0.999999
0.999999
0.999998
)
;
    }
}


// ************************************************************************* //
