/*--------------------------------*- C++ -*----------------------------------*\
| =========                 |                                                 |
| \\      /  F ield         | OpenFOAM: The Open Source CFD Toolbox           |
|  \\    /   O peration     | Version:  2.4.0                                 |
|   \\  /    A nd           | Web:      www.OpenFOAM.org                      |
|    \\/     M anipulation  |                                                 |
\*---------------------------------------------------------------------------*/
FoamFile
{
    version     2.0;
    format      ascii;
    class       volVectorField;
    location    "0.1";
    object      U;
}
// * * * * * * * * * * * * * * * * * * * * * * * * * * * * * * * * * * * * * //

dimensions      [0 1 -1 0 0 0 0];

internalField   nonuniform List<vector> 
559
(
(0.136446 0.0628436 0)
(0.127233 0.190253 0)
(0.12841 0.289905 0)
(0.121802 0.430802 0)
(0.147442 0.511597 0)
(0.159539 0.690739 0)
(0.231251 0.780338 0)
(0.318554 1.08262 0)
(-0.0852164 0.0266482 0)
(-0.158474 0.00925004 0)
(-0.154241 -0.00780183 0)
(-0.108845 -0.014446 0)
(-0.0158632 -0.0209376 0)
(0.147399 -0.0412744 0)
(0.370849 -0.0457166 0)
(0.551041 -0.0251108 0)
(0.614452 -0.00298921 0)
(0.597288 0.00992758 0)
(0.526612 0.0161268 0)
(0.447368 0.0165912 0)
(0.371349 0.0152108 0)
(0.301708 0.0137528 0)
(0.238609 0.0125438 0)
(0.180627 0.0116224 0)
(0.12641 0.0109653 0)
(0.0747864 0.0105365 0)
(0.0246784 0.0104138 0)
(-0.0941298 0.0806666 0)
(-0.177443 0.027194 0)
(-0.162929 -0.0276821 0)
(-0.110389 -0.0469436 0)
(-0.0163657 -0.0648878 0)
(0.15416 -0.127127 0)
(0.397194 -0.143257 0)
(0.592905 -0.0773677 0)
(0.653105 -0.0016833 0)
(0.634982 0.0320885 0)
(0.550686 0.0501535 0)
(0.46302 0.0516344 0)
(0.383582 0.0471748 0)
(0.311645 0.04265 0)
(0.246539 0.0389345 0)
(0.186687 0.0361062 0)
(0.130681 0.0340879 0)
(0.0773131 0.0327925 0)
(0.0254364 0.0319801 0)
(-0.108147 0.152552 0)
(-0.215035 0.0459806 0)
(-0.180043 -0.054195 0)
(-0.104751 -0.0824052 0)
(0.00253841 -0.110178 0)
(0.195324 -0.21499 0)
(0.462994 -0.249149 0)
(0.682172 -0.136315 0)
(0.747498 -0.00707708 0)
(0.677995 0.0607425 0)
(0.559802 0.0882953 0)
(0.462638 0.0877327 0)
(0.381743 0.0793 0)
(0.309933 0.0714721 0)
(0.245174 0.065212 0)
(0.185676 0.0604807 0)
(0.12999 0.0571116 0)
(0.0769146 0.0549594 0)
(0.0253049 0.0536399 0)
(-0.144679 0.197816 0)
(-0.27603 0.0664153 0)
(-0.161725 -0.0927545 0)
(-0.006371 -0.14156 0)
(0.183875 -0.181227 0)
(0.477232 -0.328625 0)
(0.765607 -0.408364 0)
(0.986121 -0.203391 0)
(0.865665 0.0262764 0)
(0.689462 0.118818 0)
(0.553169 0.135586 0)
(0.457588 0.125079 0)
(0.377304 0.111473 0)
(0.306343 0.100162 0)
(0.242404 0.0913408 0)
(0.183639 0.0847242 0)
(0.128601 0.0800245 0)
(0.0761103 0.0770285 0)
(0.0250435 0.0751785 0)
(-0.174118 0.421114 0)
(-0.301418 0.0997289 0)
(0.109415 -0.159559 0)
(0.437745 -0.172088 0)
(0.819006 -0.189863 0)
(1.31797 -0.480822 0)
(1.59231 -0.540215 0)
(1.28333 -0.166801 0)
(0.88158 0.136288 0)
(0.673272 0.189665 0)
(0.543755 0.182126 0)
(0.450042 0.161741 0)
(0.371055 0.14314 0)
(0.301436 0.128399 0)
(0.238665 0.117067 0)
(0.180905 0.108616 0)
(0.126739 0.102626 0)
(0.0750315 0.0988116 0)
(0.0246915 0.0964441 0)
(-0.215194 0.139603 0)
(0.265924 -0.0682855 0)
(0.887144 -0.501697 0)
(1.09021 -0.476223 0)
(1.4066 -0.465454 0)
(1.84226 -0.685813 0)
(1.90873 -0.526293 0)
(1.20735 0.0957489 0)
(0.823028 0.265737 0)
(0.649047 0.258347 0)
(0.53055 0.226934 0)
(0.439907 0.197627 0)
(0.363085 0.174203 0)
(0.295287 0.156114 0)
(0.234019 0.142346 0)
(0.177519 0.132122 0)
(0.124439 0.124889 0)
(0.0736975 0.120286 0)
(0.0242564 0.117418 0)
(-0.0451933 0.927793 0)
(0.917866 -0.419096 0)
(0.979198 -0.531353 0)
(1.08754 -0.586495 0)
(1.36657 -0.674047 0)
(1.82755 -0.774626 0)
(1.59821 -0.241795 0)
(0.990018 0.289271 0)
(0.760607 0.366427 0)
(0.620147 0.316476 0)
(0.5132 0.268308 0)
(0.427281 0.231657 0)
(0.353462 0.203831 0)
(0.287955 0.182668 0)
(0.228511 0.16666 0)
(0.173516 0.154806 0)
(0.12172 0.146427 0)
(0.0721215 0.141096 0)
(0.0237406 0.13776 0)
(1.08129 -0.274711 0)
(1.06772 -0.40164 0)
(1.10846 -0.520695 0)
(1.17244 -0.577834 0)
(1.36311 -0.659609 0)
(1.63999 -0.695561 0)
(1.24153 -0.0942105 0)
(0.855858 0.425881 0)
(0.702907 0.445127 0)
(0.586529 0.36809 0)
(0.492134 0.308459 0)
(0.412269 0.265436 0)
(0.342221 0.233398 0)
(0.279467 0.209227 0)
(0.222161 0.191014 0)
(0.168909 0.177549 0)
(0.118594 0.168037 0)
(0.0703088 0.161985 0)
(0.0231481 0.158184 0)
(1.16628 0.964011 0)
(1.15929 0.394285 0)
(1.05557 0.0857045 0)
(1.00209 -0.0563796 0)
(0.941714 -0.205081 0)
(0.885474 -0.320741 0)
(0.821167 -0.417251 0)
(0.750367 -0.503533 0)
(1.42837 0.817489 0)
(1.43716 0.59006 0)
(1.30337 0.341302 0)
(1.15829 0.228284 0)
(1.29759 0.264003 0)
(1.41006 0.06049 0)
(1.47287 -0.136958 0)
(1.53188 -0.250617 0)
(1.17421 0.0737838 0)
(1.28935 0.00321318 0)
(1.36787 -0.0728585 0)
(1.42353 -0.113872 0)
(1.07112 -0.103871 0)
(1.15789 -0.174834 0)
(1.2086 -0.214462 0)
(1.2687 -0.280007 0)
(1.0097 -0.266981 0)
(1.06809 -0.299127 0)
(1.1046 -0.323761 0)
(1.18963 -0.382802 0)
(0.94248 -0.373343 0)
(0.986383 -0.392297 0)
(1.03359 -0.427845 0)
(1.13118 -0.494751 0)
(0.870022 -0.466483 0)
(0.912034 -0.499417 0)
(0.976432 -0.556844 0)
(1.03879 -0.594759 0)
(0.792549 -0.558428 0)
(0.837615 -0.604687 0)
(0.894218 -0.654191 0)
(0.900812 -0.666812 0)
(0.710719 -0.640684 0)
(0.754066 -0.688747 0)
(0.783682 -0.718022 0)
(0.760336 -0.735586 0)
(0.627657 -0.707462 0)
(0.658897 -0.744639 0)
(0.654963 -0.757214 0)
(0.682836 -0.799526 0)
(0.549499 -0.758619 0)
(0.559444 -0.781126 0)
(0.532557 -0.811899 0)
(0.683232 -0.780921 0)
(0.457588 -0.802036 0)
(0.422232 -0.830707 0)
(0.50121 -0.866664 0)
(0.682236 -0.433753 0)
(0.32835 -0.840008 0)
(0.3271 -0.870433 0)
(0.480804 -0.734722 0)
(-0.14777 0.211662 0)
(0.201212 -0.878506 0)
(0.295052 -0.815405 0)
(0.115059 0.0535224 0)
(-0.400443 0.688436 0)
(0.17695 -0.840676 0)
(0.20327 -0.332481 0)
(-0.510811 0.672763 0)
(-0.447717 0.821002 0)
(0.178937 -0.376795 0)
(-0.53595 0.683538 0)
(-0.583006 0.791973 0)
(-0.537199 0.81241 0)
(-0.605735 0.617217 0)
(-0.747008 0.715442 0)
(-0.66953 0.75646 0)
(-0.60884 0.720601 0)
(1.19638 -0.0829641 0)
(1.34268 -0.371807 0)
(1.37056 -0.51507 0)
(1.37606 -0.577852 0)
(1.45866 -0.642448 0)
(1.45737 -0.678873 0)
(0.878328 0.163536 0)
(0.700622 0.556449 0)
(0.626675 0.524226 0)
(0.532387 0.428941 0)
(0.456421 0.360964 0)
(0.386395 0.311546 0)
(0.322823 0.274711 0)
(0.264821 0.246905 0)
(0.211204 0.225937 0)
(0.160955 0.210419 0)
(0.113194 0.199444 0)
(0.0671764 0.192455 0)
(0.0221254 0.188024 0)
(1.61724 -0.420013 0)
(1.60173 -0.522097 0)
(1.50873 -0.54429 0)
(1.48092 -0.594112 0)
(1.56811 -0.668421 0)
(1.20276 -0.421904 0)
(0.617016 0.480606 0)
(0.55391 0.657724 0)
(0.511162 0.590672 0)
(0.4544 0.49266 0)
(0.400267 0.420878 0)
(0.344691 0.366727 0)
(0.291421 0.325565 0)
(0.24106 0.294122 0)
(0.193396 0.270236 0)
(0.148006 0.252471 0)
(0.10439 0.239861 0)
(0.062063 0.231811 0)
(0.0204523 0.226629 0)
(1.51017 -0.276997 0)
(1.51136 -0.369088 0)
(1.43234 -0.442611 0)
(1.54024 -0.5697 0)
(1.59812 -0.540719 0)
(0.912506 0.169306 0)
(0.487758 0.675426 0)
(0.447508 0.70712 0)
(0.415301 0.62158 0)
(0.382934 0.535439 0)
(0.343609 0.466368 0)
(0.30073 0.411754 0)
(0.25747 0.368936 0)
(0.214971 0.335564 0)
(0.173655 0.309883 0)
(0.133562 0.290616 0)
(0.0945271 0.27686 0)
(0.0563201 0.268045 0)
(0.0185716 0.262258 0)
(1.36543 -0.405632 0)
(1.35435 -0.448198 0)
(1.38733 -0.542737 0)
(1.58791 -0.717828 0)
(1.12312 -0.0719937 0)
(0.474997 0.614166 0)
(0.359015 0.777459 0)
(0.349538 0.729217 0)
(0.336611 0.640198 0)
(0.317234 0.563962 0)
(0.289308 0.499593 0)
(0.257087 0.446909 0)
(0.222831 0.404406 0)
(0.187852 0.370591 0)
(0.152873 0.344184 0)
(0.118224 0.324166 0)
(0.0839948 0.309772 0)
(0.0501656 0.300506 0)
(0.0165536 0.294274 0)
(1.27816 -0.445402 0)
(1.26909 -0.475623 0)
(1.50281 -0.584274 0)
(1.44198 -0.235022 0)
(0.511701 0.511461 0)
(0.272194 0.797541 0)
(0.262045 0.802628 0)
(0.268454 0.727299 0)
(0.268291 0.650732 0)
(0.257149 0.582313 0)
(0.238529 0.523339 0)
(0.215116 0.473716 0)
(0.188745 0.432742 0)
(0.160698 0.399541 0)
(0.131795 0.373248 0)
(0.102524 0.35311 0)
(0.0731447 0.338521 0)
(0.0438006 0.329083 0)
(0.0144631 0.322552 0)
(1.14376 -0.519316 0)
(1.25404 -0.597526 0)
(1.45327 -0.527913 0)
(0.684259 0.313737 0)
(0.217071 0.767584 0)
(0.181366 0.839214 0)
(0.190421 0.791166 0)
(0.203725 0.720572 0)
(0.207805 0.653923 0)
(0.203066 0.593108 0)
(0.191734 0.539528 0)
(0.175559 0.493468 0)
(0.156011 0.454728 0)
(0.134221 0.422849 0)
(0.110997 0.397288 0)
(0.0868948 0.377522 0)
(0.0622767 0.363103 0)
(0.0373997 0.353729 0)
(0.0123575 0.347027 0)
(1.03003 -0.623772 0)
(1.29861 -0.682106 0)
(1.01757 0.0527366 0)
(0.193548 0.708578 0)
(0.105019 0.863084 0)
(0.113556 0.83502 0)
(0.132332 0.772998 0)
(0.147169 0.711457 0)
(0.154244 0.652455 0)
(0.154491 0.598177 0)
(0.148935 0.549626 0)
(0.138766 0.507255 0)
(0.125106 0.47111 0)
(0.108903 0.440993 0)
(0.0909041 0.416592 0)
(0.0716756 0.397565 0)
(0.0516329 0.383596 0)
(0.0311077 0.374476 0)
(0.0102848 0.367711 0)
(0.992362 -0.726233 0)
(1.10297 -0.392775 0)
(0.249232 0.52953 0)
(0.0231123 0.870423 0)
(0.0351649 0.870417 0)
(0.0572552 0.813955 0)
(0.0796916 0.756281 0)
(0.0960834 0.700311 0)
(0.106294 0.647462 0)
(0.110696 0.598698 0)
(0.109928 0.554729 0)
(0.104836 0.515973 0)
(0.0962801 0.482569 0)
(0.085048 0.454466 0)
(0.0718098 0.431502 0)
(0.0571138 0.41347 0)
(0.0413975 0.400159 0)
(0.0250372 0.391434 0)
(0.00828263 0.384693 0)
(1.01613 -0.78625 0)
(0.648934 0.0709208 0)
(-0.0470604 0.837911 0)
(-0.0438359 0.897665 0)
(-0.0216081 0.847322 0)
(0.00664602 0.791042 0)
(0.0310031 0.737769 0)
(0.0497695 0.686949 0)
(0.0630573 0.639326 0)
(0.071121 0.595398 0)
(0.0744657 0.555619 0)
(0.073745 0.520339 0)
(0.0696448 0.489704 0)
(0.0628315 0.463739 0)
(0.053904 0.442379 0)
(0.0433811 0.42551 0)
(0.0317033 0.413002 0)
(0.0192713 0.404773 0)
(0.00637916 0.398124 0)
(0.880502 -0.609785 0)
(-0.171362 0.566394 0)
(-0.129513 0.918879 0)
(-0.121428 0.870431 0)
(-0.0711072 0.817421 0)
(-0.0408622 0.765425 0)
(-0.0134343 0.716813 0)
(0.007806 0.671075 0)
(0.0240495 0.628249 0)
(0.0353935 0.588768 0)
(0.0423307 0.552867 0)
(0.0454227 0.520925 0)
(0.0452305 0.493025 0)
(0.0423444 0.469247 0)
(0.0373019 0.449581 0)
(0.0305897 0.433981 0)
(0.0226411 0.422369 0)
(0.0138678 0.414705 0)
(0.00459385 0.4082 0)
(0.535823 -0.0900711 0)
(-0.396221 0.844463 0)
(-0.154842 0.877545 0)
(-0.170637 0.833078 0)
(-0.1154 0.783087 0)
(-0.0833425 0.737525 0)
(-0.0535653 0.693737 0)
(-0.0297381 0.652771 0)
(-0.0109337 0.614464 0)
(0.0032758 0.579104 0)
(0.0133454 0.546882 0)
(0.0197927 0.518218 0)
(0.0230253 0.492975 0)
(0.0236232 0.471387 0)
(0.022066 0.453454 0)
(0.0188081 0.439184 0)
(0.0142682 0.428525 0)
(0.00886493 0.421466 0)
(0.00294052 0.415135 0)
(-0.302658 0.399492 0)
(-0.344718 0.892893 0)
(-0.224623 0.822894 0)
(-0.204723 0.793357 0)
(-0.155855 0.748138 0)
(-0.120926 0.707879 0)
(-0.0894484 0.669077 0)
(-0.0634062 0.632462 0)
(-0.0422056 0.598365 0)
(-0.0254531 0.566827 0)
(-0.0125346 0.538166 0)
(-0.00318748 0.512474 0)
(0.00297818 0.489905 0)
(0.00667184 0.47052 0)
(0.00822484 0.45432 0)
(0.00807572 0.441424 0)
(0.0066164 0.431746 0)
(0.0042765 0.425313 0)
(0.001418 0.419209 0)
(-0.327606 0.74212 0)
(-0.340739 0.853138 0)
(-0.275377 0.782237 0)
(-0.23635 0.751721 0)
(-0.191437 0.712627 0)
(-0.154243 0.676873 0)
(-0.121226 0.642659 0)
(-0.0932792 0.610359 0)
(-0.0699852 0.580241 0)
(-0.0509402 0.552397 0)
(-0.0356424 0.5271 0)
(-0.0237337 0.504244 0)
(-0.0148318 0.484216 0)
(-0.00849893 0.466978 0)
(-0.00420732 0.452521 0)
(-0.00158074 0.440956 0)
(-0.000299425 0.432273 0)
(0.000109025 0.426498 0)
(5.05645e-05 0.420424 0)
(-0.345022 0.79129 0)
(-0.37309 0.789389 0)
(-0.308114 0.743451 0)
(-0.267522 0.710147 0)
(-0.222631 0.676119 0)
(-0.183644 0.644576 0)
(-0.149132 0.61466 0)
(-0.119505 0.586527 0)
(-0.0943672 0.56029 0)
(-0.0733206 0.536047 0)
(-0.0559404 0.513928 0)
(-0.0418678 0.493972 0)
(-0.0306527 0.476339 0)
(-0.0219432 0.461102 0)
(-0.0152741 0.448381 0)
(-0.0102122 0.438101 0)
(-0.00645253 0.430405 0)
(-0.00351232 0.425302 0)
(-0.0013164 0.419708 0)
(-0.403527 0.784634 0)
(-0.410493 0.745915 0)
(-0.34124 0.699754 0)
(-0.296899 0.668296 0)
(-0.250025 0.638204 0)
(-0.209299 0.610904 0)
(-0.17332 0.58524 0)
(-0.142155 0.561205 0)
(-0.115418 0.538788 0)
(-0.0927027 0.518024 0)
(-0.0735717 0.498998 0)
(-0.0576405 0.48179 0)
(-0.0444959 0.46653 0)
(-0.033741 0.453264 0)
(-0.0249785 0.442173 0)
(-0.0178175 0.433201 0)
(-0.0118655 0.42646 0)
(-0.0068266 0.421961 0)
(-0.00210837 0.416693 0)
(-0.51522 0.726344 0)
(-0.437443 0.697923 0)
(-0.378274 0.651339 0)
(-0.322512 0.624118 0)
(-0.273892 0.598574 0)
(-0.231082 0.575823 0)
(-0.19373 0.554578 0)
(-0.161256 0.534662 0)
(-0.133224 0.515985 0)
(-0.109158 0.498606 0)
(-0.088601 0.482584 0)
(-0.0711521 0.468032 0)
(-0.0563956 0.455047 0)
(-0.043933 0.443742 0)
(-0.0333932 0.4342 0)
(-0.0244055 0.426504 0)
(-0.0166027 0.42069 0)
(-0.0096027 0.416791 0)
(-0.00334143 0.411496 0)
(-0.582262 0.659653 0)
(-0.471289 0.628703 0)
(-0.406723 0.597628 0)
(-0.344062 0.576638 0)
(-0.293101 0.557095 0)
(-0.24867 0.539515 0)
(-0.210227 0.522916 0)
(-0.176819 0.507154 0)
(-0.147852 0.492183 0)
(-0.122782 0.4781 0)
(-0.101131 0.464987 0)
(-0.0824793 0.452982 0)
(-0.0664166 0.442202 0)
(-0.0525604 0.432762 0)
(-0.0405446 0.424749 0)
(-0.0300193 0.418261 0)
(-0.0206305 0.413341 0)
(-0.0120442 0.410036 0)
(-0.00387402 0.405654 0)
)
;

boundaryField
{
    leftWall
    {
        type            calculated;
        value           nonuniform 0();
    }
    rightWall
    {
        type            calculated;
        value           uniform (0 0 0);
    }
    lowerWall
    {
        type            calculated;
        value           uniform (0 0 0);
    }
    atmosphere
    {
        type            calculated;
        value           nonuniform 0();
    }
    defaultFaces
    {
        type            empty;
    }
    procBoundary1to0
    {
        type            processor;
        value           nonuniform List<vector> 
26
(
(0.410866 0.0854498 0)
(0.35948 0.201659 0)
(0.33573 0.305159 0)
(0.334311 0.382215 0)
(0.352259 0.452828 0)
(0.404236 0.530236 0)
(0.468622 0.55335 0)
(0.592532 0.633585 0)
(0.894931 0.478255 0)
(0.880394 0.233703 0)
(0.846241 0.0688298 0)
(0.842552 -0.040891 0)
(0.809384 -0.15066 0)
(0.769005 -0.258346 0)
(0.722442 -0.352626 0)
(0.666679 -0.435161 0)
(0.674364 -0.578551 0)
(0.674364 -0.578551 0)
(0.594668 -0.644619 0)
(0.515645 -0.700407 0)
(0.437484 -0.745333 0)
(0.349346 -0.772779 0)
(0.237982 -0.798486 0)
(0.107888 -0.856854 0)
(0.0894567 -0.836799 0)
(0.0216302 -0.475268 0)
)
;
    }
    procBoundary1to3
    {
        type            processor;
        value           nonuniform List<vector> 
23
(
(-0.881402 0.558508 0)
(-0.83763 0.624793 0)
(-0.719649 0.625842 0)
(-0.675704 0.580456 0)
(-0.616599 0.571872 0)
(-0.489132 0.551996 0)
(-0.425847 0.539788 0)
(-0.358203 0.52662 0)
(-0.306957 0.514335 0)
(-0.261599 0.502384 0)
(-0.222708 0.490584 0)
(-0.188837 0.478986 0)
(-0.159347 0.467671 0)
(-0.133643 0.456798 0)
(-0.111236 0.446503 0)
(-0.0917004 0.43695 0)
(-0.0746403 0.428277 0)
(-0.0596873 0.420615 0)
(-0.0464867 0.414068 0)
(-0.0347088 0.408732 0)
(-0.02402 0.404677 0)
(-0.0141572 0.40193 0)
(-0.00473184 0.396954 0)
)
;
    }
}


// ************************************************************************* //
