/*--------------------------------*- C++ -*----------------------------------*\
| =========                 |                                                 |
| \\      /  F ield         | OpenFOAM: The Open Source CFD Toolbox           |
|  \\    /   O peration     | Version:  2.4.0                                 |
|   \\  /    A nd           | Web:      www.OpenFOAM.org                      |
|    \\/     M anipulation  |                                                 |
\*---------------------------------------------------------------------------*/
FoamFile
{
    version     2.0;
    format      ascii;
    class       volVectorField;
    location    "0.1";
    object      U.air;
}
// * * * * * * * * * * * * * * * * * * * * * * * * * * * * * * * * * * * * * //

dimensions      [0 1 -1 0 0 0 0];

internalField   nonuniform List<vector> 
559
(
(0.136557 0.0628015 0)
(0.127238 0.19022 0)
(0.128411 0.289846 0)
(0.1218 0.430734 0)
(0.147433 0.511523 0)
(0.159528 0.690662 0)
(0.231234 0.780281 0)
(0.318523 1.08252 0)
(-0.0852158 0.026648 0)
(-0.158472 0.00924992 0)
(-0.154239 -0.0078017 0)
(-0.108843 -0.0144457 0)
(-0.015863 -0.0209373 0)
(0.147397 -0.0412739 0)
(0.370845 -0.0457161 0)
(0.551036 -0.0251105 0)
(0.614447 -0.00298919 0)
(0.597284 0.00992751 0)
(0.526608 0.0161267 0)
(0.447365 0.0165911 0)
(0.371347 0.0152107 0)
(0.301707 0.0137527 0)
(0.238608 0.0125437 0)
(0.180626 0.0116223 0)
(0.126409 0.0109652 0)
(0.0747861 0.0105365 0)
(0.0246783 0.0104138 0)
(-0.0941285 0.0806655 0)
(-0.17744 0.0271935 0)
(-0.162926 -0.0276816 0)
(-0.110387 -0.0469426 0)
(-0.0163658 -0.0648863 0)
(0.154157 -0.127124 0)
(0.397185 -0.143253 0)
(0.592886 -0.0773596 0)
(0.653097 -0.00168301 0)
(0.634892 0.0321382 0)
(0.550666 0.0501619 0)
(0.463016 0.0516341 0)
(0.383579 0.0471744 0)
(0.311642 0.0426497 0)
(0.246537 0.0389342 0)
(0.186685 0.036106 0)
(0.13068 0.0340876 0)
(0.0773125 0.0327923 0)
(0.0254362 0.0319799 0)
(-0.108146 0.15255 0)
(-0.215032 0.04598 0)
(-0.180041 -0.054194 0)
(-0.10475 -0.0824031 0)
(0.00253589 -0.110173 0)
(0.195318 -0.214985 0)
(0.462937 -0.249118 0)
(0.681672 -0.136015 0)
(0.745417 -0.00578221 0)
(0.677005 0.0613542 0)
(0.559778 0.0883072 0)
(0.462635 0.0877324 0)
(0.381741 0.0792996 0)
(0.309932 0.0714717 0)
(0.245172 0.0652117 0)
(0.185675 0.0604804 0)
(0.129989 0.0571114 0)
(0.0769143 0.0549592 0)
(0.0253049 0.0536398 0)
(-0.144676 0.197812 0)
(-0.276025 0.0664147 0)
(-0.161732 -0.0927487 0)
(-0.00637878 -0.141553 0)
(0.183859 -0.181215 0)
(0.476986 -0.328505 0)
(0.761648 -0.406477 0)
(0.972675 -0.194636 0)
(0.860826 0.0295403 0)
(0.689381 0.118866 0)
(0.553161 0.135586 0)
(0.457584 0.125078 0)
(0.377301 0.111472 0)
(0.306341 0.100161 0)
(0.242402 0.0913401 0)
(0.183638 0.0847235 0)
(0.128599 0.0800239 0)
(0.0761097 0.0770279 0)
(0.0250433 0.0751779 0)
(-0.174134 0.421127 0)
(-0.301495 0.0997715 0)
(0.105564 -0.157816 0)
(0.433942 -0.169603 0)
(0.815816 -0.18696 0)
(1.31206 -0.475764 0)
(1.57166 -0.523063 0)
(1.26931 -0.155481 0)
(0.881154 0.136616 0)
(0.673263 0.189667 0)
(0.543752 0.182125 0)
(0.45004 0.161741 0)
(0.371054 0.14314 0)
(0.301435 0.128398 0)
(0.238664 0.117066 0)
(0.180904 0.108615 0)
(0.126739 0.102626 0)
(0.0750312 0.0988113 0)
(0.0246915 0.096444 0)
(-0.215222 0.13962 0)
(0.248431 -0.0575261 0)
(0.865665 -0.494099 0)
(1.08721 -0.447761 0)
(1.4055 -0.420263 0)
(1.83014 -0.651334 0)
(1.88334 -0.493899 0)
(1.20445 0.0986393 0)
(0.823006 0.265747 0)
(0.649041 0.258346 0)
(0.530546 0.226932 0)
(0.439904 0.197626 0)
(0.363082 0.174201 0)
(0.295285 0.156113 0)
(0.234018 0.142345 0)
(0.177518 0.132122 0)
(0.124438 0.124889 0)
(0.0736971 0.120285 0)
(0.0242562 0.117417 0)
(-0.0452271 0.927831 0)
(0.897508 -0.408402 0)
(0.975023 -0.582212 0)
(1.10905 -0.611805 0)
(1.37063 -0.640065 0)
(1.81937 -0.728262 0)
(1.58572 -0.224123 0)
(0.989776 0.289481 0)
(0.760593 0.36643 0)
(0.620141 0.316474 0)
(0.513196 0.268306 0)
(0.427278 0.231655 0)
(0.353459 0.20383 0)
(0.287953 0.182666 0)
(0.22851 0.166659 0)
(0.173515 0.154805 0)
(0.12172 0.146426 0)
(0.072121 0.141095 0)
(0.0237405 0.13776 0)
(1.05015 -0.332445 0)
(1.04299 -0.520094 0)
(1.10601 -0.653521 0)
(1.20387 -0.685705 0)
(1.40753 -0.653783 0)
(1.63004 -0.661356 0)
(1.23169 -0.0838513 0)
(0.855805 0.425929 0)
(0.702898 0.445127 0)
(0.586524 0.368088 0)
(0.49213 0.308457 0)
(0.412267 0.265434 0)
(0.342219 0.233397 0)
(0.279465 0.209226 0)
(0.22216 0.191013 0)
(0.168908 0.177548 0)
(0.118594 0.168036 0)
(0.0703084 0.161984 0)
(0.023148 0.158183 0)
(1.1662 0.963916 0)
(1.15925 0.394269 0)
(1.05553 0.0856509 0)
(1.00206 -0.0564041 0)
(0.941673 -0.205094 0)
(0.885437 -0.320758 0)
(0.821138 -0.417274 0)
(0.75034 -0.503549 0)
(1.42828 0.817362 0)
(1.43703 0.589944 0)
(1.3033 0.341316 0)
(1.15823 0.228293 0)
(1.29755 0.264044 0)
(1.40998 0.0605331 0)
(1.47282 -0.137056 0)
(1.53182 -0.250671 0)
(1.17417 0.0737885 0)
(1.2893 0.00326975 0)
(1.36787 -0.0728966 0)
(1.42349 -0.113883 0)
(1.07107 -0.103836 0)
(1.15785 -0.174865 0)
(1.20859 -0.214517 0)
(1.26885 -0.280002 0)
(1.00966 -0.266994 0)
(1.0681 -0.299175 0)
(1.10457 -0.323754 0)
(1.19723 -0.382779 0)
(0.942465 -0.373385 0)
(0.986364 -0.392316 0)
(1.03354 -0.427801 0)
(1.21189 -0.494739 0)
(0.870011 -0.466499 0)
(0.91199 -0.49939 0)
(0.976452 -0.556827 0)
(1.21228 -0.592252 0)
(0.792532 -0.55843 0)
(0.837598 -0.604675 0)
(0.901283 -0.653545 0)
(1.27156 -0.5874 0)
(0.710706 -0.640671 0)
(0.75539 -0.688727 0)
(0.927573 -0.689647 0)
(1.29978 -0.60094 0)
(0.627714 -0.707422 0)
(0.749759 -0.739263 0)
(1.02887 -0.631263 0)
(1.0305 -0.679624 0)
(0.561889 -0.75735 0)
(0.741393 -0.723828 0)
(0.934576 -0.654621 0)
(0.823812 -0.704556 0)
(0.570804 -0.749728 0)
(0.83824 -0.689454 0)
(0.733185 -0.803336 0)
(0.707194 -0.406092 0)
(0.655435 -0.70288 0)
(0.587105 -0.766866 0)
(0.524298 -0.711779 0)
(-0.147975 0.212686 0)
(0.459086 -0.763988 0)
(0.359755 -0.787049 0)
(0.115656 0.0591808 0)
(-0.400442 0.688435 0)
(0.262927 -0.805065 0)
(0.208035 -0.317714 0)
(-0.510823 0.672795 0)
(-0.447717 0.821001 0)
(0.186398 -0.356829 0)
(-0.536005 0.683696 0)
(-0.583007 0.791974 0)
(-0.537198 0.81241 0)
(-0.605847 0.617578 0)
(-0.747009 0.715442 0)
(-0.66953 0.75646 0)
(-0.60884 0.720601 0)
(1.19664 -0.256538 0)
(1.34222 -0.459992 0)
(1.39524 -0.616676 0)
(1.51151 -0.607904 0)
(1.52953 -0.632416 0)
(1.42821 -0.665755 0)
(0.874108 0.167511 0)
(0.700613 0.556454 0)
(0.626673 0.524225 0)
(0.532385 0.42894 0)
(0.456419 0.360963 0)
(0.386393 0.311545 0)
(0.322822 0.27471 0)
(0.26482 0.246904 0)
(0.211203 0.225936 0)
(0.160954 0.210419 0)
(0.113194 0.199444 0)
(0.0671762 0.192454 0)
(0.0221254 0.188023 0)
(1.61737 -0.420009 0)
(1.62575 -0.52517 0)
(1.67497 -0.57959 0)
(1.67862 -0.547142 0)
(1.59893 -0.679984 0)
(1.18362 -0.409559 0)
(0.616632 0.48097 0)
(0.55391 0.657724 0)
(0.511161 0.590671 0)
(0.454399 0.492659 0)
(0.400266 0.420876 0)
(0.344691 0.366726 0)
(0.29142 0.325564 0)
(0.241059 0.294121 0)
(0.193395 0.270235 0)
(0.148006 0.25247 0)
(0.10439 0.239861 0)
(0.0620629 0.231811 0)
(0.0204523 0.226629 0)
(1.51621 -0.277068 0)
(1.60402 -0.394415 0)
(1.78054 -0.34538 0)
(1.72346 -0.552612 0)
(1.5944 -0.52128 0)
(0.909609 0.172055 0)
(0.487754 0.675431 0)
(0.447508 0.70712 0)
(0.415301 0.621579 0)
(0.382934 0.535438 0)
(0.343608 0.466367 0)
(0.30073 0.411753 0)
(0.25747 0.368935 0)
(0.21497 0.335564 0)
(0.173654 0.309883 0)
(0.133561 0.290616 0)
(0.094527 0.27686 0)
(0.0563201 0.268045 0)
(0.0185716 0.262258 0)
(1.45441 -0.404257 0)
(1.71347 -0.382088 0)
(1.70657 -0.405685 0)
(1.63748 -0.701208 0)
(1.11877 -0.0645797 0)
(0.474967 0.614203 0)
(0.359015 0.77746 0)
(0.349538 0.729217 0)
(0.336611 0.640197 0)
(0.317233 0.563962 0)
(0.289307 0.499592 0)
(0.257087 0.446908 0)
(0.222831 0.404405 0)
(0.187852 0.37059 0)
(0.152873 0.344183 0)
(0.118224 0.324166 0)
(0.0839947 0.309772 0)
(0.0501656 0.300506 0)
(0.0165536 0.294273 0)
(1.42728 -0.417462 0)
(1.74807 -0.262876 0)
(1.69341 -0.53592 0)
(1.44667 -0.217718 0)
(0.511584 0.511653 0)
(0.272195 0.797542 0)
(0.262046 0.80263 0)
(0.268454 0.7273 0)
(0.268291 0.650732 0)
(0.257149 0.582312 0)
(0.238529 0.523337 0)
(0.215115 0.473715 0)
(0.188745 0.432741 0)
(0.160697 0.39954 0)
(0.131794 0.373248 0)
(0.102524 0.353109 0)
(0.0731446 0.338521 0)
(0.0438005 0.329083 0)
(0.0144631 0.322552 0)
(1.58846 -0.339284 0)
(1.58658 -0.4549 0)
(1.49308 -0.489727 0)
(0.683659 0.315321 0)
(0.217071 0.767585 0)
(0.181366 0.839216 0)
(0.190421 0.791167 0)
(0.203726 0.720573 0)
(0.207805 0.653923 0)
(0.203065 0.593107 0)
(0.191734 0.539527 0)
(0.175559 0.493467 0)
(0.156011 0.454727 0)
(0.13422 0.422848 0)
(0.110997 0.397288 0)
(0.0868948 0.377522 0)
(0.0622767 0.363102 0)
(0.0373997 0.353729 0)
(0.0123575 0.347027 0)
(1.52591 -0.375171 0)
(1.44717 -0.625938 0)
(1.01891 0.0618994 0)
(0.193541 0.708594 0)
(0.105019 0.863086 0)
(0.113556 0.835023 0)
(0.132332 0.773 0)
(0.147169 0.711458 0)
(0.154244 0.652454 0)
(0.154491 0.598176 0)
(0.148935 0.549625 0)
(0.138765 0.507254 0)
(0.125106 0.471109 0)
(0.108903 0.440993 0)
(0.0909041 0.416592 0)
(0.0716756 0.397565 0)
(0.0516329 0.383596 0)
(0.0311077 0.374476 0)
(0.0102848 0.367711 0)
(1.31221 -0.625437 0)
(1.12814 -0.356594 0)
(0.249041 0.530118 0)
(0.0231122 0.870424 0)
(0.035165 0.87042 0)
(0.0572554 0.813957 0)
(0.0796917 0.756282 0)
(0.0960834 0.700311 0)
(0.106294 0.647462 0)
(0.110696 0.598698 0)
(0.109928 0.554728 0)
(0.104836 0.515973 0)
(0.09628 0.482569 0)
(0.0850479 0.454466 0)
(0.0718098 0.431502 0)
(0.0571138 0.41347 0)
(0.0413975 0.400159 0)
(0.0250372 0.391434 0)
(0.00828262 0.384693 0)
(1.20058 -0.747911 0)
(0.649427 0.0806581 0)
(-0.0470628 0.837917 0)
(-0.043836 0.897667 0)
(-0.0216082 0.847325 0)
(0.00664604 0.791044 0)
(0.0310032 0.73777 0)
(0.0497695 0.686949 0)
(0.0630573 0.639325 0)
(0.0711209 0.595398 0)
(0.0744657 0.555619 0)
(0.0737449 0.520339 0)
(0.0696448 0.489703 0)
(0.0628315 0.463739 0)
(0.053904 0.442379 0)
(0.0433811 0.42551 0)
(0.0317033 0.413002 0)
(0.0192713 0.404773 0)
(0.00637915 0.398124 0)
(0.925101 -0.571362 0)
(-0.171609 0.567005 0)
(-0.129514 0.91888 0)
(-0.121428 0.870433 0)
(-0.0711074 0.817423 0)
(-0.0408623 0.765426 0)
(-0.0134344 0.716813 0)
(0.007806 0.671074 0)
(0.0240495 0.628248 0)
(0.0353935 0.588768 0)
(0.0423307 0.552867 0)
(0.0454227 0.520925 0)
(0.0452305 0.493025 0)
(0.0423444 0.469247 0)
(0.0373019 0.449581 0)
(0.0305897 0.433981 0)
(0.0226411 0.422369 0)
(0.0138678 0.414704 0)
(0.00459384 0.4082 0)
(0.539664 -0.0750996 0)
(-0.396221 0.844463 0)
(-0.154842 0.877546 0)
(-0.170637 0.83308 0)
(-0.1154 0.783088 0)
(-0.0833426 0.737525 0)
(-0.0535653 0.693737 0)
(-0.0297381 0.652771 0)
(-0.0109337 0.614464 0)
(0.0032758 0.579104 0)
(0.0133454 0.546882 0)
(0.0197927 0.518218 0)
(0.0230253 0.492975 0)
(0.0236232 0.471388 0)
(0.022066 0.453454 0)
(0.0188081 0.439184 0)
(0.0142682 0.428525 0)
(0.00886492 0.421465 0)
(0.00294052 0.415135 0)
(-0.303078 0.400794 0)
(-0.344718 0.892893 0)
(-0.224623 0.822895 0)
(-0.204724 0.793358 0)
(-0.155855 0.748138 0)
(-0.120926 0.707879 0)
(-0.0894484 0.669077 0)
(-0.0634061 0.632462 0)
(-0.0422056 0.598365 0)
(-0.0254532 0.566827 0)
(-0.0125346 0.538167 0)
(-0.00318749 0.512474 0)
(0.00297818 0.489905 0)
(0.00667184 0.47052 0)
(0.00822483 0.45432 0)
(0.00807572 0.441424 0)
(0.00661639 0.431745 0)
(0.0042765 0.425313 0)
(0.001418 0.419209 0)
(-0.327607 0.742123 0)
(-0.340739 0.853138 0)
(-0.275377 0.782238 0)
(-0.23635 0.751722 0)
(-0.191437 0.712627 0)
(-0.154243 0.676873 0)
(-0.121226 0.642659 0)
(-0.0932792 0.610359 0)
(-0.0699853 0.580242 0)
(-0.0509403 0.552398 0)
(-0.0356425 0.527101 0)
(-0.0237337 0.504245 0)
(-0.0148318 0.484216 0)
(-0.00849893 0.466978 0)
(-0.00420731 0.45252 0)
(-0.00158073 0.440955 0)
(-0.000299425 0.432273 0)
(0.000109025 0.426498 0)
(5.05645e-05 0.420424 0)
(-0.345022 0.791289 0)
(-0.37309 0.789389 0)
(-0.308114 0.743451 0)
(-0.267522 0.710148 0)
(-0.222631 0.676119 0)
(-0.183644 0.644576 0)
(-0.149132 0.61466 0)
(-0.119506 0.586528 0)
(-0.0943673 0.560291 0)
(-0.0733207 0.536048 0)
(-0.0559405 0.513929 0)
(-0.0418678 0.493973 0)
(-0.0306528 0.476339 0)
(-0.0219432 0.461102 0)
(-0.0152741 0.448381 0)
(-0.0102122 0.438101 0)
(-0.00645253 0.430405 0)
(-0.00351232 0.425301 0)
(-0.0013164 0.419708 0)
(-0.403527 0.784633 0)
(-0.410493 0.745915 0)
(-0.34124 0.699755 0)
(-0.296899 0.668296 0)
(-0.250025 0.638205 0)
(-0.209299 0.610905 0)
(-0.17332 0.585241 0)
(-0.142155 0.561206 0)
(-0.115418 0.538789 0)
(-0.092703 0.518025 0)
(-0.0735719 0.498999 0)
(-0.0576406 0.481791 0)
(-0.0444959 0.466531 0)
(-0.033741 0.453265 0)
(-0.0249785 0.442173 0)
(-0.0178176 0.433201 0)
(-0.0118655 0.42646 0)
(-0.0068266 0.421961 0)
(-0.00210837 0.416692 0)
(-0.51522 0.726344 0)
(-0.437443 0.697923 0)
(-0.378274 0.651339 0)
(-0.322512 0.624118 0)
(-0.273892 0.598575 0)
(-0.231082 0.575824 0)
(-0.19373 0.554579 0)
(-0.161256 0.534663 0)
(-0.133224 0.515987 0)
(-0.109158 0.498608 0)
(-0.0886012 0.482585 0)
(-0.0711522 0.468033 0)
(-0.0563957 0.455048 0)
(-0.0439331 0.443742 0)
(-0.0333932 0.4342 0)
(-0.0244055 0.426505 0)
(-0.0166027 0.420691 0)
(-0.0096027 0.416791 0)
(-0.00334143 0.411496 0)
(-0.582262 0.659652 0)
(-0.471288 0.628702 0)
(-0.406722 0.597627 0)
(-0.344061 0.576638 0)
(-0.293101 0.557095 0)
(-0.248671 0.539516 0)
(-0.210227 0.522917 0)
(-0.176819 0.507155 0)
(-0.147852 0.492184 0)
(-0.122783 0.478101 0)
(-0.101132 0.464988 0)
(-0.0824794 0.452983 0)
(-0.0664166 0.442202 0)
(-0.0525605 0.432763 0)
(-0.0405447 0.424749 0)
(-0.0300194 0.418262 0)
(-0.0206305 0.413341 0)
(-0.0120442 0.410037 0)
(-0.00387402 0.405654 0)
)
;

boundaryField
{
    leftWall
    {
        type            fixedValue;
        value           nonuniform 0();
    }
    rightWall
    {
        type            fixedValue;
        value           uniform (0 0 0);
    }
    lowerWall
    {
        type            fixedValue;
        value           uniform (0 0 0);
    }
    atmosphere
    {
        type            fluxCorrectedVelocity;
        value           nonuniform 0();
    }
    defaultFaces
    {
        type            empty;
    }
    procBoundary1to0
    {
        type            processor;
        value           nonuniform List<vector> 
26
(
(0.567768 0.0142797 0)
(0.376828 0.19376 0)
(0.335722 0.305133 0)
(0.334302 0.382167 0)
(0.352242 0.452772 0)
(0.404211 0.530178 0)
(0.468586 0.553307 0)
(0.592486 0.633545 0)
(0.894892 0.478234 0)
(0.880365 0.233686 0)
(0.84621 0.0688082 0)
(0.842527 -0.0409202 0)
(0.809357 -0.150683 0)
(0.768979 -0.258365 0)
(0.722417 -0.352643 0)
(0.666656 -0.435175 0)
(0.674348 -0.578552 0)
(0.674348 -0.578552 0)
(0.59467 -0.644592 0)
(0.515729 -0.700338 0)
(0.440132 -0.745105 0)
(0.455082 -0.718538 0)
(0.452586 -0.638985 0)
(0.303934 -0.693152 0)
(0.152771 -0.773081 0)
(0.0238229 -0.456449 0)
)
;
    }
    procBoundary1to3
    {
        type            processor;
        value           nonuniform List<vector> 
23
(
(-0.881418 0.558539 0)
(-0.837629 0.624792 0)
(-0.719649 0.625842 0)
(-0.675703 0.580455 0)
(-0.616598 0.571871 0)
(-0.48913 0.551995 0)
(-0.425846 0.539787 0)
(-0.358202 0.526618 0)
(-0.306956 0.514334 0)
(-0.261599 0.502383 0)
(-0.222708 0.490584 0)
(-0.188838 0.478987 0)
(-0.159347 0.467672 0)
(-0.133643 0.456798 0)
(-0.111236 0.446503 0)
(-0.0917005 0.43695 0)
(-0.0746404 0.428278 0)
(-0.0596873 0.420615 0)
(-0.0464867 0.414068 0)
(-0.0347088 0.408732 0)
(-0.02402 0.404677 0)
(-0.0141572 0.40193 0)
(-0.00473185 0.396955 0)
)
;
    }
}


// ************************************************************************* //
