/*--------------------------------*- C++ -*----------------------------------*\
| =========                 |                                                 |
| \\      /  F ield         | OpenFOAM: The Open Source CFD Toolbox           |
|  \\    /   O peration     | Version:  2.4.0                                 |
|   \\  /    A nd           | Web:      www.OpenFOAM.org                      |
|    \\/     M anipulation  |                                                 |
\*---------------------------------------------------------------------------*/
FoamFile
{
    version     2.0;
    format      ascii;
    class       volVectorField;
    location    "0.1";
    object      U.oil;
}
// * * * * * * * * * * * * * * * * * * * * * * * * * * * * * * * * * * * * * //

dimensions      [0 1 -1 0 0 0 0];

internalField   nonuniform List<vector> 
559
(
(0.136446 0.0628438 0)
(0.127233 0.190254 0)
(0.128411 0.289905 0)
(0.121802 0.430803 0)
(0.147442 0.511598 0)
(0.15954 0.69074 0)
(0.231251 0.780339 0)
(0.318554 1.08262 0)
(-0.0851791 0.026607 0)
(-0.158335 0.00889599 0)
(-0.153691 -0.00967683 0)
(-0.107881 -0.0205328 0)
(-0.0116412 -0.0381246 0)
(0.157346 -0.0651294 0)
(0.402913 -0.0825219 0)
(0.608651 -0.0665513 0)
(0.61553 -0.00603042 0)
(0.599623 0.00386602 0)
(0.642619 -0.0403936 0)
(0.447852 0.0152692 0)
(0.371473 0.0151485 0)
(0.301799 0.0137482 0)
(0.238674 0.0125403 0)
(0.180671 0.011619 0)
(0.126437 0.0109618 0)
(0.0747995 0.0105329 0)
(0.0246816 0.0104106 0)
(-0.0941288 0.0800397 0)
(-0.176229 0.0238241 0)
(-0.155345 -0.0370395 0)
(-0.10013 -0.0769604 0)
(0.0379578 -0.160824 0)
(0.237543 -0.222845 0)
(0.73642 -0.366142 0)
(1.58059 -0.675847 0)
(0.92939 -0.204451 0)
(2.6665 -1.18038 0)
(1.9803 -0.761568 0)
(0.699122 -0.0646528 0)
(0.387958 0.0459034 0)
(0.311782 0.0426222 0)
(0.246603 0.038921 0)
(0.18673 0.0360936 0)
(0.130708 0.0340754 0)
(0.0773259 0.0327801 0)
(0.0254397 0.0319679 0)
(-0.108442 0.147047 0)
(-0.201974 0.023539 0)
(-0.105687 -0.105932 0)
(-0.0427515 -0.185607 0)
(0.179697 -0.312701 0)
(0.463861 -0.398179 0)
(1.33095 -0.711537 0)
(2.38343 -1.1659 0)
(3.10892 -1.4807 0)
(3.14115 -1.46903 0)
(2.17389 -0.873554 0)
(0.705961 -0.0544542 0)
(0.391201 0.074933 0)
(0.310237 0.0714249 0)
(0.245246 0.0651906 0)
(0.18572 0.0604601 0)
(0.130017 0.0570913 0)
(0.0769276 0.0549392 0)
(0.0253082 0.0536201 0)
(-0.139386 0.165142 0)
(-0.127372 -0.0645001 0)
(0.409475 -0.354258 0)
(0.455035 -0.419544 0)
(0.728365 -0.550811 0)
(1.17754 -0.666297 0)
(1.86363 -0.931716 0)
(2.62694 -1.27261 0)
(3.09307 -1.47983 0)
(2.71779 -1.21449 0)
(1.1963 -0.28403 0)
(0.524971 0.0791726 0)
(0.379758 0.110071 0)
(0.306544 0.100099 0)
(0.242473 0.0913106 0)
(0.183683 0.0846953 0)
(0.128627 0.0799959 0)
(0.0761233 0.077 0)
(0.0250469 0.0751502 0)
(0.320678 -0.116846 0)
(0.719229 -0.459686 0)
(1.06772 -0.592823 0)
(1.25268 -0.704802 0)
(1.51537 -0.824643 0)
(1.84155 -0.929314 0)
(2.25843 -1.09356 0)
(2.63822 -1.26153 0)
(2.62772 -1.2368 0)
(1.33744 -0.360305 0)
(0.644102 0.0784868 0)
(0.458446 0.152305 0)
(0.371823 0.142679 0)
(0.301574 0.128345 0)
(0.238733 0.117031 0)
(0.180949 0.108581 0)
(0.126767 0.102591 0)
(0.0750446 0.0987768 0)
(0.0246948 0.0964101 0)
(0.608319 -0.352399 0)
(0.856817 -0.431767 0)
(0.98343 -0.535746 0)
(1.10367 -0.604434 0)
(1.41325 -0.742862 0)
(1.93663 -0.954644 0)
(2.39437 -1.14622 0)
(2.46741 -1.16659 0)
(1.91853 -0.658537 0)
(0.856448 0.029258 0)
(0.556554 0.18756 0)
(0.442733 0.194501 0)
(0.363488 0.174005 0)
(0.2954 0.156069 0)
(0.234085 0.142307 0)
(0.177563 0.132082 0)
(0.124465 0.124849 0)
(0.0737108 0.120245 0)
(0.02426 0.117377 0)
(0.68583 -0.204431 0)
(0.948801 -0.435347 0)
(0.980401 -0.516627 0)
(1.0812 -0.579045 0)
(1.36409 -0.694571 0)
(1.84903 -0.896547 0)
(2.14421 -1.01474 0)
(2.46269 -1.05875 0)
(1.45059 -0.325697 0)
(0.75119 0.161988 0)
(0.528359 0.249463 0)
(0.428858 0.230414 0)
(0.353722 0.203727 0)
(0.288057 0.182623 0)
(0.228577 0.166614 0)
(0.173559 0.154758 0)
(0.121747 0.146378 0)
(0.0721343 0.141046 0)
(0.0237438 0.137711 0)
(1.09631 -0.246866 0)
(1.07039 -0.388849 0)
(1.10849 -0.519092 0)
(1.17178 -0.575568 0)
(1.35415 -0.660779 0)
(1.66877 -0.794571 0)
(2.06448 -0.960756 0)
(2.11868 -0.868181 0)
(1.28088 -0.0882924 0)
(0.664098 0.288285 0)
(0.498947 0.30111 0)
(0.413083 0.264924 0)
(0.342402 0.233338 0)
(0.279558 0.209183 0)
(0.222223 0.190964 0)
(0.16895 0.177496 0)
(0.11862 0.167982 0)
(0.0703216 0.16193 0)
(0.0231517 0.158129 0)
(1.16628 0.964012 0)
(1.15929 0.394285 0)
(1.05557 0.0857044 0)
(1.00209 -0.0563796 0)
(0.941714 -0.205081 0)
(0.885474 -0.320741 0)
(0.821167 -0.417251 0)
(0.750367 -0.503533 0)
(1.42837 0.81749 0)
(1.43716 0.590061 0)
(1.30337 0.341303 0)
(1.15829 0.228284 0)
(1.29759 0.264003 0)
(1.41006 0.06049 0)
(1.47287 -0.136958 0)
(1.53188 -0.250617 0)
(1.17421 0.0737838 0)
(1.28935 0.00321318 0)
(1.36787 -0.0728585 0)
(1.42353 -0.113872 0)
(1.07112 -0.103871 0)
(1.15789 -0.174834 0)
(1.2086 -0.214462 0)
(1.2687 -0.280007 0)
(1.0097 -0.266981 0)
(1.06809 -0.299127 0)
(1.1046 -0.323761 0)
(1.18963 -0.382802 0)
(0.94248 -0.373343 0)
(0.986383 -0.392297 0)
(1.0336 -0.427845 0)
(1.13119 -0.494752 0)
(0.870022 -0.466483 0)
(0.912034 -0.499418 0)
(0.976433 -0.556845 0)
(1.03879 -0.59476 0)
(0.792549 -0.558428 0)
(0.837615 -0.604687 0)
(0.894219 -0.654192 0)
(0.900797 -0.666818 0)
(0.710719 -0.640684 0)
(0.754067 -0.688747 0)
(0.783683 -0.718023 0)
(0.755526 -0.736789 0)
(0.627657 -0.707462 0)
(0.658897 -0.744639 0)
(0.654598 -0.757339 0)
(0.601498 -0.827581 0)
(0.549499 -0.758619 0)
(0.559432 -0.78113 0)
(0.507844 -0.821569 0)
(0.391906 -0.93917 0)
(0.457587 -0.802037 0)
(0.418109 -0.832108 0)
(0.306308 -0.919873 0)
(0.195369 -0.973303 0)
(0.327505 -0.840363 0)
(0.244691 -0.903261 0)
(0.133787 -0.917768 0)
(0.0642504 -0.847718 0)
(0.169679 -0.892511 0)
(0.0872676 -0.906471 0)
(0.019545 -0.851302 0)
(-0.277699 0.347709 0)
(0.03478 -0.899565 0)
(0.0256293 -0.883036 0)
(-0.191056 -0.142611 0)
(-0.431666 0.793689 0)
(-0.0218248 -0.914167 0)
(-0.0783467 -0.639447 0)
(-0.567067 0.756106 0)
(-0.529728 0.809056 0)
(-0.107191 -1.01476 0)
(-0.726766 0.675994 0)
(-0.665149 0.754874 0)
(-0.605632 0.721361 0)
(1.19638 -0.0829642 0)
(1.34268 -0.371808 0)
(1.37056 -0.515067 0)
(1.37503 -0.577623 0)
(1.43201 -0.646219 0)
(1.62807 -0.755675 0)
(2.0345 -0.925448 0)
(1.65061 -0.354012 0)
(0.792233 0.369403 0)
(0.548741 0.410592 0)
(0.458127 0.358986 0)
(0.386716 0.311376 0)
(0.322946 0.274685 0)
(0.264902 0.246872 0)
(0.211262 0.225893 0)
(0.160995 0.210369 0)
(0.11322 0.199391 0)
(0.0671888 0.1924 0)
(0.0221284 0.187968 0)
(1.61725 -0.420014 0)
(1.60174 -0.522098 0)
(1.50866 -0.544276 0)
(1.46698 -0.597425 0)
(1.52505 -0.652261 0)
(1.70224 -0.743913 0)
(1.95757 -0.786593 0)
(0.678855 0.541376 0)
(0.528697 0.566828 0)
(0.457159 0.489066 0)
(0.40077 0.420542 0)
(0.344837 0.366731 0)
(0.291508 0.325567 0)
(0.241125 0.294102 0)
(0.193444 0.270202 0)
(0.148041 0.252428 0)
(0.104412 0.239812 0)
(0.0620744 0.231759 0)
(0.0204558 0.226577 0)
(1.51017 -0.276997 0)
(1.51136 -0.369088 0)
(1.42857 -0.443666 0)
(1.44674 -0.578419 0)
(1.62623 -0.68777 0)
(1.94792 -0.812861 0)
(1.35144 -0.0968121 0)
(0.455559 0.695953 0)
(0.418466 0.617694 0)
(0.383609 0.534845 0)
(0.343764 0.466377 0)
(0.300804 0.411791 0)
(0.257528 0.368946 0)
(0.215018 0.335552 0)
(0.173691 0.309855 0)
(0.133588 0.290578 0)
(0.094545 0.276815 0)
(0.0563292 0.267996 0)
(0.0185738 0.262208 0)
(1.36543 -0.405632 0)
(1.35398 -0.448269 0)
(1.32821 -0.568119 0)
(1.41463 -0.775899 0)
(1.63054 -0.93699 0)
(1.56829 -0.658495 0)
(0.379789 0.757093 0)
(0.350975 0.727311 0)
(0.337241 0.639663 0)
(0.317373 0.563965 0)
(0.289353 0.499653 0)
(0.257123 0.446946 0)
(0.222864 0.404417 0)
(0.187882 0.370581 0)
(0.152898 0.344158 0)
(0.118243 0.324131 0)
(0.0840073 0.30973 0)
(0.0501724 0.300459 0)
(0.0165558 0.294226 0)
(1.27816 -0.445404 0)
(1.25051 -0.483876 0)
(1.23639 -0.651855 0)
(1.28306 -0.820415 0)
(1.32374 -0.831377 0)
(0.349903 0.678494 0)
(0.263196 0.801369 0)
(0.268689 0.727156 0)
(0.268369 0.65075 0)
(0.257158 0.582376 0)
(0.238534 0.523386 0)
(0.215126 0.47374 0)
(0.188759 0.432745 0)
(0.160712 0.399528 0)
(0.131808 0.373222 0)
(0.102535 0.353075 0)
(0.0731528 0.33848 0)
(0.0438047 0.329038 0)
(0.014464 0.322506 0)
(1.14294 -0.519649 0)
(1.10327 -0.662191 0)
(1.07403 -0.891615 0)
(1.1923 -1.03312 0)
(0.436561 0.374909 0)
(0.190392 0.825458 0)
(0.190741 0.79087 0)
(0.203695 0.720601 0)
(0.207776 0.653968 0)
(0.20304 0.593145 0)
(0.191719 0.53955 0)
(0.175552 0.493475 0)
(0.156011 0.454721 0)
(0.134224 0.42283 0)
(0.111001 0.39726 0)
(0.0868996 0.377487 0)
(0.0622802 0.363062 0)
(0.0374019 0.353685 0)
(0.0123585 0.346983 0)
(0.999738 -0.638964 0)
(0.905321 -0.830786 0)
(0.868797 -0.960483 0)
(0.694564 -0.480534 0)
(0.13568 0.808 0)
(0.116003 0.831927 0)
(0.132405 0.77287 0)
(0.147102 0.71147 0)
(0.154195 0.652463 0)
(0.154454 0.598181 0)
(0.14891 0.549623 0)
(0.138749 0.507244 0)
(0.125096 0.471091 0)
(0.108898 0.440967 0)
(0.0909023 0.41656 0)
(0.0716754 0.397528 0)
(0.0516335 0.383555 0)
(0.0311081 0.374432 0)
(0.0102847 0.367667 0)
(0.836322 -0.775407 0)
(0.742553 -0.910546 0)
(0.722159 -0.936796 0)
(0.131147 0.652083 0)
(0.0418833 0.864029 0)
(0.0581845 0.812731 0)
(0.0796465 0.756182 0)
(0.096022 0.700276 0)
(0.106246 0.647434 0)
(0.110658 0.598673 0)
(0.1099 0.554703 0)
(0.104815 0.515946 0)
(0.0962658 0.482539 0)
(0.0850386 0.454433 0)
(0.0718041 0.431466 0)
(0.0571107 0.41343 0)
(0.0413956 0.400117 0)
(0.0250364 0.39139 0)
(0.00828263 0.384649 0)
(0.661705 -0.859914 0)
(0.596159 -0.96516 0)
(0.319736 -0.142913 0)
(-0.0304316 0.878902 0)
(-0.0196423 0.84544 0)
(0.00673401 0.790676 0)
(0.0309489 0.737682 0)
(0.0497202 0.686884 0)
(0.0630155 0.639271 0)
(0.0710868 0.595351 0)
(0.0744387 0.555576 0)
(0.0737243 0.520299 0)
(0.0696294 0.489664 0)
(0.0628205 0.463699 0)
(0.0538966 0.442338 0)
(0.0433763 0.425468 0)
(0.0317005 0.412959 0)
(0.0192697 0.404729 0)
(0.00637849 0.398079 0)
(0.505952 -0.932418 0)
(0.435642 -0.936614 0)
(-0.0965519 0.855573 0)
(-0.118573 0.869381 0)
(-0.0709542 0.816955 0)
(-0.04089 0.765278 0)
(-0.0134719 0.716715 0)
(0.00776958 0.670991 0)
(0.0240169 0.628177 0)
(0.0353658 0.588706 0)
(0.0423081 0.552812 0)
(0.0454048 0.520874 0)
(0.0452166 0.492978 0)
(0.0423339 0.469201 0)
(0.0372943 0.449536 0)
(0.0305845 0.433936 0)
(0.0226376 0.422324 0)
(0.013866 0.414659 0)
(0.00459349 0.408155 0)
(0.298056 -1.01637 0)
(-0.147856 0.340601 0)
(-0.150975 0.872706 0)
(-0.170519 0.832698 0)
(-0.115389 0.782914 0)
(-0.083359 0.737404 0)
(-0.0535882 0.693632 0)
(-0.0297627 0.65268 0)
(-0.0109568 0.614384 0)
(0.00325573 0.579034 0)
(0.0133288 0.546819 0)
(0.0197791 0.518161 0)
(0.0230144 0.492922 0)
(0.0236146 0.471337 0)
(0.0220595 0.453406 0)
(0.0188033 0.439137 0)
(0.0142651 0.428478 0)
(0.00886315 0.421419 0)
(0.00293983 0.415089 0)
(0.136394 -0.96073 0)
(-0.32338 0.856577 0)
(-0.224075 0.823353 0)
(-0.204655 0.793171 0)
(-0.15584 0.748006 0)
(-0.12093 0.707764 0)
(-0.08946 0.668974 0)
(-0.0634206 0.632369 0)
(-0.0422198 0.598283 0)
(-0.0254656 0.566753 0)
(-0.012545 0.5381 0)
(-0.00319615 0.512413 0)
(0.00297094 0.489849 0)
(0.00666588 0.470467 0)
(0.00822007 0.45427 0)
(0.00807216 0.441375 0)
(0.00661379 0.431698 0)
(0.00427528 0.425266 0)
(0.00141789 0.419162 0)
(-0.135219 0.0808126 0)
(-0.336454 0.850841 0)
(-0.275186 0.781949 0)
(-0.2363 0.751593 0)
(-0.191419 0.712509 0)
(-0.154238 0.676765 0)
(-0.121229 0.64256 0)
(-0.0932852 0.61027 0)
(-0.0699918 0.580161 0)
(-0.050946 0.552325 0)
(-0.0356471 0.527033 0)
(-0.0237377 0.504183 0)
(-0.0148353 0.484159 0)
(-0.00850211 0.466924 0)
(-0.00421005 0.452469 0)
(-0.001583 0.440905 0)
(-0.000300791 0.432225 0)
(0.000108379 0.42645 0)
(5.02429e-05 0.420377 0)
(-0.325735 0.75235 0)
(-0.370909 0.789653 0)
(-0.308003 0.743289 0)
(-0.267475 0.710029 0)
(-0.222607 0.676012 0)
(-0.183632 0.644477 0)
(-0.149128 0.614569 0)
(-0.119505 0.586444 0)
(-0.0943675 0.560214 0)
(-0.0733207 0.535978 0)
(-0.0559403 0.513864 0)
(-0.0418677 0.493912 0)
(-0.030653 0.476282 0)
(-0.0219438 0.461048 0)
(-0.015275 0.44833 0)
(-0.0102129 0.438051 0)
(-0.00645302 0.430357 0)
(-0.00351285 0.425253 0)
(-0.00131668 0.419661 0)
(-0.397358 0.782058 0)
(-0.409651 0.745421 0)
(-0.341159 0.699636 0)
(-0.296851 0.668189 0)
(-0.249996 0.638106 0)
(-0.209281 0.610813 0)
(-0.173309 0.585157 0)
(-0.142148 0.561129 0)
(-0.115413 0.538718 0)
(-0.0926982 0.51796 0)
(-0.0735675 0.498938 0)
(-0.0576371 0.481734 0)
(-0.0444933 0.466477 0)
(-0.0337394 0.453213 0)
(-0.0249776 0.442124 0)
(-0.017817 0.433153 0)
(-0.0118653 0.426413 0)
(-0.0068265 0.421914 0)
(-0.0021083 0.416646 0)
(-0.512722 0.725714 0)
(-0.437033 0.69769 0)
(-0.378186 0.651209 0)
(-0.322461 0.624018 0)
(-0.273857 0.598483 0)
(-0.231058 0.575739 0)
(-0.193713 0.554501 0)
(-0.161243 0.534591 0)
(-0.133213 0.515921 0)
(-0.109149 0.498547 0)
(-0.0885934 0.482528 0)
(-0.0711457 0.467979 0)
(-0.0563908 0.454997 0)
(-0.0439296 0.443694 0)
(-0.0333909 0.434154 0)
(-0.0244041 0.426459 0)
(-0.0166018 0.420646 0)
(-0.00960197 0.416747 0)
(-0.00334108 0.411452 0)
(-0.581251 0.65949 0)
(-0.471081 0.628571 0)
(-0.406644 0.597528 0)
(-0.344005 0.576547 0)
(-0.29306 0.55701 0)
(-0.24864 0.539437 0)
(-0.210204 0.522845 0)
(-0.176801 0.507088 0)
(-0.147837 0.492123 0)
(-0.12277 0.478044 0)
(-0.101121 0.464934 0)
(-0.0824704 0.452933 0)
(-0.0664096 0.442154 0)
(-0.0525553 0.432717 0)
(-0.0405411 0.424705 0)
(-0.0300171 0.418218 0)
(-0.0206292 0.413298 0)
(-0.0120431 0.409995 0)
(-0.00387332 0.405612 0)
)
;

boundaryField
{
    leftWall
    {
        type            fixedValue;
        value           nonuniform 0();
    }
    rightWall
    {
        type            fixedValue;
        value           uniform (0 0 0);
    }
    lowerWall
    {
        type            fixedValue;
        value           uniform (0 0 0);
    }
    atmosphere
    {
        type            fluxCorrectedVelocity;
        value           nonuniform 0();
    }
    defaultFaces
    {
        type            empty;
    }
    procBoundary1to0
    {
        type            processor;
        value           nonuniform List<vector> 
26
(
(0.410084 0.0858049 0)
(0.359447 0.201674 0)
(0.335731 0.305159 0)
(0.334311 0.382216 0)
(0.352259 0.452829 0)
(0.404237 0.530236 0)
(0.468622 0.55335 0)
(0.592533 0.633586 0)
(0.894932 0.478255 0)
(0.880394 0.233703 0)
(0.846241 0.0688298 0)
(0.842552 -0.0408909 0)
(0.809384 -0.15066 0)
(0.769005 -0.258346 0)
(0.722442 -0.352626 0)
(0.666679 -0.435161 0)
(0.674364 -0.578551 0)
(0.674364 -0.578551 0)
(0.594668 -0.644619 0)
(0.515645 -0.700407 0)
(0.437484 -0.745332 0)
(0.349346 -0.772779 0)
(0.237765 -0.798648 0)
(0.0930156 -0.869272 0)
(0.000965323 -0.925857 0)
(-0.0543386 -1.12728 0)
)
;
    }
    procBoundary1to3
    {
        type            processor;
        value           nonuniform List<vector> 
23
(
(-0.489843 -0.212192 0)
(-0.835327 0.624353 0)
(-0.71811 0.626714 0)
(-0.674686 0.580817 0)
(-0.61622 0.571807 0)
(-0.489007 0.551901 0)
(-0.425768 0.5397 0)
(-0.358141 0.526535 0)
(-0.30691 0.514256 0)
(-0.261564 0.502311 0)
(-0.222681 0.490517 0)
(-0.188815 0.478925 0)
(-0.159328 0.467614 0)
(-0.133627 0.456745 0)
(-0.111223 0.446453 0)
(-0.0916891 0.436903 0)
(-0.0746314 0.428232 0)
(-0.0596806 0.420571 0)
(-0.0464821 0.414026 0)
(-0.0347058 0.408691 0)
(-0.024018 0.404637 0)
(-0.0141559 0.40189 0)
(-0.00473144 0.396915 0)
)
;
    }
}


// ************************************************************************* //
