/*--------------------------------*- C++ -*----------------------------------*\
| =========                 |                                                 |
| \\      /  F ield         | OpenFOAM: The Open Source CFD Toolbox           |
|  \\    /   O peration     | Version:  2.4.0                                 |
|   \\  /    A nd           | Web:      www.OpenFOAM.org                      |
|    \\/     M anipulation  |                                                 |
\*---------------------------------------------------------------------------*/
FoamFile
{
    version     2.0;
    format      ascii;
    class       volVectorField;
    location    "0.1";
    object      U.water;
}
// * * * * * * * * * * * * * * * * * * * * * * * * * * * * * * * * * * * * * //

dimensions      [0 1 -1 0 0 0 0];

internalField   nonuniform List<vector> 
559
(
(0.136492 0.0628253 0)
(0.127238 0.19022 0)
(0.128411 0.289846 0)
(0.1218 0.430734 0)
(0.147433 0.511523 0)
(0.159528 0.690662 0)
(0.231234 0.780281 0)
(0.318523 1.08252 0)
(-0.0851768 0.0266469 0)
(-0.158373 0.00926165 0)
(-0.154117 -0.00776702 0)
(-0.108794 -0.0143993 0)
(-0.0159876 -0.0208855 0)
(0.147141 -0.0412686 0)
(0.370697 -0.0457595 0)
(0.551147 -0.0251548 0)
(0.614716 -0.00301223 0)
(0.597575 0.00991735 0)
(0.526838 0.0161197 0)
(0.447538 0.0165877 0)
(0.371473 0.0152073 0)
(0.301799 0.0137494 0)
(0.238674 0.0125404 0)
(0.180671 0.011619 0)
(0.126437 0.0109618 0)
(0.0747995 0.0105329 0)
(0.0246816 0.0104106 0)
(-0.0940844 0.0806619 0)
(-0.177325 0.0272184 0)
(-0.162789 -0.0275871 0)
(-0.110329 -0.046792 0)
(-0.0164634 -0.0647819 0)
(0.153926 -0.127178 0)
(0.398091 -0.144124 0)
(0.599777 -0.0816044 0)
(0.653454 -0.00182128 0)
(0.711892 -0.0136286 0)
(0.562319 0.0436549 0)
(0.463189 0.05161 0)
(0.383703 0.0471584 0)
(0.311734 0.0426358 0)
(0.246603 0.0389214 0)
(0.18673 0.0360936 0)
(0.130708 0.0340754 0)
(0.0773259 0.0327801 0)
(0.0254397 0.0319679 0)
(-0.108097 0.152542 0)
(-0.214889 0.0460038 0)
(-0.179832 -0.0540764 0)
(-0.10458 -0.0822958 0)
(0.00302109 -0.110593 0)
(0.195906 -0.215609 0)
(0.488199 -0.263067 0)
(0.918929 -0.279676 0)
(1.39618 -0.41125 0)
(1.14596 -0.229469 0)
(0.57694 0.0781927 0)
(0.462857 0.0876683 0)
(0.381869 0.0792717 0)
(0.310025 0.0714489 0)
(0.245239 0.0651909 0)
(0.18572 0.0604601 0)
(0.130017 0.0570913 0)
(0.0769276 0.0549392 0)
(0.0253082 0.0536201 0)
(-0.144609 0.197798 0)
(-0.275711 0.0663026 0)
(-0.157581 -0.0943575 0)
(-0.00350803 -0.142831 0)
(0.189401 -0.184577 0)
(0.547443 -0.362562 0)
(1.21064 -0.620906 0)
(1.89728 -0.797363 0)
(1.74661 -0.569005 0)
(0.76083 0.0721888 0)
(0.554706 0.134703 0)
(0.457768 0.125037 0)
(0.377434 0.111436 0)
(0.306435 0.10013 0)
(0.242469 0.0913113 0)
(0.183683 0.0846953 0)
(0.128627 0.0799959 0)
(0.0761233 0.077 0)
(0.0250469 0.0751502 0)
(-0.166095 0.412454 0)
(-0.26104 0.0776775 0)
(0.528382 -0.3487 0)
(0.814756 -0.417745 0)
(1.13211 -0.47417 0)
(1.61755 -0.736653 0)
(2.07292 -0.939209 0)
(2.09101 -0.819581 0)
(1.11146 -0.0443862 0)
(0.675626 0.187952 0)
(0.544011 0.182077 0)
(0.450227 0.161702 0)
(0.371189 0.143101 0)
(0.301531 0.128363 0)
(0.238731 0.117032 0)
(0.180949 0.108581 0)
(0.126767 0.102591 0)
(0.0750446 0.0987768 0)
(0.0246948 0.0964101 0)
(-0.199875 0.130481 0)
(0.685209 -0.326337 0)
(0.971603 -0.531648 0)
(1.10176 -0.589066 0)
(1.41259 -0.705793 0)
(1.92306 -0.914018 0)
(2.29202 -1.01366 0)
(1.68188 -0.378527 0)
(0.833342 0.257355 0)
(0.649528 0.25814 0)
(0.530789 0.226918 0)
(0.440089 0.197596 0)
(0.363218 0.174166 0)
(0.295381 0.156077 0)
(0.234085 0.142307 0)
(0.177563 0.132082 0)
(0.124465 0.124849 0)
(0.0737108 0.120245 0)
(0.02426 0.117377 0)
(-0.0240678 0.895249 0)
(0.94652 -0.434161 0)
(0.980331 -0.517368 0)
(1.08126 -0.57935 0)
(1.36381 -0.693247 0)
(1.84744 -0.885142 0)
(1.98116 -0.781659 0)
(1.13733 0.155829 0)
(0.764473 0.363174 0)
(0.620527 0.31647 0)
(0.513435 0.268315 0)
(0.42746 0.231638 0)
(0.353593 0.203797 0)
(0.288048 0.182626 0)
(0.228576 0.166614 0)
(0.173559 0.154758 0)
(0.121747 0.146378 0)
(0.0721343 0.141046 0)
(0.0237438 0.137711 0)
(1.09547 -0.248384 0)
(1.07031 -0.389456 0)
(1.10863 -0.519203 0)
(1.17184 -0.575731 0)
(1.35414 -0.660664 0)
(1.66592 -0.784927 0)
(1.74844 -0.627168 0)
(0.895979 0.385924 0)
(0.704601 0.444288 0)
(0.586821 0.368192 0)
(0.492347 0.308489 0)
(0.412432 0.265429 0)
(0.342342 0.233368 0)
(0.279554 0.209185 0)
(0.222223 0.190964 0)
(0.16895 0.177496 0)
(0.11862 0.167982 0)
(0.0703216 0.16193 0)
(0.0231517 0.158129 0)
(1.1662 0.963916 0)
(1.15925 0.394269 0)
(1.05553 0.0856509 0)
(1.00206 -0.0564041 0)
(0.941673 -0.205094 0)
(0.885437 -0.320758 0)
(0.821137 -0.417275 0)
(0.750338 -0.503551 0)
(1.42828 0.817362 0)
(1.43703 0.589944 0)
(1.3033 0.341316 0)
(1.15823 0.228293 0)
(1.29755 0.264044 0)
(1.40998 0.0605331 0)
(1.47282 -0.137056 0)
(1.53182 -0.250671 0)
(1.17417 0.0737885 0)
(1.2893 0.00326974 0)
(1.36787 -0.0728966 0)
(1.42348 -0.113883 0)
(1.07107 -0.103836 0)
(1.15785 -0.174865 0)
(1.20859 -0.214517 0)
(1.26865 -0.280002 0)
(1.00966 -0.266994 0)
(1.06809 -0.299176 0)
(1.10457 -0.323755 0)
(1.18958 -0.382779 0)
(0.942465 -0.373385 0)
(0.986363 -0.392316 0)
(1.03354 -0.427801 0)
(1.13115 -0.49475 0)
(0.87001 -0.466501 0)
(0.911988 -0.499392 0)
(0.976433 -0.556835 0)
(1.03878 -0.594783 0)
(0.792528 -0.558434 0)
(0.837581 -0.604682 0)
(0.894205 -0.654197 0)
(0.900805 -0.66681 0)
(0.71069 -0.64068 0)
(0.754066 -0.68876 0)
(0.783665 -0.718024 0)
(0.755862 -0.73666 0)
(0.627642 -0.707465 0)
(0.658874 -0.74464 0)
(0.654621 -0.757325 0)
(0.606456 -0.825854 0)
(0.549487 -0.758628 0)
(0.559428 -0.781127 0)
(0.50943 -0.820909 0)
(0.416751 -0.925534 0)
(0.457568 -0.802045 0)
(0.418383 -0.832018 0)
(0.319522 -0.916197 0)
(0.303913 -0.852891 0)
(0.327545 -0.840353 0)
(0.249661 -0.901235 0)
(0.187301 -0.889506 0)
(-0.101792 -0.0176755 0)
(0.171531 -0.891663 0)
(0.109061 -0.896901 0)
(0.069242 -0.380027 0)
(-0.400307 0.688116 0)
(0.0464225 -0.894712 0)
(0.081806 -0.70893 0)
(-0.504695 0.657063 0)
(-0.447682 0.820882 0)
(0.034125 -0.764584 0)
(-0.508225 0.603633 0)
(-0.58292 0.791782 0)
(-0.537096 0.812255 0)
(-0.556656 0.456772 0)
(-0.74688 0.715236 0)
(-0.669383 0.756343 0)
(-0.608656 0.720495 0)
(1.19633 -0.0829635 0)
(1.34269 -0.371811 0)
(1.37059 -0.515081 0)
(1.37519 -0.577658 0)
(1.43333 -0.646032 0)
(1.6053 -0.745535 0)
(1.38531 -0.314042 0)
(0.704814 0.553157 0)
(0.626899 0.524645 0)
(0.532605 0.429078 0)
(0.456595 0.361027 0)
(0.386534 0.311562 0)
(0.32293 0.274697 0)
(0.264901 0.246873 0)
(0.211262 0.225893 0)
(0.160995 0.210369 0)
(0.11322 0.199391 0)
(0.0671888 0.1924 0)
(0.0221284 0.187968 0)
(1.61721 -0.420003 0)
(1.60175 -0.522115 0)
(1.50864 -0.544309 0)
(1.46765 -0.59726 0)
(1.52815 -0.653371 0)
(1.57732 -0.663468 0)
(0.800481 0.30714 0)
(0.553787 0.658267 0)
(0.511261 0.590986 0)
(0.454535 0.492813 0)
(0.400387 0.420964 0)
(0.344794 0.366764 0)
(0.291504 0.325569 0)
(0.241124 0.294102 0)
(0.193444 0.270202 0)
(0.148041 0.252428 0)
(0.104412 0.239812 0)
(0.0620744 0.231759 0)
(0.0204558 0.226577 0)
(1.51012 -0.27701 0)
(1.51138 -0.369121 0)
(1.42881 -0.443569 0)
(1.45227 -0.577924 0)
(1.62194 -0.66548 0)
(1.31721 -0.21442 0)
(0.490036 0.673604 0)
(0.447445 0.707476 0)
(0.415347 0.621807 0)
(0.383002 0.535579 0)
(0.343679 0.466454 0)
(0.300796 0.411797 0)
(0.257527 0.368947 0)
(0.215017 0.335553 0)
(0.173691 0.309855 0)
(0.133588 0.290578 0)
(0.094545 0.276815 0)
(0.0563292 0.267996 0)
(0.0185738 0.262208 0)
(1.36539 -0.405665 0)
(1.35403 -0.44829 0)
(1.33174 -0.566578 0)
(1.43272 -0.769769 0)
(1.40625 -0.554814 0)
(0.499024 0.586248 0)
(0.358832 0.777828 0)
(0.349494 0.72946 0)
(0.336612 0.640353 0)
(0.317254 0.564075 0)
(0.289339 0.499664 0)
(0.257121 0.446947 0)
(0.222864 0.404417 0)
(0.187882 0.370581 0)
(0.152898 0.344158 0)
(0.118243 0.324131 0)
(0.0840073 0.30973 0)
(0.0501724 0.300459 0)
(0.0165558 0.294226 0)
(1.27813 -0.445443 0)
(1.25179 -0.483344 0)
(1.25634 -0.646744 0)
(1.32752 -0.656265 0)
(0.577345 0.402074 0)
(0.271811 0.797874 0)
(0.261896 0.802857 0)
(0.268398 0.727435 0)
(0.268263 0.650835 0)
(0.25714 0.582389 0)
(0.238532 0.523387 0)
(0.215126 0.47374 0)
(0.188759 0.432745 0)
(0.160712 0.399528 0)
(0.131808 0.373222 0)
(0.102535 0.353075 0)
(0.0731528 0.33848 0)
(0.0438047 0.329038 0)
(0.014464 0.322506 0)
(1.143 -0.519641 0)
(1.11271 -0.658211 0)
(1.13416 -0.833898 0)
(0.822563 -0.0529073 0)
(0.216766 0.76746 0)
(0.181119 0.839356 0)
(0.190306 0.791255 0)
(0.203657 0.720638 0)
(0.207761 0.653977 0)
(0.203038 0.593146 0)
(0.191719 0.539551 0)
(0.175552 0.493475 0)
(0.156011 0.454721 0)
(0.134224 0.42283 0)
(0.111001 0.39726 0)
(0.0868996 0.377487 0)
(0.0622802 0.363062 0)
(0.0374019 0.353685 0)
(0.0123585 0.346983 0)
(1.00177 -0.637936 0)
(0.9416 -0.816926 0)
(0.93375 -0.518016 0)
(0.197766 0.697932 0)
(0.104722 0.863079 0)
(0.113416 0.835023 0)
(0.132232 0.773005 0)
(0.147099 0.711468 0)
(0.154193 0.652464 0)
(0.154454 0.598181 0)
(0.14891 0.549623 0)
(0.138749 0.507244 0)
(0.125096 0.471091 0)
(0.108898 0.440967 0)
(0.0909023 0.41656 0)
(0.0716754 0.397528 0)
(0.0516335 0.383555 0)
(0.0311081 0.374432 0)
(0.0102847 0.367667 0)
(0.846129 -0.772282 0)
(0.811932 -0.810801 0)
(0.322159 0.30406 0)
(0.0229404 0.870237 0)
(0.0350605 0.870325 0)
(0.05716 0.81388 0)
(0.0796148 0.756233 0)
(0.0960218 0.700277 0)
(0.106245 0.647435 0)
(0.110658 0.598673 0)
(0.1099 0.554703 0)
(0.104815 0.515946 0)
(0.0962658 0.482539 0)
(0.0850386 0.454433 0)
(0.0718041 0.431466 0)
(0.0571107 0.41343 0)
(0.0413956 0.400117 0)
(0.0250364 0.39139 0)
(0.00828263 0.384649 0)
(0.691281 -0.853639 0)
(0.619108 -0.515922 0)
(-0.0457946 0.834242 0)
(-0.0438894 0.897536 0)
(-0.0216587 0.847184 0)
(0.00658859 0.790937 0)
(0.0309477 0.737689 0)
(0.0497201 0.686884 0)
(0.0630155 0.639271 0)
(0.0710868 0.595351 0)
(0.0744387 0.555576 0)
(0.0737243 0.520299 0)
(0.0696294 0.489664 0)
(0.0628205 0.463699 0)
(0.0538966 0.442338 0)
(0.0433763 0.425468 0)
(0.0317005 0.412959 0)
(0.0192697 0.404729 0)
(0.00637849 0.398079 0)
(0.563081 -0.883037 0)
(-0.0761713 0.331233 0)
(-0.129542 0.918739 0)
(-0.121416 0.870268 0)
(-0.07113 0.817281 0)
(-0.0408954 0.765308 0)
(-0.013472 0.716715 0)
(0.00776954 0.670992 0)
(0.0240169 0.628177 0)
(0.0353658 0.588706 0)
(0.0423081 0.552812 0)
(0.0454048 0.520874 0)
(0.0452166 0.492978 0)
(0.0423339 0.469201 0)
(0.0372943 0.449536 0)
(0.0305845 0.433936 0)
(0.0226376 0.422324 0)
(0.013866 0.414659 0)
(0.00459349 0.408155 0)
(0.383548 -0.683346 0)
(-0.395923 0.843876 0)
(-0.154775 0.877408 0)
(-0.170625 0.832923 0)
(-0.115399 0.782951 0)
(-0.0833592 0.737405 0)
(-0.0535882 0.693632 0)
(-0.0297627 0.65268 0)
(-0.0109568 0.614384 0)
(0.00325573 0.579034 0)
(0.0133288 0.546819 0)
(0.0197791 0.518161 0)
(0.0230144 0.492922 0)
(0.0236146 0.471337 0)
(0.0220595 0.453406 0)
(0.0188033 0.439137 0)
(0.0142651 0.428478 0)
(0.00886315 0.421419 0)
(0.00293983 0.415089 0)
(-0.199803 0.0814566 0)
(-0.34467 0.892789 0)
(-0.224542 0.822743 0)
(-0.204696 0.793226 0)
(-0.155843 0.74801 0)
(-0.12093 0.707764 0)
(-0.08946 0.668974 0)
(-0.0634206 0.632369 0)
(-0.0422198 0.598283 0)
(-0.0254656 0.566753 0)
(-0.012545 0.5381 0)
(-0.00319615 0.512413 0)
(0.00297094 0.489849 0)
(0.00666588 0.470467 0)
(0.00822007 0.45427 0)
(0.00807216 0.441375 0)
(0.00661379 0.431698 0)
(0.00427528 0.425266 0)
(0.00141789 0.419162 0)
(-0.326985 0.740259 0)
(-0.340598 0.853046 0)
(-0.275334 0.782102 0)
(-0.236311 0.751602 0)
(-0.191421 0.712511 0)
(-0.154238 0.676765 0)
(-0.121229 0.64256 0)
(-0.0932852 0.61027 0)
(-0.0699918 0.580161 0)
(-0.050946 0.552325 0)
(-0.0356471 0.527033 0)
(-0.0237377 0.504183 0)
(-0.0148353 0.484159 0)
(-0.00850211 0.466924 0)
(-0.00421005 0.452469 0)
(-0.001583 0.440905 0)
(-0.000300791 0.432225 0)
(0.000108379 0.42645 0)
(5.02429e-05 0.420377 0)
(-0.344993 0.791214 0)
(-0.373006 0.789278 0)
(-0.308064 0.743338 0)
(-0.267481 0.710034 0)
(-0.222608 0.676013 0)
(-0.183632 0.644477 0)
(-0.149128 0.614569 0)
(-0.119505 0.586444 0)
(-0.0943675 0.560214 0)
(-0.0733207 0.535978 0)
(-0.0559403 0.513864 0)
(-0.0418677 0.493912 0)
(-0.030653 0.476282 0)
(-0.0219438 0.461048 0)
(-0.015275 0.44833 0)
(-0.0102129 0.438051 0)
(-0.00645302 0.430357 0)
(-0.00351285 0.425253 0)
(-0.00131668 0.419661 0)
(-0.403453 0.784525 0)
(-0.41043 0.745793 0)
(-0.341181 0.699646 0)
(-0.296854 0.668191 0)
(-0.249997 0.638106 0)
(-0.209281 0.610813 0)
(-0.173309 0.585157 0)
(-0.142148 0.561129 0)
(-0.115413 0.538718 0)
(-0.0926982 0.51796 0)
(-0.0735675 0.498938 0)
(-0.0576371 0.481734 0)
(-0.0444933 0.466477 0)
(-0.0337394 0.453213 0)
(-0.0249776 0.442124 0)
(-0.017817 0.433153 0)
(-0.0118653 0.426413 0)
(-0.0068265 0.421914 0)
(-0.0021083 0.416646 0)
(-0.515103 0.726216 0)
(-0.437361 0.697812 0)
(-0.378209 0.651234 0)
(-0.322462 0.624019 0)
(-0.273857 0.598483 0)
(-0.231058 0.575739 0)
(-0.193713 0.554501 0)
(-0.161243 0.534591 0)
(-0.133213 0.515921 0)
(-0.109149 0.498547 0)
(-0.0885934 0.482528 0)
(-0.0711457 0.467979 0)
(-0.0563908 0.454997 0)
(-0.0439296 0.443694 0)
(-0.0333909 0.434154 0)
(-0.0244041 0.426459 0)
(-0.0166018 0.420646 0)
(-0.00960197 0.416747 0)
(-0.00334108 0.411452 0)
(-0.582127 0.659545 0)
(-0.471191 0.628603 0)
(-0.406649 0.597532 0)
(-0.344005 0.576547 0)
(-0.29306 0.55701 0)
(-0.24864 0.539437 0)
(-0.210204 0.522845 0)
(-0.176801 0.507088 0)
(-0.147837 0.492123 0)
(-0.12277 0.478044 0)
(-0.101121 0.464934 0)
(-0.0824704 0.452933 0)
(-0.0664096 0.442154 0)
(-0.0525553 0.432717 0)
(-0.0405411 0.424705 0)
(-0.0300171 0.418218 0)
(-0.0206292 0.413298 0)
(-0.0120431 0.409995 0)
(-0.00387332 0.405612 0)
)
;

boundaryField
{
    leftWall
    {
        type            fixedValue;
        value           nonuniform 0();
    }
    rightWall
    {
        type            fixedValue;
        value           uniform (0 0 0);
    }
    lowerWall
    {
        type            fixedValue;
        value           uniform (0 0 0);
    }
    atmosphere
    {
        type            fluxCorrectedVelocity;
        value           nonuniform 0();
    }
    defaultFaces
    {
        type            empty;
    }
    procBoundary1to0
    {
        type            processor;
        value           nonuniform List<vector> 
26
(
(0.532595 0.0302423 0)
(0.369539 0.197079 0)
(0.335722 0.305133 0)
(0.334302 0.382167 0)
(0.352242 0.452772 0)
(0.404211 0.530178 0)
(0.468586 0.553307 0)
(0.592486 0.633545 0)
(0.894892 0.478234 0)
(0.880365 0.233686 0)
(0.84621 0.0688082 0)
(0.842527 -0.0409203 0)
(0.809357 -0.150683 0)
(0.768979 -0.258366 0)
(0.722417 -0.352644 0)
(0.666655 -0.435176 0)
(0.67434 -0.57856 0)
(0.67434 -0.57856 0)
(0.594647 -0.644621 0)
(0.515623 -0.700409 0)
(0.437469 -0.745341 0)
(0.349329 -0.772787 0)
(0.237767 -0.798644 0)
(0.0938692 -0.868539 0)
(0.00786594 -0.918882 0)
(-0.0303015 -0.921669 0)
)
;
    }
    procBoundary1to3
    {
        type            processor;
        value           nonuniform List<vector> 
23
(
(-0.873768 0.543595 0)
(-0.837488 0.624708 0)
(-0.719461 0.625737 0)
(-0.675542 0.580368 0)
(-0.616463 0.571791 0)
(-0.489031 0.551909 0)
(-0.425769 0.539701 0)
(-0.358141 0.526535 0)
(-0.30691 0.514256 0)
(-0.261564 0.502311 0)
(-0.222681 0.490517 0)
(-0.188815 0.478925 0)
(-0.159328 0.467614 0)
(-0.133627 0.456745 0)
(-0.111223 0.446453 0)
(-0.0916891 0.436903 0)
(-0.0746314 0.428232 0)
(-0.0596806 0.420571 0)
(-0.0464821 0.414026 0)
(-0.0347058 0.408691 0)
(-0.024018 0.404637 0)
(-0.0141559 0.40189 0)
(-0.00473144 0.396915 0)
)
;
    }
}


// ************************************************************************* //
