/*--------------------------------*- C++ -*----------------------------------*\
| =========                 |                                                 |
| \\      /  F ield         | OpenFOAM: The Open Source CFD Toolbox           |
|  \\    /   O peration     | Version:  2.4.0                                 |
|   \\  /    A nd           | Web:      www.OpenFOAM.org                      |
|    \\/     M anipulation  |                                                 |
\*---------------------------------------------------------------------------*/
FoamFile
{
    version     2.0;
    format      ascii;
    class       volScalarField;
    location    "0.1";
    object      alpha.mercury;
}
// * * * * * * * * * * * * * * * * * * * * * * * * * * * * * * * * * * * * * //

dimensions      [0 0 0 0 0 0 0];

internalField   nonuniform List<scalar> 
559
(
4.20354e-38
1.43171e-36
4.01038e-35
1.08519e-33
7.9821e-32
5.276e-30
8.67782e-29
1.08824e-68
1.16087e-65
6.14541e-63
2.09905e-60
5.1027e-58
9.18854e-56
1.24655e-53
1.27875e-51
9.86647e-50
5.70722e-48
2.47334e-46
8.89069e-45
3.57912e-43
1.52295e-41
6.62592e-40
2.68583e-38
9.33454e-37
2.65461e-35
6.09218e-34
1.19695e-32
2.05289e-31
2.63e-30
2.16047e-29
7.63772e-68
6.95806e-65
3.35547e-62
1.07295e-59
2.52575e-57
4.61809e-55
6.70884e-53
7.72595e-51
6.93982e-49
4.74935e-47
2.41585e-45
9.18959e-44
2.59959e-42
6.64926e-41
1.65098e-39
3.99429e-38
9.2448e-37
1.94954e-35
3.52031e-34
5.07284e-33
5.57866e-32
4.74618e-31
3.33318e-30
1.3152e-69
1.59661e-66
1.00263e-63
4.03102e-61
1.12492e-58
2.27634e-56
3.42527e-54
3.9078e-52
3.42522e-50
2.32633e-48
1.23645e-46
5.26985e-45
1.87687e-43
6.05771e-42
1.76228e-40
4.56457e-39
1.03075e-37
1.9708e-36
3.11184e-35
3.97441e-34
4.09771e-33
3.50967e-32
2.72793e-31
5.49735e-71
6.02519e-68
3.19196e-65
1.07184e-62
2.54452e-60
4.51561e-58
6.17356e-56
6.60569e-54
5.59934e-52
3.80239e-50
2.09614e-48
9.50882e-47
3.6159e-45
1.19093e-43
3.4715e-42
9.0059e-41
2.06924e-39
4.18497e-38
7.33902e-37
1.07734e-35
1.28829e-34
1.29613e-33
1.20786e-32
3.54463e-73
3.96328e-70
2.12967e-67
7.24361e-65
1.73805e-62
3.11356e-60
4.30626e-58
4.6947e-56
4.09664e-54
2.89949e-52
1.68623e-50
8.17982e-49
3.384e-47
1.22215e-45
3.88115e-44
1.08508e-42
2.65548e-41
5.62705e-40
1.02299e-38
1.60245e-37
2.19523e-36
2.70348e-35
3.13468e-34
1.1755e-75
1.31237e-72
7.01156e-70
2.37959e-67
5.73313e-65
1.03996e-62
1.47155e-60
1.66321e-58
1.52818e-56
1.15817e-54
7.33276e-53
3.92814e-51
1.8048e-49
7.18735e-48
2.49892e-46
7.63102e-45
2.05569e-43
4.89677e-42
1.03181e-40
1.91374e-39
3.11615e-38
4.55186e-37
6.18827e-36
2.62554e-78
3.00752e-75
1.65243e-72
5.78663e-70
1.44577e-67
2.73482e-65
4.06037e-63
4.84739e-61
4.73652e-59
3.84273e-57
2.62207e-55
1.52393e-53
7.63582e-52
3.33135e-50
1.27382e-48
4.28808e-47
1.27436e-45
3.35156e-44
7.8215e-43
1.62922e-41
3.0687e-40
5.31973e-39
8.6792e-38
3.68156e-81
4.40549e-78
2.52973e-75
9.2797e-73
2.43692e-70
4.86685e-68
7.67135e-66
9.7867e-64
1.02937e-61
9.05862e-60
6.75427e-58
4.31571e-56
2.3867e-54
1.15194e-52
4.8866e-51
1.83228e-49
6.10325e-48
1.81452e-46
4.83995e-45
1.16604e-43
2.56234e-42
5.20828e-41
9.96574e-40
3.56191e-84
4.50794e-81
2.74279e-78
1.06858e-75
2.98964e-73
6.38596e-71
1.08158e-68
1.49035e-66
1.70262e-64
1.63681e-62
1.34068e-60
9.45736e-59
5.79884e-57
3.11489e-55
1.47584e-53
6.20523e-52
2.32837e-50
7.84184e-49
2.38602e-47
6.61255e-46
1.68694e-44
4.01211e-43
9.01731e-42
2.42587e-87
3.2903e-84
2.14813e-81
8.99803e-79
2.71381e-76
6.26949e-74
1.15288e-71
1.73223e-69
2.1679e-67
2.29393e-65
2.07756e-63
1.6273e-61
1.11222e-59
6.68499e-58
3.55816e-56
1.68794e-54
7.18153e-53
2.75812e-51
9.63085e-50
3.08332e-48
9.14094e-47
2.53786e-45
6.67662e-44
1.18909e-90
1.7477e-87
1.23793e-84
5.63563e-82
1.85148e-79
4.6723e-77
9.41574e-75
1.55606e-72
2.15026e-70
2.5223e-68
2.54244e-66
2.22488e-64
1.70527e-62
1.15371e-60
6.93907e-59
3.73525e-57
1.81148e-55
7.96957e-54
3.20461e-52
1.1877e-50
4.09567e-49
1.32754e-47
4.08685e-46
4.23211e-94
6.81365e-91
5.29192e-88
2.64551e-85
9.56273e-83
2.66146e-80
5.93154e-78
1.08741e-75
1.67242e-73
2.19088e-71
2.47481e-69
2.4354e-67
2.10642e-65
1.61395e-63
1.10345e-61
6.77863e-60
3.76736e-58
1.90775e-56
8.8691e-55
3.81671e-53
1.53399e-51
5.81207e-50
2.09573e-48
1.09441e-97
1.95052e-94
1.67845e-91
9.3087e-89
3.73913e-86
1.15878e-83
2.88247e-81
5.91354e-79
1.02067e-76
1.505e-74
1.91944e-72
2.13934e-70
2.1025e-68
1.83659e-66
1.43653e-64
1.01324e-62
6.49011e-61
3.80233e-59
2.05293e-57
1.02968e-55
4.83842e-54
2.14855e-52
9.09588e-51
2.03913e-101
4.06699e-98
3.91946e-95
2.43716e-92
1.09918e-89
3.83142e-87
1.07415e-84
2.48927e-82
4.86524e-80
8.14495e-78
1.18262e-75
1.5049e-73
1.69358e-71
1.69923e-69
1.53146e-67
1.24877e-65
9.27821e-64
6.32654e-62
3.98858e-60
2.34308e-58
1.29292e-56
6.75622e-55
3.37106e-53
2.6866e-105
6.0668e-102
6.62426e-99
4.67131e-96
2.39226e-93
9.48286e-91
3.02862e-88
8.01139e-86
1.79114e-83
3.43799e-81
5.73739e-79
8.41286e-77
1.09387e-74
1.27159e-72
1.33163e-70
1.2654e-68
1.09892e-66
8.7844e-65
6.51079e-63
4.50816e-61
2.93869e-59
1.81739e-57
1.07468e-55
2.42357e-109
6.27821e-106
7.8687e-103
6.37473e-100
3.75452e-97
1.71386e-94
6.31289e-92
1.92922e-89
4.99242e-87
1.11142e-84
2.15587e-82
3.6828e-80
5.59204e-78
7.61031e-76
9.35428e-74
1.0461e-71
1.07205e-69
1.01411e-67
8.92111e-66
7.35457e-64
5.72625e-62
4.24243e-60
3.01155e-58
1.42173e-113
4.29059e-110
6.26836e-107
5.92377e-104
4.07358e-101
2.17354e-98
9.37039e-96
3.35655e-93
1.01981e-90
2.67031e-88
6.10415e-86
1.23145e-83
2.21329e-81
3.57427e-79
5.22763e-77
6.97691e-75
8.55897e-73
9.71993e-71
1.029e-68
1.02252e-66
9.60346e-65
8.58392e-63
7.3517e-61
5.00108e-118
1.79212e-114
3.11055e-111
3.49446e-108
2.85886e-105
1.81653e-102
9.33698e-100
3.99322e-97
1.4509e-94
4.55171e-92
1.24919e-89
3.03237e-87
6.57314e-85
1.28318e-82
2.27349e-80
3.68255e-78
5.49141e-76
7.59045e-74
9.79155e-72
1.18686e-69
1.36108e-67
1.48684e-65
1.55746e-63
9.26207e-123
4.0429e-119
8.54963e-116
1.1709e-112
1.1687e-109
9.06909e-107
5.69982e-104
2.9847e-101
1.32972e-98
5.12247e-96
1.72877e-93
5.16764e-91
1.3812e-88
3.32895e-86
7.29142e-84
1.46199e-81
2.70244e-79
4.63685e-77
7.43513e-75
1.12169e-72
1.60279e-70
2.18351e-68
2.85405e-66
7.28854e-128
4.0203e-124
1.07368e-120
1.85687e-117
2.34101e-114
2.29549e-111
1.82399e-108
1.20836e-105
6.81594e-103
3.32726e-100
1.42432e-97
5.4062e-95
1.83697e-92
5.63576e-90
1.57341e-87
4.02676e-85
9.51354e-83
2.0891e-80
4.29246e-78
8.30698e-76
1.52399e-73
2.66725e-71
4.48036e-69
1.62757e-133
1.2015e-129
4.26781e-126
9.80565e-123
1.64196e-119
2.13874e-116
2.25851e-113
1.98967e-110
1.49347e-107
9.70927e-105
5.53994e-102
2.80532e-99
1.27294e-96
5.2205e-94
1.95036e-91
6.68653e-89
2.1184e-86
6.24412e-84
1.72369e-81
4.4851e-79
1.10697e-76
2.60717e-74
5.89287e-72
4.09104e-140
4.44124e-136
2.294e-132
7.65156e-129
1.86333e-125
3.54012e-122
5.46447e-119
7.04614e-116
7.74678e-113
7.37841e-110
6.1669e-107
4.57232e-104
3.03581e-101
1.82047e-98
9.93839e-96
4.97711e-93
2.30313e-90
9.91537e-88
3.99741e-85
1.51872e-82
5.47097e-80
1.8797e-77
6.19351e-75
8.98474e-149
1.83238e-144
1.70541e-140
1.00734e-136
4.29918e-133
1.42192e-129
3.81289e-126
8.55269e-123
1.64206e-119
2.74646e-116
4.05842e-113
5.35945e-110
6.38543e-107
6.91839e-104
6.8614e-101
6.26275e-98
5.28592e-95
4.14409e-92
3.03043e-89
2.07459e-86
1.3336e-83
8.06771e-81
4.60297e-78
3.05063e-157
1.00041e-152
1.30988e-148
1.07507e-144
6.39792e-141
2.97075e-137
1.12673e-133
3.60501e-130
9.97212e-127
2.43263e-123
5.32202e-120
1.05983e-116
1.94742e-113
3.34428e-110
5.43436e-107
8.45906e-104
1.27693e-100
1.89277e-97
2.79037e-94
4.14486e-91
6.28297e-88
9.81852e-85
1.58025e-81
)
;

boundaryField
{
    leftWall
    {
        type            zeroGradient;
    }
    rightWall
    {
        type            zeroGradient;
    }
    lowerWall
    {
        type            zeroGradient;
    }
    atmosphere
    {
        type            inletOutlet;
        inletValue      uniform 0;
        value           uniform 0;
    }
    defaultFaces
    {
        type            empty;
    }
    procBoundary2to0
    {
        type            processor;
        value           nonuniform List<scalar> 
24
(
1.77268e-39
7.15991e-38
2.46659e-36
7.50301e-35
4.58903e-33
4.7917e-31
9.755e-29
3.1209e-70
3.40624e-67
1.86064e-64
6.60864e-62
1.6845e-59
3.20916e-57
4.64633e-55
5.12546e-53
4.2714e-51
2.69727e-49
1.39893e-47
5.89656e-46
1.77734e-44
5.97512e-43
2.44993e-41
1.05652e-39
1.05652e-39
)
;
    }
    procBoundary2to3
    {
        type            processor;
        value           nonuniform List<scalar> 
25
(
6.01312e-28
1.34308e-28
1.79313e-29
1.40533e-30
7.07061e-32
2.37393e-33
5.93808e-35
1.0756e-36
1.51157e-38
1.66951e-40
1.49194e-42
1.0997e-44
6.7833e-47
3.54507e-49
1.58603e-51
6.12921e-54
2.06168e-56
6.07348e-59
1.57452e-61
3.60166e-64
7.2658e-67
1.28513e-69
1.96408e-72
2.50806e-75
2.50071e-78
)
;
    }
}


// ************************************************************************* //
