/*--------------------------------*- C++ -*----------------------------------*\
| =========                 |                                                 |
| \\      /  F ield         | OpenFOAM: The Open Source CFD Toolbox           |
|  \\    /   O peration     | Version:  2.4.0                                 |
|   \\  /    A nd           | Web:      www.OpenFOAM.org                      |
|    \\/     M anipulation  |                                                 |
\*---------------------------------------------------------------------------*/
FoamFile
{
    version     2.0;
    format      ascii;
    class       volScalarField;
    location    "0.1";
    object      alpha.water;
}
// * * * * * * * * * * * * * * * * * * * * * * * * * * * * * * * * * * * * * //

dimensions      [0 0 0 0 0 0 0];

internalField   nonuniform List<scalar> 
559
(
4.53359e-15
3.25214e-17
2.62375e-19
2.41862e-21
3.5723e-23
4.42679e-23
4.62757e-22
0.000587143
0.000549428
0.000484949
0.000404151
0.000318011
0.000236732
0.000167101
0.000112154
7.19217e-05
4.49021e-05
2.77037e-05
1.83348e-05
5.60605e-05
5.3539e-06
2.8052e-14
2.52978e-16
5.1268e-20
1.24139e-25
2.05935e-26
2.6801e-25
2.93225e-24
2.32321e-23
1.13872e-22
8.29712e-26
2.58576e-23
3.83002e-21
3.31554e-19
1.81851e-17
6.45791e-16
1.44027e-14
1.90948e-13
3.18609e-12
4.33784e-11
1.62478e-09
1.15353e-08
2.82865e-08
5.26438e-09
3.74992e-31
5.99754e-30
9.03807e-29
1.23008e-27
1.42874e-26
1.32244e-25
9.26938e-25
4.933e-24
2.08403e-23
2.16762e-59
2.03474e-56
9.84156e-54
3.03497e-51
6.46758e-49
9.93969e-47
1.12865e-44
9.65065e-43
6.29412e-41
3.15511e-39
1.22602e-37
3.77989e-36
9.632e-35
2.19845e-33
4.46261e-32
7.95278e-31
1.21811e-29
1.55689e-28
1.61973e-27
1.34368e-26
8.84853e-26
4.72281e-25
2.19057e-24
9.84919e-61
8.3928e-58
3.44623e-55
8.9311e-53
1.62796e-50
2.20668e-48
2.29154e-46
1.85097e-44
1.17631e-42
5.94312e-41
2.41697e-39
8.01503e-38
2.20609e-36
5.20038e-35
1.07143e-33
1.93761e-32
3.0574e-31
4.17838e-30
4.86416e-29
4.64639e-28
3.53375e-27
2.19737e-26
1.21511e-25
7.47539e-63
6.50302e-60
2.71033e-57
7.12055e-55
1.31318e-52
1.79824e-50
1.88987e-48
1.55547e-46
1.01747e-44
5.35674e-43
2.2981e-41
8.15077e-40
2.44161e-38
6.31622e-37
1.41936e-35
2.76974e-34
4.6591e-33
6.67092e-32
8.03877e-31
8.16781e-30
7.08214e-29
5.36258e-28
3.68481e-27
2.64417e-65
2.29671e-62
9.51866e-60
2.49649e-57
4.62741e-55
6.42477e-53
6.91894e-51
5.91464e-49
4.08248e-47
2.30725e-45
1.08068e-43
4.24561e-42
1.41687e-40
4.05446e-39
1.00065e-37
2.13929e-36
3.97212e-35
6.40767e-34
8.96467e-33
1.07989e-31
1.11407e-30
1.00203e-29
8.10878e-29
6.33982e-68
5.64275e-65
2.40243e-62
6.49618e-60
1.24795e-57
1.80628e-55
2.04088e-53
1.84316e-51
1.35356e-49
8.19462e-48
4.14012e-46
1.76634e-44
6.43484e-43
2.01924e-41
5.48602e-40
1.29412e-38
2.65293e-37
4.72749e-36
7.32554e-35
9.90428e-34
1.18045e-32
1.25877e-31
1.2236e-30
9.28217e-71
8.62107e-68
3.83297e-65
1.08512e-62
2.19051e-60
3.34751e-58
4.0167e-56
3.87856e-54
3.06842e-52
2.01706e-50
1.11497e-48
5.23752e-47
2.10959e-45
7.33802e-44
2.21672e-42
5.83893e-41
1.34523e-39
2.71785e-38
4.8291e-37
7.57846e-36
1.05812e-34
1.32955e-33
1.5256e-32
9.23558e-74
9.06502e-71
4.26834e-68
1.2831e-65
2.75972e-63
4.51225e-61
5.82128e-59
6.07668e-57
5.22748e-55
3.75909e-53
2.28631e-51
1.18787e-49
5.31585e-48
2.06276e-46
6.97846e-45
2.06741e-43
5.38381e-42
1.23689e-40
2.51755e-39
4.56595e-38
7.43923e-37
1.10016e-35
1.49328e-34
6.39373e-77
6.72207e-74
3.39539e-71
1.0974e-68
2.54511e-66
4.50307e-64
6.31228e-62
7.19223e-60
6.7862e-58
5.37906e-56
3.62352e-54
2.09439e-52
1.047e-50
4.55713e-49
1.73673e-47
5.82348e-46
1.72574e-44
4.53984e-43
1.06545e-41
2.24436e-40
4.27576e-39
7.43401e-38
1.19091e-36
3.1543e-80
3.59276e-77
1.96885e-74
6.91735e-72
1.7483e-69
3.3811e-67
5.19854e-65
6.52176e-63
6.803e-61
5.9864e-59
4.49544e-57
2.90825e-55
1.63372e-53
8.02276e-52
3.46413e-50
1.32206e-48
4.48151e-47
1.35601e-45
3.68207e-44
9.02811e-43
2.01326e-41
4.11627e-40
7.78121e-39
1.12034e-83
1.39786e-80
8.40135e-78
3.24266e-75
9.02245e-73
1.92585e-70
3.27768e-68
4.56638e-66
5.30792e-64
5.2234e-62
4.40243e-60
3.20821e-58
2.03762e-56
1.13564e-54
5.58769e-53
2.44053e-51
9.51183e-50
3.32548e-48
1.04873e-46
3.00155e-45
7.84959e-44
1.88953e-42
4.21849e-41
2.86999e-87
3.96534e-84
2.64171e-81
1.13181e-78
3.50197e-76
8.33039e-74
1.58395e-71
2.47211e-69
3.22865e-67
3.58091e-65
3.41242e-63
2.82092e-61
2.03932e-59
1.29832e-57
7.32451e-56
3.68264e-54
1.65919e-52
6.73518e-51
2.47722e-49
8.30513e-48
2.55441e-46
7.25676e-45
1.91752e-43
5.26434e-91
8.14432e-88
6.08046e-85
2.92294e-82
1.01629e-79
2.72161e-77
5.8381e-75
1.03036e-72
1.52557e-70
1.9234e-68
2.08948e-66
1.97492e-64
1.63748e-62
1.19954e-60
7.81353e-59
4.55232e-57
2.38571e-55
1.13088e-53
4.87619e-52
1.92383e-50
6.988e-49
2.3518e-47
7.38166e-46
6.79498e-95
1.19117e-91
1.00842e-88
5.50233e-86
2.17434e-83
6.62815e-81
1.62136e-78
3.26973e-76
5.54414e-74
8.02377e-72
1.0031e-69
1.09399e-67
1.04957e-65
8.92289e-64
6.76614e-62
4.60411e-60
2.82762e-58
1.57621e-56
8.02017e-55
3.74658e-53
1.61641e-51
6.47979e-50
2.42869e-48
5.98688e-99
1.20515e-95
1.17226e-92
7.35557e-90
3.34622e-87
1.17585e-84
3.32078e-82
7.74519e-80
1.52176e-77
2.55736e-75
3.72072e-73
4.73364e-71
5.31111e-69
5.29451e-67
4.72085e-65
3.78837e-63
2.75218e-61
1.82055e-59
1.10302e-57
6.15908e-56
3.19099e-54
1.54477e-52
7.03319e-51
3.42817e-103
8.0486e-100
9.13596e-97
6.69427e-94
3.55956e-91
1.46363e-88
4.84321e-86
1.32554e-83
3.06127e-81
6.05806e-79
1.03996e-76
1.56443e-74
2.08021e-72
2.46368e-70
2.61697e-68
2.50947e-66
2.18612e-64
1.74089e-62
1.27507e-60
8.6405e-59
5.44794e-57
3.21311e-55
1.78165e-53
1.18027e-107
3.29453e-104
4.44823e-101
3.87919e-98
2.45675e-95
1.20429e-92
4.7562e-90
1.55567e-87
4.30016e-85
1.02027e-82
2.10398e-80
3.81044e-78
6.11505e-76
8.76503e-74
1.13017e-71
1.31957e-69
1.40376e-67
1.36848e-65
1.22934e-63
1.02308e-61
7.92973e-60
5.75459e-58
3.93071e-56
2.15414e-112
7.33288e-109
1.20752e-105
1.28484e-102
9.93445e-100
5.95075e-97
2.87508e-94
1.15202e-91
3.90733e-89
1.13962e-86
2.89465e-84
6.47053e-82
1.28432e-79
2.28135e-77
3.65201e-75
5.30247e-73
7.02478e-71
8.54038e-69
9.5812e-67
9.97288e-65
9.68308e-63
8.81676e-61
7.56773e-59
1.68663e-117
7.26121e-114
1.51141e-110
2.03305e-107
1.98828e-104
1.50753e-101
9.22806e-99
4.6897e-96
2.01964e-93
7.48778e-91
2.42035e-88
6.89292e-86
1.74511e-83
3.95872e-81
8.10355e-79
1.50664e-76
2.55982e-74
3.99761e-72
5.77052e-70
7.7414e-68
9.70335e-66
1.14229e-63
1.26926e-61
3.83499e-123
2.21478e-119
6.14621e-116
1.10099e-112
1.43357e-109
1.44733e-106
1.18019e-103
7.99427e-101
4.59197e-98
2.27253e-95
9.8141e-93
3.73782e-90
1.26693e-87
3.85224e-85
1.05832e-82
2.64438e-80
6.04649e-78
1.27263e-75
2.47947e-73
4.49599e-71
7.62727e-69
1.21665e-66
1.83333e-64
1.02521e-129
8.71637e-126
3.52141e-122
9.16828e-119
1.73826e-115
2.56313e-112
3.05955e-109
3.03836e-106
2.56095e-103
1.86057e-100
1.17965e-97
6.59488e-95
3.27996e-92
1.46279e-89
5.89279e-87
2.15911e-84
7.24198e-82
2.23701e-79
6.39954e-77
1.70467e-74
4.24988e-72
9.96532e-70
2.20788e-67
2.46038e-138
3.94242e-134
2.88057e-130
1.33355e-126
4.45024e-123
1.14748e-119
2.39025e-116
4.14791e-113
6.1326e-110
7.85836e-107
8.84657e-104
8.84581e-101
7.92727e-98
6.41414e-95
4.71398e-92
3.16204e-89
1.94384e-86
1.09931e-83
5.73879e-81
2.77329e-78
1.24329e-75
5.17772e-73
2.00547e-70
7.93578e-147
2.08355e-142
2.18107e-138
1.42815e-134
6.76279e-131
2.49077e-127
7.46594e-124
1.88007e-120
4.07427e-117
7.74657e-114
1.3135e-110
2.01479e-107
2.83238e-104
3.69394e-101
4.52212e-98
5.25685e-95
5.87025e-92
6.37107e-89
6.80111e-86
7.22857e-83
7.74111e-80
8.43199e-77
9.32681e-74
)
;

boundaryField
{
    leftWall
    {
        type            zeroGradient;
    }
    rightWall
    {
        type            zeroGradient;
    }
    lowerWall
    {
        type            zeroGradient;
    }
    atmosphere
    {
        type            inletOutlet;
        inletValue      uniform 0;
        value           uniform 0;
    }
    defaultFaces
    {
        type            empty;
    }
    procBoundary2to0
    {
        type            processor;
        value           nonuniform List<scalar> 
24
(
1.87843e-12
9.92047e-14
3.35164e-15
8.70426e-17
2.36034e-18
7.7731e-20
2.94192e-21
0.19924
0.193342
0.182564
0.167384
0.148596
0.127303
0.104793
0.0826192
0.0622344
0.0448952
0.0319174
0.0209679
0.00173407
1.99895e-06
1.22699e-10
8.8321e-13
8.8321e-13
)
;
    }
    procBoundary2to3
    {
        type            processor;
        value           nonuniform List<scalar> 
25
(
1.91398e-21
3.92037e-22
5.6365e-23
5.16464e-24
3.05355e-25
1.19744e-26
3.50342e-28
7.32018e-30
1.17664e-31
1.46558e-33
1.45735e-35
1.18004e-37
7.89908e-40
4.4301e-42
2.10619e-44
8.58126e-47
3.02717e-49
9.33518e-52
2.5405e-54
6.15497e-57
1.3377e-59
2.62128e-62
4.63401e-65
7.30807e-68
9.99382e-71
)
;
    }
}


// ************************************************************************* //
