/*--------------------------------*- C++ -*----------------------------------*\
| =========                 |                                                 |
| \\      /  F ield         | OpenFOAM: The Open Source CFD Toolbox           |
|  \\    /   O peration     | Version:  2.4.0                                 |
|   \\  /    A nd           | Web:      www.OpenFOAM.org                      |
|    \\/     M anipulation  |                                                 |
\*---------------------------------------------------------------------------*/
FoamFile
{
    version     2.0;
    format      ascii;
    class       surfaceScalarField;
    location    "0.1";
    object      phi;
}
// * * * * * * * * * * * * * * * * * * * * * * * * * * * * * * * * * * * * * //

dimensions      [0 3 -1 0 0 0 0];

internalField   nonuniform List<scalar> 
1070
(
2.15625e-06
-8.58392e-05
1.3063e-06
-9.19642e-05
-3.04478e-06
-9.80473e-05
-1.01597e-05
-0.000106448
-2.88664e-05
-0.000108601
-8.52041e-05
-7.5427e-05
2.15422e-05
-2.12787e-06
-7.89038e-05
-4.33385e-06
-7.91911e-05
-6.66611e-06
-7.99532e-05
-9.20057e-06
-8.10698e-05
-1.20499e-05
-8.25103e-05
-1.52828e-05
-8.43772e-05
-1.89266e-05
-8.67103e-05
-2.2933e-05
-8.93652e-05
-2.68617e-05
-9.22826e-05
-3.01128e-05
-9.5781e-05
-2.79571e-05
-9.75043e-05
-2.10088e-05
-9.81943e-05
-3.36298e-05
-7.95604e-05
-4.17933e-05
-7.29561e-05
-4.83385e-05
-7.19283e-05
-5.52461e-05
-7.37543e-05
-6.26633e-05
-7.84218e-05
-6.92628e-05
-8.53646e-05
-7.1798e-05
-9.55122e-05
-7.599e-05
-0.000102256
-9.71556e-05
-8.7436e-05
-0.000142119
-3.0464e-05
4.6587e-05
-2.12053e-06
-7.67831e-05
-3.94502e-06
-7.73665e-05
-5.9372e-06
-7.7961e-05
-8.12466e-06
-7.88823e-05
-1.06041e-05
-8.00308e-05
-1.35538e-05
-8.14275e-05
-1.72601e-05
-8.3004e-05
-2.20386e-05
-8.45868e-05
-2.82803e-05
-8.6041e-05
-3.69404e-05
-8.71211e-05
-4.7511e-05
-8.69339e-05
-6.13385e-05
-8.4367e-05
-6.38075e-05
-7.70915e-05
-6.27967e-05
-7.39668e-05
-6.25221e-05
-7.22031e-05
-6.42007e-05
-7.20757e-05
-6.94352e-05
-7.31873e-05
-7.95886e-05
-7.52114e-05
-9.66383e-05
-7.84626e-05
-0.000121089
-7.78057e-05
-0.0001483
-6.02245e-05
-0.000166
-1.27648e-05
3.47015e-05
-2.22236e-06
-7.45608e-05
-4.19864e-06
-7.53903e-05
-6.39868e-06
-7.57609e-05
-8.96787e-06
-7.63132e-05
-1.19458e-05
-7.70529e-05
-1.54898e-05
-7.78835e-05
-1.96641e-05
-7.88298e-05
-2.45645e-05
-7.96865e-05
-3.03363e-05
-8.02694e-05
-3.71143e-05
-8.03432e-05
-4.44114e-05
-7.9637e-05
-5.12564e-05
-7.75221e-05
-5.47246e-05
-7.36234e-05
-5.84114e-05
-7.02802e-05
-6.29852e-05
-6.76293e-05
-6.92897e-05
-6.57714e-05
-7.83447e-05
-6.41324e-05
-9.07566e-05
-6.27996e-05
-0.000107333
-6.18863e-05
-0.000126866
-5.82732e-05
-0.000144813
-4.22776e-05
-0.000147941
-9.63667e-06
1.89892e-05
-2.46466e-06
-7.20961e-05
-4.94366e-06
-7.29113e-05
-7.55662e-06
-7.3148e-05
-1.0362e-05
-7.35078e-05
-1.34751e-05
-7.39398e-05
-1.69646e-05
-7.43941e-05
-2.09723e-05
-7.48223e-05
-2.55564e-05
-7.51026e-05
-3.07345e-05
-7.50914e-05
-3.64387e-05
-7.46392e-05
-4.25901e-05
-7.34857e-05
-4.8844e-05
-7.12683e-05
-5.4138e-05
-6.83295e-05
-5.86987e-05
-6.57196e-05
-6.32549e-05
-6.30733e-05
-6.84708e-05
-6.05556e-05
-7.45075e-05
-5.80958e-05
-8.21737e-05
-5.51334e-05
-9.3672e-05
-5.03882e-05
-0.000109404
-4.2541e-05
-0.000123025
-2.86567e-05
-0.000124088
-8.57387e-06
9.72832e-06
-2.47981e-06
-6.96164e-05
-5.00639e-06
-7.03848e-05
-7.66314e-06
-7.04913e-05
-1.05196e-05
-7.06514e-05
-1.36481e-05
-7.08114e-05
-1.71011e-05
-7.09411e-05
-2.09548e-05
-7.09687e-05
-2.52498e-05
-7.08077e-05
-2.9989e-05
-7.03522e-05
-3.51345e-05
-6.94939e-05
-4.05298e-05
-6.80905e-05
-4.57096e-05
-6.60886e-05
-5.03253e-05
-6.3714e-05
-5.49583e-05
-6.10867e-05
-5.98919e-05
-5.81398e-05
-6.55948e-05
-5.48528e-05
-7.25719e-05
-5.11188e-05
-8.09268e-05
-4.67786e-05
-8.96522e-05
-4.16627e-05
-9.76378e-05
-3.45555e-05
-0.000103005
-2.32897e-05
-0.000102969
-8.60974e-06
6.43534e-06
-2.56303e-06
-6.70534e-05
-5.198e-06
-6.77498e-05
-7.93435e-06
-6.7755e-05
-1.08304e-05
-6.77555e-05
-1.39244e-05
-6.77173e-05
-1.72631e-05
-6.76026e-05
-2.08772e-05
-6.73547e-05
-2.47781e-05
-6.69069e-05
-2.89522e-05
-6.61782e-05
-3.33728e-05
-6.50734e-05
-3.79534e-05
-6.351e-05
-4.25492e-05
-6.14928e-05
-4.71645e-05
-5.90988e-05
-5.18522e-05
-5.6399e-05
-5.66215e-05
-5.33706e-05
-6.15211e-05
-4.99532e-05
-6.66421e-05
-4.59978e-05
-7.21094e-05
-4.13113e-05
-7.83333e-05
-3.54388e-05
-8.51295e-05
-2.77593e-05
-9.01496e-05
-1.82696e-05
-9.14935e-05
-7.26581e-06
3.57108e-06
-2.56895e-06
-6.44845e-05
-5.19999e-06
-6.51188e-05
-7.91459e-06
-6.50405e-05
-1.07541e-05
-6.4916e-05
-1.37581e-05
-6.47134e-05
-1.69624e-05
-6.43983e-05
-2.03915e-05
-6.39257e-05
-2.40561e-05
-6.32423e-05
-2.79453e-05
-6.2289e-05
-3.20149e-05
-6.10039e-05
-3.61806e-05
-5.93443e-05
-4.03597e-05
-5.73137e-05
-4.45367e-05
-5.49219e-05
-4.87872e-05
-5.21485e-05
-5.31687e-05
-4.89892e-05
-5.77454e-05
-4.53764e-05
-6.25199e-05
-4.12232e-05
-6.74488e-05
-3.63824e-05
-7.22483e-05
-3.06392e-05
-7.62491e-05
-2.37585e-05
-7.88562e-05
-1.56625e-05
-7.9452e-05
-6.6699e-06
2.56474e-06
-2.53291e-06
-6.19516e-05
-5.12644e-06
-6.25253e-05
-7.78737e-06
-6.23796e-05
-1.05489e-05
-6.21545e-05
-1.34405e-05
-6.18218e-05
-1.64859e-05
-6.13529e-05
-1.96995e-05
-6.07121e-05
-2.30842e-05
-5.98577e-05
-2.66283e-05
-5.87449e-05
-3.03008e-05
-5.73314e-05
-3.4057e-05
-5.55882e-05
-3.78644e-05
-5.35063e-05
-4.17102e-05
-5.10761e-05
-4.5584e-05
-4.82747e-05
-4.94979e-05
-4.50753e-05
-5.34424e-05
-4.1432e-05
-5.73925e-05
-3.72731e-05
-6.12736e-05
-3.25012e-05
-6.49201e-05
-2.69926e-05
-6.80174e-05
-2.06612e-05
-7.01131e-05
-1.35667e-05
-7.0789e-05
-5.99402e-06
1.69403e-06
-2.46834e-06
-5.94833e-05
-4.98792e-06
-6.00058e-05
-7.56167e-06
-5.98058e-05
-1.02151e-05
-5.95011e-05
-1.297e-05
-5.90669e-05
-1.58431e-05
-5.84799e-05
-1.88435e-05
-5.77117e-05
-2.1971e-05
-5.67302e-05
-2.52142e-05
-5.55018e-05
-2.85497e-05
-5.39958e-05
-3.19487e-05
-5.21893e-05
-3.53894e-05
-5.00656e-05
-3.88584e-05
-4.76071e-05
-4.23405e-05
-4.47926e-05
-4.58196e-05
-4.15962e-05
-4.92698e-05
-3.79817e-05
-5.26402e-05
-3.39025e-05
-5.58383e-05
-2.9303e-05
-5.86992e-05
-2.41316e-05
-6.09873e-05
-1.83731e-05
-6.24586e-05
-1.20954e-05
-6.29533e-05
-5.49922e-06
1.17548e-06
-2.37375e-06
-5.71095e-05
-4.7923e-06
-5.75872e-05
-7.25317e-06
-5.7345e-05
-9.77609e-06
-5.69782e-05
-1.23771e-05
-5.64659e-05
-1.50678e-05
-5.57893e-05
-1.78535e-05
-5.49261e-05
-2.07324e-05
-5.38512e-05
-2.3695e-05
-5.25393e-05
-2.67242e-05
-5.09667e-05
-2.97999e-05
-4.91135e-05
-3.29031e-05
-4.69625e-05
-3.60141e-05
-4.44961e-05
-3.91112e-05
-4.16955e-05
-4.21683e-05
-3.85391e-05
-4.51479e-05
-3.5002e-05
-4.7994e-05
-3.10564e-05
-5.06213e-05
-2.66755e-05
-5.29076e-05
-2.18453e-05
-5.46988e-05
-1.65817e-05
-5.58399e-05
-1.09542e-05
-5.62313e-05
-5.10784e-06
7.88663e-07
-2.25792e-06
-5.48516e-05
-4.55421e-06
-5.5291e-05
-6.88302e-06
-5.50162e-05
-9.25939e-06
-5.46018e-05
-1.16949e-05
-5.40304e-05
-1.41973e-05
-5.32869e-05
-1.67696e-05
-5.23538e-05
-1.94091e-05
-5.12117e-05
-2.21075e-05
-4.98409e-05
-2.48514e-05
-4.82228e-05
-2.76244e-05
-4.63405e-05
-3.04083e-05
-4.41786e-05
-3.31825e-05
-4.17219e-05
-3.59226e-05
-3.89554e-05
-3.85979e-05
-3.58637e-05
-4.11686e-05
-3.24313e-05
-4.35804e-05
-2.86445e-05
-4.57605e-05
-2.44953e-05
-4.76166e-05
-1.99891e-05
-4.9044e-05
-1.51543e-05
-4.99457e-05
-1.00525e-05
-5.02623e-05
-4.79116e-06
5.02722e-07
-2.12475e-06
-5.27269e-05
-4.28245e-06
-5.31333e-05
-6.46463e-06
-5.2834e-05
-8.68259e-06
-5.23839e-05
-1.09446e-05
-5.17684e-05
-1.32556e-05
-5.09759e-05
-1.56169e-05
-4.99925e-05
-1.80254e-05
-4.88032e-05
-2.04736e-05
-4.73927e-05
-2.295e-05
-4.57464e-05
-2.54401e-05
-4.38505e-05
-2.79264e-05
-4.16923e-05
-3.03882e-05
-3.92601e-05
-3.28006e-05
-3.65429e-05
-3.51332e-05
-3.35311e-05
-3.73476e-05
-3.02168e-05
-3.93959e-05
-2.65961e-05
-4.12188e-05
-2.26723e-05
-4.27474e-05
-1.84604e-05
-4.39092e-05
-1.39924e-05
-4.464e-05
-9.32162e-06
-4.49011e-05
-4.52993e-06
2.82966e-07
-1.97858e-06
-5.07483e-05
-3.98534e-06
-5.11265e-05
-6.01014e-06
-5.08092e-05
-8.06132e-06
-5.03327e-05
-1.01445e-05
-4.96852e-05
-1.22629e-05
-4.88576e-05
-1.44163e-05
-4.78391e-05
-1.66013e-05
-4.66182e-05
-1.8811e-05
-4.51831e-05
-2.1035e-05
-4.35224e-05
-2.326e-05
-4.16255e-05
-2.54696e-05
-3.94827e-05
-2.7644e-05
-3.70857e-05
-2.97595e-05
-3.44274e-05
-3.17875e-05
-3.1503e-05
-3.36937e-05
-2.83105e-05
-3.54372e-05
-2.48525e-05
-3.69708e-05
-2.11386e-05
-3.8243e-05
-1.71882e-05
-3.92024e-05
-1.3033e-05
-3.98051e-05
-8.7188e-06
-4.00252e-05
-4.30988e-06
1.11969e-07
-1.82266e-06
-4.89256e-05
-3.66934e-06
-4.92799e-05
-5.52896e-06
-4.89496e-05
-7.40757e-06
-4.84541e-05
-9.30889e-06
-4.77839e-05
-1.12345e-05
-4.6932e-05
-1.31835e-05
-4.58901e-05
-1.51521e-05
-4.46496e-05
-1.71338e-05
-4.32014e-05
-1.91191e-05
-4.15371e-05
-2.10958e-05
-3.96488e-05
-2.30487e-05
-3.75299e-05
-2.49594e-05
-3.51749e-05
-2.68065e-05
-3.25804e-05
-2.85642e-05
-2.97452e-05
-3.0203e-05
-2.66717e-05
-3.16889e-05
-2.33666e-05
-3.29845e-05
-1.98429e-05
-3.40511e-05
-1.61215e-05
-3.48516e-05
-1.22325e-05
-3.53553e-05
-8.21509e-06
-3.55445e-05
-4.12061e-06
-2.32195e-08
-1.65961e-06
-4.7266e-05
-3.33958e-06
-4.75999e-05
-5.02856e-06
-4.72607e-05
-6.73082e-06
-4.67519e-05
-8.4486e-06
-4.60662e-05
-1.01824e-05
-4.51982e-05
-1.19307e-05
-4.41419e-05
-1.36896e-05
-4.28906e-05
-1.54529e-05
-4.14381e-05
-1.7212e-05
-3.9778e-05
-1.89557e-05
-3.79052e-05
-2.06702e-05
-3.58153e-05
-2.23392e-05
-3.35059e-05
-2.39434e-05
-3.09761e-05
-2.54607e-05
-2.82279e-05
-2.6866e-05
-2.52664e-05
-2.81316e-05
-2.2101e-05
-2.9228e-05
-1.87464e-05
-3.0126e-05
-1.52236e-05
-3.0798e-05
-1.15604e-05
-3.1222e-05
-7.79115e-06
-3.1384e-05
-3.95857e-06
-1.21217e-07
-1.49147e-06
-4.57746e-05
-3.00008e-06
-4.60913e-05
-4.51473e-06
-4.5746e-05
-6.03832e-06
-4.52283e-05
-7.57203e-06
-4.45325e-05
-9.11558e-06
-4.36547e-05
-1.0667e-05
-4.25904e-05
-1.22225e-05
-4.13352e-05
-1.37762e-05
-3.98843e-05
-1.53204e-05
-3.82339e-05
-1.68449e-05
-3.63807e-05
-1.83376e-05
-3.43226e-05
-1.97841e-05
-3.20594e-05
-2.11678e-05
-2.95924e-05
-2.24699e-05
-2.69258e-05
-2.36695e-05
-2.40667e-05
-2.47442e-05
-2.10262e-05
-2.56711e-05
-1.78195e-05
-2.64276e-05
-1.44671e-05
-2.69935e-05
-1.09945e-05
-2.73524e-05
-7.43223e-06
-2.74946e-05
-3.81635e-06
-1.94195e-07
-1.31983e-06
-4.44548e-05
-2.65386e-06
-4.47573e-05
-3.99181e-06
-4.44081e-05
-5.33556e-06
-4.38845e-05
-6.68546e-06
-4.31826e-05
-8.0407e-06
-4.22994e-05
-9.39913e-06
-4.1232e-05
-1.07571e-05
-3.99772e-05
-1.21092e-05
-3.85322e-05
-1.34484e-05
-3.68946e-05
-1.47661e-05
-3.5063e-05
-1.60515e-05
-3.30372e-05
-1.72923e-05
-3.08185e-05
-1.84745e-05
-2.84102e-05
-1.95823e-05
-2.5818e-05
-2.05987e-05
-2.30503e-05
-2.15058e-05
-2.0119e-05
-2.22856e-05
-1.70396e-05
-2.2921e-05
-1.38316e-05
-2.33969e-05
-1.05187e-05
-2.37012e-05
-7.12793e-06
-2.38268e-05
-3.69075e-06
-2.45785e-07
-1.14574e-06
-4.3309e-05
-2.30311e-06
-4.35999e-05
-3.46301e-06
-4.32482e-05
-4.62652e-06
-4.2721e-05
-5.79341e-06
-4.20157e-05
-6.96254e-06
-4.11303e-05
-8.13168e-06
-4.00629e-05
-9.2974e-06
-3.88115e-05
-1.0455e-05
-3.73746e-05
-1.15983e-05
-3.57513e-05
-1.27197e-05
-3.39416e-05
-1.38103e-05
-3.19466e-05
-1.48597e-05
-2.97691e-05
-1.58561e-05
-2.74138e-05
-1.67868e-05
-2.48873e-05
-1.76379e-05
-2.21991e-05
-1.83955e-05
-1.93614e-05
-1.90456e-05
-1.63896e-05
-1.95751e-05
-1.33021e-05
-1.99728e-05
-1.01209e-05
-2.023e-05
-6.87075e-06
-2.03415e-05
-3.57932e-06
-2.78533e-07
-9.69547e-07
-4.23395e-05
-1.9492e-06
-4.26203e-05
-2.93047e-06
-4.22669e-05
-3.91393e-06
-4.17376e-05
-4.89897e-06
-4.10306e-05
-5.88421e-06
-4.0145e-05
-6.86751e-06
-3.90796e-05
-7.84582e-06
-3.78332e-05
-8.81505e-06
-3.64054e-05
-9.77e-06
-3.47964e-05
-1.07044e-05
-3.30072e-05
-1.16106e-05
-3.10403e-05
-1.24803e-05
-2.88994e-05
-1.3304e-05
-2.65901e-05
-1.40713e-05
-2.412e-05
-1.47715e-05
-2.1499e-05
-1.53936e-05
-1.87393e-05
-1.5927e-05
-1.58562e-05
-1.6362e-05
-1.28672e-05
-1.66903e-05
-9.79261e-06
-1.69059e-05
-6.65524e-06
-1.70051e-05
-3.48015e-06
-2.94809e-07
-7.9132e-07
-4.15481e-05
-1.59256e-06
-4.1819e-05
-2.39519e-06
-4.14643e-05
-3.19913e-06
-4.09336e-05
-4.00353e-06
-4.02262e-05
-4.80693e-06
-3.93417e-05
-5.6074e-06
-3.82791e-05
-6.4024e-06
-3.70382e-05
-7.18856e-06
-3.56193e-05
-7.96163e-06
-3.40233e-05
-8.7165e-06
-3.22524e-05
-9.44718e-06
-3.03096e-05
-1.01469e-05
-2.81997e-05
-1.08082e-05
-2.59288e-05
-1.14232e-05
-2.3505e-05
-1.19836e-05
-2.09386e-05
-1.2481e-05
-1.82419e-05
-1.29076e-05
-1.54296e-05
-1.32563e-05
-1.25185e-05
-1.35215e-05
-9.5275e-06
-1.3699e-05
-6.47776e-06
-1.37868e-05
-3.39228e-06
-2.95108e-07
-6.08565e-07
-4.09396e-05
-1.23269e-06
-4.11949e-05
-1.85645e-06
-4.08405e-05
-2.48064e-06
-4.03094e-05
-3.10466e-06
-3.96022e-05
-3.72705e-06
-3.87193e-05
-4.3465e-06
-3.76597e-05
-4.96112e-06
-3.64236e-05
-5.56836e-06
-3.5012e-05
-6.16492e-06
-3.34267e-05
-6.74681e-06
-3.16705e-05
-7.30938e-06
-2.97471e-05
-7.84739e-06
-2.76617e-05
-8.35523e-06
-2.5421e-05
-8.82701e-06
-2.30332e-05
-9.25671e-06
-2.05089e-05
-9.63815e-06
-1.78605e-05
-9.96557e-06
-1.51022e-05
-1.02342e-05
-1.22498e-05
-1.04406e-05
-9.32121e-06
-1.05823e-05
-6.336e-06
-1.06594e-05
-3.31522e-06
-2.80488e-07
-4.23333e-07
-4.05162e-05
-8.67778e-07
-4.07504e-05
-1.30922e-06
-4.03991e-05
-1.74648e-06
-3.98722e-05
-2.18008e-06
-3.91686e-05
-2.61286e-06
-3.82865e-05
-3.04513e-06
-3.72274e-05
-3.47604e-06
-3.59927e-05
-3.90405e-06
-3.4584e-05
-4.32707e-06
-3.30037e-05
-4.74231e-06
-3.12552e-05
-5.14629e-06
-2.93431e-05
-5.5347e-06
-2.72733e-05
-5.90241e-06
-2.50532e-05
-6.24375e-06
-2.26919e-05
-6.55363e-06
-2.0199e-05
-6.82882e-06
-1.75853e-05
-7.06654e-06
-1.48645e-05
-7.26372e-06
-1.20527e-05
-7.41797e-06
-9.16699e-06
-7.52781e-06
-6.22618e-06
-7.59281e-06
-3.25024e-06
-2.45731e-07
-2.37167e-07
-4.02791e-05
-5.07343e-07
-4.04803e-05
-7.78655e-07
-4.01277e-05
-1.04859e-06
-3.96022e-05
-1.31551e-06
-3.89017e-05
-1.5765e-06
-3.80255e-05
-1.83024e-06
-3.69737e-05
-2.07583e-06
-3.57471e-05
-2.31251e-06
-3.43473e-05
-2.5396e-06
-3.27766e-05
-2.75664e-06
-3.10382e-05
-2.96349e-06
-2.91362e-05
-3.1605e-06
-2.70763e-05
-3.34848e-06
-2.48653e-05
-3.5286e-06
-2.25118e-05
-3.70121e-06
-2.00264e-05
-3.86495e-06
-1.74216e-05
-4.01861e-06
-1.47109e-05
-4.1623e-06
-1.1909e-05
-4.2969e-06
-9.03241e-06
-4.42389e-06
-6.09922e-06
-4.54158e-06
-3.13256e-06
-1.86281e-07
-1.71601e-07
-4.17566e-07
-6.45499e-07
-8.61939e-07
-1.06907e-06
-1.26598e-06
-1.45092e-06
-1.62182e-06
-1.77642e-06
-1.91241e-06
-2.02752e-06
-2.11959e-06
-2.18671e-06
-2.22731e-06
-2.24026e-06
-2.22512e-06
-2.18232e-06
-2.11313e-06
-2.0199e-06
-1.90692e-06
-1.78286e-06
-1.66953e-06
)
;

boundaryField
{
    leftWall
    {
        type            calculated;
        value           uniform 0;
    }
    rightWall
    {
        type            calculated;
        value           nonuniform 0();
    }
    lowerWall
    {
        type            calculated;
        value           nonuniform 0();
    }
    atmosphere
    {
        type            calculated;
        value           nonuniform List<scalar> 
23
(
-4.01075e-05
-4.02343e-05
-3.98998e-05
-3.93858e-05
-3.86946e-05
-3.78286e-05
-3.67887e-05
-3.55762e-05
-3.41927e-05
-3.26407e-05
-3.09231e-05
-2.90442e-05
-2.70091e-05
-2.48247e-05
-2.24988e-05
-2.00416e-05
-1.74644e-05
-1.47801e-05
-1.20023e-05
-9.14541e-06
-6.22328e-06
-3.2459e-06
-2.16477e-07
)
;
    }
    defaultFaces
    {
        type            empty;
        value           nonuniform 0();
    }
    procBoundary2to0
    {
        type            processor;
        value           nonuniform List<scalar> 
24
(
8.5054e-05
9.28146e-05
0.000102399
0.000113563
0.000127308
0.000131764
6.06843e-05
8.1032e-05
8.13975e-05
8.22859e-05
8.36047e-05
8.536e-05
8.76105e-05
9.03546e-05
9.33721e-05
9.62117e-05
9.90325e-05
9.5349e-05
9.12465e-05
9.21817e-05
8.11199e-05
7.8474e-05
-1.37061e-06
8.0662e-05
)
;
    }
    procBoundary2to3
    {
        type            processor;
        value           nonuniform List<scalar> 
25
(
-0.000167431
-0.000167164
-0.000154114
-0.000132229
-0.000114827
-9.9676e-05
-8.86292e-05
-7.84457e-05
-6.99182e-05
-6.24347e-05
-5.58444e-05
-4.99763e-05
-4.46814e-05
-3.98541e-05
-3.54093e-05
-3.1286e-05
-2.74216e-05
-2.37752e-05
-2.03087e-05
-1.69888e-05
-1.37866e-05
-1.0674e-05
-7.62757e-06
-4.60106e-06
-1.63935e-06
)
;
    }
}


// ************************************************************************* //
