/*--------------------------------*- C++ -*----------------------------------*\
| =========                 |                                                 |
| \\      /  F ield         | OpenFOAM: The Open Source CFD Toolbox           |
|  \\    /   O peration     | Version:  2.4.0                                 |
|   \\  /    A nd           | Web:      www.OpenFOAM.org                      |
|    \\/     M anipulation  |                                                 |
\*---------------------------------------------------------------------------*/
FoamFile
{
    version     2.0;
    format      ascii;
    class       surfaceScalarField;
    location    "0.1";
    object      phi.water;
}
// * * * * * * * * * * * * * * * * * * * * * * * * * * * * * * * * * * * * * //

dimensions      [0 3 -1 0 0 0 0];

internalField   nonuniform List<scalar> 
1070
(
-7.48561e-06
-0.000175526
-1.06162e-05
-0.00018408
-1.36228e-05
-0.000181935
-1.56213e-05
-0.000154878
-2.69866e-05
-0.000131484
-7.69317e-05
-8.98892e-05
9.93129e-06
3.34339e-07
-8.79828e-05
-1.49364e-08
-8.86024e-05
-1.70362e-08
-8.97532e-05
-4.78214e-08
-9.14966e-05
-1.10178e-07
-9.38305e-05
-2.23703e-07
-9.68559e-05
-4.20664e-07
-0.00010068
-7.6048e-07
-0.000105389
-1.34723e-06
-0.000111098
-2.11158e-06
-0.000117642
-3.57597e-06
-0.000124743
-3.00142e-06
-0.000129812
-7.8283e-06
-7.6801e-05
-1.44006e-05
-4.57124e-05
-4.36201e-05
-7.32133e-05
-5.22175e-05
-7.47354e-05
-6.10875e-05
-7.90126e-05
-6.86587e-05
-8.56461e-05
-7.16718e-05
-9.56226e-05
-7.59998e-05
-0.000102297
-9.71857e-05
-8.74413e-05
-0.000142133
-3.04539e-05
4.65642e-05
-1.53984e-06
-7.71505e-05
-3.90902e-06
-7.77289e-05
-5.89062e-06
-7.82932e-05
-8.07276e-06
-7.91759e-05
-1.05521e-05
-8.02817e-05
-1.35056e-05
-8.16359e-05
-1.72199e-05
-8.31742e-05
-2.2008e-05
-8.47245e-05
-2.82635e-05
-8.61534e-05
-3.69509e-05
-8.72113e-05
-4.77286e-05
-8.70566e-05
-6.15331e-05
-8.48039e-05
-6.38245e-05
-7.82724e-05
-6.27984e-05
-7.42844e-05
-6.25395e-05
-7.22301e-05
-6.42195e-05
-7.20982e-05
-6.94529e-05
-7.3204e-05
-7.96003e-05
-7.52219e-05
-9.66475e-05
-7.84705e-05
-0.000121103
-7.78102e-05
-0.000148314
-6.02209e-05
-0.000166003
-1.27583e-05
3.47075e-05
-2.22324e-06
-7.45846e-05
-4.20025e-06
-7.54142e-05
-6.40091e-06
-7.5785e-05
-8.97057e-06
-7.63374e-05
-1.19486e-05
-7.7078e-05
-1.54928e-05
-7.79093e-05
-1.96681e-05
-7.88565e-05
-2.45705e-05
-7.97139e-05
-3.03428e-05
-8.02965e-05
-3.71191e-05
-8.03696e-05
-4.44152e-05
-7.96626e-05
-5.12606e-05
-7.75465e-05
-5.47323e-05
-7.36467e-05
-5.84215e-05
-7.0301e-05
-6.29978e-05
-6.76475e-05
-6.93024e-05
-6.57857e-05
-7.83561e-05
-6.41427e-05
-9.07645e-05
-6.28058e-05
-0.00010734
-6.189e-05
-0.000126875
-5.82738e-05
-0.000144818
-4.22753e-05
-0.000147944
-9.633e-06
1.8996e-05
-2.46562e-06
-7.21137e-05
-4.94545e-06
-7.29288e-05
-7.5592e-06
-7.31654e-05
-1.03652e-05
-7.35251e-05
-1.34788e-05
-7.39574e-05
-1.69688e-05
-7.44115e-05
-2.09773e-05
-7.48396e-05
-2.55624e-05
-7.51195e-05
-3.07406e-05
-7.51075e-05
-3.64428e-05
-7.46542e-05
-4.25927e-05
-7.35e-05
-4.88469e-05
-7.12824e-05
-5.41429e-05
-6.8343e-05
-5.87062e-05
-6.57319e-05
-6.32638e-05
-6.30833e-05
-6.84799e-05
-6.05632e-05
-7.45149e-05
-5.81006e-05
-8.21789e-05
-5.51359e-05
-9.36761e-05
-5.03889e-05
-0.000109409
-4.25398e-05
-0.00012303
-2.86537e-05
-0.000124091
-8.56914e-06
9.73374e-06
-2.48071e-06
-6.96287e-05
-5.00813e-06
-7.03969e-05
-7.66562e-06
-7.05033e-05
-1.05227e-05
-7.06631e-05
-1.36518e-05
-7.08229e-05
-1.71053e-05
-7.09523e-05
-2.09595e-05
-7.09794e-05
-2.52551e-05
-7.08176e-05
-2.99939e-05
-7.0361e-05
-3.51379e-05
-6.95017e-05
-4.05319e-05
-6.80979e-05
-4.57117e-05
-6.60958e-05
-5.03289e-05
-6.37209e-05
-5.49635e-05
-6.10927e-05
-5.98984e-05
-5.81447e-05
-6.56011e-05
-5.48558e-05
-7.25767e-05
-5.11201e-05
-8.09297e-05
-4.67783e-05
-8.96544e-05
-4.16613e-05
-9.76407e-05
-3.4553e-05
-0.000103008
-2.32861e-05
-0.000102972
-8.60556e-06
6.44093e-06
-2.56384e-06
-6.70616e-05
-5.19959e-06
-6.77579e-05
-7.93663e-06
-6.77629e-05
-1.08332e-05
-6.77631e-05
-1.39277e-05
-6.77246e-05
-1.72667e-05
-6.76094e-05
-2.08811e-05
-6.7361e-05
-2.47822e-05
-6.69124e-05
-2.8956e-05
-6.61828e-05
-3.33756e-05
-6.50772e-05
-3.79553e-05
-6.35133e-05
-4.25511e-05
-6.1496e-05
-4.7167e-05
-5.91017e-05
-5.18562e-05
-5.64016e-05
-5.66261e-05
-5.33721e-05
-6.15256e-05
-4.99537e-05
-6.66452e-05
-4.59969e-05
-7.2111e-05
-4.13094e-05
-7.83345e-05
-3.54362e-05
-8.51312e-05
-2.7756e-05
-9.0152e-05
-1.82657e-05
-9.14955e-05
-7.26104e-06
3.5759e-06
-2.56968e-06
-6.44897e-05
-5.2014e-06
-6.5124e-05
-7.9166e-06
-6.50454e-05
-1.07566e-05
-6.49207e-05
-1.3761e-05
-6.47177e-05
-1.69654e-05
-6.44022e-05
-2.03947e-05
-6.39291e-05
-2.40594e-05
-6.32451e-05
-2.79483e-05
-6.22911e-05
-3.20172e-05
-6.10053e-05
-3.61823e-05
-5.93453e-05
-4.03613e-05
-5.73145e-05
-4.4539e-05
-5.49226e-05
-4.87901e-05
-5.21487e-05
-5.31723e-05
-4.89891e-05
-5.77486e-05
-4.53752e-05
-6.2522e-05
-4.12212e-05
-6.74497e-05
-3.63796e-05
-7.22489e-05
-3.06359e-05
-7.62503e-05
-2.37548e-05
-7.88577e-05
-1.56585e-05
-7.94542e-05
-6.66574e-06
2.56971e-06
-2.53353e-06
-6.19546e-05
-5.12765e-06
-6.25283e-05
-7.78909e-06
-6.23824e-05
-1.0551e-05
-6.21571e-05
-1.34429e-05
-6.1824e-05
-1.64885e-05
-6.13548e-05
-1.97021e-05
-6.07135e-05
-2.30868e-05
-5.98587e-05
-2.66307e-05
-5.87455e-05
-3.03028e-05
-5.73314e-05
-3.40585e-05
-5.55879e-05
-3.78659e-05
-5.35059e-05
-4.17119e-05
-5.10754e-05
-4.55866e-05
-4.82739e-05
-4.95005e-05
-4.50737e-05
-5.34448e-05
-4.143e-05
-5.73938e-05
-3.72705e-05
-6.12741e-05
-3.2498e-05
-6.49203e-05
-2.69891e-05
-6.80181e-05
-2.06574e-05
-7.01146e-05
-1.35627e-05
-7.07904e-05
-5.98952e-06
1.69848e-06
-2.4689e-06
-5.94847e-05
-4.98897e-06
-6.00071e-05
-7.56316e-06
-5.9807e-05
-1.0217e-05
-5.95021e-05
-1.29721e-05
-5.90676e-05
-1.58452e-05
-5.84804e-05
-1.88456e-05
-5.77118e-05
-2.1973e-05
-5.67299e-05
-2.5216e-05
-5.55012e-05
-2.85513e-05
-5.39949e-05
-3.195e-05
-5.21881e-05
-3.53906e-05
-5.00642e-05
-3.886e-05
-4.76057e-05
-4.23423e-05
-4.47908e-05
-4.58218e-05
-4.15942e-05
-4.92714e-05
-3.79791e-05
-5.26411e-05
-3.38996e-05
-5.58384e-05
-2.92996e-05
-5.86992e-05
-2.4128e-05
-6.09878e-05
-1.83693e-05
-6.24595e-05
-1.20914e-05
-6.29548e-05
-5.49523e-06
1.18e-06
-2.37422e-06
-5.71097e-05
-4.7932e-06
-5.75874e-05
-7.25444e-06
-5.7345e-05
-9.77765e-06
-5.6978e-05
-1.23789e-05
-5.64655e-05
-1.50696e-05
-5.57887e-05
-1.78553e-05
-5.49252e-05
-2.07341e-05
-5.385e-05
-2.36965e-05
-5.25378e-05
-2.67255e-05
-5.0965e-05
-2.98011e-05
-4.91116e-05
-3.29043e-05
-4.69605e-05
-3.60154e-05
-4.44939e-05
-3.9113e-05
-4.16933e-05
-4.21698e-05
-3.85363e-05
-4.51491e-05
-3.49992e-05
-4.79945e-05
-3.10531e-05
-5.06212e-05
-2.6672e-05
-5.29074e-05
-2.18416e-05
-5.46991e-05
-1.65779e-05
-5.58409e-05
-1.09503e-05
-5.62322e-05
-5.10358e-06
7.92841e-07
-2.25833e-06
-5.48509e-05
-4.55498e-06
-5.52902e-05
-6.88411e-06
-5.50153e-05
-9.26073e-06
-5.46008e-05
-1.16964e-05
-5.40291e-05
-1.41988e-05
-5.32855e-05
-1.67711e-05
-5.23521e-05
-1.94105e-05
-5.12098e-05
-2.21088e-05
-4.98388e-05
-2.48525e-05
-4.82206e-05
-2.76254e-05
-4.63381e-05
-3.04092e-05
-4.4176e-05
-3.31838e-05
-4.17193e-05
-3.59238e-05
-3.89525e-05
-3.85994e-05
-3.58608e-05
-4.11695e-05
-3.2428e-05
-4.35806e-05
-2.8641e-05
-4.57602e-05
-2.44916e-05
-4.76163e-05
-1.99854e-05
-4.90441e-05
-1.51505e-05
-4.99463e-05
-1.00485e-05
-5.02634e-05
-4.78719e-06
5.07088e-07
-2.12509e-06
-5.27254e-05
-4.28311e-06
-5.31317e-05
-6.46557e-06
-5.28324e-05
-8.68374e-06
-5.23821e-05
-1.09458e-05
-5.17665e-05
-1.32569e-05
-5.09738e-05
-1.56182e-05
-4.99902e-05
-1.80267e-05
-4.88008e-05
-2.04747e-05
-4.73901e-05
-2.2951e-05
-4.57437e-05
-2.54409e-05
-4.38476e-05
-2.79273e-05
-4.16894e-05
-3.03891e-05
-3.9257e-05
-3.28019e-05
-3.65398e-05
-3.51342e-05
-3.35276e-05
-3.73483e-05
-3.02133e-05
-3.93959e-05
-2.65924e-05
-4.12184e-05
-2.26685e-05
-4.2747e-05
-1.84565e-05
-4.39092e-05
-1.39885e-05
-4.46406e-05
-9.31761e-06
-4.49019e-05
-4.52565e-06
2.87201e-07
-1.97889e-06
-5.07463e-05
-3.98592e-06
-5.11244e-05
-6.01095e-06
-5.08071e-05
-8.06231e-06
-5.03304e-05
-1.01456e-05
-4.96828e-05
-1.2264e-05
-4.8855e-05
-1.44174e-05
-4.78363e-05
-1.66024e-05
-4.66153e-05
-1.88119e-05
-4.51801e-05
-2.10358e-05
-4.35193e-05
-2.32608e-05
-4.16222e-05
-2.54704e-05
-3.94794e-05
-2.7645e-05
-3.70823e-05
-2.97604e-05
-3.44238e-05
-3.17884e-05
-3.14994e-05
-3.36941e-05
-2.83066e-05
-3.54371e-05
-2.48485e-05
-3.69704e-05
-2.11346e-05
-3.82426e-05
-1.71841e-05
-3.92024e-05
-1.30289e-05
-3.98055e-05
-8.71462e-06
-4.0026e-05
-4.30574e-06
1.16407e-07
-1.8229e-06
-4.89231e-05
-3.66982e-06
-4.92773e-05
-5.52965e-06
-4.8947e-05
-7.40843e-06
-4.84514e-05
-9.30985e-06
-4.77811e-05
-1.12355e-05
-4.6929e-05
-1.31845e-05
-4.5887e-05
-1.51531e-05
-4.46463e-05
-1.71347e-05
-4.3198e-05
-1.91199e-05
-4.15336e-05
-2.10965e-05
-3.96452e-05
-2.30494e-05
-3.75262e-05
-2.49602e-05
-3.51711e-05
-2.68074e-05
-3.25766e-05
-2.85649e-05
-2.97412e-05
-3.02034e-05
-2.66676e-05
-3.16888e-05
-2.33624e-05
-3.2984e-05
-1.98386e-05
-3.40507e-05
-1.61173e-05
-3.48515e-05
-1.22282e-05
-3.53557e-05
-8.21079e-06
-3.5545e-05
-4.11612e-06
-1.87878e-08
-1.65983e-06
-4.72632e-05
-3.34e-06
-4.7597e-05
-5.02916e-06
-4.72577e-05
-6.73155e-06
-4.67488e-05
-8.44943e-06
-4.6063e-05
-1.01833e-05
-4.51949e-05
-1.19315e-05
-4.41384e-05
-1.36904e-05
-4.28871e-05
-1.54537e-05
-4.14344e-05
-1.72127e-05
-3.97743e-05
-1.89563e-05
-3.79013e-05
-2.06707e-05
-3.58114e-05
-2.23399e-05
-3.35019e-05
-2.39441e-05
-3.09719e-05
-2.54613e-05
-2.82237e-05
-2.68662e-05
-2.5262e-05
-2.81314e-05
-2.20965e-05
-2.92276e-05
-1.87418e-05
-3.01255e-05
-1.52191e-05
-3.07979e-05
-1.15559e-05
-3.12222e-05
-7.78662e-06
-3.13846e-05
-3.95407e-06
-1.16481e-07
-1.49165e-06
-4.57714e-05
-3.00043e-06
-4.60881e-05
-4.51523e-06
-4.57427e-05
-6.03895e-06
-4.52249e-05
-7.57275e-06
-4.4529e-05
-9.11633e-06
-4.36511e-05
-1.06678e-05
-4.25868e-05
-1.22232e-05
-4.13314e-05
-1.37769e-05
-3.98804e-05
-1.53209e-05
-3.82299e-05
-1.68454e-05
-3.63766e-05
-1.83381e-05
-3.43185e-05
-1.97846e-05
-3.20551e-05
-2.11685e-05
-2.95881e-05
-2.24703e-05
-2.69212e-05
-2.36696e-05
-2.40621e-05
-2.4744e-05
-2.10214e-05
-2.56706e-05
-1.78147e-05
-2.64272e-05
-1.44623e-05
-2.69933e-05
-1.09898e-05
-2.73526e-05
-7.42751e-06
-2.74949e-05
-3.8115e-06
-1.89403e-07
-1.31999e-06
-4.44514e-05
-2.65416e-06
-4.47538e-05
-3.99224e-06
-4.44046e-05
-5.33609e-06
-4.3881e-05
-6.68606e-06
-4.31789e-05
-8.04135e-06
-4.22957e-05
-9.39978e-06
-4.12282e-05
-1.07577e-05
-3.99733e-05
-1.21097e-05
-3.85282e-05
-1.34489e-05
-3.68905e-05
-1.47665e-05
-3.50588e-05
-1.60519e-05
-3.30329e-05
-1.72928e-05
-3.08141e-05
-1.84749e-05
-2.84056e-05
-1.95826e-05
-2.58133e-05
-2.05987e-05
-2.30455e-05
-2.15055e-05
-2.01141e-05
-2.22852e-05
-1.70346e-05
-2.29206e-05
-1.38267e-05
-2.33967e-05
-1.05137e-05
-2.37013e-05
-7.12302e-06
-2.38272e-05
-3.68593e-06
-2.40782e-07
-1.14586e-06
-4.33054e-05
-2.30335e-06
-4.35963e-05
-3.46336e-06
-4.32445e-05
-4.62696e-06
-4.27173e-05
-5.79392e-06
-4.20118e-05
-6.96308e-06
-4.11264e-05
-8.13222e-06
-4.00589e-05
-9.29792e-06
-3.88074e-05
-1.04554e-05
-3.73705e-05
-1.15986e-05
-3.5747e-05
-1.272e-05
-3.39372e-05
-1.38106e-05
-3.19421e-05
-1.48599e-05
-2.97645e-05
-1.58564e-05
-2.74091e-05
-1.67869e-05
-2.48824e-05
-1.76379e-05
-2.21941e-05
-1.83952e-05
-1.93563e-05
-1.90451e-05
-1.63844e-05
-1.95748e-05
-1.3297e-05
-1.99727e-05
-1.01159e-05
-2.02303e-05
-6.86576e-06
-2.03417e-05
-3.57427e-06
-2.73589e-07
-9.69654e-07
-4.23358e-05
-1.9494e-06
-4.26165e-05
-2.93075e-06
-4.22631e-05
-3.91429e-06
-4.17337e-05
-4.89939e-06
-4.10267e-05
-5.88465e-06
-4.0141e-05
-6.86796e-06
-3.90755e-05
-7.84624e-06
-3.7829e-05
-8.81541e-06
-3.64011e-05
-9.77029e-06
-3.4792e-05
-1.07046e-05
-3.30027e-05
-1.16108e-05
-3.10357e-05
-1.24805e-05
-2.88948e-05
-1.33041e-05
-2.65853e-05
-1.40713e-05
-2.4115e-05
-1.47714e-05
-2.14938e-05
-1.53933e-05
-1.87341e-05
-1.59266e-05
-1.5851e-05
-1.63617e-05
-1.2862e-05
-1.66903e-05
-9.78754e-06
-1.6906e-05
-6.65024e-06
-1.70054e-05
-3.47532e-06
-2.8975e-07
-7.91391e-07
-4.15443e-05
-1.59271e-06
-4.18151e-05
-2.39541e-06
-4.14604e-05
-3.19942e-06
-4.09296e-05
-4.00386e-06
-4.02222e-05
-4.80728e-06
-3.93375e-05
-5.60776e-06
-3.82749e-05
-6.40273e-06
-3.70339e-05
-7.18883e-06
-3.56149e-05
-7.96183e-06
-3.40189e-05
-8.7166e-06
-3.22478e-05
-9.44724e-06
-3.0305e-05
-1.01469e-05
-2.81949e-05
-1.08082e-05
-2.5924e-05
-1.14231e-05
-2.35001e-05
-1.19834e-05
-2.09335e-05
-1.24807e-05
-1.82369e-05
-1.29073e-05
-1.54246e-05
-1.32561e-05
-1.25135e-05
-1.35215e-05
-9.52265e-06
-1.36993e-05
-6.47301e-06
-1.3787e-05
-3.38738e-06
-2.90284e-07
-6.08627e-07
-4.09357e-05
-1.2328e-06
-4.1191e-05
-1.85662e-06
-4.08365e-05
-2.48086e-06
-4.03054e-05
-3.10491e-06
-3.95981e-05
-3.72732e-06
-3.87151e-05
-4.34676e-06
-3.76554e-05
-4.96136e-06
-3.64193e-05
-5.56855e-06
-3.50076e-05
-6.16504e-06
-3.34223e-05
-6.74685e-06
-3.16659e-05
-7.30929e-06
-2.97425e-05
-7.84728e-06
-2.7657e-05
-8.35505e-06
-2.54162e-05
-8.82681e-06
-2.30285e-05
-9.25644e-06
-2.05042e-05
-9.63785e-06
-1.78558e-05
-9.9653e-06
-1.50976e-05
-1.02341e-05
-1.22453e-05
-1.04407e-05
-9.3167e-06
-1.05825e-05
-6.33144e-06
-1.06596e-05
-3.31062e-06
-2.75722e-07
-4.23369e-07
-4.05123e-05
-8.67854e-07
-4.07465e-05
-1.30934e-06
-4.03951e-05
-1.74663e-06
-3.98681e-05
-2.18025e-06
-3.91645e-05
-2.61305e-06
-3.82823e-05
-3.04532e-06
-3.72231e-05
-3.4762e-06
-3.59884e-05
-3.90417e-06
-3.45796e-05
-4.32712e-06
-3.29993e-05
-4.74227e-06
-3.12507e-05
-5.14619e-06
-2.93386e-05
-5.53451e-06
-2.72688e-05
-5.90224e-06
-2.50488e-05
-6.24354e-06
-2.26875e-05
-6.55341e-06
-2.01947e-05
-6.82856e-06
-1.75811e-05
-7.06635e-06
-1.48604e-05
-7.26364e-06
-1.20485e-05
-7.41808e-06
-9.16287e-06
-7.52793e-06
-6.2219e-06
-7.59286e-06
-3.24591e-06
-2.41169e-07
-2.37186e-07
-4.02752e-05
-5.07385e-07
-4.04763e-05
-7.7872e-07
-4.01238e-05
-1.04868e-06
-3.95982e-05
-1.3156e-06
-3.88976e-05
-1.5766e-06
-3.80213e-05
-1.83033e-06
-3.69694e-05
-2.07592e-06
-3.57428e-05
-2.31257e-06
-3.4343e-05
-2.53961e-06
-3.27723e-05
-2.75659e-06
-3.10338e-05
-2.96338e-06
-2.91318e-05
-3.16037e-06
-2.70719e-05
-3.34833e-06
-2.4861e-05
-3.52847e-06
-2.25076e-05
-3.70104e-06
-2.00223e-05
-3.86478e-06
-1.74176e-05
-4.01844e-06
-1.4707e-05
-4.16225e-06
-1.19052e-05
-4.29684e-06
-9.0286e-06
-4.42395e-06
-6.09545e-06
-4.54139e-06
-3.12869e-06
-1.82484e-07
-1.71605e-07
-4.17576e-07
-6.45513e-07
-8.61957e-07
-1.06908e-06
-1.266e-06
-1.45094e-06
-1.62183e-06
-1.77642e-06
-1.91239e-06
-2.02748e-06
-2.11953e-06
-2.18664e-06
-2.22723e-06
-2.24017e-06
-2.22503e-06
-2.18222e-06
-2.11305e-06
-2.01983e-06
-1.90688e-06
-1.7828e-06
-1.66942e-06
)
;

boundaryField
{
    leftWall
    {
        type            fixedValue;
        value           uniform 0;
    }
    rightWall
    {
        type            fixedValue;
        value           nonuniform 0();
    }
    lowerWall
    {
        type            fixedValue;
        value           nonuniform 0();
    }
    atmosphere
    {
        type            calculated;
        value           nonuniform List<scalar> 
23
(
-4.01036e-05
-4.02304e-05
-3.98959e-05
-3.93818e-05
-3.86905e-05
-3.78245e-05
-3.67845e-05
-3.5572e-05
-3.41884e-05
-3.26363e-05
-3.09187e-05
-2.90398e-05
-2.70049e-05
-2.48205e-05
-2.24947e-05
-2.00375e-05
-1.74605e-05
-1.47763e-05
-1.19986e-05
-9.1418e-06
-6.21968e-06
-3.24235e-06
-2.13117e-07
)
;
    }
    defaultFaces
    {
        type            empty;
        value           nonuniform 0();
    }
    procBoundary2to0
    {
        type            processor;
        value           nonuniform List<scalar> 
24
(
0.00013226
0.000147955
0.000172019
0.000199919
0.000227761
0.000239582
0.00017162
0.000169487
0.000170817
0.000173264
0.00017694
0.00018191
0.000188285
0.000196205
0.00020582
0.000217159
0.000229879
0.000242274
0.000250473
0.000165552
0.000132709
0.000154604
5.18063e-06
0.000164243
)
;
    }
    procBoundary2to3
    {
        type            processor;
        value           nonuniform List<scalar> 
25
(
-0.000162007
-0.000166952
-0.000154103
-0.000132223
-0.000114825
-9.96742e-05
-8.8629e-05
-7.8445e-05
-6.99186e-05
-6.24346e-05
-5.5845e-05
-4.99765e-05
-4.4682e-05
-3.98544e-05
-3.541e-05
-3.12863e-05
-2.74222e-05
-2.37754e-05
-2.03092e-05
-1.69889e-05
-1.37868e-05
-1.06739e-05
-7.62756e-06
-4.60083e-06
-1.63909e-06
)
;
    }
}


// ************************************************************************* //
