/*--------------------------------*- C++ -*----------------------------------*\
| =========                 |                                                 |
| \\      /  F ield         | OpenFOAM: The Open Source CFD Toolbox           |
|  \\    /   O peration     | Version:  2.4.0                                 |
|   \\  /    A nd           | Web:      www.OpenFOAM.org                      |
|    \\/     M anipulation  |                                                 |
\*---------------------------------------------------------------------------*/
FoamFile
{
    version     2.0;
    format      ascii;
    class       volVectorField;
    location    "0.1";
    object      U.air;
}
// * * * * * * * * * * * * * * * * * * * * * * * * * * * * * * * * * * * * * //

dimensions      [0 1 -1 0 0 0 0];

internalField   nonuniform List<vector> 
559
(
(0.0127365 -0.223144 0)
(0.0146281 -0.100688 0)
(0.0026533 0.04201 0)
(-0.0279682 0.0921496 0)
(-0.0775465 -0.0201126 0)
(-0.201953 -0.192744 0)
(-0.793215 0.051253 0)
(-0.00498301 0.108501 0)
(-0.0176941 0.101969 0)
(-0.0291092 0.0866883 0)
(-0.0423416 0.0632589 0)
(-0.0565995 0.0305054 0)
(-0.0728273 -0.0132921 0)
(-0.0910515 -0.0696648 0)
(-0.11141 -0.138254 0)
(-0.131852 -0.217674 0)
(-0.15355 -0.305207 0)
(-0.152994 -0.370261 0)
(-0.142357 -0.411172 0)
(-0.134527 -0.0599215 0)
(-0.201168 0.0411865 0)
(-0.240633 0.0352773 0)
(-0.275823 -0.0372264 0)
(-0.311015 -0.168664 0)
(-0.349435 -0.353794 0)
(-0.373838 -0.577958 0)
(-0.38191 -0.747705 0)
(-0.429061 -0.740148 0)
(-0.678605 -0.393179 0)
(-0.912473 0.225504 0)
(-0.00450522 -0.685089 0)
(-0.0171661 -0.685313 0)
(-0.0260331 -0.685092 0)
(-0.0374757 -0.684371 0)
(-0.0497566 -0.682364 0)
(-0.0642646 -0.679054 0)
(-0.0818913 -0.674256 0)
(-0.104507 -0.667532 0)
(-0.133301 -0.659505 0)
(-0.171787 -0.651669 0)
(-0.224531 -0.64044 0)
(-0.302934 -0.623842 0)
(-0.335944 -0.614312 0)
(-0.338259 -0.619792 0)
(-0.334047 -0.611763 0)
(-0.336843 -0.596593 0)
(-0.354822 -0.578773 0)
(-0.392464 -0.560603 0)
(-0.451897 -0.55385 0)
(-0.570063 -0.525864 0)
(-0.746691 -0.380257 0)
(-0.904133 -0.0267553 0)
(-0.894171 0.226821 0)
(-0.00620216 -0.328053 0)
(-0.0172247 -0.332667 0)
(-0.0281764 -0.335729 0)
(-0.0409206 -0.340856 0)
(-0.0557164 -0.347525 0)
(-0.0730617 -0.356212 0)
(-0.0937333 -0.366424 0)
(-0.117857 -0.377007 0)
(-0.146148 -0.386599 0)
(-0.179829 -0.39286 0)
(-0.221289 -0.392512 0)
(-0.259695 -0.381878 0)
(-0.284992 -0.348479 0)
(-0.301342 -0.321126 0)
(-0.325178 -0.306493 0)
(-0.352318 -0.303899 0)
(-0.391891 -0.309063 0)
(-0.444158 -0.320599 0)
(-0.519834 -0.337599 0)
(-0.636996 -0.34082 0)
(-0.761984 -0.273483 0)
(-0.795164 -0.0896393 0)
(-0.787937 0.127585 0)
(-0.00650225 -0.38943 0)
(-0.0198104 -0.394074 0)
(-0.0333907 -0.39615 0)
(-0.0478641 -0.399258 0)
(-0.0636469 -0.403086 0)
(-0.0812432 -0.407405 0)
(-0.101253 -0.41189 0)
(-0.124227 -0.415837 0)
(-0.150501 -0.418013 0)
(-0.180122 -0.417131 0)
(-0.212491 -0.411595 0)
(-0.245966 -0.397986 0)
(-0.276194 -0.379129 0)
(-0.302144 -0.367768 0)
(-0.32615 -0.355973 0)
(-0.352844 -0.345024 0)
(-0.384272 -0.333535 0)
(-0.417064 -0.320176 0)
(-0.462209 -0.300941 0)
(-0.542834 -0.257431 0)
(-0.642516 -0.158521 0)
(-0.692494 -0.0295292 0)
(-0.653652 0.0617972 0)
(-0.00661872 -0.39067 0)
(-0.0200204 -0.39492 0)
(-0.0338671 -0.395649 0)
(-0.048603 -0.396809 0)
(-0.064622 -0.398037 0)
(-0.0822407 -0.399165 0)
(-0.101842 -0.399737 0)
(-0.123723 -0.399219 0)
(-0.14806 -0.397165 0)
(-0.174826 -0.393208 0)
(-0.203236 -0.38667 0)
(-0.231193 -0.376847 0)
(-0.257798 -0.363191 0)
(-0.281866 -0.345643 0)
(-0.307437 -0.327887 0)
(-0.335664 -0.310579 0)
(-0.369321 -0.293598 0)
(-0.410222 -0.273595 0)
(-0.461517 -0.249319 0)
(-0.510135 -0.219224 0)
(-0.538654 -0.167986 0)
(-0.555085 -0.0694089 0)
(-0.551334 0.0408102 0)
(-0.00677438 -0.365421 0)
(-0.0208131 -0.369292 0)
(-0.0351939 -0.369485 0)
(-0.0502997 -0.369748 0)
(-0.0663692 -0.369904 0)
(-0.0836396 -0.36969 0)
(-0.102322 -0.368853 0)
(-0.122533 -0.366978 0)
(-0.144261 -0.363565 0)
(-0.167353 -0.358092 0)
(-0.191341 -0.349989 0)
(-0.215649 -0.339034 0)
(-0.240135 -0.326132 0)
(-0.265577 -0.312921 0)
(-0.291032 -0.29766 0)
(-0.317188 -0.280354 0)
(-0.34386 -0.259537 0)
(-0.372359 -0.234527 0)
(-0.403014 -0.202206 0)
(-0.439262 -0.156414 0)
(-0.474333 -0.0944478 0)
(-0.490713 -0.0323929 0)
(-0.487686 0.0221264 0)
(-0.00684838 -0.355957 0)
(-0.0208439 -0.35959 0)
(-0.0351777 -0.359438 0)
(-0.050078 -0.359174 0)
(-0.0657546 -0.358613 0)
(-0.0824166 -0.357557 0)
(-0.100224 -0.355728 0)
(-0.119272 -0.352801 0)
(-0.139567 -0.34839 0)
(-0.160921 -0.342068 0)
(-0.182937 -0.333493 0)
(-0.205243 -0.32258 0)
(-0.227672 -0.309351 0)
(-0.250287 -0.293843 0)
(-0.273483 -0.276655 0)
(-0.297485 -0.257434 0)
(-0.322677 -0.235783 0)
(-0.348941 -0.210538 0)
(-0.375727 -0.180425 0)
(-0.399759 -0.143649 0)
(-0.416553 -0.0978661 0)
(-0.424838 -0.0423622 0)
(-0.426607 0.0155814 0)
(-0.00673851 -0.340473 0)
(-0.0205614 -0.343708 0)
(-0.0346427 -0.343086 0)
(-0.0491932 -0.342123 0)
(-0.064364 -0.340647 0)
(-0.0802987 -0.338498 0)
(-0.0971002 -0.335463 0)
(-0.114814 -0.331289 0)
(-0.133408 -0.325704 0)
(-0.152753 -0.31844 0)
(-0.172644 -0.309293 0)
(-0.19291 -0.298229 0)
(-0.213453 -0.285294 0)
(-0.234195 -0.270412 0)
(-0.255118 -0.253345 0)
(-0.276243 -0.233819 0)
(-0.297472 -0.211301 0)
(-0.318581 -0.18517 0)
(-0.338903 -0.154426 0)
(-0.357175 -0.118232 0)
(-0.371078 -0.0770876 0)
(-0.378303 -0.0334913 0)
(-0.379176 0.0101478 0)
(-0.00657436 -0.3277 0)
(-0.0200181 -0.330664 0)
(-0.0336702 -0.329739 0)
(-0.0476971 -0.328321 0)
(-0.0622106 -0.326269 0)
(-0.0773143 -0.323442 0)
(-0.0930774 -0.319664 0)
(-0.109523 -0.314736 0)
(-0.126615 -0.308446 0)
(-0.144256 -0.300589 0)
(-0.162311 -0.291015 0)
(-0.180654 -0.279633 0)
(-0.199196 -0.266365 0)
(-0.21786 -0.251139 0)
(-0.236558 -0.233849 0)
(-0.255176 -0.214268 0)
(-0.273517 -0.192099 0)
(-0.291204 -0.166929 0)
(-0.307559 -0.138332 0)
(-0.321466 -0.106011 0)
(-0.331414 -0.0701284 0)
(-0.336449 -0.0317784 0)
(-0.337586 0.00712804 0)
(-0.0063223 -0.31444 0)
(-0.019241 -0.317136 0)
(-0.03232 -0.315943 0)
(-0.0456938 -0.314134 0)
(-0.0594437 -0.311583 0)
(-0.0736441 -0.308178 0)
(-0.0883398 -0.303784 0)
(-0.10354 -0.298245 0)
(-0.119211 -0.291403 0)
(-0.135282 -0.28311 0)
(-0.151657 -0.273245 0)
(-0.168234 -0.261716 0)
(-0.184911 -0.248435 0)
(-0.201577 -0.233296 0)
(-0.218103 -0.216167 0)
(-0.234318 -0.196887 0)
(-0.249974 -0.175253 0)
(-0.264695 -0.151051 0)
(-0.277932 -0.12411 0)
(-0.288936 -0.0944476 0)
(-0.296721 -0.062453 0)
(-0.300603 -0.0290153 0)
(-0.301478 0.00481802 0)
(-0.006015 -0.302016 0)
(-0.0182916 -0.30449 0)
(-0.0306891 -0.303097 0)
(-0.0433151 -0.300993 0)
(-0.0562272 -0.298075 0)
(-0.0694775 -0.29425 0)
(-0.0830944 -0.289411 0)
(-0.0970783 -0.283438 0)
(-0.111399 -0.276209 0)
(-0.125999 -0.267607 0)
(-0.140799 -0.257532 0)
(-0.155709 -0.245895 0)
(-0.170625 -0.232611 0)
(-0.185426 -0.217592 0)
(-0.199965 -0.200743 0)
(-0.214054 -0.181956 0)
(-0.227439 -0.16112 0)
(-0.239783 -0.138147 0)
(-0.250646 -0.113014 0)
(-0.2595 -0.0858373 0)
(-0.265692 -0.0569575 0)
(-0.268762 -0.0270288 0)
(-0.269481 0.00317301 0)
(-0.00566076 -0.290185 0)
(-0.0172047 -0.292466 0)
(-0.0288377 -0.290919 0)
(-0.0406449 -0.288589 0)
(-0.0526659 -0.285391 0)
(-0.0649366 -0.281251 0)
(-0.0774734 -0.276086 0)
(-0.0902712 -0.269802 0)
(-0.103301 -0.262304 0)
(-0.116513 -0.253503 0)
(-0.129838 -0.243314 0)
(-0.14319 -0.231663 0)
(-0.156468 -0.218479 0)
(-0.169551 -0.203692 0)
(-0.182288 -0.187236 0)
(-0.194498 -0.169049 0)
(-0.205947 -0.149086 0)
(-0.216349 -0.127335 0)
(-0.225365 -0.103852 0)
(-0.232617 -0.0787988 0)
(-0.237658 -0.0524815 0)
(-0.24015 -0.0253937 0)
(-0.240729 0.00189815 0)
(-0.0052718 -0.279124 0)
(-0.0160145 -0.28124 0)
(-0.0268208 -0.279578 0)
(-0.0377579 -0.27708 0)
(-0.0488514 -0.273676 0)
(-0.060125 -0.269308 0)
(-0.0715866 -0.263911 0)
(-0.0832266 -0.257413 0)
(-0.0950173 -0.249741 0)
(-0.106912 -0.240824 0)
(-0.118849 -0.230596 0)
(-0.130748 -0.218997 0)
(-0.142512 -0.205974 0)
(-0.154025 -0.191479 0)
(-0.165147 -0.175474 0)
(-0.17571 -0.157933 0)
(-0.185511 -0.138854 0)
(-0.194316 -0.118271 0)
(-0.201861 -0.0962774 0)
(-0.207874 -0.0730446 0)
(-0.212044 -0.0488361 0)
(-0.214111 -0.024038 0)
(-0.214583 0.00091097 0)
(-0.0048567 -0.268872 0)
(-0.0147471 -0.270847 0)
(-0.0246813 -0.269101 0)
(-0.0347119 -0.26648 0)
(-0.044854 -0.262928 0)
(-0.0551221 -0.258399 0)
(-0.0655177 -0.252844 0)
(-0.0760284 -0.246207 0)
(-0.0866267 -0.238432 0)
(-0.0972697 -0.229466 0)
(-0.107899 -0.219258 0)
(-0.118443 -0.207766 0)
(-0.12881 -0.194951 0)
(-0.138895 -0.180787 0)
(-0.148571 -0.165258 0)
(-0.157689 -0.148365 0)
(-0.166081 -0.130134 0)
(-0.173553 -0.110625 0)
(-0.179904 -0.0899479 0)
(-0.184934 -0.0682681 0)
(-0.188421 -0.0458133 0)
(-0.190167 -0.0228903 0)
(-0.190557 0.000155586 0)
(-0.00442254 -0.259479 0)
(-0.0134235 -0.261335 0)
(-0.0224532 -0.25953 0)
(-0.0315524 -0.256822 0)
(-0.0407285 -0.253165 0)
(-0.0499891 -0.248528 0)
(-0.0593313 -0.24287 0)
(-0.0687406 -0.23615 0)
(-0.0781901 -0.228328 0)
(-0.08764 -0.219363 0)
(-0.0970375 -0.20922 0)
(-0.106316 -0.19787 0)
(-0.115395 -0.185291 0)
(-0.124179 -0.171474 0)
(-0.132557 -0.156419 0)
(-0.140404 -0.140147 0)
(-0.147576 -0.122702 0)
(-0.153921 -0.104159 0)
(-0.159283 -0.0846304 0)
(-0.163512 -0.0642721 0)
(-0.166447 -0.0432814 0)
(-0.16793 -0.0219092 0)
(-0.168274 -0.000435796 0)
(-0.00397481 -0.250979 0)
(-0.01206 -0.252733 0)
(-0.0201628 -0.250887 0)
(-0.0283144 -0.248119 0)
(-0.0365171 -0.244394 0)
(-0.044773 -0.239686 0)
(-0.0530762 -0.233967 0)
(-0.0614113 -0.227207 0)
(-0.0697525 -0.219377 0)
(-0.0780633 -0.210449 0)
(-0.0862959 -0.200401 0)
(-0.0943911 -0.189215 0)
(-0.102278 -0.176883 0)
(-0.109873 -0.163409 0)
(-0.117082 -0.148807 0)
(-0.123798 -0.133113 0)
(-0.129906 -0.116379 0)
(-0.135283 -0.0986886 0)
(-0.139808 -0.0801521 0)
(-0.143369 -0.0609135 0)
(-0.14585 -0.0411467 0)
(-0.147126 -0.0210628 0)
(-0.14743 -0.000899977 0)
(-0.0035177 -0.243395 0)
(-0.010669 -0.245064 0)
(-0.01783 -0.243191 0)
(-0.0250246 -0.240383 0)
(-0.0322512 -0.236614 0)
(-0.0395084 -0.231864 0)
(-0.0467883 -0.226116 0)
(-0.0540753 -0.219346 0)
(-0.0613452 -0.211536 0)
(-0.0685653 -0.202668 0)
(-0.0756931 -0.192731 0)
(-0.082677 -0.181717 0)
(-0.0894555 -0.16963 0)
(-0.0959578 -0.156482 0)
(-0.102104 -0.142301 0)
(-0.107807 -0.127128 0)
(-0.112972 -0.111024 0)
(-0.117505 -0.094074 0)
(-0.121309 -0.0763844 0)
(-0.124302 -0.058088 0)
(-0.126398 -0.0393396 0)
(-0.1275 -0.0203204 0)
(-0.127777 -0.00123255 0)
(-0.00305397 -0.236744 0)
(-0.00925918 -0.238342 0)
(-0.0154692 -0.236452 0)
(-0.0217022 -0.233618 0)
(-0.0279539 -0.229823 0)
(-0.0342204 -0.225053 0)
(-0.0404929 -0.219295 0)
(-0.0467561 -0.212536 0)
(-0.0529882 -0.204763 0)
(-0.0591604 -0.195969 0)
(-0.0652359 -0.186148 0)
(-0.0711705 -0.175304 0)
(-0.0769123 -0.163448 0)
(-0.0824023 -0.150601 0)
(-0.0875746 -0.136796 0)
(-0.0923584 -0.122083 0)
(-0.096679 -0.106526 0)
(-0.100461 -0.0902075 0)
(-0.103633 -0.073231 0)
(-0.10613 -0.0557188 0)
(-0.107891 -0.0378107 0)
(-0.108844 -0.0196654 0)
(-0.109105 -0.0014593 0)
(-0.00258425 -0.231037 0)
(-0.00783511 -0.232582 0)
(-0.0130899 -0.23068 0)
(-0.0183603 -0.22783 0)
(-0.0236407 -0.224021 0)
(-0.0289257 -0.219244 0)
(-0.0342059 -0.213491 0)
(-0.0394675 -0.206753 0)
(-0.0446913 -0.199027 0)
(-0.0498527 -0.190308 0)
(-0.0549207 -0.180601 0)
(-0.0598587 -0.169915 0)
(-0.0646237 -0.158268 0)
(-0.0691678 -0.145687 0)
(-0.0734381 -0.132211 0)
(-0.0773782 -0.117893 0)
(-0.0809298 -0.102797 0)
(-0.084035 -0.0870072 0)
(-0.0866391 -0.0706201 0)
(-0.0886947 -0.0537498 0)
(-0.0901596 -0.0365239 0)
(-0.0909805 -0.0190847 0)
(-0.0912318 -0.00158942 0)
(-0.00210711 -0.226274 0)
(-0.00639783 -0.227779 0)
(-0.0106965 -0.225869 0)
(-0.0150054 -0.223009 0)
(-0.0193191 -0.219194 0)
(-0.0236313 -0.21442 0)
(-0.0279328 -0.20868 0)
(-0.0322118 -0.201971 0)
(-0.0364525 -0.194292 0)
(-0.0406345 -0.185648 0)
(-0.0447328 -0.176045 0)
(-0.0487179 -0.165499 0)
(-0.0525555 -0.154034 0)
(-0.0562078 -0.14168 0)
(-0.0596337 -0.12848 0)
(-0.0627896 -0.114489 0)
(-0.0656312 -0.0997728 0)
(-0.0681147 -0.0844119 0)
(-0.0702002 -0.0684991 0)
(-0.0718537 -0.0521406 0)
(-0.0730473 -0.0354542 0)
(-0.0737458 -0.0185698 0)
(-0.073996 -0.00163059 0)
(-0.00161692 -0.222433 0)
(-0.00493969 -0.22386 0)
(-0.00828548 -0.221948 0)
(-0.0116319 -0.219085 0)
(-0.0149784 -0.215272 0)
(-0.0183204 -0.210507 0)
(-0.0216503 -0.204786 0)
(-0.0249594 -0.19811 0)
(-0.0282359 -0.19048 0)
(-0.0314642 -0.181904 0)
(-0.0346248 -0.172396 0)
(-0.0376946 -0.161973 0)
(-0.0406472 -0.150663 0)
(-0.0434538 -0.138499 0)
(-0.0460833 -0.125526 0)
(-0.0485041 -0.1118 0)
(-0.0506835 -0.0973878 0)
(-0.0525893 -0.0823668 0)
(-0.0541935 -0.0668247 0)
(-0.0554737 -0.0508609 0)
(-0.0564135 -0.0345852 0)
(-0.0569948 -0.0181159 0)
(-0.0572475 -0.00158148 0)
(-0.00113306 -0.219659 0)
(-0.00345604 -0.220958 0)
(-0.0058427 -0.219045 0)
(-0.00820107 -0.216182 0)
(-0.0105258 -0.212365 0)
(-0.0128468 -0.207598 0)
(-0.0151653 -0.201881 0)
(-0.0174788 -0.195217 0)
(-0.0197811 -0.187612 0)
(-0.0220624 -0.179077 0)
(-0.02431 -0.169628 0)
(-0.0265074 -0.159289 0)
(-0.0286339 -0.148089 0)
(-0.0306647 -0.136065 0)
(-0.0325709 -0.123264 0)
(-0.0343199 -0.10974 0)
(-0.0358885 -0.0955559 0)
(-0.0372688 -0.0807878 0)
(-0.0384408 -0.0655217 0)
(-0.0393898 -0.0498517 0)
(-0.0401046 -0.0338806 0)
(-0.0405737 -0.0177209 0)
(-0.0408439 -0.00148745 0)
(-0.000609313 -0.218131 0)
(-0.00198169 -0.219273 0)
(-0.00345203 -0.217384 0)
(-0.00489285 -0.214554 0)
(-0.00634213 -0.210779 0)
(-0.00775841 -0.20604 0)
(-0.0091382 -0.200345 0)
(-0.0104764 -0.193703 0)
(-0.0117683 -0.186122 0)
(-0.0130102 -0.177616 0)
(-0.0141988 -0.168203 0)
(-0.0153325 -0.157907 0)
(-0.0164118 -0.146759 0)
(-0.0174397 -0.134797 0)
(-0.0184218 -0.122069 0)
(-0.0193666 -0.108628 0)
(-0.0202723 -0.0945377 0)
(-0.0211237 -0.0798677 0)
(-0.0219224 -0.0647008 0)
(-0.0226712 -0.049126 0)
(-0.0233774 -0.0332404 0)
(-0.0240435 -0.0171592 0)
(-0.0246237 -0.00105486 0)
(-0.000417643 -0.216409 0)
(-0.00154361 -0.217109 0)
(-0.00285765 -0.215301 0)
(-0.00404544 -0.212525 0)
(-0.00518215 -0.208793 0)
(-0.0062666 -0.204118 0)
(-0.00729159 -0.198505 0)
(-0.00824678 -0.191961 0)
(-0.00912053 -0.184494 0)
(-0.00990061 -0.176117 0)
(-0.0105747 -0.166848 0)
(-0.0111309 -0.156707 0)
(-0.0115583 -0.145724 0)
(-0.0118476 -0.133935 0)
(-0.0119914 -0.121384 0)
(-0.0119855 -0.108123 0)
(-0.01183 -0.0942152 0)
(-0.0115292 -0.07973 0)
(-0.011093 -0.0647408 0)
(-0.0105388 -0.0493256 0)
(-0.00990157 -0.0335593 0)
(-0.00926004 -0.0174975 0)
(-0.00876996 -0.00116413 0)
)
;

boundaryField
{
    leftWall
    {
        type            fixedValue;
        value           uniform (0 0 0);
    }
    rightWall
    {
        type            fixedValue;
        value           nonuniform 0();
    }
    lowerWall
    {
        type            fixedValue;
        value           nonuniform 0();
    }
    atmosphere
    {
        type            fluxCorrectedVelocity;
        value           nonuniform List<vector> 
23
(
(-0.000417643 -0.21638 0)
(-0.00154361 -0.217064 0)
(-0.00285765 -0.21526 0)
(-0.00404544 -0.212487 0)
(-0.00518215 -0.208758 0)
(-0.0062666 -0.204085 0)
(-0.00729159 -0.198475 0)
(-0.00824678 -0.191934 0)
(-0.00912053 -0.18447 0)
(-0.00990061 -0.176097 0)
(-0.0105747 -0.16683 0)
(-0.0111309 -0.156693 0)
(-0.0115583 -0.145715 0)
(-0.0118476 -0.133929 0)
(-0.0119914 -0.121381 0)
(-0.0119855 -0.108124 0)
(-0.01183 -0.0942207 0)
(-0.0115292 -0.0797387 0)
(-0.011093 -0.0647524 0)
(-0.0105388 -0.0493396 0)
(-0.00990157 -0.0335747 0)
(-0.00926004 -0.0175116 0)
(-0.00876996 -0.0011679 0)
)
;
    }
    defaultFaces
    {
        type            empty;
    }
    procBoundary2to0
    {
        type            processor;
        value           nonuniform List<vector> 
24
(
(0.0312125 -0.206863 0)
(0.0457434 -0.25719 0)
(0.070272 -0.322105 0)
(0.102163 -0.403308 0)
(0.143004 -0.484466 0)
(0.164715 -0.560067 0)
(0.0238229 -0.456449 0)
(0.00113981 -0.376247 0)
(0.00244141 -0.376407 0)
(0.00381993 -0.375798 0)
(0.00517378 -0.373541 0)
(0.00660446 -0.367695 0)
(0.0081357 -0.355696 0)
(0.00984028 -0.334218 0)
(0.0117449 -0.300225 0)
(0.0105097 -0.250724 0)
(0.00131231 -0.186201 0)
(0.000696874 -0.102131 0)
(-0.156962 -0.022429 0)
(-0.0876458 -0.338407 0)
(-0.0185071 -0.34087 0)
(0.000311784 -0.328528 0)
(0.00948901 -0.295458 0)
(0.00948901 -0.295458 0)
)
;
    }
    procBoundary2to3
    {
        type            processor;
        value           nonuniform List<vector> 
25
(
(-0.881418 0.558539 0)
(-0.868796 0.454994 0)
(-0.78324 0.302483 0)
(-0.670958 0.172298 0)
(-0.591102 0.117295 0)
(-0.529708 0.088884 0)
(-0.469522 0.06768 0)
(-0.418935 0.0530319 0)
(-0.373542 0.0424953 0)
(-0.334054 0.0351001 0)
(-0.299018 0.0295476 0)
(-0.267723 0.025261 0)
(-0.239438 0.0218895 0)
(-0.21362 0.019199 0)
(-0.18983 0.0170392 0)
(-0.167741 0.0152932 0)
(-0.147037 0.0138824 0)
(-0.127496 0.0127617 0)
(-0.108916 0.0118892 0)
(-0.0911218 0.0112369 0)
(-0.0739591 0.0107861 0)
(-0.0572815 0.0105276 0)
(-0.0409603 0.0104538 0)
(-0.0247904 0.0106705 0)
(-0.00876866 0.0107238 0)
)
;
    }
}


// ************************************************************************* //
