/*--------------------------------*- C++ -*----------------------------------*\
| =========                 |                                                 |
| \\      /  F ield         | OpenFOAM: The Open Source CFD Toolbox           |
|  \\    /   O peration     | Version:  2.4.0                                 |
|   \\  /    A nd           | Web:      www.OpenFOAM.org                      |
|    \\/     M anipulation  |                                                 |
\*---------------------------------------------------------------------------*/
FoamFile
{
    version     2.0;
    format      ascii;
    class       volVectorField;
    location    "0.1";
    object      U.mercury;
}
// * * * * * * * * * * * * * * * * * * * * * * * * * * * * * * * * * * * * * //

dimensions      [0 1 -1 0 0 0 0];

internalField   nonuniform List<vector> 
559
(
(-0.0334023 -0.789843 0)
(-0.0467409 -0.813383 0)
(-0.0651191 -0.804209 0)
(-0.075596 -0.674657 0)
(-0.0919608 -0.536396 0)
(-0.184719 -0.480323 0)
(-0.731676 -0.11276 0)
(-0.00301784 -0.147637 0)
(-0.013862 -0.145619 0)
(-0.0231973 -0.144513 0)
(-0.0346111 -0.145214 0)
(-0.0476716 -0.150258 0)
(-0.0633206 -0.163399 0)
(-0.0816703 -0.188536 0)
(-0.102763 -0.228316 0)
(-0.124532 -0.282885 0)
(-0.147748 -0.350353 0)
(-0.14865 -0.402426 0)
(-0.126495 -0.468129 0)
(-0.111055 -0.232314 0)
(-0.168876 -0.130133 0)
(-0.211728 -0.0996591 0)
(-0.256069 -0.120771 0)
(-0.300004 -0.211201 0)
(-0.344608 -0.370929 0)
(-0.372506 -0.58293 0)
(-0.38185 -0.748632 0)
(-0.429179 -0.740263 0)
(-0.678763 -0.393078 0)
(-0.912318 0.225147 0)
(-0.00450716 -0.68525 0)
(-0.0171712 -0.685478 0)
(-0.0260402 -0.685262 0)
(-0.0374834 -0.684549 0)
(-0.049763 -0.682555 0)
(-0.0642683 -0.679262 0)
(-0.0818961 -0.674487 0)
(-0.10452 -0.66779 0)
(-0.133333 -0.65979 0)
(-0.171827 -0.651974 0)
(-0.224565 -0.640747 0)
(-0.302965 -0.624115 0)
(-0.335989 -0.614527 0)
(-0.338335 -0.619975 0)
(-0.334135 -0.611933 0)
(-0.33694 -0.596733 0)
(-0.354921 -0.578892 0)
(-0.392543 -0.560693 0)
(-0.451944 -0.553928 0)
(-0.570131 -0.525913 0)
(-0.746774 -0.380223 0)
(-0.904187 -0.0267256 0)
(-0.894152 0.226845 0)
(-0.00620452 -0.328204 0)
(-0.0172314 -0.332818 0)
(-0.0281866 -0.335881 0)
(-0.0409338 -0.341011 0)
(-0.0557311 -0.347685 0)
(-0.0730772 -0.356379 0)
(-0.0937522 -0.3666 0)
(-0.117884 -0.377192 0)
(-0.146182 -0.38679 0)
(-0.179859 -0.393044 0)
(-0.221313 -0.392689 0)
(-0.259717 -0.382044 0)
(-0.285024 -0.348643 0)
(-0.301389 -0.321271 0)
(-0.325239 -0.306616 0)
(-0.352387 -0.304 0)
(-0.391957 -0.309136 0)
(-0.444209 -0.320645 0)
(-0.519872 -0.337626 0)
(-0.637041 -0.34083 0)
(-0.76203 -0.273481 0)
(-0.795189 -0.089615 0)
(-0.787928 0.127625 0)
(-0.00650482 -0.389539 0)
(-0.0198178 -0.394183 0)
(-0.0334024 -0.396259 0)
(-0.0478796 -0.399368 0)
(-0.0636656 -0.4032 0)
(-0.0812644 -0.407521 0)
(-0.101277 -0.412007 0)
(-0.124257 -0.415956 0)
(-0.150533 -0.418128 0)
(-0.180149 -0.417242 0)
(-0.212509 -0.411702 0)
(-0.245981 -0.398089 0)
(-0.276215 -0.379228 0)
(-0.302178 -0.367856 0)
(-0.326195 -0.356048 0)
(-0.352893 -0.345083 0)
(-0.384317 -0.333575 0)
(-0.417097 -0.320202 0)
(-0.462234 -0.300956 0)
(-0.542857 -0.257431 0)
(-0.64254 -0.158504 0)
(-0.692516 -0.0295063 0)
(-0.653656 0.0618284 0)
(-0.00662114 -0.390751 0)
(-0.0200275 -0.395 0)
(-0.0338785 -0.395728 0)
(-0.0486177 -0.396887 0)
(-0.06464 -0.398116 0)
(-0.0822616 -0.399242 0)
(-0.101865 -0.399813 0)
(-0.12375 -0.399292 0)
(-0.148088 -0.397233 0)
(-0.174848 -0.39327 0)
(-0.20325 -0.38673 0)
(-0.231204 -0.376905 0)
(-0.257813 -0.363248 0)
(-0.281889 -0.345694 0)
(-0.307468 -0.327929 0)
(-0.335699 -0.310609 0)
(-0.369351 -0.293616 0)
(-0.410242 -0.273601 0)
(-0.46153 -0.249316 0)
(-0.510148 -0.219214 0)
(-0.538668 -0.167969 0)
(-0.555102 -0.0693844 0)
(-0.551339 0.0408404 0)
(-0.00677657 -0.365477 0)
(-0.0208196 -0.369347 0)
(-0.0352042 -0.369539 0)
(-0.0503133 -0.369801 0)
(-0.0663855 -0.369955 0)
(-0.0836581 -0.369738 0)
(-0.102342 -0.368898 0)
(-0.122555 -0.367019 0)
(-0.144282 -0.363602 0)
(-0.167371 -0.358123 0)
(-0.191353 -0.350018 0)
(-0.215659 -0.339061 0)
(-0.240147 -0.326158 0)
(-0.265595 -0.312944 0)
(-0.291055 -0.297677 0)
(-0.317213 -0.280364 0)
(-0.34388 -0.259538 0)
(-0.372372 -0.234521 0)
(-0.403021 -0.202195 0)
(-0.439269 -0.156398 0)
(-0.474343 -0.094427 0)
(-0.490725 -0.0323687 0)
(-0.48769 0.0221545 0)
(-0.00685034 -0.355993 0)
(-0.0208496 -0.359626 0)
(-0.0351869 -0.359473 0)
(-0.0500901 -0.359208 0)
(-0.0657689 -0.358645 0)
(-0.0824324 -0.357586 0)
(-0.100241 -0.355754 0)
(-0.11929 -0.352824 0)
(-0.139584 -0.348409 0)
(-0.160935 -0.342082 0)
(-0.182948 -0.333505 0)
(-0.205252 -0.322591 0)
(-0.227682 -0.309361 0)
(-0.250301 -0.293851 0)
(-0.2735 -0.276658 0)
(-0.297503 -0.257432 0)
(-0.322691 -0.235775 0)
(-0.348949 -0.210526 0)
(-0.375731 -0.180409 0)
(-0.399763 -0.143631 0)
(-0.41656 -0.0978446 0)
(-0.424847 -0.0423379 0)
(-0.42661 0.0156078 0)
(-0.00674017 -0.340496 0)
(-0.0205663 -0.34373 0)
(-0.0346506 -0.343107 0)
(-0.0492036 -0.342142 0)
(-0.0643762 -0.340665 0)
(-0.080312 -0.338513 0)
(-0.097114 -0.335476 0)
(-0.114828 -0.3313 0)
(-0.133421 -0.325711 0)
(-0.152764 -0.318444 0)
(-0.172654 -0.309295 0)
(-0.192918 -0.29823 0)
(-0.213462 -0.285294 0)
(-0.234207 -0.27041 0)
(-0.255132 -0.253341 0)
(-0.276256 -0.23381 0)
(-0.297482 -0.211289 0)
(-0.318586 -0.185154 0)
(-0.338905 -0.154408 0)
(-0.357178 -0.118212 0)
(-0.371084 -0.0770658 0)
(-0.378311 -0.0334678 0)
(-0.37918 0.0101733 0)
(-0.00657585 -0.327712 0)
(-0.0200224 -0.330675 0)
(-0.033677 -0.32975 0)
(-0.047706 -0.328331 0)
(-0.062221 -0.326277 0)
(-0.0773255 -0.323448 0)
(-0.0930889 -0.319668 0)
(-0.109534 -0.314738 0)
(-0.126625 -0.308446 0)
(-0.144266 -0.300586 0)
(-0.162319 -0.291011 0)
(-0.180661 -0.279628 0)
(-0.199204 -0.266359 0)
(-0.21787 -0.251132 0)
(-0.236569 -0.23384 0)
(-0.255186 -0.214256 0)
(-0.273524 -0.192084 0)
(-0.291206 -0.166911 0)
(-0.307559 -0.138312 0)
(-0.321467 -0.10599 0)
(-0.331418 -0.0701067 0)
(-0.336456 -0.0317554 0)
(-0.337589 0.00715226 0)
(-0.00632354 -0.314444 0)
(-0.0192447 -0.31714 0)
(-0.0323259 -0.315946 0)
(-0.0457014 -0.314136 0)
(-0.0594525 -0.311583 0)
(-0.0736536 -0.308178 0)
(-0.0883495 -0.303782 0)
(-0.103549 -0.298241 0)
(-0.11922 -0.291398 0)
(-0.13529 -0.283103 0)
(-0.151663 -0.273237 0)
(-0.16824 -0.261707 0)
(-0.184918 -0.248425 0)
(-0.201585 -0.233285 0)
(-0.218112 -0.216154 0)
(-0.234325 -0.196873 0)
(-0.249979 -0.175236 0)
(-0.264695 -0.151033 0)
(-0.27793 -0.124091 0)
(-0.288936 -0.0944271 0)
(-0.296724 -0.0624315 0)
(-0.300609 -0.0289929 0)
(-0.301482 0.0048415 0)
(-0.0060161 -0.302014 0)
(-0.0182948 -0.304488 0)
(-0.0306941 -0.303095 0)
(-0.0433216 -0.30099 0)
(-0.0562348 -0.29807 0)
(-0.0694857 -0.294244 0)
(-0.0831027 -0.289404 0)
(-0.0970863 -0.28343 0)
(-0.111406 -0.276199 0)
(-0.126005 -0.267596 0)
(-0.140805 -0.25752 0)
(-0.155714 -0.245883 0)
(-0.170631 -0.232598 0)
(-0.185433 -0.217578 0)
(-0.199973 -0.200728 0)
(-0.21406 -0.181939 0)
(-0.227442 -0.161102 0)
(-0.239782 -0.138127 0)
(-0.250644 -0.112994 0)
(-0.2595 -0.0858166 0)
(-0.265694 -0.0569362 0)
(-0.268767 -0.0270065 0)
(-0.269484 0.00319606 0)
(-0.00566167 -0.290179 0)
(-0.0172074 -0.29246 0)
(-0.0288419 -0.290912 0)
(-0.0406505 -0.288582 0)
(-0.0526724 -0.285382 0)
(-0.0649436 -0.281241 0)
(-0.0774806 -0.276075 0)
(-0.090278 -0.26979 0)
(-0.103307 -0.262292 0)
(-0.116519 -0.253489 0)
(-0.129843 -0.2433 0)
(-0.143195 -0.231649 0)
(-0.156473 -0.218464 0)
(-0.169557 -0.203676 0)
(-0.182294 -0.187219 0)
(-0.194502 -0.169031 0)
(-0.205949 -0.149066 0)
(-0.216348 -0.127314 0)
(-0.225363 -0.103831 0)
(-0.232616 -0.0787778 0)
(-0.23766 -0.0524599 0)
(-0.240154 -0.0253714 0)
(-0.240733 0.00192135 0)
(-0.00527262 -0.279114 0)
(-0.0160168 -0.28123 0)
(-0.0268245 -0.279568 0)
(-0.0377627 -0.277069 0)
(-0.0488571 -0.273664 0)
(-0.0601311 -0.269296 0)
(-0.0715928 -0.263898 0)
(-0.0832326 -0.257399 0)
(-0.0950227 -0.249726 0)
(-0.106917 -0.240808 0)
(-0.118853 -0.230579 0)
(-0.130752 -0.21898 0)
(-0.142516 -0.205956 0)
(-0.15403 -0.191461 0)
(-0.165152 -0.175455 0)
(-0.175713 -0.157913 0)
(-0.185512 -0.138833 0)
(-0.194315 -0.118249 0)
(-0.201859 -0.0962558 0)
(-0.207873 -0.0730228 0)
(-0.212045 -0.048814 0)
(-0.214114 -0.0240152 0)
(-0.214585 0.000934363 0)
(-0.00485736 -0.268859 0)
(-0.014749 -0.270834 0)
(-0.0246845 -0.269088 0)
(-0.034716 -0.266467 0)
(-0.0448589 -0.262913 0)
(-0.0551273 -0.258384 0)
(-0.0655231 -0.252828 0)
(-0.0760336 -0.24619 0)
(-0.0866315 -0.238415 0)
(-0.0972739 -0.229448 0)
(-0.107903 -0.21924 0)
(-0.118446 -0.207747 0)
(-0.128814 -0.194932 0)
(-0.138899 -0.180767 0)
(-0.148575 -0.165238 0)
(-0.157692 -0.148343 0)
(-0.166081 -0.130111 0)
(-0.173551 -0.110602 0)
(-0.179902 -0.0899253 0)
(-0.184932 -0.0682454 0)
(-0.188422 -0.0457903 0)
(-0.190169 -0.022867 0)
(-0.19056 0.000179498 0)
(-0.00442314 -0.259465 0)
(-0.0134252 -0.26132 0)
(-0.0224559 -0.259514 0)
(-0.0315559 -0.256806 0)
(-0.0407327 -0.253149 0)
(-0.0499937 -0.248511 0)
(-0.059336 -0.242852 0)
(-0.0687451 -0.236132 0)
(-0.0781943 -0.228309 0)
(-0.0876438 -0.219343 0)
(-0.0970408 -0.2092 0)
(-0.106319 -0.197849 0)
(-0.115398 -0.185271 0)
(-0.124183 -0.171452 0)
(-0.132561 -0.156396 0)
(-0.140406 -0.140124 0)
(-0.147576 -0.122678 0)
(-0.15392 -0.104135 0)
(-0.159281 -0.0846067 0)
(-0.16351 -0.0642483 0)
(-0.166448 -0.0432575 0)
(-0.167932 -0.021885 0)
(-0.168276 -0.000411079 0)
(-0.00397529 -0.250963 0)
(-0.0120614 -0.252717 0)
(-0.0201651 -0.250871 0)
(-0.0283175 -0.248102 0)
(-0.0365207 -0.244376 0)
(-0.044777 -0.239667 0)
(-0.0530803 -0.233948 0)
(-0.0614153 -0.227188 0)
(-0.0697562 -0.219357 0)
(-0.0780665 -0.210429 0)
(-0.0862987 -0.200379 0)
(-0.0943938 -0.189193 0)
(-0.102281 -0.176861 0)
(-0.109876 -0.163386 0)
(-0.117085 -0.148784 0)
(-0.123799 -0.133088 0)
(-0.129905 -0.116354 0)
(-0.135281 -0.0986635 0)
(-0.139806 -0.0801271 0)
(-0.143368 -0.0608886 0)
(-0.145851 -0.0411217 0)
(-0.147127 -0.0210376 0)
(-0.147433 -0.000874274 0)
(-0.00351813 -0.243377 0)
(-0.0106702 -0.245046 0)
(-0.0178319 -0.243173 0)
(-0.0250272 -0.240365 0)
(-0.0322542 -0.236594 0)
(-0.0395118 -0.231845 0)
(-0.0467918 -0.226095 0)
(-0.0540787 -0.219325 0)
(-0.0613484 -0.211515 0)
(-0.068568 -0.202646 0)
(-0.0756955 -0.192708 0)
(-0.0826791 -0.181694 0)
(-0.0894577 -0.169606 0)
(-0.09596 -0.156458 0)
(-0.102106 -0.142276 0)
(-0.107808 -0.127102 0)
(-0.112972 -0.110998 0)
(-0.117503 -0.0940477 0)
(-0.121307 -0.0763581 0)
(-0.1243 -0.0580619 0)
(-0.126398 -0.0393136 0)
(-0.127502 -0.0202944 0)
(-0.127779 -0.00120613 0)
(-0.0030543 -0.236725 0)
(-0.00926015 -0.238323 0)
(-0.0154708 -0.236433 0)
(-0.0217043 -0.233599 0)
(-0.0279564 -0.229803 0)
(-0.0342233 -0.225032 0)
(-0.0404958 -0.219274 0)
(-0.0467589 -0.212514 0)
(-0.0529908 -0.204741 0)
(-0.0591626 -0.195946 0)
(-0.0652377 -0.186124 0)
(-0.0711721 -0.17528 0)
(-0.0769138 -0.163423 0)
(-0.0824038 -0.150575 0)
(-0.0875759 -0.136771 0)
(-0.0923587 -0.122056 0)
(-0.096678 -0.106499 0)
(-0.100459 -0.09018 0)
(-0.103631 -0.0732037 0)
(-0.106128 -0.0556919 0)
(-0.107892 -0.0377839 0)
(-0.108846 -0.0196388 0)
(-0.109107 -0.00143246 0)
(-0.00258454 -0.231018 0)
(-0.00783593 -0.232562 0)
(-0.0130912 -0.23066 0)
(-0.0183621 -0.22781 0)
(-0.0236428 -0.224 0)
(-0.028928 -0.219222 0)
(-0.0342083 -0.213469 0)
(-0.0394698 -0.206731 0)
(-0.0446934 -0.199004 0)
(-0.0498544 -0.190285 0)
(-0.0549221 -0.180577 0)
(-0.0598596 -0.169891 0)
(-0.0646246 -0.158243 0)
(-0.0691686 -0.145661 0)
(-0.0734384 -0.132185 0)
(-0.0773778 -0.117865 0)
(-0.0809285 -0.102769 0)
(-0.0840329 -0.0869791 0)
(-0.0866373 -0.0705923 0)
(-0.0886939 -0.0537224 0)
(-0.0901598 -0.0364969 0)
(-0.0909819 -0.019058 0)
(-0.091233 -0.00156243 0)
(-0.00210729 -0.226254 0)
(-0.00639842 -0.227758 0)
(-0.0106975 -0.225848 0)
(-0.0150067 -0.222988 0)
(-0.0193207 -0.219173 0)
(-0.0236331 -0.214398 0)
(-0.0279347 -0.208657 0)
(-0.0322136 -0.201948 0)
(-0.0364541 -0.194269 0)
(-0.0406357 -0.185624 0)
(-0.0447336 -0.176021 0)
(-0.0487183 -0.165475 0)
(-0.0525556 -0.154009 0)
(-0.0562076 -0.141654 0)
(-0.0596333 -0.128453 0)
(-0.0627887 -0.114461 0)
(-0.0656296 -0.0997451 0)
(-0.0681129 -0.0843843 0)
(-0.0701987 -0.0684718 0)
(-0.0718533 -0.0521138 0)
(-0.0730482 -0.0354279 0)
(-0.073747 -0.0185436 0)
(-0.0739972 -0.00160393 0)
(-0.00161708 -0.222412 0)
(-0.00494016 -0.223839 0)
(-0.00828623 -0.221926 0)
(-0.0116329 -0.219064 0)
(-0.0149797 -0.21525 0)
(-0.0183218 -0.210485 0)
(-0.0216517 -0.204764 0)
(-0.0249608 -0.198086 0)
(-0.0282371 -0.190456 0)
(-0.031465 -0.18188 0)
(-0.0346252 -0.172371 0)
(-0.0376944 -0.161948 0)
(-0.0406467 -0.150637 0)
(-0.043453 -0.138473 0)
(-0.0460823 -0.1255 0)
(-0.0485028 -0.111774 0)
(-0.0506819 -0.0973616 0)
(-0.0525878 -0.0823409 0)
(-0.0541925 -0.0667991 0)
(-0.0554738 -0.0508357 0)
(-0.0564143 -0.0345601 0)
(-0.0569958 -0.0180903 0)
(-0.0572476 -0.00155561 0)
(-0.00113315 -0.219638 0)
(-0.00345634 -0.220937 0)
(-0.00584321 -0.219024 0)
(-0.00820177 -0.21616 0)
(-0.0105266 -0.212343 0)
(-0.0128477 -0.207576 0)
(-0.0151663 -0.201858 0)
(-0.0174798 -0.195194 0)
(-0.0197818 -0.187588 0)
(-0.0220629 -0.179053 0)
(-0.0243101 -0.169604 0)
(-0.026507 -0.159265 0)
(-0.0286331 -0.148064 0)
(-0.0306637 -0.136041 0)
(-0.0325699 -0.12324 0)
(-0.0343187 -0.109716 0)
(-0.0358872 -0.0955319 0)
(-0.0372676 -0.0807642 0)
(-0.0384401 -0.0654983 0)
(-0.0393898 -0.0498284 0)
(-0.0401052 -0.0338568 0)
(-0.0405741 -0.0176968 0)
(-0.040844 -0.00146229 0)
(-0.000609366 -0.218109 0)
(-0.00198185 -0.219251 0)
(-0.00345232 -0.217362 0)
(-0.00489325 -0.214533 0)
(-0.00634261 -0.210757 0)
(-0.00775894 -0.206017 0)
(-0.00913873 -0.200322 0)
(-0.0104768 -0.193679 0)
(-0.0117687 -0.186098 0)
(-0.0130104 -0.177592 0)
(-0.0141987 -0.168179 0)
(-0.0153321 -0.157883 0)
(-0.0164111 -0.146735 0)
(-0.0174389 -0.134773 0)
(-0.0184211 -0.122045 0)
(-0.0193658 -0.108606 0)
(-0.0202714 -0.0945153 0)
(-0.0211228 -0.0798458 0)
(-0.0219218 -0.0646793 0)
(-0.022671 -0.0491046 0)
(-0.0233774 -0.0332187 0)
(-0.0240432 -0.017137 0)
(-0.0246226 -0.00103231 0)
(-0.000417656 -0.216389 0)
(-0.00154364 -0.217088 0)
(-0.00285772 -0.21528 0)
(-0.00404553 -0.212503 0)
(-0.00518225 -0.208771 0)
(-0.0062667 -0.204096 0)
(-0.00729168 -0.198483 0)
(-0.00824684 -0.191938 0)
(-0.00912055 -0.184471 0)
(-0.00990055 -0.176094 0)
(-0.0105745 -0.166824 0)
(-0.0111307 -0.156684 0)
(-0.011558 -0.145701 0)
(-0.0118472 -0.133912 0)
(-0.0119909 -0.121361 0)
(-0.0119851 -0.108101 0)
(-0.0118295 -0.0941939 0)
(-0.0115287 -0.0797093 0)
(-0.0110925 -0.0647206 0)
(-0.0105385 -0.0493057 0)
(-0.00990135 -0.0335394 0)
(-0.00925959 -0.0174775 0)
(-0.00876895 -0.00114483 0)
)
;

boundaryField
{
    leftWall
    {
        type            fixedValue;
        value           uniform (0 0 0);
    }
    rightWall
    {
        type            fixedValue;
        value           nonuniform 0();
    }
    lowerWall
    {
        type            fixedValue;
        value           nonuniform 0();
    }
    atmosphere
    {
        type            fluxCorrectedVelocity;
        value           nonuniform List<vector> 
23
(
(-0.000417656 -0.21638 0)
(-0.00154364 -0.217064 0)
(-0.00285772 -0.21526 0)
(-0.00404553 -0.212487 0)
(-0.00518225 -0.208758 0)
(-0.0062667 -0.204085 0)
(-0.00729168 -0.198475 0)
(-0.00824684 -0.191934 0)
(-0.00912055 -0.18447 0)
(-0.00990055 -0.176097 0)
(-0.0105745 -0.16683 0)
(-0.0111307 -0.156693 0)
(-0.011558 -0.145715 0)
(-0.0118472 -0.133929 0)
(-0.0119909 -0.121381 0)
(-0.0119851 -0.108124 0)
(-0.0118295 -0.0942207 0)
(-0.0115287 -0.0797387 0)
(-0.0110925 -0.0647524 0)
(-0.0105385 -0.0493396 0)
(-0.00990135 -0.0335747 0)
(-0.00925959 -0.0175116 0)
(-0.00876895 -0.0011679 0)
)
;
    }
    defaultFaces
    {
        type            empty;
    }
    procBoundary2to0
    {
        type            processor;
        value           nonuniform List<vector> 
24
(
(0.0213547 -0.581834 0)
(0.0147335 -0.628727 0)
(0.00581342 -0.683308 0)
(-0.00299096 -0.748322 0)
(-0.00911188 -0.818049 0)
(-0.028353 -0.899187 0)
(-0.0303015 -0.921669 0)
(-0.000625212 -0.728983 0)
(-0.0026588 -0.733568 0)
(-0.00454751 -0.741604 0)
(-0.00665107 -0.753465 0)
(-0.00897106 -0.768911 0)
(-0.0115125 -0.787737 0)
(-0.0139708 -0.809617 0)
(-0.0154151 -0.833959 0)
(-0.0180992 -0.858748 0)
(-0.0226995 -0.880992 0)
(-0.0256719 -0.889765 0)
(-0.0384401 -0.849922 0)
(-0.0211112 -0.702635 0)
(-0.00589786 -0.702513 0)
(-0.0127308 -0.722271 0)
(-0.0222086 -0.754621 0)
(-0.0222086 -0.754621 0)
)
;
    }
    procBoundary2to3
    {
        type            processor;
        value           nonuniform List<vector> 
25
(
(-0.873768 0.543595 0)
(-0.867019 0.452526 0)
(-0.783135 0.302438 0)
(-0.670907 0.172321 0)
(-0.591075 0.117325 0)
(-0.529689 0.0889118 0)
(-0.469511 0.0677065 0)
(-0.418926 0.0530573 0)
(-0.373538 0.0425198 0)
(-0.33405 0.0351241 0)
(-0.299017 0.0295706 0)
(-0.267722 0.0252839 0)
(-0.239438 0.0219125 0)
(-0.21362 0.0192226 0)
(-0.189831 0.0170631 0)
(-0.167742 0.0153181 0)
(-0.147039 0.0139083 0)
(-0.127497 0.0127884 0)
(-0.108918 0.0119163 0)
(-0.0911222 0.0112642 0)
(-0.0739601 0.0108133 0)
(-0.0572809 0.0105541 0)
(-0.0409601 0.0104792 0)
(-0.0247892 0.0106935 0)
(-0.00876804 0.0107422 0)
)
;
    }
}


// ************************************************************************* //
