/*--------------------------------*- C++ -*----------------------------------*\
| =========                 |                                                 |
| \\      /  F ield         | OpenFOAM: The Open Source CFD Toolbox           |
|  \\    /   O peration     | Version:  2.4.0                                 |
|   \\  /    A nd           | Web:      www.OpenFOAM.org                      |
|    \\/     M anipulation  |                                                 |
\*---------------------------------------------------------------------------*/
FoamFile
{
    version     2.0;
    format      ascii;
    class       volScalarField;
    location    "0.25";
    object      alpha.mercury;
}
// * * * * * * * * * * * * * * * * * * * * * * * * * * * * * * * * * * * * * //

dimensions      [0 0 0 0 0 0 0];

internalField   nonuniform List<scalar> 
559
(
1.07377e-21
3.84704e-21
1.17469e-20
3.21663e-20
8.47608e-20
2.12514e-19
4.8562e-19
5.01988e-43
1.87812e-40
3.08352e-38
2.76155e-36
1.51104e-34
5.44286e-33
1.37578e-31
2.60182e-30
3.90265e-29
4.8677e-28
5.22256e-27
4.75865e-26
3.5546e-25
2.16962e-24
1.09772e-23
4.65902e-23
1.69978e-22
5.47444e-22
1.60984e-21
4.52985e-21
1.27095e-20
3.57638e-20
8.90888e-20
3.8867e-43
8.44596e-41
8.40446e-39
5.01414e-37
2.01791e-35
5.87851e-34
1.30995e-32
2.32148e-31
3.37987e-30
4.14487e-29
4.28917e-28
3.62682e-27
2.50816e-26
1.45163e-25
7.1241e-25
3.00306e-24
1.11253e-23
3.77676e-23
1.23756e-22
3.98567e-22
1.25856e-21
3.93395e-21
1.21517e-20
1.74829e-44
3.2163e-42
2.78019e-40
1.49001e-38
5.55259e-37
1.54181e-35
3.33903e-34
5.83212e-33
8.41075e-32
1.01481e-30
1.02733e-29
8.73831e-29
6.32163e-28
3.96026e-27
2.19349e-26
1.0956e-25
4.96187e-25
2.06079e-24
8.11805e-24
3.12924e-23
1.17972e-22
4.32866e-22
1.52962e-21
5.12778e-46
8.52278e-44
6.77384e-42
3.4329e-40
1.24522e-38
3.4459e-37
7.56553e-36
1.35282e-34
2.01167e-33
2.53547e-32
2.73832e-31
2.54327e-30
2.03279e-29
1.42449e-28
8.95318e-28
5.13256e-27
2.71775e-26
1.33903e-25
6.21325e-25
2.7484e-24
1.17304e-23
4.78724e-23
1.82555e-22
7.01382e-48
1.23154e-45
1.03833e-43
5.61594e-42
2.18994e-40
6.55004e-39
1.56167e-37
3.04435e-36
4.94226e-35
6.75698e-34
7.83903e-33
7.82903e-32
6.902e-31
5.44914e-30
3.86727e-29
2.47948e-28
1.46162e-27
8.09834e-27
4.24242e-26
2.10332e-25
9.81887e-25
4.2936e-24
1.73828e-23
9.84751e-50
1.8202e-47
1.62001e-45
9.25378e-44
3.80298e-42
1.19549e-40
2.98588e-39
6.08762e-38
1.03516e-36
1.49514e-35
1.86506e-34
2.04282e-33
1.99152e-32
1.74019e-31
1.379e-30
9.994e-30
6.61016e-29
4.00662e-28
2.26491e-27
1.21302e-26
6.17769e-26
2.93939e-25
1.2862e-24
9.78385e-52
1.8572e-49
1.70071e-47
1.00553e-45
4.31996e-44
1.43771e-42
3.86007e-41
8.59745e-40
1.61925e-38
2.61186e-37
3.64211e-36
4.42504e-35
4.72319e-34
4.4786e-33
3.80604e-32
2.93909e-31
2.10781e-30
1.42694e-29
9.13905e-29
5.50437e-28
3.09233e-27
1.61388e-26
7.87403e-26
7.03953e-54
1.42602e-51
1.39701e-49
8.85246e-48
4.07917e-46
1.45568e-44
4.18504e-43
9.95993e-42
2.00105e-40
3.44552e-39
5.15378e-38
6.78848e-37
7.98434e-36
8.4835e-35
8.2324e-34
7.34714e-33
6.04231e-32
4.57346e-31
3.2047e-30
2.10467e-29
1.30873e-28
7.70405e-28
4.24406e-27
3.94286e-56
8.65878e-54
9.21487e-52
6.35724e-50
3.19542e-48
1.24582e-46
3.91677e-45
1.01982e-43
2.24353e-42
4.24091e-41
6.99421e-40
1.01946e-38
1.32455e-37
1.54579e-36
1.63399e-35
1.58114e-34
1.41628e-33
1.1884e-32
9.41927e-32
7.05781e-31
4.97342e-30
3.29236e-29
2.04669e-28
1.66742e-58
3.95354e-56
4.53556e-54
3.37481e-52
1.83215e-50
7.73791e-49
2.64733e-47
7.54486e-46
1.82809e-44
3.82444e-43
6.99667e-42
1.13278e-40
1.64248e-39
2.15673e-38
2.58855e-37
2.86128e-36
2.93241e-35
2.80039e-34
2.50429e-33
2.10858e-32
1.67834e-31
1.26221e-30
8.92608e-30
5.46834e-61
1.41745e-58
1.78373e-56
1.45879e-54
8.72304e-53
4.06487e-51
1.53651e-49
4.84394e-48
1.30051e-46
3.02442e-45
6.17958e-44
1.12255e-42
1.83078e-41
2.70471e-40
3.65228e-39
4.5469e-38
5.2589e-37
5.69075e-36
5.79281e-35
5.56344e-34
5.04531e-33
4.31692e-32
3.47659e-31
1.36074e-63
3.90673e-61
5.43902e-59
4.92621e-57
3.26677e-55
1.69144e-53
7.12111e-52
2.50736e-50
7.53989e-49
1.96865e-47
4.52457e-46
9.26372e-45
1.70797e-43
2.86316e-42
4.40066e-41
6.24805e-40
8.25078e-39
1.0193e-37
1.1837e-36
1.29661e-35
1.34186e-34
1.3108e-33
1.20544e-32
2.63783e-66
8.43096e-64
1.30911e-61
1.32422e-59
9.82233e-58
5.69834e-56
2.6933e-54
1.067e-52
3.61923e-51
1.06884e-49
2.78637e-48
6.48714e-47
1.36258e-45
2.60562e-44
4.57429e-43
7.42781e-42
1.12301e-40
1.5898e-39
2.11664e-38
2.65809e-37
3.15214e-36
3.52669e-35
3.71422e-34
3.84187e-69
1.38594e-66
2.42845e-64
2.77484e-62
2.32773e-60
1.52935e-58
8.19896e-57
3.6905e-55
1.42473e-53
4.79715e-52
1.42827e-50
3.80456e-49
9.15998e-48
2.01136e-46
4.06022e-45
7.58846e-44
1.32132e-42
2.15474e-41
3.30445e-40
4.77872e-39
6.52349e-38
8.39809e-37
1.01716e-35
4.14629e-72
1.70441e-69
3.40533e-67
4.44129e-65
4.25691e-63
3.19953e-61
1.96496e-59
1.01473e-57
4.50151e-56
1.7445e-54
5.98755e-53
1.84128e-51
5.12426e-50
1.30198e-48
3.04387e-47
6.59306e-46
1.331e-44
2.51691e-43
4.47532e-42
7.50119e-41
1.18621e-39
1.76782e-38
2.47631e-37
3.15702e-75
1.50063e-72
3.46598e-70
5.22932e-68
5.80256e-66
5.05326e-64
3.59931e-62
2.15797e-60
1.11264e-58
5.01702e-57
2.00576e-55
7.19232e-54
2.33629e-52
6.93449e-51
1.8951e-49
4.80037e-48
1.13353e-46
2.50706e-45
5.21255e-44
1.02116e-42
1.88627e-41
3.28116e-40
5.35718e-39
1.58962e-78
8.89148e-76
2.41363e-73
4.28092e-71
5.58619e-69
5.72405e-67
4.80032e-65
3.39089e-63
2.06132e-61
1.09664e-59
5.17643e-58
2.19299e-56
8.4211e-55
2.95626e-53
9.55868e-52
2.86521e-50
8.00622e-49
2.09502e-47
5.15146e-46
1.19284e-44
2.60255e-43
5.34267e-42
1.0278e-40
4.75905e-82
3.21433e-79
1.04846e-76
2.23259e-74
3.49702e-72
4.30216e-70
4.3334e-68
3.67788e-66
2.6869e-64
1.71815e-62
9.74929e-61
4.96577e-59
2.29289e-57
9.67968e-56
3.76374e-54
1.35653e-52
4.55663e-51
1.43276e-49
4.23092e-48
1.17565e-46
3.0754e-45
7.56189e-44
1.7401e-42
7.17468e-86
6.08181e-83
2.45509e-80
6.44799e-78
1.2446e-75
1.88725e-73
2.34507e-71
2.45717e-69
2.2171e-67
1.75105e-65
1.22668e-63
7.70839e-62
4.38769e-60
2.28166e-58
1.09195e-56
4.84017e-55
1.99802e-53
7.71468e-52
2.79498e-50
9.51838e-49
3.04781e-47
9.15971e-46
2.57195e-44
4.23782e-90
4.78067e-87
2.46877e-84
8.2062e-82
1.99907e-79
3.82694e-77
6.02186e-75
8.04356e-73
9.32747e-71
9.52671e-69
8.65248e-67
7.04075e-65
5.16939e-63
3.45126e-61
2.11228e-59
1.19363e-57
6.26468e-56
3.0686e-54
1.4076e-52
6.05796e-51
2.44685e-49
9.25511e-48
3.26174e-46
7.56754e-95
1.23326e-91
8.37268e-89
3.58223e-86
1.12009e-83
2.76123e-81
5.61926e-79
9.75467e-77
1.4786e-74
1.99514e-72
2.43268e-70
2.70431e-68
2.75087e-66
2.56133e-64
2.1811e-62
1.69931e-60
1.21468e-58
8.00872e-57
4.90381e-55
2.8022e-53
1.49674e-51
7.45174e-50
3.438e-48
1.47709e-99
3.46539e-96
3.00511e-93
1.59478e-90
6.11478e-88
1.83805e-85
4.53261e-83
9.45179e-81
1.71086e-78
2.74889e-76
4.00057e-74
5.37367e-72
6.76828e-70
8.08353e-68
9.2229e-66
1.00783e-63
1.05088e-61
1.03466e-59
9.48192e-58
8.00509e-56
6.22066e-54
4.45749e-52
2.91794e-50
2.40718e-103
5.66282e-100
5.03269e-97
2.72426e-94
1.05894e-91
3.21347e-89
8.04735e-87
1.7268e-84
3.26243e-82
5.5448e-80
8.63094e-78
1.25063e-75
1.715e-73
2.26051e-71
2.90292e-69
3.67889e-67
4.65547e-65
5.93868e-63
7.67267e-61
9.97798e-59
1.27019e-56
1.51848e-54
1.64573e-52
9.22911e-107
2.1645e-103
1.96573e-100
1.10011e-97
4.45502e-95
1.41743e-92
3.72844e-90
8.40447e-88
1.6674e-85
2.97374e-83
4.85326e-81
7.36352e-79
1.0539e-76
1.44434e-74
1.92454e-72
2.53168e-70
3.34115e-68
4.50232e-66
6.31869e-64
9.44441e-62
1.54104e-59
2.80441e-57
5.6355e-55
)
;

boundaryField
{
    leftWall
    {
        type            zeroGradient;
    }
    rightWall
    {
        type            zeroGradient;
    }
    lowerWall
    {
        type            zeroGradient;
    }
    atmosphere
    {
        type            inletOutlet;
        inletValue      uniform 0;
        value           uniform 0;
    }
    defaultFaces
    {
        type            empty;
    }
    procBoundary2to0
    {
        type            processor;
        value           nonuniform List<scalar> 
24
(
2.12834e-21
9.9346e-21
3.6423e-20
1.10961e-19
3.07081e-19
7.81471e-19
1.80912e-18
1.371e-43
6.44393e-41
1.53929e-38
2.2078e-36
1.90368e-34
9.97106e-33
3.33593e-31
7.64554e-30
1.27471e-28
1.65188e-27
1.78682e-26
1.6497e-25
1.31488e-24
8.92942e-24
5.20698e-23
2.56662e-22
2.56662e-22
)
;
    }
    procBoundary2to3
    {
        type            processor;
        value           nonuniform List<scalar> 
25
(
1.04233e-18
1.96492e-19
3.16307e-20
4.76782e-21
6.12544e-22
6.28101e-23
5.19787e-24
3.56163e-25
2.15794e-26
1.18639e-27
5.90658e-29
2.62812e-30
1.04164e-31
3.67679e-33
1.15741e-34
3.25462e-36
8.18575e-38
1.84281e-39
3.71659e-41
6.6916e-43
1.0611e-44
1.45749e-46
1.7102e-48
1.58017e-50
1.12337e-52
)
;
    }
}


// ************************************************************************* //
