/*--------------------------------*- C++ -*----------------------------------*\
| =========                 |                                                 |
| \\      /  F ield         | OpenFOAM: The Open Source CFD Toolbox           |
|  \\    /   O peration     | Version:  2.4.0                                 |
|   \\  /    A nd           | Web:      www.OpenFOAM.org                      |
|    \\/     M anipulation  |                                                 |
\*---------------------------------------------------------------------------*/
FoamFile
{
    version     2.0;
    format      ascii;
    class       volScalarField;
    location    "0.25";
    object      alpha.oil;
}
// * * * * * * * * * * * * * * * * * * * * * * * * * * * * * * * * * * * * * //

dimensions      [0 0 0 0 0 0 0];

internalField   nonuniform List<scalar> 
559
(
8.07081e-07
4.74426e-07
9.62961e-08
8.84632e-08
8.83891e-08
4.93264e-08
3.06865e-08
1.08293e-16
5.57111e-15
1.1061e-13
9.76748e-13
3.83454e-12
6.7635e-12
7.76197e-12
1.30714e-11
4.97096e-11
1.84663e-10
4.61962e-10
1.384e-09
7.9969e-09
6.35136e-08
2.3789e-07
6.97887e-07
7.36058e-07
4.36828e-07
3.13281e-07
1.87964e-07
9.96212e-08
5.01014e-08
2.36204e-08
4.6012e-17
1.85381e-15
2.90875e-14
2.13784e-13
7.53226e-13
1.29216e-12
1.96517e-12
5.8717e-12
3.13813e-11
1.61864e-10
6.18942e-10
1.42031e-09
1.90485e-09
2.30717e-08
1.15404e-07
2.47527e-07
3.32023e-07
4.57176e-07
3.85264e-07
2.55312e-07
1.29493e-07
4.95802e-08
1.54874e-08
1.96891e-22
2.40775e-20
1.35447e-18
4.59305e-17
1.04732e-15
1.71108e-14
2.08472e-13
1.94692e-12
1.41464e-11
7.90105e-11
3.13703e-10
7.36666e-10
8.07008e-10
4.06016e-09
3.8979e-08
1.21722e-07
1.79337e-07
2.31162e-07
2.62466e-07
2.10227e-07
1.21826e-07
4.89598e-08
1.17341e-08
2.85784e-23
3.05213e-21
1.54277e-19
4.88608e-18
1.08185e-16
1.77001e-15
2.19996e-14
2.09958e-13
1.53763e-12
8.54193e-12
3.47679e-11
9.58728e-11
1.41847e-10
1.95821e-10
3.57727e-09
2.61733e-08
7.2355e-08
8.62365e-08
9.02431e-08
7.81629e-08
5.14825e-08
2.40762e-08
6.53727e-09
4.46846e-25
4.08844e-23
1.77815e-21
4.93845e-20
1.00028e-18
1.60513e-17
2.15031e-16
2.44107e-15
2.29746e-14
1.71099e-13
9.53722e-13
3.76943e-12
9.87839e-12
1.61357e-11
1.15938e-10
9.88524e-10
5.43128e-09
1.22385e-08
1.75728e-08
1.74857e-08
8.68298e-09
5.63554e-09
1.69341e-09
6.52504e-26
6.11172e-24
2.73027e-22
7.74627e-21
1.57314e-19
2.454e-18
3.09445e-17
3.27793e-16
2.97603e-15
2.30263e-14
1.47613e-13
7.53585e-13
2.91801e-12
8.0195e-12
1.44237e-11
9.04478e-11
5.86506e-10
1.9656e-09
2.98427e-09
2.81773e-09
1.12201e-09
2.8296e-10
8.22867e-11
6.82131e-27
6.84972e-25
3.26313e-23
9.81868e-22
2.09673e-20
3.38196e-19
4.28451e-18
4.37855e-17
3.67557e-16
2.56292e-15
1.49313e-14
7.2719e-14
2.94784e-13
9.88095e-13
2.71266e-12
6.11714e-12
1.47711e-11
7.15959e-11
1.4558e-10
1.70724e-10
1.81547e-10
1.17994e-10
3.8102e-11
4.73432e-28
5.18946e-26
2.70049e-24
8.88179e-23
2.07314e-21
3.65208e-20
5.04242e-19
5.59461e-18
5.0723e-17
3.80016e-16
2.37217e-15
1.2423e-14
5.4873e-14
2.04546e-13
6.41025e-13
1.67099e-12
3.57075e-12
6.19127e-12
1.19557e-11
1.98405e-11
2.02894e-11
1.45463e-11
6.19572e-12
4.07594e-30
4.82831e-28
2.72496e-26
9.75635e-25
2.48756e-23
4.80091e-22
7.27858e-21
8.88434e-20
8.88589e-19
7.3846e-18
5.15966e-17
3.05729e-16
1.54209e-15
6.63087e-15
2.43188e-14
7.6105e-14
2.0285e-13
4.58327e-13
8.66944e-13
1.33703e-12
1.60617e-12
1.39326e-12
7.44974e-13
2.2952e-32
2.95165e-30
1.80666e-28
7.02424e-27
1.94879e-25
4.10681e-24
6.83276e-23
9.21024e-22
1.02407e-20
9.51179e-20
7.44868e-19
4.95533e-18
2.81917e-17
1.37841e-16
5.80384e-16
2.10217e-15
6.5247e-15
1.72082e-14
3.80528e-14
6.90819e-14
9.92752e-14
1.05517e-13
7.20293e-14
8.74635e-35
1.23311e-32
8.30619e-31
3.56384e-29
1.09437e-27
2.55954e-26
4.73757e-25
7.12031e-24
8.85101e-23
9.22808e-22
8.15695e-21
6.16081e-20
3.9963e-19
2.23352e-18
1.07776e-17
4.49088e-17
1.61153e-16
4.94998e-16
1.28647e-15
2.77202e-15
4.78567e-15
6.23843e-15
5.4566e-15
2.31877e-37
3.63212e-35
2.71686e-33
1.2967e-31
4.43856e-30
1.16016e-28
2.40719e-27
4.06959e-26
5.71073e-25
6.74332e-24
6.76999e-23
5.825e-22
4.32161e-21
2.77613e-20
1.54709e-19
7.47766e-19
3.12638e-18
1.12387e-17
3.43672e-17
8.78239e-17
1.8212e-16
2.91358e-16
3.26586e-16
4.43054e-40
7.75163e-38
6.49083e-36
3.47486e-34
1.33697e-32
3.93724e-31
9.22772e-30
1.76713e-28
2.81769e-27
3.79335e-26
4.35731e-25
4.30424e-24
3.67737e-23
2.72793e-22
1.76093e-21
9.89373e-21
4.82758e-20
2.03506e-19
7.34166e-19
2.23156e-18
5.57304e-18
1.09689e-17
1.57654e-17
6.00064e-43
1.18853e-40
1.12695e-38
6.8424e-37
2.9909e-35
1.00254e-33
2.67996e-32
5.86646e-31
1.07165e-29
1.65666e-28
2.19034e-27
2.49673e-26
2.46837e-25
2.12528e-24
1.5973e-23
1.04835e-22
5.99823e-22
2.9785e-21
1.2733e-20
4.62529e-20
1.39849e-19
3.40453e-19
6.2869e-19
5.76378e-46
1.30501e-43
1.41574e-41
9.84799e-40
4.93847e-38
1.90196e-36
5.85151e-35
1.4769e-33
3.11688e-32
5.57833e-31
8.55743e-30
1.1344e-28
1.30739e-27
1.31562e-26
1.15898e-25
8.94582e-25
6.04321e-24
3.56035e-23
1.8174e-22
7.95329e-22
2.93561e-21
8.90695e-21
2.11985e-20
3.79047e-49
9.94636e-47
1.25044e-44
1.00895e-42
5.87471e-41
2.63007e-39
9.41816e-38
2.77081e-36
6.82685e-35
1.42892e-33
2.56854e-32
3.99832e-31
5.42406e-30
6.44191e-29
6.71782e-28
6.15937e-27
4.96292e-26
3.50539e-25
2.15956e-24
1.15109e-23
5.24348e-23
2.00178e-22
6.16765e-22
1.61605e-52
4.9966e-50
7.394e-48
7.02638e-46
4.82164e-44
2.54634e-42
1.07681e-40
3.74585e-39
1.09281e-37
2.71267e-36
5.79324e-35
1.07359e-33
1.73784e-32
2.46922e-31
3.08986e-30
3.41146e-29
3.32408e-28
2.85424e-27
2.15229e-26
1.41711e-25
8.075e-25
3.92369e-24
1.57504e-23
4.06877e-56
1.51972e-53
2.70488e-51
3.0903e-49
2.55026e-47
1.62083e-45
8.2572e-44
3.46414e-42
1.22023e-40
3.66186e-39
9.46851e-38
2.12825e-36
4.18722e-35
7.24905e-34
1.10847e-32
1.50071e-31
1.80067e-30
1.91407e-29
1.79895e-28
1.48945e-27
1.07972e-26
6.7741e-26
3.57669e-25
5.22385e-60
2.44879e-57
5.39943e-55
7.62094e-53
7.76658e-51
6.10006e-49
3.84606e-47
1.99996e-45
8.74401e-44
3.26112e-42
1.04917e-40
2.9378e-39
7.21115e-38
1.56051e-36
2.98993e-35
5.08765e-34
7.70307e-33
1.0385e-31
1.24599e-30
1.32787e-29
1.25176e-28
1.03364e-27
7.28384e-27
2.72909e-64
1.70607e-61
4.83358e-59
8.68075e-57
1.12278e-54
1.11933e-52
8.97893e-51
5.9746e-49
3.36833e-47
1.63057e-45
6.83548e-44
2.49682e-42
7.98918e-41
2.25174e-39
5.6201e-38
1.24741e-36
2.46976e-35
4.37146e-34
6.92414e-33
9.81091e-32
1.24007e-30
1.38548e-29
1.33387e-28
4.41375e-69
4.00663e-66
1.50404e-63
3.50582e-61
5.871e-59
7.61011e-57
7.98568e-55
6.99847e-53
5.23188e-51
3.39318e-49
1.93377e-47
9.75579e-46
4.36833e-44
1.73543e-42
6.10956e-41
1.90549e-39
5.27355e-38
1.30003e-36
2.86886e-35
5.68423e-34
1.01012e-32
1.5943e-31
2.17768e-30
4.51514e-74
6.21344e-71
3.13935e-68
9.57805e-66
2.07813e-63
3.47244e-61
4.66739e-59
5.19304e-57
4.90116e-55
4.00512e-53
2.88534e-51
1.8625e-49
1.09168e-47
5.86227e-46
2.89992e-44
1.32332e-42
5.55047e-41
2.12077e-39
7.29764e-38
2.24321e-36
6.14995e-35
1.49656e-33
3.13875e-32
2.63129e-78
3.9139e-75
2.17159e-72
7.2303e-70
1.7009e-67
3.06965e-65
4.48614e-63
5.50455e-61
5.81759e-59
5.40168e-57
4.47821e-55
3.36317e-53
2.32173e-51
1.4937e-49
9.06413e-48
5.24888e-46
2.93281e-44
1.59587e-42
8.49675e-41
4.39744e-39
2.14647e-37
9.40466e-36
3.50623e-34
4.68374e-82
7.12926e-79
4.14708e-76
1.46652e-73
3.69858e-71
7.21549e-69
1.14459e-66
1.52873e-64
1.76394e-62
1.79447e-60
1.63729e-58
1.36049e-56
1.04446e-54
7.52071e-53
5.16029e-51
3.42938e-49
2.24594e-47
1.47636e-45
9.92433e-44
6.93775e-42
5.0979e-40
3.91257e-38
2.97469e-36
)
;

boundaryField
{
    leftWall
    {
        type            zeroGradient;
    }
    rightWall
    {
        type            zeroGradient;
    }
    lowerWall
    {
        type            zeroGradient;
    }
    atmosphere
    {
        type            inletOutlet;
        inletValue      uniform 0;
        value           uniform 0;
    }
    defaultFaces
    {
        type            empty;
    }
    procBoundary2to0
    {
        type            processor;
        value           nonuniform List<scalar> 
24
(
8.0649e-07
7.96981e-07
2.94729e-07
1.27117e-07
8.53112e-08
5.20049e-08
3.34595e-08
2.17172e-16
1.29362e-14
3.45521e-13
4.10043e-12
1.4648e-11
2.72846e-11
2.40592e-11
2.58089e-11
6.65252e-11
2.05525e-10
4.38627e-10
1.23654e-09
1.09076e-08
1.18719e-07
5.38624e-07
8.0649e-07
8.0649e-07
)
;
    }
    procBoundary2to3
    {
        type            processor;
        value           nonuniform List<scalar> 
25
(
9.20061e-09
5.88597e-09
4.60805e-09
1.94424e-09
6.85795e-10
1.95103e-10
4.2982e-11
7.51771e-12
1.15825e-12
1.67156e-13
2.18226e-14
2.35405e-15
2.01566e-16
1.37252e-17
7.59073e-19
3.49779e-20
1.37663e-21
4.73432e-23
1.45268e-24
4.04025e-26
1.02751e-27
2.40775e-29
5.26347e-31
1.04377e-32
1.93402e-34
)
;
    }
}


// ************************************************************************* //
