/*--------------------------------*- C++ -*----------------------------------*\
| =========                 |                                                 |
| \\      /  F ield         | OpenFOAM: The Open Source CFD Toolbox           |
|  \\    /   O peration     | Version:  2.4.0                                 |
|   \\  /    A nd           | Web:      www.OpenFOAM.org                      |
|    \\/     M anipulation  |                                                 |
\*---------------------------------------------------------------------------*/
FoamFile
{
    version     2.0;
    format      ascii;
    class       volScalarField;
    location    "0.25";
    object      alpha.water;
}
// * * * * * * * * * * * * * * * * * * * * * * * * * * * * * * * * * * * * * //

dimensions      [0 0 0 0 0 0 0];

internalField   nonuniform List<scalar> 
559
(
1.12898e-18
7.52219e-19
1.82534e-18
4.04539e-18
9.00692e-18
1.97633e-17
3.86477e-17
1.73477e-12
3.74868e-12
1.98287e-12
1.37641e-12
7.7264e-13
5.16434e-13
1.03166e-12
2.33451e-12
3.79482e-12
3.86385e-12
3.89256e-12
4.29551e-12
3.0507e-12
1.91768e-12
3.73721e-13
3.10273e-20
4.10293e-20
1.01581e-19
2.29128e-19
4.95365e-19
1.09107e-18
2.49805e-18
4.94358e-18
3.79237e-21
2.07319e-19
5.3131e-18
8.31861e-17
8.74231e-16
6.2093e-15
2.89556e-14
8.40605e-14
1.40431e-13
1.19989e-13
5.20791e-14
2.53013e-14
6.79488e-15
9.54856e-16
3.9945e-22
1.17107e-21
3.04672e-21
7.37835e-21
1.75133e-20
4.17591e-20
1.00721e-19
2.46988e-19
6.0851e-19
1.43019e-39
2.04386e-37
1.35823e-35
5.52631e-34
1.5433e-32
3.16887e-31
5.00746e-30
6.29741e-29
6.45174e-28
5.45249e-27
3.80612e-26
2.19268e-25
1.05388e-24
4.30482e-24
1.53109e-23
4.88119e-23
1.42567e-22
3.9341e-22
1.07594e-21
3.03198e-21
8.79724e-21
2.58389e-20
7.44491e-20
5.1624e-41
6.54996e-39
3.93064e-37
1.48396e-35
3.95412e-34
7.92125e-33
1.23982e-31
1.55503e-30
1.59383e-29
1.35855e-28
9.72279e-28
5.85746e-27
2.97421e-26
1.30228e-25
5.07903e-25
1.8239e-24
6.23854e-24
2.09332e-23
7.06915e-23
2.42432e-22
8.40834e-22
2.86326e-21
9.17476e-21
6.81175e-43
8.99007e-41
5.63356e-39
2.23375e-37
6.29243e-36
1.33813e-34
2.22962e-33
2.98147e-32
3.25445e-31
2.92996e-30
2.19183e-29
1.38381e-28
7.59207e-28
3.71116e-27
1.64943e-26
6.84141e-26
2.75167e-25
1.11047e-24
4.51474e-24
1.82542e-23
7.16975e-23
2.6745e-22
9.21854e-22
7.66202e-45
1.05865e-42
6.95718e-41
2.89073e-39
8.50285e-38
1.88008e-36
3.24228e-35
4.47691e-34
5.05633e-33
4.76171e-32
3.81173e-31
2.65045e-30
1.63655e-29
9.1471e-29
4.75694e-28
2.36113e-27
1.13076e-26
5.26176e-26
2.40086e-25
1.07551e-24
4.67535e-24
1.91137e-23
7.13774e-23
5.62e-47
7.9039e-45
5.29244e-43
2.25282e-41
6.85713e-40
1.59059e-38
2.92859e-37
4.40456e-36
5.52532e-35
5.87224e-34
5.36049e-33
4.2623e-32
3.00185e-31
1.91431e-30
1.12915e-29
6.31285e-29
3.43699e-28
1.84868e-27
9.76188e-27
4.97068e-26
2.39248e-25
1.07264e-24
4.46467e-24
2.89898e-49
4.32391e-47
3.08363e-45
1.40409e-43
4.58951e-42
1.14721e-40
2.28264e-39
3.7187e-38
5.06723e-37
5.87898e-36
5.91125e-35
5.25449e-34
4.22307e-33
3.13658e-32
2.1979e-31
1.47305e-30
9.47457e-30
5.81575e-29
3.39842e-28
1.89606e-27
1.01138e-26
5.11572e-26
2.40604e-25
1.11087e-51
1.7978e-49
1.39684e-47
6.96012e-46
2.50032e-44
6.89708e-43
1.52016e-41
2.75336e-40
4.19041e-39
5.46783e-38
6.24011e-37
6.34804e-36
5.84925e-35
4.95715e-34
3.92158e-33
2.93687e-32
2.10424e-31
1.45343e-30
9.69426e-30
6.20328e-29
3.76165e-28
2.14475e-27
1.14116e-26
3.28575e-54
5.76952e-52
4.86176e-50
2.63229e-48
1.03048e-46
3.11204e-45
7.55801e-44
1.52065e-42
2.59353e-41
3.82221e-40
4.9537e-39
5.74755e-38
6.0811e-37
5.96995e-36
5.51353e-35
4.83392e-34
4.04283e-33
3.22668e-32
2.45479e-31
1.77868e-30
1.22523e-29
7.9762e-29
4.85524e-28
7.42255e-57
1.43039e-54
1.32866e-52
7.95663e-51
3.45816e-49
1.16383e-47
3.16178e-46
7.14459e-45
1.37534e-43
2.30304e-42
3.41935e-41
4.58e-40
5.61941e-39
6.39996e-38
6.84245e-37
6.92445e-36
6.66499e-35
6.11755e-34
5.3562e-33
4.46435e-32
3.52885e-31
2.63144e-30
1.83764e-29
1.26256e-59
2.70614e-57
2.79606e-55
1.86724e-53
9.07932e-52
3.43257e-50
1.05282e-48
2.70158e-47
5.94259e-46
1.14387e-44
1.96233e-43
3.05041e-42
4.36049e-41
5.80195e-40
7.24982e-39
8.55765e-38
9.57707e-37
1.01794e-35
1.02814e-34
9.86248e-34
8.96669e-33
7.69132e-32
6.18256e-31
1.65288e-62
3.96402e-60
4.59788e-58
3.45821e-56
1.90094e-54
8.15994e-53
2.85585e-51
8.40858e-50
2.13494e-48
4.7718e-47
9.55622e-46
1.74077e-44
2.92053e-43
4.55769e-42
6.66559e-41
9.18376e-40
1.19614e-38
1.4759e-37
1.72696e-36
1.91592e-35
2.01173e-34
1.9914e-33
1.84775e-32
1.61748e-65
4.40722e-63
5.81768e-61
4.99611e-59
3.14769e-57
1.55537e-55
6.29601e-54
2.15466e-52
6.38896e-51
1.67456e-49
3.94454e-48
8.46593e-47
1.67391e-45
3.07528e-44
5.2832e-43
8.52702e-42
1.29739e-40
1.86537e-39
2.53812e-38
3.2693e-37
3.98129e-36
4.56772e-35
4.91068e-34
1.17682e-68
3.68738e-66
5.61315e-64
5.57857e-62
4.08292e-60
2.35342e-58
1.11605e-56
4.49322e-55
1.57311e-53
4.88173e-52
1.36357e-50
3.47078e-49
8.12932e-48
1.76554e-46
3.57665e-45
6.78997e-44
1.21234e-42
2.04148e-41
3.24795e-40
4.88519e-39
6.93932e-38
9.27918e-37
1.16181e-35
6.12903e-72
2.24707e-69
4.01064e-67
4.68871e-65
4.05034e-63
2.76498e-61
1.55795e-59
7.47301e-58
3.12332e-56
1.15819e-54
3.86552e-53
1.17446e-51
3.27792e-50
8.46503e-49
2.03449e-47
4.5724e-46
9.64651e-45
1.91623e-43
3.59141e-42
6.35597e-41
1.0613e-39
1.66679e-38
2.44816e-37
2.16726e-75
9.48493e-73
2.02282e-70
2.83286e-68
2.93891e-66
2.41515e-64
1.64143e-62
9.50923e-61
4.80246e-59
2.15117e-57
8.66305e-56
3.17067e-54
1.06391e-52
3.29638e-51
9.48658e-50
2.54841e-48
6.41638e-47
1.51905e-45
3.38897e-44
7.13161e-43
1.41456e-41
2.63672e-40
4.59017e-39
4.73098e-79
2.54009e-76
6.62615e-74
1.1361e-71
1.44483e-69
1.45723e-67
1.21648e-65
8.65681e-64
5.36653e-62
2.94665e-60
1.452e-58
6.48953e-57
2.65371e-55
1.00008e-53
3.49458e-52
1.13806e-50
3.46902e-49
9.93056e-48
2.67581e-46
6.79314e-45
1.62379e-43
3.64385e-42
7.62857e-41
5.45191e-83
3.73327e-80
1.22662e-77
2.64294e-75
4.22294e-73
5.35335e-71
5.61987e-69
5.02884e-67
3.91677e-65
2.69785e-63
1.6641e-61
9.28733e-60
4.73079e-58
2.21584e-56
9.60361e-55
3.87225e-53
1.45914e-51
5.15669e-50
1.71316e-48
5.35535e-47
1.57411e-45
4.33735e-44
1.11336e-42
2.60077e-87
2.40723e-84
1.0288e-81
2.85366e-79
5.852e-77
9.5178e-75
1.28447e-72
1.48548e-70
1.50543e-68
1.3558e-66
1.09485e-64
7.98087e-63
5.28381e-61
3.19892e-59
1.78373e-57
9.21831e-56
4.43809e-54
1.99875e-52
8.44339e-51
3.34932e-49
1.24686e-47
4.3418e-46
1.40488e-44
3.91764e-92
5.31353e-89
3.03038e-86
1.09808e-83
2.93234e-81
6.22723e-79
1.10123e-76
1.67531e-74
2.24335e-72
2.69402e-70
2.94333e-68
2.94988e-66
2.72018e-64
2.30716e-62
1.79723e-60
1.28549e-58
8.46044e-57
5.14759e-55
2.91312e-53
1.53978e-51
7.60727e-50
3.49936e-48
1.48794e-46
5.75808e-97
1.16406e-93
8.76198e-91
4.06094e-88
1.36804e-85
3.63449e-83
7.96775e-81
1.48546e-78
2.417e-76
3.50864e-74
4.63495e-72
5.6747e-70
6.53874e-68
7.1672e-66
7.5255e-64
7.58548e-62
7.3102e-60
6.66293e-58
5.66007e-56
4.43297e-54
3.19597e-52
2.12274e-50
1.28503e-48
7.04071e-101
1.4794e-97
1.17859e-94
5.73889e-92
2.01369e-89
5.53563e-87
1.26016e-84
2.46638e-82
4.26388e-80
6.65133e-78
9.52928e-76
1.27418e-73
1.61616e-71
1.97454e-69
2.35481e-67
2.77593e-65
3.27169e-63
3.88998e-61
4.68501e-59
5.67648e-57
6.72506e-55
7.47011e-53
7.50494e-51
2.29855e-104
4.88427e-101
4.02976e-98
2.05474e-95
7.60379e-93
2.21753e-90
5.36328e-88
1.1151e-85
2.04692e-83
3.38802e-81
5.1466e-79
7.28755e-77
9.75757e-75
1.25353e-72
1.56827e-70
1.93928e-68
2.40746e-66
3.05195e-64
4.02704e-62
5.65057e-60
8.63171e-58
1.46457e-55
2.73096e-53
)
;

boundaryField
{
    leftWall
    {
        type            zeroGradient;
    }
    rightWall
    {
        type            zeroGradient;
    }
    lowerWall
    {
        type            zeroGradient;
    }
    atmosphere
    {
        type            inletOutlet;
        inletValue      uniform 0;
        value           uniform 0;
    }
    defaultFaces
    {
        type            empty;
    }
    procBoundary2to0
    {
        type            processor;
        value           nonuniform List<scalar> 
24
(
2.38346e-15
2.25865e-16
2.76615e-17
2.12156e-17
5.19585e-17
1.39413e-16
3.23119e-16
3.58527e-11
7.51791e-11
2.20011e-11
1.34585e-11
1.11102e-11
9.63848e-12
1.00764e-11
1.35858e-11
1.64904e-11
1.70405e-11
2.06076e-11
2.17859e-11
1.77257e-11
1.00727e-11
3.0368e-12
2.53444e-17
2.53444e-17
)
;
    }
    procBoundary2to3
    {
        type            processor;
        value           nonuniform List<scalar> 
25
(
6.78716e-17
8.1017e-18
1.20578e-18
1.86748e-19
2.54215e-20
2.77363e-21
2.41236e-22
1.69226e-23
1.0264e-24
5.57528e-26
2.73062e-27
1.19206e-28
4.62854e-30
1.59893e-31
4.92441e-33
1.35555e-34
3.34278e-36
7.39913e-38
1.4733e-39
2.63326e-41
4.17449e-43
5.78567e-45
6.93359e-47
6.65301e-49
5.03004e-51
)
;
    }
}


// ************************************************************************* //
