/*--------------------------------*- C++ -*----------------------------------*\
| =========                 |                                                 |
| \\      /  F ield         | OpenFOAM: The Open Source CFD Toolbox           |
|  \\    /   O peration     | Version:  2.4.0                                 |
|   \\  /    A nd           | Web:      www.OpenFOAM.org                      |
|    \\/     M anipulation  |                                                 |
\*---------------------------------------------------------------------------*/
FoamFile
{
    version     2.0;
    format      ascii;
    class       volScalarField;
    location    "0.25";
    object      p;
}
// * * * * * * * * * * * * * * * * * * * * * * * * * * * * * * * * * * * * * //

dimensions      [1 -1 -2 0 0 0 0];

internalField   nonuniform List<scalar> 
559
(
2.89494
2.8604
2.83463
2.81506
2.80001
2.7742
2.74935
3.05857
3.05785
3.05612
3.053
3.04827
3.04204
3.03444
3.02533
3.01406
2.99911
2.97893
2.95288
2.92584
2.89804
2.86923
2.83998
2.81082
2.78221
2.75094
2.72534
2.70251
2.68182
2.6596
2.92266
2.92161
2.91941
2.91615
2.91168
2.90584
2.89861
2.8898
2.87898
2.86516
2.84752
2.82708
2.80561
2.78227
2.75792
2.73256
2.70814
2.68231
2.65368
2.62788
2.60623
2.58494
2.56267
2.78768
2.78665
2.78455
2.78137
2.77704
2.77144
2.7645
2.75604
2.74568
2.73279
2.71761
2.70098
2.68273
2.66336
2.64285
2.62113
2.59933
2.57584
2.55028
2.52641
2.50487
2.48418
2.46381
2.65342
2.65242
2.65042
2.64741
2.6433
2.63803
2.63151
2.62361
2.61403
2.60262
2.58961
2.57506
2.55907
2.54163
2.52281
2.50355
2.48366
2.4626
2.44133
2.42006
2.40002
2.38162
2.36322
2.5195
2.51857
2.51671
2.51392
2.51011
2.50524
2.49921
2.49189
2.48312
2.47286
2.46117
2.44826
2.43411
2.41879
2.40257
2.38559
2.36763
2.3492
2.33036
2.31178
2.29404
2.27666
2.26008
2.3864
2.38552
2.38378
2.38115
2.37759
2.37305
2.36745
2.36069
2.35269
2.34348
2.33319
2.32176
2.30923
2.29582
2.28166
2.26672
2.2509
2.23428
2.2176
2.20132
2.18542
2.16998
2.15496
2.25392
2.25312
2.25151
2.24906
2.24574
2.24151
2.23633
2.23016
2.223
2.21486
2.20569
2.19556
2.18454
2.17258
2.15981
2.14638
2.13249
2.11812
2.10349
2.08907
2.075
2.06128
2.04809
2.12194
2.1212
2.11971
2.11746
2.11442
2.11056
2.10586
2.10028
2.09382
2.08646
2.07823
2.06919
2.05934
2.04885
2.03776
2.02599
2.01366
2.00094
1.9881
1.9756
1.96325
1.95111
1.93954
1.99032
1.98962
1.98825
1.98617
1.98339
1.97988
1.97562
1.97061
1.96483
1.95832
1.95108
1.94309
1.93443
1.92512
1.91519
1.90477
1.89402
1.88302
1.87193
1.86084
1.85
1.83949
1.8295
1.85925
1.85863
1.85738
1.8555
1.85299
1.84982
1.84599
1.8415
1.83635
1.83055
1.8241
1.81704
1.80937
1.80116
1.79248
1.78339
1.77396
1.76431
1.75464
1.74508
1.7357
1.7266
1.71803
1.7286
1.72804
1.72692
1.72524
1.72299
1.72016
1.71675
1.71277
1.7082
1.70307
1.69737
1.69115
1.68442
1.67723
1.66964
1.6617
1.65351
1.64515
1.63675
1.62844
1.62033
1.61253
1.60523
1.59828
1.59778
1.59678
1.59528
1.59328
1.59077
1.58776
1.58424
1.58022
1.57572
1.57073
1.56529
1.55942
1.55316
1.54655
1.53967
1.53258
1.52536
1.51812
1.51099
1.50404
1.49739
1.4912
1.46835
1.46791
1.46703
1.46572
1.46396
1.46176
1.45912
1.45605
1.45254
1.44861
1.44427
1.43955
1.43446
1.42904
1.42334
1.41741
1.41131
1.40512
1.39892
1.39281
1.38689
1.38126
1.37604
1.33868
1.3383
1.33754
1.3364
1.33487
1.33297
1.33068
1.32802
1.325
1.32161
1.31788
1.31382
1.30946
1.30482
1.29994
1.29488
1.28968
1.28441
1.27914
1.27397
1.26897
1.26423
1.25987
1.20931
1.20898
1.20833
1.20735
1.20605
1.20442
1.20247
1.20021
1.19763
1.19475
1.19158
1.18813
1.18443
1.18051
1.17639
1.17211
1.16773
1.16329
1.15886
1.15452
1.15033
1.14639
1.14277
1.08015
1.07987
1.07933
1.07851
1.07742
1.07605
1.07442
1.07253
1.07037
1.06797
1.06532
1.06245
1.05937
1.0561
1.05267
1.04911
1.04547
1.04178
1.03811
1.03451
1.03106
1.02781
1.02485
0.951202
0.950975
0.950533
0.949861
0.948967
0.947851
0.946517
0.944969
0.943211
0.941249
0.939093
0.936754
0.934244
0.931582
0.92879
0.925894
0.922928
0.919929
0.91694
0.914011
0.911199
0.908562
0.906182
0.822421
0.822241
0.821893
0.821361
0.820654
0.819772
0.818717
0.817495
0.816109
0.814564
0.812868
0.811028
0.809054
0.806956
0.804753
0.802467
0.800122
0.797748
0.795379
0.793054
0.790817
0.788712
0.786782
0.693782
0.693644
0.693385
0.692983
0.692451
0.691787
0.690992
0.690075
0.689039
0.687886
0.686625
0.685257
0.683786
0.682215
0.680559
0.678836
0.677067
0.675269
0.673467
0.671691
0.669975
0.668355
0.666871
0.565238
0.565133
0.564956
0.564677
0.564312
0.563854
0.563318
0.562703
0.562004
0.561225
0.560374
0.559452
0.55845
0.557363
0.556212
0.555018
0.553785
0.552521
0.55124
0.549967
0.548727
0.547545
0.546453
0.436751
0.436659
0.43656
0.436399
0.436198
0.435961
0.435685
0.435353
0.434967
0.434526
0.434036
0.433493
0.432904
0.432299
0.431679
0.431009
0.430293
0.429531
0.428731
0.427923
0.427122
0.426346
0.425604
0.308399
0.308305
0.308276
0.308227
0.308178
0.308125
0.308058
0.307977
0.307888
0.307788
0.307661
0.307508
0.30734
0.307149
0.306933
0.3067
0.306453
0.306198
0.305923
0.305593
0.305193
0.304748
0.304316
0.180317
0.180279
0.180315
0.180363
0.180443
0.180545
0.180667
0.180812
0.180979
0.181159
0.181348
0.181545
0.181742
0.18194
0.182136
0.18233
0.182516
0.182687
0.182834
0.182944
0.183011
0.182996
0.182838
0.0521729
0.0522131
0.0523167
0.0524586
0.0526632
0.052928
0.0532524
0.0536315
0.054061
0.0545356
0.0550507
0.0556027
0.0561867
0.0567916
0.0573991
0.0579936
0.0585611
0.0590886
0.0595632
0.0599738
0.060311
0.0605709
0.0607657
)
;

boundaryField
{
    leftWall
    {
        type            fixedFluxPressure;
        gradient        uniform 0;
        value           nonuniform List<scalar> 
24
(
3.05857
2.92266
2.78768
2.65342
2.5195
2.3864
2.25392
2.12194
1.99032
1.85925
1.7286
1.59828
1.46835
1.33868
1.20931
1.08015
0.951202
0.822421
0.693782
0.565238
0.436751
0.308399
0.180317
0.0521729
)
;
    }
    rightWall
    {
        type            fixedFluxPressure;
        gradient        nonuniform 0();
        value           nonuniform 0();
    }
    lowerWall
    {
        type            fixedFluxPressure;
        gradient        nonuniform 0();
        value           nonuniform 0();
    }
    atmosphere
    {
        type            totalPressure;
        U               U.air;
        phi             phi.air;
        rho             rho;
        psi             none;
        gamma           1;
        p0              uniform 0;
        value           nonuniform List<scalar> 
23
(
-0.0125007
-0.012808
-0.0126425
-0.0123948
-0.0120514
-0.0116191
-0.0111023
-0.0105065
-0.00983885
-0.00910785
-0.00832248
-0.00749377
-0.00663235
-0.00575078
-0.00486529
-0.00399366
-0.00315458
-0.00236826
-0.00165653
-0.001043
-0.000551716
-0.000211738
-5.89516e-05
)
;
    }
    defaultFaces
    {
        type            empty;
    }
    procBoundary2to0
    {
        type            processor;
        value           nonuniform List<scalar> 
24
(
3.00604
2.96095
2.91343
2.85549
2.8189
2.81177
2.80503
3.19072
3.19071
3.18984
3.18774
3.18391
3.17849
3.17177
3.16415
3.15355
3.13788
3.11194
3.07685
3.03828
3.00257
2.96874
2.93319
2.93319
)
;
    }
    procBoundary2to3
    {
        type            processor;
        value           nonuniform List<scalar> 
25
(
2.73369
2.64295
2.54743
2.45002
2.35027
2.24856
2.14467
2.03916
1.9318
1.82284
1.71234
1.60039
1.48711
1.37263
1.25703
1.14043
1.02295
0.904711
0.785496
0.665917
0.545749
0.425117
0.304004
0.182739
0.0608099
)
;
    }
}


// ************************************************************************* //
