/*--------------------------------*- C++ -*----------------------------------*\
| =========                 |                                                 |
| \\      /  F ield         | OpenFOAM: The Open Source CFD Toolbox           |
|  \\    /   O peration     | Version:  2.4.0                                 |
|   \\  /    A nd           | Web:      www.OpenFOAM.org                      |
|    \\/     M anipulation  |                                                 |
\*---------------------------------------------------------------------------*/
FoamFile
{
    version     2.0;
    format      ascii;
    class       surfaceScalarField;
    location    "0.25";
    object      phi.oil;
}
// * * * * * * * * * * * * * * * * * * * * * * * * * * * * * * * * * * * * * //

dimensions      [0 3 -1 0 0 0 0];

internalField   nonuniform List<scalar> 
1070
(
-9.15174e-05
-5.50504e-05
-9.0841e-05
-3.23528e-05
-0.000103595
-1.75459e-05
-0.000100474
-1.1216e-05
-9.22868e-05
-4.1807e-06
-8.5456e-05
3.94576e-06
9.19956e-06
-1.03025e-06
-6.09756e-05
-2.46835e-06
-6.36434e-05
-4.54948e-06
-6.42e-05
-7.24574e-06
-6.49486e-05
-1.05323e-05
-6.56016e-05
-1.43748e-05
-6.61314e-05
-1.85468e-05
-6.66158e-05
-2.2806e-05
-6.69259e-05
-2.70866e-05
-6.71782e-05
-3.15126e-05
-6.80899e-05
-3.75732e-05
-6.99464e-05
-4.64226e-05
-7.00369e-05
-5.67134e-05
-6.82003e-05
-6.62418e-05
-6.56813e-05
-7.41162e-05
-6.20796e-05
-8.92301e-05
-5.52434e-05
-9.3041e-05
-4.64298e-05
-9.55664e-05
-3.22435e-05
-9.20802e-05
-2.06988e-05
-8.79547e-05
-1.54552e-05
-8.29154e-05
-9.66467e-06
-7.75317e-05
-1.58324e-06
3.93908e-06
-1.83352e-06
-5.91414e-05
-3.87495e-06
-6.16017e-05
-6.21446e-06
-6.18603e-05
-8.86134e-06
-6.23017e-05
-1.17915e-05
-6.26714e-05
-1.4922e-05
-6.30008e-05
-1.82942e-05
-6.32434e-05
-2.18572e-05
-6.33627e-05
-2.56033e-05
-6.34321e-05
-3.00612e-05
-6.36334e-05
-3.65058e-05
-6.3506e-05
-4.40924e-05
-6.24508e-05
-5.19486e-05
-6.03844e-05
-5.98749e-05
-5.72682e-05
-6.85962e-05
-5.29747e-05
-7.77334e-05
-4.81262e-05
-8.24041e-05
-4.17032e-05
-8.16535e-05
-3.20946e-05
-7.81147e-05
-2.3215e-05
-7.58791e-05
-1.72e-05
-7.35588e-05
-1.24006e-05
-7.00371e-05
-5.50412e-06
1.28891e-06
-2.00442e-06
-5.7137e-05
-4.16874e-06
-5.94372e-05
-6.52966e-06
-5.94993e-05
-9.12711e-06
-5.97041e-05
-1.19162e-05
-5.98822e-05
-1.48907e-05
-6.00262e-05
-1.80272e-05
-6.01068e-05
-2.1355e-05
-6.00348e-05
-2.49979e-05
-5.97891e-05
-2.92177e-05
-5.94138e-05
-3.41629e-05
-5.85599e-05
-3.96206e-05
-5.69885e-05
-4.53133e-05
-5.46995e-05
-5.08199e-05
-5.16906e-05
-5.56001e-05
-4.7916e-05
-6.12348e-05
-4.26252e-05
-6.62122e-05
-3.69092e-05
-6.84923e-05
-3.03003e-05
-6.7877e-05
-2.33021e-05
-6.6678e-05
-1.71837e-05
-6.6005e-05
-1.28058e-05
-6.48905e-05
-6.89396e-06
1.06159e-06
-2.26342e-06
-5.4873e-05
-4.65179e-06
-5.70485e-05
-7.12564e-06
-5.70253e-05
-9.73259e-06
-5.70971e-05
-1.24872e-05
-5.71275e-05
-1.54279e-05
-5.70853e-05
-1.85919e-05
-5.69427e-05
-2.19608e-05
-5.66658e-05
-2.5467e-05
-5.62826e-05
-2.92507e-05
-5.56294e-05
-3.35191e-05
-5.42898e-05
-3.84393e-05
-5.2064e-05
-4.33717e-05
-4.97622e-05
-4.7938e-05
-4.71146e-05
-5.20815e-05
-4.37345e-05
-5.55288e-05
-3.92569e-05
-5.87145e-05
-3.3557e-05
-6.0828e-05
-2.77656e-05
-6.18141e-05
-2.21767e-05
-6.16639e-05
-1.75055e-05
-6.15477e-05
-1.29044e-05
-6.1577e-05
-6.80707e-06
2.55447e-07
-2.15214e-06
-5.27208e-05
-4.43702e-06
-5.47634e-05
-6.80839e-06
-5.46537e-05
-9.29618e-06
-5.46092e-05
-1.19318e-05
-5.44918e-05
-1.47369e-05
-5.42801e-05
-1.77478e-05
-5.39317e-05
-2.09892e-05
-5.34242e-05
-2.4558e-05
-5.27136e-05
-2.85255e-05
-5.16617e-05
-3.26494e-05
-5.01655e-05
-3.64343e-05
-4.82784e-05
-4.01652e-05
-4.60306e-05
-4.41498e-05
-4.31299e-05
-4.82218e-05
-3.96498e-05
-5.15676e-05
-3.58789e-05
-5.36181e-05
-3.16696e-05
-5.50587e-05
-2.65747e-05
-5.6104e-05
-2.12535e-05
-5.70587e-05
-1.64274e-05
-5.76779e-05
-1.21902e-05
-5.74879e-05
-6.97586e-06
-9.71629e-07
-2.15716e-06
-5.05632e-05
-4.42298e-06
-5.24973e-05
-6.76621e-06
-5.23103e-05
-9.23294e-06
-5.21423e-05
-1.1849e-05
-5.18757e-05
-1.4641e-05
-5.1488e-05
-1.7613e-05
-5.09596e-05
-2.07494e-05
-5.02877e-05
-2.40225e-05
-4.94404e-05
-2.73758e-05
-4.83082e-05
-3.07106e-05
-4.68305e-05
-3.3998e-05
-4.49908e-05
-3.73341e-05
-4.26942e-05
-4.0436e-05
-4.00272e-05
-4.33314e-05
-3.67556e-05
-4.6417e-05
-3.27897e-05
-4.93585e-05
-2.87075e-05
-5.12943e-05
-2.4584e-05
-5.21304e-05
-2.03628e-05
-5.23245e-05
-1.62204e-05
-5.27591e-05
-1.17538e-05
-5.29533e-05
-6.77178e-06
-2.0943e-06
-2.16405e-06
-4.83991e-05
-4.41813e-06
-5.02431e-05
-6.70576e-06
-5.00225e-05
-9.04642e-06
-4.98015e-05
-1.14513e-05
-4.94707e-05
-1.39258e-05
-4.90134e-05
-1.64805e-05
-4.84049e-05
-1.91503e-05
-4.76179e-05
-2.19883e-05
-4.66023e-05
-2.50171e-05
-4.52792e-05
-2.82295e-05
-4.36179e-05
-3.15536e-05
-4.16665e-05
-3.48321e-05
-3.94155e-05
-3.80761e-05
-3.67839e-05
-4.09905e-05
-3.38401e-05
-4.30809e-05
-3.07006e-05
-4.44562e-05
-2.73317e-05
-4.55926e-05
-2.34482e-05
-4.67254e-05
-1.92296e-05
-4.79057e-05
-1.50334e-05
-4.87835e-05
-1.08714e-05
-4.86398e-05
-6.91452e-06
-2.85366e-06
-2.09025e-06
-4.63084e-05
-4.26433e-06
-4.80688e-05
-6.47384e-06
-4.78128e-05
-8.7415e-06
-4.75337e-05
-1.10794e-05
-4.71327e-05
-1.34931e-05
-4.65997e-05
-1.5984e-05
-4.59139e-05
-1.85552e-05
-4.50467e-05
-2.12031e-05
-4.39543e-05
-2.38895e-05
-4.25927e-05
-2.65508e-05
-4.09564e-05
-2.91102e-05
-3.91069e-05
-3.15611e-05
-3.69645e-05
-3.38394e-05
-3.45052e-05
-3.60007e-05
-3.16802e-05
-3.81749e-05
-2.85262e-05
-4.04267e-05
-2.50804e-05
-4.23673e-05
-2.15078e-05
-4.36321e-05
-1.79642e-05
-4.41941e-05
-1.44709e-05
-4.43532e-05
-1.07116e-05
-4.44486e-05
-6.81768e-06
-3.07702e-06
-1.98021e-06
-4.43283e-05
-4.0322e-06
-4.60167e-05
-6.10723e-06
-4.57377e-05
-8.2281e-06
-4.54128e-05
-1.04087e-05
-4.49519e-05
-1.26613e-05
-4.4347e-05
-1.49925e-05
-4.35827e-05
-1.73971e-05
-4.26421e-05
-1.98454e-05
-4.15058e-05
-2.22881e-05
-4.01499e-05
-2.47002e-05
-3.85441e-05
-2.71356e-05
-3.66714e-05
-2.95657e-05
-3.45344e-05
-3.19176e-05
-3.21538e-05
-3.40497e-05
-2.95476e-05
-3.58621e-05
-2.67151e-05
-3.725e-05
-2.36932e-05
-3.82879e-05
-2.04703e-05
-3.9195e-05
-1.70574e-05
-4.01224e-05
-1.35433e-05
-4.07491e-05
-1.00843e-05
-4.08947e-05
-6.67176e-06
-3.22324e-06
-1.88862e-06
-4.24393e-05
-3.84813e-06
-4.4057e-05
-5.82143e-06
-4.37642e-05
-7.82576e-06
-4.34083e-05
-9.86245e-06
-4.29152e-05
-1.19325e-05
-4.22769e-05
-1.40364e-05
-4.14788e-05
-1.61763e-05
-4.05022e-05
-1.83543e-05
-3.93277e-05
-2.05596e-05
-3.79446e-05
-2.27513e-05
-3.63523e-05
-2.48724e-05
-3.45501e-05
-2.68845e-05
-3.25223e-05
-2.87844e-05
-3.02536e-05
-3.05754e-05
-2.77581e-05
-3.22305e-05
-2.50598e-05
-3.37511e-05
-2.21737e-05
-3.50687e-05
-1.91532e-05
-3.60832e-05
-1.60434e-05
-3.67647e-05
-1.28619e-05
-3.72003e-05
-9.64834e-06
-3.74497e-05
-6.4216e-06
-3.18693e-06
-1.77567e-06
-4.06637e-05
-3.60626e-06
-4.22263e-05
-5.44751e-06
-4.19229e-05
-7.31226e-06
-4.15435e-05
-9.20578e-06
-4.10216e-05
-1.11308e-05
-4.03518e-05
-1.30858e-05
-3.95238e-05
-1.50615e-05
-3.85265e-05
-1.70399e-05
-3.73492e-05
-1.90027e-05
-3.59817e-05
-2.09407e-05
-3.44142e-05
-2.28497e-05
-3.26409e-05
-2.47059e-05
-3.06659e-05
-2.64614e-05
-2.84988e-05
-2.80762e-05
-2.61427e-05
-2.95307e-05
-2.36067e-05
-3.07902e-05
-2.09149e-05
-3.18543e-05
-1.80898e-05
-3.27425e-05
-1.51555e-05
-3.34542e-05
-1.21504e-05
-3.3965e-05
-9.13722e-06
-3.42609e-05
-6.12551e-06
-3.08128e-06
-1.64801e-06
-3.90154e-05
-3.35162e-06
-4.05226e-05
-5.05901e-06
-4.02154e-05
-6.7829e-06
-3.98195e-05
-8.52502e-06
-3.92794e-05
-1.02858e-05
-3.8591e-05
-1.20631e-05
-3.77465e-05
-1.38516e-05
-3.67379e-05
-1.56424e-05
-3.55583e-05
-1.7422e-05
-3.42021e-05
-1.91704e-05
-3.26657e-05
-2.0864e-05
-3.09471e-05
-2.2485e-05
-2.9045e-05
-2.40217e-05
-2.69619e-05
-2.54569e-05
-2.47088e-05
-2.67646e-05
-2.22991e-05
-2.79296e-05
-1.97507e-05
-2.89337e-05
-1.70864e-05
-2.97611e-05
-1.43286e-05
-3.04079e-05
-1.15039e-05
-3.0892e-05
-8.65302e-06
-3.12192e-05
-5.79772e-06
-2.91597e-06
-1.52368e-06
-3.74919e-05
-3.09287e-06
-3.89534e-05
-4.66339e-06
-3.86448e-05
-6.24524e-06
-3.82376e-05
-7.83889e-06
-3.76858e-05
-9.44345e-06
-3.69864e-05
-1.10555e-05
-3.61345e-05
-1.26686e-05
-3.51248e-05
-1.42742e-05
-3.39527e-05
-1.58618e-05
-3.26144e-05
-1.74201e-05
-3.11074e-05
-1.89357e-05
-2.94315e-05
-2.0391e-05
-2.75897e-05
-2.17658e-05
-2.55875e-05
-2.3042e-05
-2.34323e-05
-2.42059e-05
-2.11363e-05
-2.52427e-05
-1.87146e-05
-2.61436e-05
-1.61863e-05
-2.69021e-05
-1.35705e-05
-2.7516e-05
-1.08903e-05
-2.79898e-05
-8.17906e-06
-2.83274e-05
-5.46005e-06
-2.71718e-06
-1.38811e-06
-3.61034e-05
-2.81934e-06
-3.7522e-05
-4.24877e-06
-3.72153e-05
-5.68607e-06
-3.68003e-05
-7.13098e-06
-3.62408e-05
-8.58206e-06
-3.55353e-05
-1.00359e-05
-3.46806e-05
-1.1487e-05
-3.36737e-05
-1.29278e-05
-3.2512e-05
-1.43484e-05
-3.11937e-05
-1.57373e-05
-2.97183e-05
-1.70819e-05
-2.80868e-05
-1.83694e-05
-2.63021e-05
-1.95872e-05
-2.43696e-05
-2.07226e-05
-2.22982e-05
-2.17611e-05
-2.00978e-05
-2.2693e-05
-1.77836e-05
-2.35089e-05
-1.5371e-05
-2.42027e-05
-1.28773e-05
-2.47726e-05
-1.03208e-05
-2.5224e-05
-7.72771e-06
-2.55613e-05
-5.12236e-06
-2.49784e-06
-1.25295e-06
-3.48507e-05
-2.54351e-06
-3.62314e-05
-3.83087e-06
-3.59279e-05
-5.12382e-06
-3.55073e-05
-6.42123e-06
-3.49434e-05
-7.72124e-06
-3.42353e-05
-9.0205e-06
-3.33814e-05
-1.0314e-05
-3.23802e-05
-1.15951e-05
-3.12308e-05
-1.28559e-05
-2.99329e-05
-1.4087e-05
-2.84871e-05
-1.52784e-05
-2.68954e-05
-1.64189e-05
-2.51616e-05
-1.74975e-05
-2.32916e-05
-1.85026e-05
-2.12926e-05
-1.94258e-05
-1.91759e-05
-2.02574e-05
-1.69526e-05
-2.09915e-05
-1.46376e-05
-2.16234e-05
-1.2246e-05
-2.2151e-05
-9.79353e-06
-2.25774e-05
-7.30128e-06
-2.29071e-05
-4.7927e-06
-2.26842e-06
-1.11326e-06
-3.37371e-05
-2.26161e-06
-3.5083e-05
-3.40587e-06
-3.47836e-05
-4.55466e-06
-3.43585e-05
-5.70646e-06
-3.37916e-05
-6.85929e-06
-3.30825e-05
-8.01005e-06
-3.22306e-05
-9.15415e-06
-3.12361e-05
-1.02856e-05
-3.00994e-05
-1.13973e-05
-2.88212e-05
-1.24812e-05
-2.74032e-05
-1.35287e-05
-2.58478e-05
-1.45312e-05
-2.41593e-05
-1.54795e-05
-2.23431e-05
-1.63659e-05
-2.04073e-05
-1.71816e-05
-1.83603e-05
-1.79206e-05
-1.62143e-05
-1.85776e-05
-1.39814e-05
-1.9149e-05
-1.16752e-05
-1.96332e-05
-9.30969e-06
-2.00323e-05
-6.90236e-06
-2.03499e-05
-4.47492e-06
-2.0348e-06
-9.70924e-07
-3.27664e-05
-1.97599e-06
-3.4078e-05
-2.97698e-06
-3.37826e-05
-3.98227e-06
-3.33532e-05
-4.98996e-06
-3.27839e-05
-5.99814e-06
-3.20744e-05
-7.00431e-06
-3.12245e-05
-8.00433e-06
-3.02361e-05
-8.99283e-06
-2.91109e-05
-9.96344e-06
-2.78506e-05
-1.09092e-05
-2.64574e-05
-1.18227e-05
-2.49342e-05
-1.26969e-05
-2.32851e-05
-1.35249e-05
-2.15155e-05
-1.42993e-05
-1.96325e-05
-1.5015e-05
-1.76457e-05
-1.56661e-05
-1.55639e-05
-1.62491e-05
-1.33991e-05
-1.67616e-05
-1.11633e-05
-1.72023e-05
-8.86937e-06
-1.75727e-05
-6.53214e-06
-1.78763e-05
-4.17147e-06
-1.79939e-06
-8.23358e-07
-3.19428e-05
-1.68571e-06
-3.32156e-05
-2.54406e-06
-3.29243e-05
-3.4064e-06
-3.24909e-05
-4.27077e-06
-3.19196e-05
-5.1356e-06
-3.12095e-05
-5.99977e-06
-3.03603e-05
-6.86024e-06
-2.93757e-05
-7.71202e-06
-2.82591e-05
-8.54908e-06
-2.70135e-05
-9.36483e-06
-2.56416e-05
-1.01527e-05
-2.41464e-05
-1.09069e-05
-2.25311e-05
-1.16216e-05
-2.08007e-05
-1.22922e-05
-1.8963e-05
-1.29126e-05
-1.70254e-05
-1.348e-05
-1.49974e-05
-1.39916e-05
-1.28883e-05
-1.4446e-05
-1.07096e-05
-1.48428e-05
-8.47301e-06
-1.51836e-05
-6.19161e-06
-1.54715e-05
-3.88361e-06
-1.56524e-06
-6.70194e-07
-3.12728e-05
-1.39374e-06
-3.24921e-05
-2.11249e-06
-3.22055e-05
-2.83292e-06
-3.17705e-05
-3.55318e-06
-3.11993e-05
-4.27173e-06
-3.0491e-05
-4.99041e-06
-2.96417e-05
-5.70841e-06
-2.86577e-05
-6.42318e-06
-2.75444e-05
-7.13061e-06
-2.63061e-05
-7.82406e-06
-2.49482e-05
-8.49627e-06
-2.34742e-05
-9.1407e-06
-2.18867e-05
-9.75296e-06
-2.01889e-05
-1.03275e-05
-1.83882e-05
-1.08603e-05
-1.64937e-05
-1.13482e-05
-1.45102e-05
-1.17907e-05
-1.24465e-05
-1.21878e-05
-1.03131e-05
-1.25401e-05
-8.12131e-06
-1.28503e-05
-5.88169e-06
-1.31225e-05
-3.61159e-06
-1.33044e-06
-5.14407e-07
-3.07582e-05
-1.11554e-06
-3.18909e-05
-1.70886e-06
-3.16122e-05
-2.29586e-06
-3.11835e-05
-2.87486e-06
-3.06203e-05
-3.44089e-06
-2.9925e-05
-3.98879e-06
-2.90938e-05
-4.52475e-06
-2.81217e-05
-5.06346e-06
-2.70057e-05
-5.61646e-06
-2.57531e-05
-6.18534e-06
-2.43793e-05
-6.76211e-06
-2.28974e-05
-7.32833e-06
-2.13206e-05
-7.86445e-06
-1.96527e-05
-8.36376e-06
-1.78898e-05
-8.82503e-06
-1.60326e-05
-9.24608e-06
-1.409e-05
-9.62746e-06
-1.2066e-05
-9.97127e-06
-9.97002e-06
-1.02787e-05
-7.81442e-06
-1.0557e-05
-5.60386e-06
-1.08115e-05
-3.35717e-06
-1.09073e-06
-3.75768e-07
-3.03825e-05
-8.99292e-07
-3.13673e-05
-1.40791e-06
-3.11035e-05
-1.89632e-06
-3.0695e-05
-2.36564e-06
-3.0151e-05
-2.8173e-06
-2.94733e-05
-3.24433e-06
-2.86667e-05
-3.64589e-06
-2.77202e-05
-4.01529e-06
-2.66362e-05
-4.35426e-06
-2.54141e-05
-4.68161e-06
-2.40519e-05
-5.01994e-06
-2.25591e-05
-5.38718e-06
-2.09534e-05
-5.79349e-06
-1.92468e-05
-6.22881e-06
-1.74543e-05
-6.67028e-06
-1.55921e-05
-7.08718e-06
-1.36739e-05
-7.45202e-06
-1.17021e-05
-7.76336e-06
-9.65947e-06
-8.03485e-06
-7.5436e-06
-8.28853e-06
-5.35055e-06
-8.53044e-06
-3.1155e-06
-8.65285e-07
-3.09669e-07
-3.00728e-05
-8.29346e-07
-3.08476e-05
-1.32856e-06
-3.06043e-05
-1.79815e-06
-3.02254e-05
-2.23998e-06
-2.97092e-05
-2.66406e-06
-2.90493e-05
-3.07246e-06
-2.82584e-05
-3.4507e-06
-2.73419e-05
-3.78829e-06
-2.62986e-05
-4.07305e-06
-2.51293e-05
-4.29375e-06
-2.38312e-05
-4.4517e-06
-2.24011e-05
-4.56136e-06
-2.08438e-05
-4.63635e-06
-1.91717e-05
-4.70045e-06
-1.7391e-05
-4.78509e-06
-1.55079e-05
-4.92648e-06
-1.35336e-05
-5.14716e-06
-1.14824e-05
-5.42695e-06
-9.38061e-06
-5.70565e-06
-7.26559e-06
-5.95105e-06
-5.10561e-06
-6.21005e-06
-2.85677e-06
-5.45036e-07
-3.65599e-07
-2.97073e-05
-9.45821e-07
-3.02676e-05
-1.51356e-06
-3.00367e-05
-2.05294e-06
-2.96862e-05
-2.55961e-06
-2.92026e-05
-3.01728e-06
-2.85918e-05
-3.42345e-06
-2.78523e-05
-3.77791e-06
-2.69876e-05
-4.078e-06
-2.59987e-05
-4.32118e-06
-2.48863e-05
-4.50183e-06
-2.36507e-05
-4.60915e-06
-2.2294e-05
-4.64115e-06
-2.08119e-05
-4.60443e-06
-1.92089e-05
-4.50212e-06
-1.74936e-05
-4.34144e-06
-1.56693e-05
-4.13714e-06
-1.37386e-05
-3.91467e-06
-1.17056e-05
-3.72012e-06
-9.57579e-06
-3.63058e-06
-7.35565e-06
-3.68589e-06
-5.05069e-06
-3.85813e-06
-2.68469e-06
-3.10662e-07
-3.99499e-07
-1.00835e-06
-1.60077e-06
-2.16356e-06
-2.69138e-06
-3.17908e-06
-3.61946e-06
-4.00811e-06
-4.34024e-06
-4.61037e-06
-4.81253e-06
-4.9409e-06
-4.98581e-06
-4.94137e-06
-4.80808e-06
-4.58726e-06
-4.28209e-06
-3.89989e-06
-3.45503e-06
-2.97191e-06
-2.49571e-06
-2.11731e-06
)
;

boundaryField
{
    leftWall
    {
        type            fixedValue;
        value           uniform 0;
    }
    rightWall
    {
        type            fixedValue;
        value           nonuniform 0();
    }
    lowerWall
    {
        type            fixedValue;
        value           nonuniform 0();
    }
    atmosphere
    {
        type            calculated;
        value           nonuniform List<scalar> 
23
(
-2.93079e-05
-2.96588e-05
-2.94444e-05
-2.91235e-05
-2.86749e-05
-2.81042e-05
-2.74121e-05
-2.65991e-05
-2.56667e-05
-2.46163e-05
-2.34486e-05
-2.21657e-05
-2.07671e-05
-1.92534e-05
-1.76271e-05
-1.58904e-05
-1.40441e-05
-1.2088e-05
-1.00208e-05
-7.83894e-06
-5.52698e-06
-3.06319e-06
-4.35353e-07
)
;
    }
    defaultFaces
    {
        type            empty;
        value           nonuniform 0();
    }
    procBoundary2to0
    {
        type            processor;
        value           nonuniform List<scalar> 
24
(
6.48312e-05
4.20718e-05
2.05006e-05
7.51683e-06
-4.2222e-06
-1.09231e-05
-1.39665e-05
6.20061e-05
6.5082e-05
6.62817e-05
6.76454e-05
6.88887e-05
6.99746e-05
7.07887e-05
7.11861e-05
7.14596e-05
7.25165e-05
7.60037e-05
7.88472e-05
7.84801e-05
7.65808e-05
7.1868e-05
8.49346e-05
6.84468e-05
)
;
    }
    procBoundary2to3
    {
        type            processor;
        value           nonuniform List<scalar> 
25
(
-8.06275e-05
-7.22382e-05
-6.74697e-05
-6.47754e-05
-6.07938e-05
-5.62517e-05
-5.18272e-05
-4.78775e-05
-4.42237e-05
-4.07463e-05
-3.74848e-05
-3.43649e-05
-3.13836e-05
-2.8525e-05
-2.57801e-05
-2.31357e-05
-2.05832e-05
-1.81112e-05
-1.57054e-05
-1.33571e-05
-1.10511e-05
-8.75578e-06
-6.53027e-06
-4.09266e-06
-1.99266e-06
)
;
    }
}


// ************************************************************************* //
