/*--------------------------------*- C++ -*----------------------------------*\
| =========                 |                                                 |
| \\      /  F ield         | OpenFOAM: The Open Source CFD Toolbox           |
|  \\    /   O peration     | Version:  2.4.0                                 |
|   \\  /    A nd           | Web:      www.OpenFOAM.org                      |
|    \\/     M anipulation  |                                                 |
\*---------------------------------------------------------------------------*/
FoamFile
{
    version     2.0;
    format      ascii;
    class       volVectorField;
    location    "0.25";
    object      U.water;
}
// * * * * * * * * * * * * * * * * * * * * * * * * * * * * * * * * * * * * * //

dimensions      [0 1 -1 0 0 0 0];

internalField   nonuniform List<vector> 
559
(
(-0.483657 -0.273245 0)
(-0.533526 -0.138885 0)
(-0.551449 -0.0584881 0)
(-0.551337 -0.0335343 0)
(-0.515749 -0.00893523 0)
(-0.473103 0.035248 0)
(-0.445158 0.0651758 0)
(-0.00235818 -0.332656 0)
(-0.00870619 -0.347723 0)
(-0.0180099 -0.351907 0)
(-0.0311686 -0.356912 0)
(-0.046908 -0.362197 0)
(-0.065981 -0.367526 0)
(-0.0878115 -0.372937 0)
(-0.110711 -0.375689 0)
(-0.131593 -0.376437 0)
(-0.155156 -0.379873 0)
(-0.183692 -0.390036 0)
(-0.226557 -0.400338 0)
(-0.276036 -0.393452 0)
(-0.328318 -0.378457 0)
(-0.390077 -0.362833 0)
(-0.450834 -0.337117 0)
(-0.503314 -0.275811 0)
(-0.524361 -0.1796 0)
(-0.510503 -0.111124 0)
(-0.48725 -0.0781378 0)
(-0.459954 -0.0399658 0)
(-0.429679 0.00524847 0)
(-0.400124 0.033626 0)
(-0.00462016 -0.323133 0)
(-0.0152142 -0.33686 0)
(-0.0267756 -0.338932 0)
(-0.040056 -0.342729 0)
(-0.0550512 -0.346313 0)
(-0.0711388 -0.348973 0)
(-0.0888084 -0.35018 0)
(-0.107001 -0.35096 0)
(-0.125321 -0.352515 0)
(-0.146803 -0.356985 0)
(-0.178393 -0.36121 0)
(-0.218422 -0.356671 0)
(-0.255719 -0.346573 0)
(-0.298541 -0.330845 0)
(-0.344007 -0.303806 0)
(-0.39593 -0.273284 0)
(-0.436889 -0.22982 0)
(-0.444479 -0.165613 0)
(-0.432176 -0.111158 0)
(-0.418947 -0.0882848 0)
(-0.406921 -0.0628782 0)
(-0.383301 -0.0216158 0)
(-0.367313 0.00690513 0)
(-0.00508489 -0.312981 0)
(-0.0165126 -0.325946 0)
(-0.0284988 -0.327162 0)
(-0.0417532 -0.329513 0)
(-0.0561854 -0.331694 0)
(-0.0717177 -0.333826 0)
(-0.087988 -0.335664 0)
(-0.104784 -0.336434 0)
(-0.122652 -0.335924 0)
(-0.144855 -0.334137 0)
(-0.171711 -0.32897 0)
(-0.19715 -0.322239 0)
(-0.22735 -0.311947 0)
(-0.257009 -0.292334 0)
(-0.285585 -0.271153 0)
(-0.313758 -0.245701 0)
(-0.339809 -0.217339 0)
(-0.363919 -0.182403 0)
(-0.37213 -0.135307 0)
(-0.362907 -0.0884277 0)
(-0.360664 -0.0662704 0)
(-0.353133 -0.0377869 0)
(-0.347156 0.00675181 0)
(-0.00578934 -0.299878 0)
(-0.0185302 -0.312038 0)
(-0.0315056 -0.311961 0)
(-0.0450675 -0.312464 0)
(-0.0593544 -0.313169 0)
(-0.0746292 -0.313467 0)
(-0.0908645 -0.313114 0)
(-0.108038 -0.311906 0)
(-0.126891 -0.309896 0)
(-0.147488 -0.306505 0)
(-0.168401 -0.300799 0)
(-0.19238 -0.291419 0)
(-0.21908 -0.276883 0)
(-0.24446 -0.263636 0)
(-0.269215 -0.247235 0)
(-0.288574 -0.220512 0)
(-0.305207 -0.185758 0)
(-0.321915 -0.14933 0)
(-0.329136 -0.120653 0)
(-0.336195 -0.101457 0)
(-0.332471 -0.0738115 0)
(-0.329051 -0.0354523 0)
(-0.33167 0.00557732 0)
(-0.00557124 -0.29142 0)
(-0.0176076 -0.302828 0)
(-0.0300931 -0.302775 0)
(-0.0430842 -0.303222 0)
(-0.0568026 -0.303148 0)
(-0.0713549 -0.302604 0)
(-0.0868343 -0.301394 0)
(-0.103528 -0.299355 0)
(-0.122031 -0.296379 0)
(-0.142653 -0.29192 0)
(-0.164794 -0.284 0)
(-0.18568 -0.272425 0)
(-0.204368 -0.262271 0)
(-0.225472 -0.246377 0)
(-0.247438 -0.22492 0)
(-0.267954 -0.20376 0)
(-0.283758 -0.181167 0)
(-0.292408 -0.154756 0)
(-0.300055 -0.122031 0)
(-0.304956 -0.0882133 0)
(-0.308942 -0.0625603 0)
(-0.312911 -0.0380623 0)
(-0.307117 -0.00302218 0)
(-0.00558778 -0.276659 0)
(-0.0176467 -0.287318 0)
(-0.0299345 -0.286368 0)
(-0.0428209 -0.285591 0)
(-0.0564212 -0.284471 0)
(-0.0709102 -0.282727 0)
(-0.086356 -0.280209 0)
(-0.102885 -0.276825 0)
(-0.120388 -0.272309 0)
(-0.138385 -0.266161 0)
(-0.155912 -0.259206 0)
(-0.173074 -0.251213 0)
(-0.19136 -0.237591 0)
(-0.208998 -0.221954 0)
(-0.224001 -0.204735 0)
(-0.239554 -0.183253 0)
(-0.256787 -0.156957 0)
(-0.272825 -0.128845 0)
(-0.280029 -0.105956 0)
(-0.281288 -0.090356 0)
(-0.281861 -0.0705508 0)
(-0.285697 -0.0369847 0)
(-0.285031 -0.00753013 0)
(-0.00562492 -0.268636 0)
(-0.0176826 -0.278901 0)
(-0.0298251 -0.277917 0)
(-0.0422534 -0.277038 0)
(-0.0550003 -0.275562 0)
(-0.0680864 -0.273433 0)
(-0.0815881 -0.270539 0)
(-0.0956228 -0.266776 0)
(-0.110425 -0.261956 0)
(-0.125994 -0.255598 0)
(-0.142567 -0.246796 0)
(-0.160207 -0.234879 0)
(-0.177902 -0.222341 0)
(-0.195236 -0.208074 0)
(-0.212742 -0.191306 0)
(-0.226546 -0.173143 0)
(-0.235746 -0.156551 0)
(-0.241454 -0.138865 0)
(-0.248273 -0.114298 0)
(-0.253061 -0.0837726 0)
(-0.261276 -0.056746 0)
(-0.263866 -0.0370781 0)
(-0.260008 -0.0151762 0)
(-0.00542595 -0.253333 0)
(-0.0170697 -0.262936 0)
(-0.028784 -0.261588 0)
(-0.0407978 -0.26015 0)
(-0.0531543 -0.258085 0)
(-0.0659173 -0.25531 0)
(-0.079101 -0.251697 0)
(-0.0927288 -0.247094 0)
(-0.106743 -0.241264 0)
(-0.121035 -0.233977 0)
(-0.135324 -0.225452 0)
(-0.149349 -0.216623 0)
(-0.162831 -0.205511 0)
(-0.17561 -0.191602 0)
(-0.186945 -0.175689 0)
(-0.198643 -0.158392 0)
(-0.210675 -0.137332 0)
(-0.223244 -0.114835 0)
(-0.232021 -0.095205 0)
(-0.236237 -0.0797964 0)
(-0.237164 -0.0609823 0)
(-0.239191 -0.0375789 0)
(-0.239704 -0.0158246 0)
(-0.00518508 -0.246152 0)
(-0.0161477 -0.255613 0)
(-0.0271971 -0.25426 0)
(-0.038447 -0.252767 0)
(-0.0499828 -0.250582 0)
(-0.0618734 -0.247651 0)
(-0.074184 -0.243864 0)
(-0.0869228 -0.239095 0)
(-0.0999779 -0.233179 0)
(-0.113077 -0.225876 0)
(-0.126011 -0.216826 0)
(-0.138955 -0.205808 0)
(-0.15203 -0.193526 0)
(-0.164885 -0.180538 0)
(-0.177214 -0.16631 0)
(-0.187926 -0.150437 0)
(-0.196629 -0.13432 0)
(-0.202744 -0.117019 0)
(-0.20779 -0.0973203 0)
(-0.212848 -0.0756826 0)
(-0.217414 -0.0553964 0)
(-0.220017 -0.0366797 0)
(-0.220043 -0.0175153 0)
(-0.00490821 -0.232707 0)
(-0.0154265 -0.241476 0)
(-0.0259368 -0.239865 0)
(-0.0366184 -0.237918 0)
(-0.0474675 -0.23523 0)
(-0.0584954 -0.231766 0)
(-0.0697006 -0.227462 0)
(-0.0810746 -0.22224 0)
(-0.0926179 -0.216027 0)
(-0.104353 -0.208801 0)
(-0.116184 -0.200587 0)
(-0.127801 -0.19134 0)
(-0.138882 -0.180609 0)
(-0.149359 -0.168007 0)
(-0.159224 -0.153974 0)
(-0.168504 -0.138974 0)
(-0.177058 -0.122586 0)
(-0.18491 -0.105471 0)
(-0.191305 -0.0884081 0)
(-0.195606 -0.0715477 0)
(-0.198381 -0.0539423 0)
(-0.200874 -0.0356691 0)
(-0.202001 -0.0174669 0)
(-0.00465286 -0.224934 0)
(-0.0144625 -0.233613 0)
(-0.024291 -0.232051 0)
(-0.034232 -0.230141 0)
(-0.0443148 -0.227487 0)
(-0.0545609 -0.22404 0)
(-0.064973 -0.21972 0)
(-0.0755204 -0.214433 0)
(-0.0861283 -0.208076 0)
(-0.0966904 -0.200555 0)
(-0.107131 -0.191801 0)
(-0.117437 -0.181824 0)
(-0.127564 -0.17079 0)
(-0.137292 -0.158874 0)
(-0.146367 -0.145933 0)
(-0.154628 -0.131877 0)
(-0.161939 -0.116999 0)
(-0.16818 -0.101276 0)
(-0.17346 -0.0847431 0)
(-0.177707 -0.0677073 0)
(-0.180906 -0.0508227 0)
(-0.183471 -0.0340931 0)
(-0.18487 -0.0171143 0)
(-0.00430313 -0.21449 0)
(-0.0134406 -0.222713 0)
(-0.0225641 -0.221048 0)
(-0.0317704 -0.218928 0)
(-0.0410695 -0.21603 0)
(-0.0504667 -0.212336 0)
(-0.0599548 -0.207808 0)
(-0.0695126 -0.202404 0)
(-0.0791056 -0.196092 0)
(-0.088681 -0.188843 0)
(-0.0981522 -0.180621 0)
(-0.107394 -0.171384 0)
(-0.116285 -0.161054 0)
(-0.12476 -0.149592 0)
(-0.132752 -0.137125 0)
(-0.140133 -0.123792 0)
(-0.14679 -0.109648 0)
(-0.152658 -0.0948833 0)
(-0.157623 -0.0796444 0)
(-0.161529 -0.0640486 0)
(-0.164451 -0.0482503 0)
(-0.166924 -0.0323755 0)
(-0.168586 -0.0163265 0)
(-0.00399539 -0.206587 0)
(-0.0124059 -0.214624 0)
(-0.020808 -0.212976 0)
(-0.0292625 -0.210828 0)
(-0.0377802 -0.207905 0)
(-0.0463573 -0.204183 0)
(-0.0549825 -0.199623 0)
(-0.0636296 -0.194185 0)
(-0.0722594 -0.187829 0)
(-0.0808215 -0.180525 0)
(-0.089258 -0.172261 0)
(-0.0975059 -0.163043 0)
(-0.105486 -0.152908 0)
(-0.113092 -0.141901 0)
(-0.120216 -0.130039 0)
(-0.126778 -0.117364 0)
(-0.1327 -0.10398 0)
(-0.137924 -0.0899773 0)
(-0.142418 -0.0754667 0)
(-0.146089 -0.060595 0)
(-0.148918 -0.0455836 0)
(-0.151284 -0.0305389 0)
(-0.153046 -0.0153187 0)
(-0.00364295 -0.198434 0)
(-0.0113018 -0.206191 0)
(-0.0189601 -0.20453 0)
(-0.0266448 -0.202311 0)
(-0.0343741 -0.199312 0)
(-0.0421393 -0.195523 0)
(-0.0499278 -0.190924 0)
(-0.0577162 -0.185495 0)
(-0.0654704 -0.179218 0)
(-0.0731444 -0.172079 0)
(-0.0806819 -0.164068 0)
(-0.0880174 -0.155182 0)
(-0.0950824 -0.145426 0)
(-0.101811 -0.134824 0)
(-0.108136 -0.123432 0)
(-0.113982 -0.111317 0)
(-0.119284 -0.0985579 0)
(-0.123995 -0.0852505 0)
(-0.12808 -0.0714898 0)
(-0.131473 -0.0573785 0)
(-0.134144 -0.0430679 0)
(-0.136376 -0.0286896 0)
(-0.138164 -0.0141676 0)
(-0.00329968 -0.191436 0)
(-0.0101897 -0.198993 0)
(-0.0170972 -0.197351 0)
(-0.0240103 -0.195101 0)
(-0.0309563 -0.192077 0)
(-0.03792 -0.188269 0)
(-0.0448886 -0.183665 0)
(-0.0518398 -0.178251 0)
(-0.0587432 -0.172017 0)
(-0.06556 -0.164958 0)
(-0.0722445 -0.157075 0)
(-0.0787453 -0.148378 0)
(-0.0850055 -0.138889 0)
(-0.0909654 -0.12864 0)
(-0.0965646 -0.117671 0)
(-0.10175 -0.106037 0)
(-0.106471 -0.0938094 0)
(-0.110689 -0.0810672 0)
(-0.114382 -0.0678974 0)
(-0.117506 -0.0543908 0)
(-0.120016 -0.0406721 0)
(-0.12211 -0.026866 0)
(-0.123867 -0.0129393 0)
(-0.00294126 -0.184997 0)
(-0.00904714 -0.192352 0)
(-0.0151999 -0.190727 0)
(-0.0213385 -0.188448 0)
(-0.0275071 -0.185401 0)
(-0.033685 -0.181581 0)
(-0.0398603 -0.176984 0)
(-0.0460128 -0.171607 0)
(-0.0521143 -0.165447 0)
(-0.05813 -0.158506 0)
(-0.0640196 -0.150789 0)
(-0.0697389 -0.14231 0)
(-0.0752415 -0.133087 0)
(-0.0804805 -0.123152 0)
(-0.0854106 -0.112547 0)
(-0.0899867 -0.101325 0)
(-0.0941696 -0.0895497 0)
(-0.0979298 -0.0772926 0)
(-0.101248 -0.0646302 0)
(-0.104098 -0.0516407 0)
(-0.106438 -0.0384248 0)
(-0.108392 -0.0251016 0)
(-0.110086 -0.0116775 0)
(-0.00257396 -0.179388 0)
(-0.00788515 -0.186561 0)
(-0.013284 -0.184959 0)
(-0.0186484 -0.182655 0)
(-0.0240459 -0.179592 0)
(-0.0294486 -0.175767 0)
(-0.0348477 -0.171179 0)
(-0.0402259 -0.165832 0)
(-0.0455577 -0.159734 0)
(-0.0508115 -0.15289 0)
(-0.0559519 -0.145311 0)
(-0.0609407 -0.137012 0)
(-0.0657393 -0.128014 0)
(-0.0703101 -0.118348 0)
(-0.0746153 -0.108055 0)
(-0.0786215 -0.0971823 0)
(-0.0822985 -0.0857869 0)
(-0.0856222 -0.0739328 0)
(-0.0885797 -0.0616891 0)
(-0.0911556 -0.0491269 0)
(-0.0933173 -0.0363309 0)
(-0.0951381 -0.0234097 0)
(-0.0967557 -0.0104017 0)
(-0.0021848 -0.174533 0)
(-0.00669338 -0.181516 0)
(-0.0113481 -0.179934 0)
(-0.0159396 -0.177604 0)
(-0.0205693 -0.174526 0)
(-0.0252023 -0.170695 0)
(-0.0298347 -0.166112 0)
(-0.0344575 -0.160794 0)
(-0.0390481 -0.154753 0)
(-0.0435771 -0.148001 0)
(-0.0480108 -0.140549 0)
(-0.0523138 -0.132413 0)
(-0.0564528 -0.123613 0)
(-0.0603971 -0.114178 0)
(-0.064119 -0.104147 0)
(-0.0675893 -0.0935669 0)
(-0.0707848 -0.0824876 0)
(-0.0736903 -0.0709659 0)
(-0.0762967 -0.0590653 0)
(-0.078598 -0.0468512 0)
(-0.080574 -0.0343967 0)
(-0.0822649 -0.0218015 0)
(-0.0837965 -0.009128 0)
(-0.00176535 -0.170461 0)
(-0.00547688 -0.177205 0)
(-0.00941806 -0.175644 0)
(-0.0132448 -0.173298 0)
(-0.017106 -0.170216 0)
(-0.0209621 -0.16639 0)
(-0.0248094 -0.161826 0)
(-0.0286551 -0.156541 0)
(-0.0324921 -0.15055 0)
(-0.0363046 -0.143866 0)
(-0.0400639 -0.13651 0)
(-0.0437312 -0.128502 0)
(-0.0472679 -0.119861 0)
(-0.0506426 -0.110614 0)
(-0.0538312 -0.100803 0)
(-0.0568082 -0.0904662 0)
(-0.0595534 -0.0796444 0)
(-0.0620581 -0.0683878 0)
(-0.0643223 -0.0567576 0)
(-0.0663473 -0.044816 0)
(-0.0681291 -0.0326254 0)
(-0.0696943 -0.0202771 0)
(-0.0711488 -0.00785125 0)
(-0.00130697 -0.167265 0)
(-0.00428015 -0.173655 0)
(-0.00761354 -0.172129 0)
(-0.0107301 -0.169792 0)
(-0.0138521 -0.16673 0)
(-0.0169445 -0.162949 0)
(-0.0199201 -0.158394 0)
(-0.0227967 -0.153073 0)
(-0.0256547 -0.147031 0)
(-0.028564 -0.140317 0)
(-0.0315694 -0.132977 0)
(-0.0346541 -0.125047 0)
(-0.0377511 -0.116554 0)
(-0.0407281 -0.107502 0)
(-0.0434924 -0.0978961 0)
(-0.0460791 -0.0877845 0)
(-0.0484551 -0.0772001 0)
(-0.0506132 -0.0661756 0)
(-0.052565 -0.0547669 0)
(-0.0543221 -0.0430345 0)
(-0.0558992 -0.0310277 0)
(-0.0573336 -0.0188533 0)
(-0.0587259 -0.00660521 0)
(-0.000843615 -0.165206 0)
(-0.00328169 -0.171068 0)
(-0.00626424 -0.169598 0)
(-0.00886483 -0.167307 0)
(-0.0114344 -0.164281 0)
(-0.0139063 -0.160533 0)
(-0.0162435 -0.156023 0)
(-0.0184818 -0.150759 0)
(-0.0205631 -0.144716 0)
(-0.0224436 -0.137902 0)
(-0.0241978 -0.130416 0)
(-0.0259482 -0.122325 0)
(-0.027807 -0.113691 0)
(-0.0298614 -0.104566 0)
(-0.0321576 -0.0950061 0)
(-0.0345385 -0.0850409 0)
(-0.0368887 -0.0747162 0)
(-0.0390355 -0.0640352 0)
(-0.0408134 -0.0529456 0)
(-0.0423796 -0.0414602 0)
(-0.0437887 -0.0295818 0)
(-0.0451205 -0.0173705 0)
(-0.046413 -0.00507977 0)
(-0.000555894 -0.163537 0)
(-0.00287959 -0.168492 0)
(-0.00589231 -0.16711 0)
(-0.00839463 -0.164947 0)
(-0.0108572 -0.162037 0)
(-0.0131156 -0.15836 0)
(-0.0153919 -0.15404 0)
(-0.0175137 -0.149 0)
(-0.0194385 -0.143239 0)
(-0.0211352 -0.136755 0)
(-0.0225097 -0.12949 0)
(-0.023499 -0.121467 0)
(-0.0242016 -0.112821 0)
(-0.0246781 -0.103609 0)
(-0.0250011 -0.0938634 0)
(-0.0253458 -0.0836292 0)
(-0.0258902 -0.0729888 0)
(-0.0268237 -0.0620547 0)
(-0.0282689 -0.0509381 0)
(-0.0298515 -0.0396762 0)
(-0.0313211 -0.0283168 0)
(-0.0326333 -0.0166744 0)
(-0.0342229 -0.0044504 0)
(-0.000667894 -0.159955 0)
(-0.00334579 -0.163063 0)
(-0.006712 -0.161824 0)
(-0.00957667 -0.159946 0)
(-0.0124155 -0.157362 0)
(-0.0150256 -0.154076 0)
(-0.0173297 -0.150073 0)
(-0.019369 -0.145421 0)
(-0.0211274 -0.140123 0)
(-0.0225876 -0.13418 0)
(-0.0237284 -0.127595 0)
(-0.0245302 -0.120346 0)
(-0.0248936 -0.112356 0)
(-0.0248701 -0.103662 0)
(-0.024489 -0.0943064 0)
(-0.0237657 -0.0843209 0)
(-0.0227585 -0.0737216 0)
(-0.0215671 -0.0625365 0)
(-0.0203566 -0.0508227 0)
(-0.0194867 -0.038637 0)
(-0.0193273 -0.0260985 0)
(-0.0200243 -0.0134866 0)
(-0.021484 -0.00122933 0)
(-0.000761252 -0.158144 0)
(-0.00359414 -0.160054 0)
(-0.00712577 -0.158896 0)
(-0.0101132 -0.157163 0)
(-0.0130494 -0.154739 0)
(-0.0157749 -0.151656 0)
(-0.0182684 -0.147918 0)
(-0.0204955 -0.143527 0)
(-0.0224329 -0.138492 0)
(-0.0240526 -0.13282 0)
(-0.0253235 -0.126516 0)
(-0.0262149 -0.119589 0)
(-0.0266831 -0.11204 0)
(-0.0266854 -0.103871 0)
(-0.0262082 -0.0950931 0)
(-0.0252563 -0.0857201 0)
(-0.023841 -0.0757554 0)
(-0.0219891 -0.065199 0)
(-0.0197564 -0.0540431 0)
(-0.0172473 -0.0422694 0)
(-0.0146394 -0.0297956 0)
(-0.0122625 -0.016506 0)
(-0.0106013 -0.00233871 0)
)
;

boundaryField
{
    leftWall
    {
        type            fixedValue;
        value           uniform (0 0 0);
    }
    rightWall
    {
        type            fixedValue;
        value           nonuniform 0();
    }
    lowerWall
    {
        type            fixedValue;
        value           nonuniform 0();
    }
    atmosphere
    {
        type            fluxCorrectedVelocity;
        value           nonuniform List<vector> 
23
(
(-0.000761252 -0.158126 0)
(-0.00359414 -0.160019 0)
(-0.00712577 -0.158862 0)
(-0.0101132 -0.15713 0)
(-0.0130494 -0.15471 0)
(-0.0157749 -0.15163 0)
(-0.0182684 -0.147895 0)
(-0.0204955 -0.143508 0)
(-0.0224329 -0.138477 0)
(-0.0240526 -0.132809 0)
(-0.0253235 -0.126508 0)
(-0.0262149 -0.119585 0)
(-0.0266831 -0.112038 0)
(-0.0266854 -0.103869 0)
(-0.0262082 -0.095092 0)
(-0.0252563 -0.08572 0)
(-0.023841 -0.0757572 0)
(-0.0219891 -0.0652036 0)
(-0.0197564 -0.0540511 0)
(-0.0172473 -0.0422805 0)
(-0.0146394 -0.0298087 0)
(-0.0122625 -0.0165177 0)
(-0.0106013 -0.00234142 0)
)
;
    }
    defaultFaces
    {
        type            empty;
    }
    procBoundary2to0
    {
        type            processor;
        value           nonuniform List<vector> 
24
(
(-0.348258 -0.432745 0)
(-0.426262 -0.305233 0)
(-0.477586 -0.153097 0)
(-0.506733 -0.0297258 0)
(-0.510596 0.0735767 0)
(-0.496576 0.10822 0)
(-0.477797 0.107772 0)
(-0.00102789 -0.318707 0)
(-0.00407905 -0.337741 0)
(-0.00779937 -0.347723 0)
(-0.0154852 -0.35964 0)
(-0.0289691 -0.371473 0)
(-0.0487924 -0.382553 0)
(-0.0742453 -0.391669 0)
(-0.104029 -0.397524 0)
(-0.134137 -0.400757 0)
(-0.157855 -0.407592 0)
(-0.189314 -0.423702 0)
(-0.226193 -0.446278 0)
(-0.265014 -0.452229 0)
(-0.307514 -0.436775 0)
(-0.362422 -0.409979 0)
(-0.423481 -0.361662 0)
(-0.423481 -0.361662 0)
)
;
    }
    procBoundary2to3
    {
        type            processor;
        value           nonuniform List<vector> 
25
(
(-0.423576 0.0766814 0)
(-0.380155 0.0346079 0)
(-0.360015 0.0292106 0)
(-0.347777 0.0292854 0)
(-0.323127 0.021685 0)
(-0.299269 0.0144728 0)
(-0.275881 0.0053435 0)
(-0.256228 0.000969687 0)
(-0.236818 -0.00322835 0)
(-0.218635 -0.00421478 0)
(-0.201246 -0.00485915 0)
(-0.184595 -0.00486982 0)
(-0.168634 -0.00460271 0)
(-0.153316 -0.00409472 0)
(-0.138598 -0.00341237 0)
(-0.124423 -0.00260688 0)
(-0.110737 -0.00171825 0)
(-0.0974795 -0.000757521 0)
(-0.0845871 0.000254758 0)
(-0.0719905 0.00132222 0)
(-0.0596239 0.00245665 0)
(-0.0473351 0.00381148 0)
(-0.0354173 0.00479996 0)
(-0.022374 0.00740693 0)
(-0.0106591 0.0077768 0)
)
;
    }
}


// ************************************************************************* //
