/*--------------------------------*- C++ -*----------------------------------*\
| =========                 |                                                 |
| \\      /  F ield         | OpenFOAM: The Open Source CFD Toolbox           |
|  \\    /   O peration     | Version:  2.4.0                                 |
|   \\  /    A nd           | Web:      www.OpenFOAM.org                      |
|    \\/     M anipulation  |                                                 |
\*---------------------------------------------------------------------------*/
FoamFile
{
    version     2.0;
    format      ascii;
    class       volScalarField;
    location    "0.1";
    object      alpha.oil;
}
// * * * * * * * * * * * * * * * * * * * * * * * * * * * * * * * * * * * * * //

dimensions      [0 0 0 0 0 0 0];

internalField   nonuniform List<scalar> 
2268
(
7.76867e-66
1.63572e-62
2.55181e-59
3.41663e-56
4.26158e-53
6.69854e-50
9.1267e-47
1.51139e-43
2.51863e-40
1.22828e-18
1.00093e-16
3.16034e-11
2.31455e-05
0.000156495
0.00084304
0.00461211
0.025039
0.145456
0.504615
0.86159
0.983559
0.999479
0.999998
4.4664e-63
8.74936e-60
1.24722e-56
1.45577e-53
1.55572e-50
2.05501e-47
2.30445e-44
3.0797e-41
3.89212e-38
3.91895e-17
1.89208e-15
8.97845e-09
8.24945e-05
0.000641086
0.00345927
0.0170151
0.110708
0.498896
0.894555
0.986229
0.998594
0.999963
0.999998
1.25493e-60
2.28207e-57
2.97153e-54
3.03623e-51
2.78579e-48
3.09742e-45
2.86763e-42
3.09043e-39
2.92609e-36
5.93494e-16
1.76351e-14
2.03275e-07
0.000307141
0.00310047
0.0175704
0.0839033
0.414903
0.861697
0.991735
0.99979
0.999989
0.999998
0.999999
2.30577e-58
3.88083e-55
4.61652e-52
4.14761e-49
3.27493e-46
3.07031e-43
2.35259e-40
2.0441e-37
1.43002e-34
5.72057e-15
1.15604e-13
1.07889e-06
0.000967064
0.0107148
0.0658588
0.331006
0.798467
0.986487
0.999868
0.999998
0.999998
0.999998
0.999998
3.12532e-56
4.85451e-53
5.27789e-50
4.18751e-47
2.85255e-44
2.2591e-41
1.4352e-38
1.00554e-35
5.13921e-33
3.93952e-14
6.16947e-13
2.27855e-06
0.0026612
0.0325583
0.221206
0.692487
0.967768
0.999489
0.999999
0.999999
0.999999
0.999999
0.999998
3.33886e-54
4.77928e-51
4.75031e-48
3.34152e-45
1.96872e-42
1.31938e-39
6.95934e-37
3.93305e-34
1.45261e-31
1.97153e-13
3.06776e-12
3.11321e-06
0.00781228
0.102645
0.520997
0.915153
0.997282
0.999989
0.999999
0.999999
0.999999
0.999999
0.999998
2.93036e-52
3.86996e-49
3.51513e-46
2.19971e-43
1.12354e-40
6.38193e-38
2.79872e-35
1.27591e-32
3.36163e-30
5.82439e-13
9.8677e-12
2.5923e-06
0.0287786
0.300436
0.795744
0.985768
0.999859
0.999999
0.999999
0.999999
0.999999
0.999999
0.999998
2.17352e-50
2.65882e-47
2.2042e-44
1.23051e-41
5.45936e-39
2.63242e-36
9.61309e-34
3.53449e-31
6.57356e-29
2.45027e-13
1.70023e-11
0.000102249
0.100076
0.573448
0.935911
0.998214
0.999992
0.999999
0.999999
0.999999
0.999999
0.999999
0.999998
2.51502e-10
3.16203e-09
2.94691e-08
1.93442e-07
6.18522e-07
7.44136e-07
6.16263e-07
2.52099e-07
2.26146e-08
1.91082e-09
2.9489e-08
1.60829e-10
3.25741e-13
1.04047e-14
2.46306e-16
4.2161e-18
4.96939e-20
3.63664e-22
1.25424e-24
7.90394e-09
7.50887e-08
4.83487e-07
2.14814e-06
5.34042e-06
5.65028e-06
9.50764e-06
1.19045e-05
1.31923e-06
4.12839e-05
1.09656e-05
4.60753e-07
1.32683e-08
2.72475e-10
4.11682e-12
4.63239e-14
3.65869e-16
1.79978e-18
4.1552e-21
1.10122e-07
7.67642e-07
3.3955e-06
8.48035e-06
1.40154e-05
1.28757e-05
5.88751e-05
0.000289222
0.000877894
0.000399996
1.28806e-05
1.23244e-06
8.26193e-08
3.60256e-09
1.04161e-10
2.02372e-12
2.57576e-14
1.95432e-16
6.709e-19
8.26078e-07
4.40026e-06
1.65002e-05
1.70639e-05
2.65143e-05
0.000342851
0.00358344
0.00811973
0.00216269
3.66475e-05
5.15386e-06
6.17416e-07
5.15035e-08
2.87213e-09
1.07599e-10
2.69829e-12
4.38405e-14
4.20853e-16
1.824e-18
3.6176e-05
7.84863e-05
0.00400164
0.00463852
0.0045484
0.0111435
0.0300563
0.0102327
0.000239589
6.40614e-06
1.77381e-06
2.39041e-07
2.02026e-08
1.17047e-09
4.78863e-11
1.37795e-12
2.67939e-14
3.18081e-16
1.74585e-18
3.81637e-05
0.0287478
0.182302
0.181633
0.140071
0.113659
0.0496525
0.00228533
1.28263e-05
4.12873e-06
8.65261e-07
1.10186e-07
9.48565e-09
5.82466e-10
2.57121e-11
8.16416e-13
1.74707e-14
2.26583e-16
1.3459e-18
4.72904e-05
0.396783
0.775511
0.772704
0.623351
0.275486
0.0223502
0.000157977
9.99951e-06
2.63237e-06
4.55359e-07
5.47136e-08
4.68527e-09
2.90946e-10
1.30983e-11
4.1856e-13
9.01968e-15
1.17782e-16
7.04659e-19
0.674626
0.902535
0.988074
0.979432
0.832252
0.256752
0.0118131
3.87004e-05
6.12033e-06
1.32334e-06
2.21372e-07
2.58251e-08
2.14934e-09
1.30139e-10
5.72879e-12
1.79328e-13
3.79487e-15
4.8815e-17
2.88741e-19
1.39178e-48
1.58583e-45
1.1976e-42
5.97776e-40
2.30627e-37
9.45652e-35
2.88195e-32
8.54234e-30
1.16288e-27
1.23793e-10
5.33493e-06
0.00312291
0.275248
0.803698
0.988408
0.999899
0.999999
0.999999
0.999999
0.999999
0.999999
0.999999
0.999999
1.50352e-46
1.60329e-43
1.09872e-40
4.91162e-38
1.64856e-35
5.76003e-33
1.47361e-30
3.50498e-28
3.38617e-26
6.6124e-09
4.64685e-05
0.00974768
0.404396
0.899676
0.998221
0.999998
1
1
1
1
1
1
0.999999
1.36171e-44
1.36374e-41
8.44846e-39
3.41412e-36
1.00503e-33
2.98095e-31
6.48086e-29
1.23425e-26
8.55574e-25
3.27337e-08
8.5474e-05
0.00938361
0.32147
0.852375
0.995402
0.999992
1
1
1
1
1
1
1
1.06649e-42
1.00542e-39
5.58946e-37
2.04361e-34
5.42923e-32
1.36436e-29
2.56535e-27
3.9305e-25
1.91495e-23
2.45991e-08
2.8893e-05
0.00254619
0.197714
0.726493
0.979455
0.999825
1
1
1
1
1
1
1
7.23111e-41
6.79585e-38
3.19271e-35
1.04395e-32
2.45947e-30
5.04628e-28
8.00362e-26
9.752e-24
3.47946e-22
1.38525e-12
1.15926e-06
0.000545267
0.163581
0.668267
0.966615
0.999516
0.999999
1
1
1
1
1
1
3.63459e-39
3.2569e-36
1.40025e-33
4.0697e-31
8.83686e-29
1.53456e-26
2.0976e-24
2.07197e-22
5.60225e-21
5.80204e-20
1.65317e-07
0.000515468
0.173736
0.675132
0.967078
0.999511
0.999999
1
1
1
1
1
1
1.47524e-37
1.24388e-34
4.93844e-32
1.29776e-29
2.54243e-27
3.87631e-25
4.60846e-23
3.76995e-21
7.88168e-20
6.49745e-19
1.30739e-07
0.000501195
0.194981
0.706702
0.973842
0.999663
1
1
1
1
1
1
1
5.00832e-36
3.9575e-33
1.4568e-30
3.49925e-28
6.19502e-26
8.40541e-24
8.75496e-22
5.95088e-20
9.68749e-19
6.48542e-18
1.03986e-07
0.000506978
0.229435
0.75469
0.982721
0.999839
1
1
1
1
1
1
1
1.46363e-34
1.08062e-31
3.69416e-29
8.13858e-27
1.30485e-24
1.58619e-22
1.45377e-20
8.17543e-19
1.04251e-17
5.76417e-17
8.26837e-08
0.000504098
0.274768
0.807321
0.990018
0.999938
1
1
1
1
1
1
1
3.76313e-33
2.58587e-30
8.2027e-28
1.65935e-25
2.41609e-23
2.63796e-21
2.13161e-19
9.80495e-18
9.78989e-17
4.51416e-16
6.13182e-08
0.000503641
0.331173
0.858979
0.995026
0.999981
1
1
1
1
1
1
1
8.65848e-32
5.51155e-29
1.61898e-26
3.00643e-24
3.97733e-22
3.90232e-20
2.77445e-18
1.02665e-16
7.99958e-16
3.08419e-15
4.46956e-08
0.000503994
0.398906
0.905225
0.997905
0.999996
1
1
1
1
1
1
1
1.80724e-30
1.06029e-27
2.87549e-25
4.89408e-23
5.87593e-21
5.1709e-19
3.21844e-17
9.3599e-16
5.678e-15
1.82776e-14
3.01335e-08
0.000502186
0.478366
0.943081
0.999281
0.999999
1
1
1
1
1
1
1
3.45911e-29
1.86139e-26
4.64469e-24
7.22715e-22
7.85263e-20
6.17224e-18
3.33571e-16
7.37274e-15
3.49192e-14
9.48626e-14
2.008e-08
0.00048985
0.572467
0.971226
0.999815
1
1
1
1
1
1
1
0.999999
6.1282e-28
3.01078e-25
6.88121e-23
9.75398e-21
9.55469e-19
6.66473e-17
3.09173e-15
4.93631e-14
1.8304e-13
4.45522e-13
1.40275e-08
0.000474149
0.68903
0.989222
0.999969
1
1
1
1
0.999999
0.999995
0.999972
0.998987
1.01135e-26
4.52211e-24
9.42175e-22
1.21062e-19
1.0635e-17
6.52393e-16
2.55603e-14
2.73796e-13
7.69157e-13
1.63382e-12
6.48797e-08
0.00191192
0.826552
0.997346
0.999993
0.999993
0.99998
0.999936
0.999782
0.999244
0.997506
0.991729
0.929489
1.55724e-25
6.33108e-23
1.19959e-20
1.3909e-18
1.08701e-16
5.77349e-15
1.86226e-13
1.24258e-12
2.28348e-12
2.74204e-11
2.27242e-06
0.0152041
0.923568
0.997969
0.997844
0.99624
0.992676
0.984892
0.96841
0.935403
0.876536
0.76519
0.417075
2.23796e-24
8.26999e-22
1.42252e-19
1.48187e-17
1.0195e-15
4.55031e-14
1.15914e-12
5.22063e-12
8.65323e-11
3.54432e-09
2.26295e-05
0.0328013
0.869695
0.889495
0.868929
0.825107
0.756892
0.659798
0.534714
0.39307
0.259184
0.132855
0.0280533
3.00801e-23
1.0103e-20
1.57259e-18
1.46004e-16
8.65891e-15
3.05269e-13
5.91258e-12
1.21164e-10
2.10365e-09
7.56979e-08
9.14177e-05
0.0245705
0.211109
0.22788
0.192658
0.138935
0.0866648
0.0452067
0.0187298
0.00590032
0.0016623
0.000548777
0.00022138
3.76768e-22
1.15036e-19
1.60957e-17
1.30979e-15
6.41698e-14
1.59967e-12
3.91368e-11
7.9637e-10
1.09073e-08
3.30715e-07
3.24473e-05
0.000546214
0.000817957
0.0007145
0.000444279
0.000210585
8.63284e-05
3.18753e-05
1.0456e-05
3.28797e-06
2.38681e-06
3.49193e-06
8.50689e-06
1.4638e-21
3.82915e-19
4.82033e-17
3.63691e-15
1.81149e-13
6.24597e-12
1.52401e-10
2.62735e-09
3.0658e-08
2.69645e-07
9.63443e-07
2.64964e-07
3.87563e-08
2.26471e-11
4.42459e-11
2.70197e-10
1.62382e-09
1.00382e-08
6.29196e-08
2.86097e-07
9.83125e-07
2.2047e-06
2.55073e-06
4.49642e-34
1.93968e-31
4.17745e-29
5.55637e-27
4.94981e-25
3.0794e-23
1.36601e-21
4.389e-20
1.03272e-18
1.78955e-17
2.29349e-16
2.20792e-15
1.63341e-14
9.67252e-14
4.14877e-13
1.11283e-12
9.09163e-12
3.52692e-10
2.35695e-08
1.40825e-07
4.8473e-07
1.19293e-06
1.62732e-06
1.82396e-34
7.03992e-32
1.26652e-29
1.38625e-27
1.0253e-25
5.41148e-24
2.09904e-22
6.06966e-21
1.3204e-19
2.1759e-18
2.73849e-17
2.65901e-16
2.03577e-15
1.2969e-14
7.66415e-14
5.1519e-13
4.44033e-12
4.09114e-11
5.10461e-09
7.06093e-08
2.0663e-07
3.13271e-07
4.41581e-07
1.21843e-36
5.2798e-34
1.07409e-31
1.3484e-29
1.16256e-27
7.28057e-26
3.42427e-24
1.23441e-22
3.45858e-21
7.61488e-20
1.3309e-18
1.86966e-17
2.15497e-16
2.08265e-15
1.68687e-14
1.10947e-13
5.42888e-13
1.76267e-12
1.53075e-10
5.10717e-09
3.21566e-08
6.1471e-08
9.45126e-08
1.3327e-37
6.19126e-35
1.34362e-32
1.80503e-30
1.67525e-28
1.13733e-26
5.84035e-25
2.31679e-23
7.20148e-22
1.77233e-20
3.48047e-19
5.49406e-18
7.02913e-17
7.33188e-16
6.25153e-15
4.34233e-14
2.39259e-13
9.6762e-13
2.51653e-12
8.85493e-11
1.8416e-09
8.00441e-09
1.16326e-08
1.10891e-39
5.64622e-37
1.35032e-34
2.01175e-32
2.08659e-30
1.59604e-28
9.31595e-27
4.24205e-25
1.5303e-23
4.42488e-22
1.03566e-20
1.97988e-19
3.11498e-18
4.04984e-17
4.3475e-16
3.83813e-15
2.7743e-14
1.64297e-13
7.89775e-13
2.70032e-12
3.23566e-11
3.97421e-10
9.56227e-10
3.92507e-42
2.16623e-39
5.64764e-37
9.24834e-35
1.06496e-32
9.15132e-31
6.08352e-29
3.20439e-27
1.36052e-25
4.71808e-24
1.35105e-22
3.22506e-21
6.46787e-20
1.09624e-18
1.57692e-17
1.92956e-16
2.00939e-15
1.77748e-14
1.32865e-13
8.30737e-13
4.26797e-12
1.7544e-11
5.41918e-11
8.28737e-45
4.92026e-42
1.38481e-39
2.45823e-37
3.08383e-35
2.9039e-33
2.12952e-31
1.24641e-29
5.92602e-28
2.31945e-26
7.55357e-25
2.06456e-23
4.76792e-22
9.34836e-21
1.56095e-19
2.22283e-18
2.6989e-17
2.78877e-16
2.44314e-15
1.80351e-14
1.11026e-13
5.58928e-13
2.20894e-12
1.14972e-47
7.39746e-45
2.26118e-42
4.37213e-40
5.99609e-38
6.19933e-36
5.01632e-34
3.25765e-32
1.7287e-30
7.59858e-29
2.79617e-27
8.6871e-26
2.29359e-24
5.17149e-23
9.99205e-22
1.65763e-20
2.36252e-19
2.89034e-18
3.02786e-17
2.70335e-16
2.03995e-15
1.28098e-14
6.49184e-14
1.09642e-50
7.71362e-48
2.58294e-45
5.48459e-43
8.28528e-41
9.46968e-39
8.50582e-37
6.15969e-35
3.66298e-33
1.81361e-31
7.55706e-30
2.67269e-28
8.07673e-27
2.0963e-25
4.69105e-24
9.07425e-23
1.51945e-21
2.2027e-20
2.76082e-19
2.98176e-18
2.75666e-17
2.15458e-16
1.39049e-15
7.31904e-54
5.68428e-51
2.10457e-48
4.9517e-46
8.31028e-44
1.05849e-41
1.06326e-39
8.64472e-38
5.79591e-36
3.24974e-34
1.54054e-32
6.22799e-31
2.16206e-29
6.48051e-28
1.68429e-26
3.80764e-25
7.50276e-24
1.28978e-22
1.9335e-21
2.52182e-20
2.84708e-19
2.75511e-18
2.24433e-17
3.4413e-57
2.97903e-54
1.23117e-51
3.2395e-49
6.09414e-47
8.72428e-45
9.88019e-43
9.08725e-41
6.91757e-39
4.42103e-37
2.39865e-35
1.11461e-33
4.46772e-32
1.55368e-30
4.70924e-29
1.24856e-27
2.9031e-26
5.92887e-25
1.0638e-23
1.67463e-22
2.30409e-21
2.74991e-20
2.80814e-19
1.13486e-60
1.10618e-57
5.15419e-55
1.5316e-52
3.26054e-50
5.29484e-48
6.82039e-46
7.1564e-44
6.23506e-42
4.57655e-40
2.8622e-38
1.53906e-36
7.16802e-35
2.90903e-33
1.03381e-31
3.22988e-30
8.89797e-29
2.16586e-27
4.66209e-26
8.86898e-25
1.48716e-23
2.18569e-22
2.78681e-21
2.58557e-64
2.86926e-61
1.52388e-58
5.16936e-56
1.25856e-53
2.34234e-51
3.46624e-49
4.18934e-47
4.21643e-45
3.58622e-43
2.60748e-41
1.63574e-39
8.92077e-38
4.25603e-36
1.78554e-34
6.61517e-33
2.17156e-31
6.33156e-30
1.64193e-28
3.78734e-27
7.75774e-26
1.40544e-24
2.23509e-23
3.95485e-68
5.05993e-65
3.10171e-62
1.21608e-59
3.4275e-57
7.39863e-55
1.27257e-52
1.79191e-50
2.10658e-48
2.0986e-46
1.79249e-44
1.32512e-42
8.54463e-41
4.83703e-39
2.41691e-37
1.07075e-35
4.22125e-34
1.48499e-32
4.67016e-31
1.31405e-29
3.3071e-28
7.43691e-27
1.49229e-25
3.8723e-72
5.79823e-69
4.16408e-66
1.91506e-63
6.34066e-61
1.61054e-58
3.26581e-56
5.43281e-54
7.56273e-52
8.94332e-50
9.09159e-48
8.02181e-46
6.19214e-44
4.20951e-42
2.53442e-40
1.3578e-38
6.4986e-37
2.78764e-35
1.07455e-33
3.72987e-32
1.16766e-30
3.29883e-29
8.3967e-28
2.24795e-76
4.01391e-73
3.44093e-70
1.89104e-67
7.4915e-65
2.28017e-62
5.54976e-60
1.11021e-57
1.86228e-55
2.65955e-53
3.27279e-51
3.5044e-49
3.29165e-47
2.73082e-45
2.01279e-43
1.32476e-41
7.8207e-40
4.15736e-38
1.99669e-36
8.68731e-35
3.42958e-33
1.22854e-31
3.98435e-30
6.82838e-81
1.49085e-77
1.56361e-74
1.05225e-71
5.11002e-69
1.90901e-66
5.71135e-64
1.40674e-61
2.91063e-59
5.13748e-57
7.83072e-55
1.04104e-52
1.21723e-50
1.26069e-48
1.16377e-46
9.62736e-45
7.17129e-43
4.82955e-41
2.95038e-39
1.63896e-37
8.29034e-36
3.81905e-34
1.60009e-32
8.77817e-86
2.42814e-82
3.22568e-79
2.75069e-76
1.69401e-73
8.03397e-71
3.05536e-68
9.58092e-66
2.52818e-63
5.70225e-61
1.11303e-58
1.89932e-56
2.85774e-54
3.81886e-52
4.56092e-50
4.89484e-48
4.74274e-46
4.16542e-44
3.32706e-42
2.42298e-40
1.61171e-38
9.80007e-37
5.44548e-35
3.21269e-91
1.1938e-87
2.11885e-84
2.41304e-81
1.98573e-78
1.25958e-75
6.41488e-73
2.69761e-70
9.56057e-68
2.90069e-65
7.62843e-63
1.75673e-60
3.57286e-58
6.46457e-56
1.04718e-53
1.52704e-51
2.01431e-49
2.41359e-47
2.63644e-45
2.63296e-43
2.40925e-41
2.02253e-39
1.55804e-37
1.39047e-97
7.62807e-94
1.97744e-90
3.28466e-87
3.95054e-84
3.67456e-81
2.75137e-78
1.70422e-75
8.90792e-73
3.9895e-70
1.5496e-67
5.27229e-65
1.58459e-62
4.23786e-60
1.0151e-57
2.19054e-55
4.28098e-53
7.61055e-51
1.2354e-48
1.83689e-46
2.50794e-44
3.14959e-42
3.64125e-40
5.1979e-106
5.40644e-102
2.55279e-98
7.5994e-95
1.6223e-91
2.66148e-88
3.50765e-85
3.82891e-82
3.53958e-79
2.81828e-76
1.95855e-73
1.20065e-70
6.54865e-68
3.19984e-65
1.40826e-62
5.60496e-60
2.02379e-57
6.64619e-55
1.98887e-52
5.42847e-50
1.35124e-47
3.06318e-45
6.31106e-43
1.46195e-114
2.59817e-110
1.83252e-106
8.0431e-103
2.53934e-99
6.20101e-96
1.22532e-92
2.02191e-89
2.85312e-86
3.50882e-83
3.82099e-80
3.73551e-77
3.3194e-74
2.7119e-71
2.0592e-68
1.46857e-65
9.93888e-63
6.44888e-60
4.05339e-57
2.49373e-54
1.51672e-51
9.18765e-49
5.52249e-46
0.999999
0.999999
0.999999
0.999999
0.999999
0.999999
1
1
1
1
1
1
1
1
1
1
1
1
1
0.999999
1
1
0.999999
0.999999
1
1
0.999999
0.999998
1
1
0.999999
0.99995
1
1
0.999994
0.991155
1
0.999999
0.99902
0.810397
1
0.999931
0.942083
0.325489
0.999988
0.990185
0.543422
0.0487646
0.997422
0.759326
0.111377
0.000966473
0.891042
0.237452
0.00621477
2.67711e-06
0.376844
0.0261236
3.9979e-05
5.12254e-07
0.0358262
0.00011926
2.48462e-07
2.06663e-07
0.000220931
1.16885e-07
9.85019e-08
8.52601e-08
4.01738e-05
6.79095e-08
4.34566e-08
3.53007e-08
1.13478e-05
7.55253e-08
1.84793e-08
1.18616e-08
2.83779e-06
1.70433e-07
6.27117e-09
3.07638e-09
1.18283e-06
1.98884e-07
1.64551e-09
5.99654e-10
3.38682e-07
8.76031e-08
3.64771e-10
8.79234e-11
2.98287e-08
6.23607e-09
5.11701e-11
9.80467e-12
4.22171e-09
9.52251e-10
4.86883e-12
8.22861e-13
7.90077e-10
1.28424e-10
9.71383e-13
5.31145e-14
7.70581e-11
2.65578e-11
1.76524e-13
2.62231e-15
4.83887e-12
2.31979e-12
2.00489e-14
1.00723e-16
2.03608e-13
1.25839e-13
1.48033e-15
3.06659e-18
6.05773e-15
4.74602e-15
7.61113e-17
7.54156e-20
1.32998e-16
1.31517e-16
2.8697e-18
1.52477e-21
2.22854e-18
2.77892e-18
8.24613e-20
2.57387e-23
2.92817e-20
4.60723e-20
1.86116e-21
3.67686e-25
3.08669e-22
6.13803e-22
3.38228e-23
4.49932e-27
2.66297e-24
6.70915e-24
5.05554e-25
4.76979e-29
1.91355e-26
6.13089e-26
6.33389e-27
4.42846e-31
1.16383e-28
4.76697e-28
6.76796e-29
3.63972e-33
6.07793e-31
3.20736e-30
6.2696e-31
2.67678e-35
2.75989e-33
1.89834e-32
5.11517e-33
1.78065e-37
1.10007e-35
1.00446e-34
3.73273e-35
1.08314e-39
3.86724e-38
4.82844e-37
2.47416e-37
6.09077e-42
1.1905e-40
2.14259e-39
1.51303e-39
3.20106e-44
3.13375e-43
8.95395e-42
8.68939e-42
1.59032e-46
0.999999
0.999996
0.999956
0.992446
0.726737
0.145881
0.00363677
7.2856e-06
1.63942e-06
3.8559e-07
6.1944e-08
6.82038e-09
5.38502e-10
3.11563e-11
1.3182e-12
3.98426e-14
8.17585e-16
1.02438e-17
5.92907e-20
0.999999
0.999998
0.999589
0.934109
0.417104
0.0369212
0.000287079
7.33171e-07
4.22503e-07
1.01584e-07
1.50139e-08
1.53532e-09
1.14386e-10
6.30522e-12
2.55492e-13
7.42496e-15
1.47121e-16
1.78877e-18
1.00985e-20
0.999999
0.999968
0.989267
0.662111
0.11676
0.00279113
4.95429e-06
1.87617e-07
9.76643e-08
2.13179e-08
2.91905e-09
2.82035e-10
2.00396e-11
1.0573e-12
4.11199e-14
1.15155e-15
2.21056e-17
2.61965e-19
1.44942e-21
0.999998
0.998954
0.843739
0.222486
0.00849821
2.81453e-05
1.38605e-07
4.14519e-08
1.82956e-08
3.67843e-09
4.76207e-10
4.38955e-11
2.98191e-12
1.50717e-13
5.63886e-15
1.52829e-16
2.85818e-18
3.32025e-20
1.80869e-22
0.999965
0.962659
0.41707
0.0287096
0.000142933
4.92633e-07
3.20713e-08
7.57606e-09
2.92139e-09
5.52378e-10
6.81154e-11
5.98878e-12
3.88658e-13
1.88543e-14
6.817e-16
1.79852e-17
3.29471e-19
3.76551e-21
2.02141e-23
0.99816
0.688044
0.0950122
0.00117557
1.69656e-06
2.31793e-07
2.05241e-08
1.25154e-09
4.22878e-10
7.52574e-11
8.81396e-12
7.38262e-13
4.59021e-14
2.14989e-15
7.56216e-17
1.9523e-18
3.51119e-20
3.94316e-22
2.07629e-24
0.942416
0.274187
0.00896252
1.38456e-05
6.24115e-07
1.02931e-07
1.02878e-08
7.55107e-11
5.41601e-11
9.55661e-12
1.07205e-12
8.60787e-14
5.16486e-15
2.35009e-16
8.06587e-18
2.03479e-19
3.57261e-21
3.90753e-23
1.99613e-25
0.672109
0.0653112
0.00040156
1.11154e-06
2.18558e-07
4.81891e-08
1.53031e-09
1.15965e-11
7.64094e-12
1.25659e-12
1.33112e-13
1.02074e-14
5.89325e-16
2.58958e-17
8.58633e-19
2.08899e-20
3.52784e-22
3.70142e-24
1.80778e-26
0.342294
0.00931107
6.64903e-06
4.0297e-07
8.16251e-08
6.74654e-09
6.01035e-11
5.94967e-12
1.38429e-12
1.89289e-13
1.81769e-14
1.29793e-15
7.0525e-17
2.92812e-18
9.18108e-20
2.11127e-21
3.36767e-23
3.33594e-25
1.53614e-27
0.106411
0.000407333
5.20533e-07
8.36955e-08
7.10682e-09
2.54245e-10
4.10324e-12
1.87901e-12
2.88408e-13
3.22401e-14
2.71397e-15
1.74836e-16
8.6917e-18
3.3264e-19
9.65503e-21
2.06108e-22
3.05876e-24
2.82506e-26
1.21341e-28
0.0159054
2.44199e-06
1.47379e-07
5.18818e-09
4.59676e-10
1.39676e-11
2.59391e-12
5.42336e-13
6.27438e-14
5.7441e-15
4.16427e-16
2.36835e-17
1.05576e-18
3.66041e-20
9.6924e-22
1.89759e-23
2.59407e-25
2.21575e-27
8.81326e-30
0.00095711
4.36178e-07
2.69908e-08
1.55324e-09
1.24309e-10
1.01141e-11
1.30327e-12
1.56937e-13
1.41101e-14
1.0451e-15
6.29446e-17
3.06698e-18
1.20885e-19
3.76502e-21
9.02616e-23
1.61064e-24
2.01775e-26
1.58741e-28
5.82167e-31
6.03214e-06
1.52913e-07
5.55453e-09
4.81567e-10
6.96138e-11
5.75495e-12
5.2744e-13
4.40438e-14
3.10944e-15
1.8683e-16
9.40217e-18
3.91951e-19
1.33515e-20
3.63582e-22
7.73293e-24
1.24105e-25
1.41744e-27
1.02679e-29
3.46563e-32
5.02491e-07
8.34118e-08
2.28704e-09
2.53922e-10
3.45809e-11
2.42362e-12
1.73022e-13
1.11785e-14
6.36945e-16
3.1579e-17
1.33944e-18
4.78395e-20
1.41345e-21
3.3879e-23
6.42568e-25
9.2904e-27
9.62657e-29
6.36643e-31
1.97171e-33
2.40075e-07
3.03025e-08
1.20066e-09
1.30456e-10
1.35339e-11
7.92189e-13
4.64384e-14
2.46435e-15
1.16925e-16
4.88696e-18
1.77074e-19
5.46929e-21
1.41465e-22
3.00309e-24
5.09442e-26
6.63828e-28
6.24515e-30
3.78338e-32
1.07719e-34
6.92771e-08
1.41318e-08
6.35504e-10
5.25718e-11
4.01399e-12
2.07518e-13
1.03263e-14
4.65986e-16
1.88932e-17
6.79389e-19
2.13574e-20
5.77534e-22
1.32004e-23
2.49749e-25
3.80457e-27
4.4851e-29
3.84803e-31
2.14342e-33
5.62458e-36
3.35798e-08
5.19113e-09
2.60943e-10
1.59785e-11
9.70803e-13
4.45762e-14
1.92556e-15
7.55671e-17
2.67114e-18
8.40919e-20
2.32699e-21
5.57435e-23
1.13629e-24
1.92967e-26
2.65656e-28
2.85024e-30
2.24199e-32
1.15306e-34
2.79554e-37
1.34548e-08
1.52803e-09
7.58858e-11
3.83323e-12
1.94467e-13
7.97523e-15
3.04068e-16
1.05488e-17
3.30245e-19
9.23447e-21
2.27812e-22
4.88694e-24
8.96532e-26
1.37754e-27
1.72632e-29
1.69635e-31
1.22965e-33
5.86181e-36
1.31719e-38
4.27965e-09
3.60249e-10
1.7088e-11
7.43711e-13
3.25345e-14
1.20083e-15
4.09633e-17
1.27306e-18
3.57594e-20
8.99041e-22
1.99935e-23
3.87905e-25
6.46181e-27
9.05582e-29
1.0403e-30
9.41794e-33
6.3215e-35
2.80427e-37
5.85576e-40
1.03524e-09
6.89519e-11
3.05289e-12
1.18348e-13
4.56993e-15
1.53217e-16
4.73364e-18
1.33339e-19
3.39873e-21
7.76534e-23
1.5723e-24
2.78445e-26
4.24713e-28
5.46963e-30
5.79657e-32
4.8608e-34
3.03452e-36
1.25713e-38
2.44767e-41
1.83289e-10
1.07989e-11
4.37777e-13
1.55578e-14
5.40736e-16
1.66448e-17
4.71155e-19
1.21611e-20
2.84209e-22
5.95873e-24
1.10854e-25
1.8071e-27
2.54324e-29
3.03035e-31
2.97992e-33
2.32624e-35
1.35638e-37
5.26595e-40
9.59088e-43
2.41877e-11
1.35782e-12
5.05903e-14
1.69554e-15
5.40241e-17
1.54517e-18
4.053e-20
9.68709e-22
2.09594e-23
4.06899e-25
7.01386e-27
1.06066e-28
1.38695e-30
1.53853e-32
1.41147e-34
1.03066e-36
5.63611e-39
2.05786e-41
3.51414e-44
2.52553e-12
1.36031e-13
4.77381e-15
1.5347e-16
4.56977e-18
1.22966e-19
3.02277e-21
6.7585e-23
1.36638e-24
2.47714e-26
3.98737e-28
5.63371e-30
6.8889e-32
7.15564e-34
6.15618e-36
4.22409e-38
2.17501e-40
7.49327e-43
1.2025e-45
2.06477e-13
1.08798e-14
3.71677e-16
1.15967e-17
3.28584e-19
8.41912e-21
1.961e-22
4.14192e-24
7.89356e-26
1.34707e-27
2.03968e-29
2.71046e-31
3.11809e-33
3.04938e-35
2.47236e-37
1.60103e-39
7.79126e-42
2.54051e-44
3.84022e-47
1.32248e-14
7.01976e-16
2.39941e-17
7.36265e-19
2.01786e-20
4.97994e-22
1.1106e-23
2.23659e-25
4.05149e-27
6.55749e-29
9.40412e-31
1.18272e-32
1.28733e-34
1.19147e-36
9.14623e-39
5.61249e-41
2.59031e-43
8.01698e-46
1.14401e-48
6.68724e-16
3.69512e-17
1.29147e-18
3.95378e-20
1.06365e-21
2.55637e-23
5.51231e-25
1.06769e-26
1.85276e-28
2.86429e-30
3.91572e-32
4.68836e-34
4.85428e-36
4.27266e-38
3.1189e-40
1.82041e-42
7.99352e-45
2.35448e-47
3.17835e-50
2.70273e-17
1.60238e-18
5.836e-20
1.80821e-21
4.83847e-23
1.14431e-24
2.40768e-26
4.52193e-28
7.57206e-30
1.12558e-31
1.4758e-33
1.69159e-35
1.67451e-37
1.40801e-39
9.81277e-42
5.46639e-44
2.2904e-46
6.43611e-49
8.23496e-52
8.85667e-19
5.78122e-20
2.23146e-21
7.0925e-23
1.91029e-24
4.48911e-26
9.29502e-28
1.70557e-29
2.77488e-31
3.99106e-33
5.04752e-35
5.56753e-37
5.29405e-39
4.27024e-41
2.85175e-43
1.52097e-45
6.09718e-48
1.63819e-50
1.99032e-53
2.3864e-20
1.75302e-21
7.27952e-23
2.40314e-24
6.58532e-26
1.55152e-27
3.18628e-29
5.75238e-31
9.1511e-33
1.28097e-34
1.57104e-36
1.67567e-38
1.53717e-40
1.19395e-42
7.66589e-45
3.92565e-47
1.50932e-49
3.88534e-52
4.48984e-55
5.35965e-22
4.51338e-23
2.04331e-24
7.08527e-26
1.99453e-27
4.75007e-29
9.74532e-31
1.7423e-32
2.72631e-34
3.73446e-36
4.46361e-38
4.62417e-40
4.10856e-42
3.08355e-44
1.90927e-46
9.41229e-49
3.47856e-51
8.59558e-54
9.46212e-57
1.01651e-23
9.96751e-25
4.97731e-26
1.83121e-27
5.34153e-29
1.29552e-30
2.67287e-32
4.76068e-34
7.36775e-36
9.92566e-38
1.16145e-39
1.17341e-41
1.0134e-43
7.37241e-46
4.4144e-48
2.10007e-50
7.47609e-53
1.77634e-55
1.86533e-58
1.64833e-25
1.90724e-26
1.0612e-27
4.17975e-29
1.27316e-30
3.16607e-32
6.6086e-34
1.17912e-35
1.81398e-37
2.41452e-39
2.77742e-41
2.74651e-43
2.31312e-45
1.63584e-47
9.49643e-50
4.3695e-52
1.50123e-54
3.43528e-57
3.44556e-60
2.31227e-27
3.1933e-28
1.99733e-29
8.48886e-31
2.71884e-32
6.97473e-34
1.48101e-35
2.66045e-37
4.08739e-39
5.39797e-41
6.12662e-43
5.94941e-45
4.9006e-47
3.37792e-49
1.90569e-51
8.49846e-54
2.82293e-56
6.23044e-59
5.97565e-62
2.83778e-29
4.72385e-30
3.34691e-31
1.54564e-32
5.23731e-34
1.3936e-35
3.02533e-37
5.49675e-39
8.46894e-41
1.11384e-42
1.25149e-44
1.19694e-46
9.6684e-49
6.51124e-51
3.57763e-53
1.54932e-55
4.98383e-58
1.06235e-60
9.75353e-64
3.08013e-31
6.23326e-32
5.03578e-33
2.54231e-34
9.16312e-36
2.54148e-37
5.66594e-39
1.04553e-40
1.62151e-42
2.1309e-44
2.37711e-46
2.245e-48
1.78259e-50
1.17553e-52
6.30333e-55
2.65549e-57
8.28482e-60
1.70769e-62
1.50229e-65
2.98808e-33
7.40614e-34
6.86131e-35
3.80661e-36
1.46632e-37
4.25765e-39
9.78699e-41
1.84097e-42
2.8835e-44
3.79729e-46
4.21647e-48
3.94143e-50
3.0831e-52
1.99493e-54
1.04584e-56
4.29311e-59
1.30084e-61
2.59576e-64
2.19004e-67
2.61792e-35
7.99832e-36
8.53818e-37
5.2288e-38
2.16146e-39
6.59546e-41
1.56876e-42
3.01781e-44
4.78749e-46
6.33368e-48
7.01594e-50
6.50467e-52
5.02237e-54
3.19455e-56
1.6401e-58
6.56969e-61
1.93573e-63
3.74323e-66
3.03138e-69
2.09287e-37
7.92516e-38
9.78725e-39
6.64078e-40
2.95621e-41
9.51081e-43
2.34803e-44
4.63223e-46
7.46128e-48
9.93753e-50
1.10025e-51
1.01358e-53
7.73852e-56
4.84661e-58
2.44045e-60
9.55152e-63
2.73967e-65
5.13884e-68
3.99766e-71
1.54255e-39
7.27294e-40
1.04242e-40
7.86005e-42
3.77889e-43
1.28541e-44
3.3025e-46
6.69737e-48
1.09754e-49
1.47424e-51
1.63407e-53
1.49815e-55
1.13279e-57
6.996e-60
3.45952e-62
1.32445e-64
3.70175e-67
6.74062e-70
5.0409e-73
1.05922e-41
6.24067e-42
1.0406e-42
8.73959e-44
4.54823e-45
1.63947e-46
4.39305e-48
9.17557e-50
1.53233e-51
2.07879e-53
2.30987e-55
2.11051e-57
1.58259e-59
9.6502e-62
4.69158e-64
1.75863e-66
4.79351e-69
8.47996e-72
6.10052e-75
6.84815e-44
5.05501e-44
9.82151e-45
9.20211e-46
5.19253e-47
1.98695e-48
5.56235e-50
1.19833e-51
2.04198e-53
2.80093e-55
3.12343e-57
2.84746e-59
2.11999e-61
1.27771e-63
6.11275e-66
2.2453e-68
5.97276e-71
1.02717e-73
7.11322e-77
4.2169e-46
3.90584e-46
8.84807e-47
9.25529e-48
5.66823e-49
2.30521e-50
6.74987e-52
1.50138e-53
2.61261e-55
3.62616e-57
4.06137e-59
3.69755e-61
2.73577e-63
1.63104e-65
7.68415e-68
2.76749e-70
7.18883e-73
1.20251e-75
8.02072e-79
)
;

boundaryField
{
    leftWall
    {
        type            zeroGradient;
    }
    rightWall
    {
        type            zeroGradient;
    }
    lowerWall
    {
        type            zeroGradient;
    }
    atmosphere
    {
        type            inletOutlet;
        inletValue      uniform 0;
        value           nonuniform List<scalar> 
46
(
0
0
0
0
0
0
0
0
0
0
0
0
0
0
0
0
0
0
0
0
0
0
0
3.13375e-43
8.95395e-42
8.68939e-42
1.59032e-46
4.2169e-46
3.90584e-46
8.84807e-47
9.25529e-48
5.66823e-49
2.30521e-50
6.74987e-52
1.50138e-53
2.61261e-55
3.62616e-57
4.06137e-59
3.69755e-61
2.73577e-63
1.63104e-65
7.68415e-68
2.76749e-70
7.18883e-73
1.20251e-75
8.02072e-79
)
;
    }
    defaultFaces
    {
        type            empty;
    }
}


// ************************************************************************* //
