/*--------------------------------*- C++ -*----------------------------------*\
| =========                 |                                                 |
| \\      /  F ield         | OpenFOAM: The Open Source CFD Toolbox           |
|  \\    /   O peration     | Version:  2.4.0                                 |
|   \\  /    A nd           | Web:      www.OpenFOAM.org                      |
|    \\/     M anipulation  |                                                 |
\*---------------------------------------------------------------------------*/
FoamFile
{
    version     2.0;
    format      ascii;
    class       volScalarField;
    location    "0.1";
    object      alpha.water;
}
// * * * * * * * * * * * * * * * * * * * * * * * * * * * * * * * * * * * * * //

dimensions      [0 0 0 0 0 0 0];

internalField   nonuniform List<scalar> 
2268
(
5.65045e-18
8.88349e-19
3.35878e-18
8.38839e-18
4.39688e-17
2.45641e-16
9.60986e-16
1.79406e-15
1.01854e-13
9.0614e-13
1.70746e-12
1.63053e-11
9.86492e-12
4.65718e-12
2.60564e-12
1.18276e-12
4.75628e-13
1.86883e-13
6.70973e-14
2.11141e-14
4.79263e-15
5.70944e-16
2.87791e-17
5.41118e-16
1.00793e-16
3.47734e-16
9.32925e-16
3.98699e-15
1.73085e-14
4.83581e-14
6.59228e-14
2.77152e-12
1.96063e-11
3.08661e-11
3.0596e-10
2.24023e-10
7.82165e-11
1.45156e-11
6.33018e-12
3.00487e-12
1.34931e-12
5.15675e-13
1.29217e-13
2.03885e-14
2.18204e-15
1.15236e-16
2.38091e-14
5.62661e-15
1.72034e-14
4.73604e-14
1.60271e-13
5.22513e-13
1.03898e-12
1.04959e-12
3.37641e-11
1.93736e-10
2.90348e-10
2.13785e-09
2.08237e-09
1.31947e-09
4.40925e-10
6.86165e-11
6.03566e-12
2.84941e-12
1.01791e-12
2.25769e-13
3.42563e-14
3.76832e-15
2.20345e-16
6.44002e-13
2.05531e-13
5.40929e-13
1.42479e-12
3.66805e-12
8.68996e-12
1.23171e-11
9.32716e-12
2.45251e-10
1.1583e-09
1.66448e-09
9.88728e-09
1.1199e-08
7.55848e-09
2.76083e-09
4.44762e-10
2.00253e-11
2.63012e-12
8.74879e-13
1.90387e-13
3.22761e-14
4.0613e-15
2.74894e-16
1.21595e-11
5.42724e-12
1.1906e-11
2.72918e-11
5.05683e-11
8.44847e-11
8.6169e-11
4.9507e-11
1.21618e-09
4.71099e-09
6.62346e-09
3.28571e-08
3.28262e-08
2.06943e-08
7.73001e-09
2.69994e-09
1.66826e-10
1.77493e-12
5.89096e-13
1.44804e-13
2.77445e-14
3.9791e-15
3.25536e-16
1.73478e-10
1.0557e-10
1.84138e-10
3.22773e-10
4.00094e-10
4.59726e-10
3.45889e-10
1.66346e-10
4.5667e-09
1.4361e-08
2.03267e-08
6.4582e-08
6.34583e-08
2.43495e-07
1.1743e-06
5.81513e-07
1.95525e-08
2.24136e-11
8.95075e-13
1.15298e-13
2.27271e-14
3.75175e-15
3.78179e-16
1.9128e-09
1.42278e-09
1.78482e-09
1.88853e-09
1.4434e-09
1.12292e-09
6.13492e-10
6.01652e-10
1.39696e-08
3.51237e-08
4.75182e-08
8.10291e-08
2.09532e-07
8.89936e-05
8.9737e-05
1.14173e-05
9.46366e-08
3.20997e-11
1.70034e-12
1.82507e-13
2.88144e-14
4.48546e-15
5.20316e-16
1.83133e-08
1.03327e-08
5.13724e-09
1.50094e-10
1.57504e-10
1.50094e-10
1.57492e-10
4.9211e-10
3.08283e-08
6.51817e-08
7.92077e-08
7.98464e-08
0.000269633
0.00387883
0.00100567
2.41533e-05
3.27652e-08
4.52287e-11
4.48433e-12
5.95431e-13
8.42733e-14
1.09822e-14
1.18633e-15
1.1191e-29
7.76541e-28
5.09273e-26
5.51601e-25
7.87166e-24
1.55972e-23
2.96463e-24
1.91526e-25
7.83883e-27
3.01575e-28
1.01457e-29
2.8121e-31
6.24718e-33
1.09531e-34
1.48606e-36
1.51094e-38
1.08828e-40
4.97397e-43
1.0891e-45
1.98945e-27
1.85079e-25
1.40559e-23
4.73789e-23
3.50234e-22
6.39172e-22
1.42058e-22
1.04876e-23
4.80534e-25
2.05068e-26
7.49398e-28
2.22809e-29
5.2944e-31
9.92847e-33
1.44148e-34
1.56898e-36
1.21e-38
5.92099e-41
1.38626e-43
3.87302e-25
3.18837e-23
1.88585e-21
2.69101e-21
8.14031e-21
1.20092e-20
3.09482e-21
2.72389e-22
1.48985e-23
7.17397e-25
2.77256e-26
8.48681e-28
2.06052e-29
3.94148e-31
5.83711e-33
6.48371e-35
5.10582e-37
2.55256e-39
6.10906e-42
4.9915e-23
2.74395e-21
1.18175e-19
1.06062e-19
1.36257e-19
1.40102e-19
3.97168e-20
4.26255e-21
2.96951e-22
1.564e-23
6.25019e-25
1.96123e-26
4.88403e-28
9.58862e-30
1.45858e-31
1.66577e-33
1.34986e-35
6.94734e-38
1.71158e-40
4.92152e-21
9.9652e-20
3.12699e-18
2.22926e-18
1.68893e-18
1.14274e-18
3.21024e-19
4.10129e-20
3.44461e-21
1.9504e-22
8.19879e-24
2.69792e-25
7.01843e-27
1.43294e-28
2.25665e-30
2.65755e-32
2.21396e-34
1.16921e-36
2.95353e-39
6.62204e-20
1.98844e-17
3.15263e-17
2.10642e-17
1.31647e-17
6.60097e-18
1.68282e-18
2.46656e-19
2.13751e-20
1.25806e-21
5.5605e-23
1.9239e-24
5.2522e-26
1.1248e-27
1.85849e-29
2.29647e-31
2.00641e-33
1.11008e-35
2.93354e-38
1.79186e-20
1.92235e-16
1.84775e-16
1.19821e-16
6.85221e-17
2.81376e-17
6.26038e-18
8.49877e-19
7.44505e-20
4.68127e-21
2.24519e-22
8.41645e-24
2.4799e-25
5.70927e-27
1.00969e-28
1.32902e-30
1.2306e-32
7.17776e-35
1.98927e-37
7.96163e-16
1.13211e-15
8.99876e-16
5.31427e-16
2.67178e-16
8.97004e-17
1.71985e-17
2.12062e-18
1.84469e-19
1.21887e-20
6.28312e-22
2.53997e-23
8.04349e-25
1.97989e-26
3.72541e-28
5.19734e-30
5.08635e-32
3.12868e-34
9.1254e-37
2.63673e-07
3.3861e-07
5.72817e-07
1.24413e-06
3.47657e-06
1.03923e-05
3.85971e-05
0.000145081
0.000599532
0.00263738
0.0107047
0.0812373
0.0995429
0.0401275
0.00231908
6.94027e-06
1.16867e-09
2.26054e-11
2.61313e-12
3.67958e-13
5.85146e-14
1.01373e-14
2.07282e-15
0.000551984
0.00064416
0.000877411
0.00139479
0.00255669
0.00485264
0.0102429
0.0214577
0.04714
0.103192
0.213217
0.52159
0.423768
0.0857686
0.00162593
1.00345e-06
2.67634e-11
1.49087e-12
4.8716e-13
1.25847e-13
3.42305e-14
1.00244e-14
3.15837e-15
0.0614328
0.0657975
0.07628
0.0956972
0.127404
0.171014
0.239801
0.330025
0.458776
0.612896
0.776096
0.925465
0.660879
0.146665
0.00459137
8.12441e-06
5.53429e-08
1.151e-08
1.98536e-09
3.94648e-10
8.94477e-11
2.37832e-11
6.45729e-12
0.607079
0.617243
0.642613
0.685822
0.741532
0.79276
0.853329
0.902228
0.944842
0.972794
0.988882
0.993684
0.801588
0.273445
0.0205437
0.000175023
1.51363e-07
3.72286e-08
1.31279e-08
4.60088e-09
1.53202e-09
5.20044e-10
1.75445e-10
0.999992
0.999999
0.999995
0.999997
0.999991
0.999989
0.999987
0.999987
0.999988
0.99999
0.999988
0.999446
0.836415
0.331731
0.0333845
0.000483748
6.72448e-07
2.49654e-08
1.09238e-08
4.04165e-09
1.42185e-09
4.86101e-10
1.6226e-10
1
1
1
1
1
1
1
1
1
1
1
0.999484
0.826263
0.324868
0.0329215
0.000489396
6.97558e-07
8.34262e-09
1.44335e-09
7.87553e-10
3.2434e-10
1.14448e-10
3.69293e-11
1
1
1
1
1
1
1
1
1
1
1
0.999499
0.805019
0.293298
0.026158
0.000337242
4.17545e-07
5.27423e-09
1.49479e-10
7.14591e-11
2.81993e-11
8.93517e-12
3.23306e-12
1
1
1
1
1
1
1
1
1
1
1
0.999493
0.770565
0.24531
0.0172792
0.000161294
1.48739e-07
1.28273e-11
1.91439e-12
5.16019e-13
1.74931e-13
6.06185e-14
1.97029e-14
1
1
1
1
1
1
1
1
1
1
1
0.999496
0.725232
0.192679
0.00998165
6.17279e-05
3.76665e-08
3.73044e-12
1.09979e-12
3.80486e-13
1.22055e-13
3.59259e-14
9.89872e-15
1
1
1
1
1
1
1
1
1
1
1
0.999496
0.668826
0.141021
0.00497433
1.846e-05
5.45347e-09
2.65363e-12
1.15664e-12
3.80247e-13
1.05471e-13
2.64685e-14
6.22463e-15
1
1
1
1
1
1
1
1
1
1
1
0.999496
0.601094
0.0947752
0.00209485
4.24247e-06
6.19484e-10
3.4339e-12
1.32084e-12
3.74643e-13
9.10091e-14
2.00804e-14
4.12484e-15
1
1
1
1
1
1
1
1
1
1
1
0.999498
0.521634
0.0569187
0.00071886
7.11906e-07
6.02571e-11
5.43336e-12
1.63109e-12
3.94057e-13
8.35939e-14
1.59588e-14
2.7941e-15
1
1
1
1
1
1
1
1
1
1
1
0.99951
0.427533
0.0287742
0.000184466
7.94216e-08
4.22319e-11
6.53448e-12
1.67645e-12
3.562e-13
6.45923e-14
1.03222e-14
1.48503e-15
1
1
1
1
1
1
1
1
1
1
1
0.999525
0.310969
0.0107772
3.05647e-05
1.11694e-08
1.89905e-10
3.57042e-12
1.02846e-12
2.00556e-13
3.06201e-14
3.98718e-15
4.51329e-16
0.999996
0.999996
0.999995
0.999994
0.999991
0.999987
0.999979
0.999965
0.999938
0.999889
0.999805
0.997723
0.173305
0.00255209
3.46135e-06
6.50881e-08
1.52286e-10
2.48282e-12
4.73782e-13
6.35928e-14
6.87481e-15
6.32866e-16
5.02659e-17
0.997591
0.99744
0.997136
0.996627
0.995835
0.994627
0.992801
0.990055
0.985969
0.980028
0.972373
0.946145
0.0650208
0.000280654
4.26371e-06
2.91277e-09
6.43232e-12
1.19047e-12
1.18654e-13
8.72095e-15
4.96702e-16
2.10151e-17
8.02968e-19
0.865709
0.861456
0.853204
0.840451
0.822554
0.798702
0.76802
0.72979
0.683776
0.630987
0.577988
0.495806
0.00782138
1.41006e-05
5.60823e-08
1.77508e-11
1.87843e-12
9.92047e-14
3.35164e-15
8.70426e-17
2.36034e-18
7.7731e-20
2.94192e-21
0.19924
0.193342
0.182564
0.167384
0.148596
0.127303
0.104793
0.0826192
0.0622344
0.0448952
0.0319174
0.0209679
0.00173407
1.99895e-06
1.22699e-10
8.8321e-13
4.53359e-15
3.25214e-17
2.62375e-19
2.41862e-21
3.5723e-23
4.42679e-23
4.62757e-22
0.000587143
0.000549428
0.000484949
0.000404151
0.000318011
0.000236732
0.000167101
0.000112154
7.19217e-05
4.49021e-05
2.77037e-05
1.83348e-05
5.60605e-05
5.3539e-06
2.8052e-14
2.52978e-16
5.1268e-20
1.24139e-25
2.05935e-26
2.6801e-25
2.93225e-24
2.32321e-23
1.13872e-22
8.29712e-26
2.58576e-23
3.83002e-21
3.31554e-19
1.81851e-17
6.45791e-16
1.44027e-14
1.90948e-13
3.18609e-12
4.33784e-11
1.62478e-09
1.15353e-08
2.82865e-08
5.26438e-09
3.74992e-31
5.99754e-30
9.03807e-29
1.23008e-27
1.42874e-26
1.32244e-25
9.26938e-25
4.933e-24
2.08403e-23
2.16762e-59
2.03474e-56
9.84156e-54
3.03497e-51
6.46758e-49
9.93969e-47
1.12865e-44
9.65065e-43
6.29412e-41
3.15511e-39
1.22602e-37
3.77989e-36
9.632e-35
2.19845e-33
4.46261e-32
7.95278e-31
1.21811e-29
1.55689e-28
1.61973e-27
1.34368e-26
8.84853e-26
4.72281e-25
2.19057e-24
9.84919e-61
8.3928e-58
3.44623e-55
8.9311e-53
1.62796e-50
2.20668e-48
2.29154e-46
1.85097e-44
1.17631e-42
5.94312e-41
2.41697e-39
8.01503e-38
2.20609e-36
5.20038e-35
1.07143e-33
1.93761e-32
3.0574e-31
4.17838e-30
4.86416e-29
4.64639e-28
3.53375e-27
2.19737e-26
1.21511e-25
7.47539e-63
6.50302e-60
2.71033e-57
7.12055e-55
1.31318e-52
1.79824e-50
1.88987e-48
1.55547e-46
1.01747e-44
5.35674e-43
2.2981e-41
8.15077e-40
2.44161e-38
6.31622e-37
1.41936e-35
2.76974e-34
4.6591e-33
6.67092e-32
8.03877e-31
8.16781e-30
7.08214e-29
5.36258e-28
3.68481e-27
2.64417e-65
2.29671e-62
9.51866e-60
2.49649e-57
4.62741e-55
6.42477e-53
6.91894e-51
5.91464e-49
4.08248e-47
2.30725e-45
1.08068e-43
4.24561e-42
1.41687e-40
4.05446e-39
1.00065e-37
2.13929e-36
3.97212e-35
6.40767e-34
8.96467e-33
1.07989e-31
1.11407e-30
1.00203e-29
8.10878e-29
6.33982e-68
5.64275e-65
2.40243e-62
6.49618e-60
1.24795e-57
1.80628e-55
2.04088e-53
1.84316e-51
1.35356e-49
8.19462e-48
4.14012e-46
1.76634e-44
6.43484e-43
2.01924e-41
5.48602e-40
1.29412e-38
2.65293e-37
4.72749e-36
7.32554e-35
9.90428e-34
1.18045e-32
1.25877e-31
1.2236e-30
9.28217e-71
8.62107e-68
3.83297e-65
1.08512e-62
2.19051e-60
3.34751e-58
4.0167e-56
3.87856e-54
3.06842e-52
2.01706e-50
1.11497e-48
5.23752e-47
2.10959e-45
7.33802e-44
2.21672e-42
5.83893e-41
1.34523e-39
2.71785e-38
4.8291e-37
7.57846e-36
1.05812e-34
1.32955e-33
1.5256e-32
9.23558e-74
9.06502e-71
4.26834e-68
1.2831e-65
2.75972e-63
4.51225e-61
5.82128e-59
6.07668e-57
5.22748e-55
3.75909e-53
2.28631e-51
1.18787e-49
5.31585e-48
2.06276e-46
6.97846e-45
2.06741e-43
5.38381e-42
1.23689e-40
2.51755e-39
4.56595e-38
7.43923e-37
1.10016e-35
1.49328e-34
6.39373e-77
6.72207e-74
3.39539e-71
1.0974e-68
2.54511e-66
4.50307e-64
6.31228e-62
7.19223e-60
6.7862e-58
5.37906e-56
3.62352e-54
2.09439e-52
1.047e-50
4.55713e-49
1.73673e-47
5.82348e-46
1.72574e-44
4.53984e-43
1.06545e-41
2.24436e-40
4.27576e-39
7.43401e-38
1.19091e-36
3.1543e-80
3.59276e-77
1.96885e-74
6.91735e-72
1.7483e-69
3.3811e-67
5.19854e-65
6.52176e-63
6.803e-61
5.9864e-59
4.49544e-57
2.90825e-55
1.63372e-53
8.02276e-52
3.46413e-50
1.32206e-48
4.48151e-47
1.35601e-45
3.68207e-44
9.02811e-43
2.01326e-41
4.11627e-40
7.78121e-39
1.12034e-83
1.39786e-80
8.40135e-78
3.24266e-75
9.02245e-73
1.92585e-70
3.27768e-68
4.56638e-66
5.30792e-64
5.2234e-62
4.40243e-60
3.20821e-58
2.03762e-56
1.13564e-54
5.58769e-53
2.44053e-51
9.51183e-50
3.32548e-48
1.04873e-46
3.00155e-45
7.84959e-44
1.88953e-42
4.21849e-41
2.86999e-87
3.96534e-84
2.64171e-81
1.13181e-78
3.50197e-76
8.33039e-74
1.58395e-71
2.47211e-69
3.22865e-67
3.58091e-65
3.41242e-63
2.82092e-61
2.03932e-59
1.29832e-57
7.32451e-56
3.68264e-54
1.65919e-52
6.73518e-51
2.47722e-49
8.30513e-48
2.55441e-46
7.25676e-45
1.91752e-43
5.26434e-91
8.14432e-88
6.08046e-85
2.92294e-82
1.01629e-79
2.72161e-77
5.8381e-75
1.03036e-72
1.52557e-70
1.9234e-68
2.08948e-66
1.97492e-64
1.63748e-62
1.19954e-60
7.81353e-59
4.55232e-57
2.38571e-55
1.13088e-53
4.87619e-52
1.92383e-50
6.988e-49
2.3518e-47
7.38166e-46
6.79498e-95
1.19117e-91
1.00842e-88
5.50233e-86
2.17434e-83
6.62815e-81
1.62136e-78
3.26973e-76
5.54414e-74
8.02377e-72
1.0031e-69
1.09399e-67
1.04957e-65
8.92289e-64
6.76614e-62
4.60411e-60
2.82762e-58
1.57621e-56
8.02017e-55
3.74658e-53
1.61641e-51
6.47979e-50
2.42869e-48
5.98688e-99
1.20515e-95
1.17226e-92
7.35557e-90
3.34622e-87
1.17585e-84
3.32078e-82
7.74519e-80
1.52176e-77
2.55736e-75
3.72072e-73
4.73364e-71
5.31111e-69
5.29451e-67
4.72085e-65
3.78837e-63
2.75218e-61
1.82055e-59
1.10302e-57
6.15908e-56
3.19099e-54
1.54477e-52
7.03319e-51
3.42817e-103
8.0486e-100
9.13596e-97
6.69427e-94
3.55956e-91
1.46363e-88
4.84321e-86
1.32554e-83
3.06127e-81
6.05806e-79
1.03996e-76
1.56443e-74
2.08021e-72
2.46368e-70
2.61697e-68
2.50947e-66
2.18612e-64
1.74089e-62
1.27507e-60
8.6405e-59
5.44794e-57
3.21311e-55
1.78165e-53
1.18027e-107
3.29453e-104
4.44823e-101
3.87919e-98
2.45675e-95
1.20429e-92
4.7562e-90
1.55567e-87
4.30016e-85
1.02027e-82
2.10398e-80
3.81044e-78
6.11505e-76
8.76503e-74
1.13017e-71
1.31957e-69
1.40376e-67
1.36848e-65
1.22934e-63
1.02308e-61
7.92973e-60
5.75459e-58
3.93071e-56
2.15414e-112
7.33288e-109
1.20752e-105
1.28484e-102
9.93445e-100
5.95075e-97
2.87508e-94
1.15202e-91
3.90733e-89
1.13962e-86
2.89465e-84
6.47053e-82
1.28432e-79
2.28135e-77
3.65201e-75
5.30247e-73
7.02478e-71
8.54038e-69
9.5812e-67
9.97288e-65
9.68308e-63
8.81676e-61
7.56773e-59
1.68663e-117
7.26121e-114
1.51141e-110
2.03305e-107
1.98828e-104
1.50753e-101
9.22806e-99
4.6897e-96
2.01964e-93
7.48778e-91
2.42035e-88
6.89292e-86
1.74511e-83
3.95872e-81
8.10355e-79
1.50664e-76
2.55982e-74
3.99761e-72
5.77052e-70
7.7414e-68
9.70335e-66
1.14229e-63
1.26926e-61
3.83499e-123
2.21478e-119
6.14621e-116
1.10099e-112
1.43357e-109
1.44733e-106
1.18019e-103
7.99427e-101
4.59197e-98
2.27253e-95
9.8141e-93
3.73782e-90
1.26693e-87
3.85224e-85
1.05832e-82
2.64438e-80
6.04649e-78
1.27263e-75
2.47947e-73
4.49599e-71
7.62727e-69
1.21665e-66
1.83333e-64
1.02521e-129
8.71637e-126
3.52141e-122
9.16828e-119
1.73826e-115
2.56313e-112
3.05955e-109
3.03836e-106
2.56095e-103
1.86057e-100
1.17965e-97
6.59488e-95
3.27996e-92
1.46279e-89
5.89279e-87
2.15911e-84
7.24198e-82
2.23701e-79
6.39954e-77
1.70467e-74
4.24988e-72
9.96532e-70
2.20788e-67
2.46038e-138
3.94242e-134
2.88057e-130
1.33355e-126
4.45024e-123
1.14748e-119
2.39025e-116
4.14791e-113
6.1326e-110
7.85836e-107
8.84657e-104
8.84581e-101
7.92727e-98
6.41414e-95
4.71398e-92
3.16204e-89
1.94384e-86
1.09931e-83
5.73879e-81
2.77329e-78
1.24329e-75
5.17772e-73
2.00547e-70
7.93578e-147
2.08355e-142
2.18107e-138
1.42815e-134
6.76279e-131
2.49077e-127
7.46594e-124
1.88007e-120
4.07427e-117
7.74657e-114
1.3135e-110
2.01479e-107
2.83238e-104
3.69394e-101
4.52212e-98
5.25685e-95
5.87025e-92
6.37107e-89
6.80111e-86
7.22857e-83
7.74111e-80
8.43199e-77
9.32681e-74
1.05565e-15
5.18092e-16
2.49669e-16
6.8456e-16
1.76112e-15
1.00909e-15
3.15173e-14
6.2326e-14
3.59627e-12
2.98422e-12
2.43948e-12
1.81529e-12
9.4689e-11
5.09242e-11
2.66968e-11
1.36307e-11
8.47546e-11
4.34248e-11
2.19022e-11
1.07816e-11
1.82233e-11
8.69769e-12
4.06019e-12
1.87951e-12
1.68114e-12
8.3332e-13
4.01047e-13
1.89231e-13
9.75707e-15
4.64355e-15
2.13351e-15
9.4723e-16
4.32811e-15
1.81398e-15
7.2796e-16
2.77356e-16
2.40246e-15
8.82593e-16
3.092e-16
1.03873e-16
1.4158e-15
4.57994e-16
1.3876e-16
4.25903e-17
8.3003e-16
2.29779e-16
6.07564e-17
1.80855e-17
3.6936e-16
8.5454e-17
2.17001e-17
1.70756e-18
8.83983e-17
1.72249e-17
2.29574e-18
2.63223e-19
8.50303e-18
1.56062e-18
2.67893e-19
5.53358e-20
1.48196e-19
7.70621e-20
5.54854e-20
1.11108e-20
6.9932e-21
1.62996e-20
1.08193e-20
1.94591e-21
1.91398e-21
3.13869e-21
1.85995e-21
2.86132e-22
3.92037e-22
4.85123e-22
2.4527e-22
3.28664e-23
5.6365e-23
5.52915e-23
2.38868e-23
2.89019e-24
5.16464e-24
4.36863e-24
1.8087e-24
1.91356e-25
3.05355e-25
2.68003e-25
1.12839e-25
9.52646e-27
1.19744e-26
1.15018e-26
5.13439e-27
3.73999e-28
3.50342e-28
3.71389e-28
1.75232e-28
1.16414e-29
7.32018e-30
8.99534e-30
4.54457e-30
2.9617e-31
1.17664e-31
1.68342e-31
9.18575e-32
6.10988e-33
1.46558e-33
2.49135e-33
1.48017e-33
1.03415e-34
1.45735e-35
2.96226e-35
1.93303e-35
1.45357e-36
1.18004e-37
2.88097e-37
2.07946e-37
1.71778e-38
7.89908e-40
2.32522e-39
1.87053e-39
1.72779e-40
4.4301e-42
1.57779e-41
1.42632e-41
1.49612e-42
2.10619e-44
9.10801e-44
9.3369e-44
1.12741e-44
8.58126e-47
4.52317e-46
5.31032e-46
7.47028e-47
3.02717e-49
1.95338e-48
2.65425e-48
4.39644e-49
9.33518e-52
7.41473e-51
1.17901e-50
2.32093e-51
2.5405e-54
2.50079e-53
4.70607e-53
1.10987e-53
6.15497e-57
7.57806e-56
1.70686e-55
4.85474e-56
1.3377e-59
2.08674e-58
5.68885e-58
1.96146e-58
2.62128e-62
5.28213e-61
1.76249e-60
7.39208e-61
4.63401e-65
1.24346e-63
5.13618e-63
2.62434e-63
7.30807e-68
2.75369e-66
1.42537e-65
8.86548e-66
9.99382e-71
5.82089e-69
3.82187e-68
2.88064e-68
5.50835e-15
6.14402e-15
3.87287e-15
1.98263e-15
8.63125e-16
2.34117e-16
3.69831e-17
3.89152e-18
3.2893e-19
2.27526e-20
1.26149e-21
5.53681e-23
1.90832e-24
5.11056e-26
1.04438e-27
1.57793e-29
1.66591e-31
1.10017e-33
3.426e-36
7.94051e-14
5.23475e-14
2.53757e-14
1.09257e-14
3.89089e-15
8.55696e-16
1.02993e-16
8.63176e-18
6.24021e-19
3.90131e-20
2.03837e-21
8.71144e-23
2.99182e-24
8.1012e-26
1.68772e-27
2.61016e-29
2.82603e-31
1.9156e-33
6.12533e-36
8.68135e-13
3.46915e-13
1.24428e-13
4.41199e-14
1.30854e-14
2.51514e-15
2.30161e-16
1.53453e-17
9.32619e-19
5.1568e-20
2.4641e-21
9.81937e-23
3.18129e-24
8.19457e-26
1.63537e-27
2.43728e-29
2.55493e-31
1.68213e-33
5.23234e-36
4.02713e-12
1.16056e-12
3.25147e-13
9.72764e-14
2.37742e-14
2.9364e-15
2.06897e-16
1.23303e-17
6.92154e-19
3.53997e-20
1.57606e-21
5.90224e-23
1.81025e-24
4.43813e-26
8.46111e-28
1.20759e-29
1.21423e-31
7.6756e-34
2.29283e-36
3.03673e-12
8.23497e-13
2.29892e-13
6.85494e-14
1.1214e-14
1.01071e-15
6.74631e-17
4.07824e-18
2.27826e-19
1.13083e-20
4.82548e-22
1.72369e-23
5.03822e-25
1.17811e-26
2.14508e-28
2.92784e-30
2.81864e-32
1.70758e-34
4.88958e-37
4.89446e-13
1.24945e-13
3.87645e-14
9.93135e-15
2.13761e-15
2.09653e-16
1.46358e-17
8.99547e-19
4.93977e-20
2.36496e-21
9.6391e-23
3.27505e-24
9.0959e-26
2.02196e-27
3.5037e-29
4.5572e-31
4.18649e-33
2.42349e-35
6.63518e-38
4.81511e-14
1.32118e-14
3.70897e-15
1.78174e-15
3.81575e-16
3.62822e-17
2.53899e-18
1.53737e-19
8.14721e-21
3.72179e-22
1.43901e-23
4.62746e-25
1.21607e-26
2.55999e-28
4.20675e-30
5.19746e-32
4.54357e-34
2.50766e-36
6.55209e-39
2.21957e-16
8.84325e-17
5.08278e-16
3.52477e-16
6.20982e-17
5.45719e-18
3.69866e-19
2.15497e-20
1.08794e-21
4.70362e-23
1.71561e-24
5.19949e-26
1.2884e-27
2.56081e-29
3.98029e-31
4.66114e-33
3.8709e-35
2.03433e-37
5.06705e-40
5.64614e-17
2.32078e-17
1.31782e-16
6.53017e-17
9.06939e-18
7.14466e-19
4.60046e-20
2.54559e-21
1.21428e-22
4.94164e-24
1.69382e-25
4.82413e-27
1.12458e-28
2.10655e-30
3.09256e-32
3.42902e-34
2.70331e-36
1.3523e-38
3.20919e-41
1.94566e-17
9.60661e-18
3.33776e-17
1.07556e-17
1.21456e-18
8.61303e-20
5.02898e-21
2.57243e-22
1.15371e-23
4.40472e-25
1.41558e-26
3.78303e-28
8.28766e-30
1.4621e-31
2.0266e-33
2.12735e-35
1.59221e-37
7.58306e-40
1.71425e-42
6.28461e-18
3.58861e-18
6.79826e-18
1.57177e-18
1.4854e-19
9.53694e-21
5.09719e-22
2.38593e-23
9.6493e-25
3.37443e-26
1.01595e-27
2.54712e-29
5.24393e-31
8.7157e-33
1.14113e-34
1.1347e-36
8.06765e-39
3.66063e-41
7.88254e-44
1.54556e-18
1.12996e-18
1.15955e-18
2.04913e-19
1.6648e-20
9.73599e-22
4.78626e-23
2.04353e-24
7.53565e-26
2.41193e-27
6.56878e-29
1.50087e-30
2.88293e-32
4.52022e-34
5.59615e-36
5.27753e-38
3.56807e-40
1.54395e-42
3.16539e-45
2.72482e-19
2.78544e-19
1.71028e-19
2.40532e-20
1.71475e-21
9.1828e-23
4.15419e-24
1.62269e-25
5.49286e-27
1.60685e-28
3.99581e-30
8.41404e-32
1.4897e-33
2.15032e-35
2.46745e-37
2.17593e-39
1.39197e-41
5.75305e-44
1.12218e-46
5.3635e-20
5.5678e-20
2.23731e-20
2.56377e-21
1.6273e-22
8.00286e-24
3.33213e-25
1.19667e-26
3.72769e-28
9.99654e-30
2.28932e-31
4.46403e-33
7.29234e-35
9.75192e-37
1.04489e-38
8.67273e-41
5.24747e-43
2.05439e-45
3.80077e-48
1.04153e-20
9.38165e-21
2.62528e-21
2.49565e-22
1.42377e-23
6.4383e-25
2.47111e-26
8.19046e-28
2.35248e-29
5.81681e-31
1.23426e-32
2.23161e-34
3.37856e-36
4.21215e-38
4.23835e-40
3.31825e-42
1.89757e-44
7.05343e-47
1.23918e-49
1.86088e-21
1.36254e-21
2.76654e-22
2.22197e-23
1.14635e-24
4.77353e-26
1.69335e-27
5.19506e-29
1.38025e-30
3.16498e-32
6.24474e-34
1.04936e-35
1.48066e-37
1.73073e-39
1.6399e-41
1.21163e-43
6.55654e-46
2.31833e-48
3.87292e-51
2.96372e-22
1.69066e-22
2.60876e-23
1.80103e-24
8.45916e-26
3.25314e-27
1.07007e-28
3.04803e-30
7.52426e-32
1.60738e-33
2.95702e-35
4.63639e-37
6.12979e-39
6.74319e-41
6.02527e-43
4.2064e-45
2.15917e-47
7.27781e-50
1.15705e-52
4.11649e-23
1.77158e-23
2.17862e-24
1.31931e-25
5.68771e-27
2.02979e-28
6.21642e-30
1.65061e-31
3.80404e-33
7.59891e-35
1.30769e-36
1.9222e-38
2.39151e-40
2.48188e-42
2.09467e-44
1.385e-46
6.76113e-49
2.17644e-51
3.29711e-54
4.83478e-24
1.54362e-24
1.60147e-25
8.65247e-27
3.46253e-28
1.1539e-29
3.30771e-31
8.22805e-33
1.77866e-34
3.33467e-36
5.39047e-38
7.4625e-40
8.76637e-42
8.60018e-44
6.8727e-46
4.31638e-48
2.00907e-50
6.18836e-53
8.9384e-56
4.52384e-25
1.12578e-25
1.02159e-26
5.04204e-28
1.89543e-29
5.94568e-31
1.60563e-32
3.76322e-34
7.66716e-36
1.35491e-37
2.067e-39
2.70613e-41
3.01013e-43
2.7985e-45
2.12408e-47
1.27088e-49
5.65309e-52
1.66861e-54
2.30101e-57
3.20183e-26
6.91974e-27
5.58516e-28
2.59216e-29
9.2676e-31
2.76275e-32
7.08189e-34
1.57374e-35
3.03782e-37
5.08532e-39
7.35671e-41
9.14245e-43
9.65775e-45
8.53524e-47
6.17346e-49
3.52868e-51
1.50303e-53
4.25682e-56
5.61157e-59
1.73175e-27
3.50904e-28
2.5896e-29
1.16797e-30
4.02336e-32
1.15252e-33
2.8276e-35
5.99837e-37
1.10345e-38
1.7594e-40
2.42491e-42
2.87098e-44
2.88985e-46
2.43644e-48
1.68478e-50
9.223e-53
3.76858e-55
1.02548e-57
1.29295e-60
7.59321e-29
1.45736e-29
1.02389e-30
4.58372e-32
1.54452e-33
4.30079e-35
1.01892e-36
2.07853e-38
3.66715e-40
5.60069e-42
7.38799e-44
8.36545e-46
8.05394e-48
6.50177e-50
4.31118e-52
2.26539e-54
8.89414e-57
2.32812e-59
2.80914e-62
2.66919e-30
4.97216e-31
3.47225e-32
1.56508e-33
5.23474e-35
1.43257e-36
3.30718e-38
6.53687e-40
1.11343e-41
1.638e-43
2.07752e-45
2.25912e-47
2.08873e-49
1.62033e-51
1.03305e-53
5.22126e-56
1.97272e-58
4.97317e-61
5.74736e-64
7.54551e-32
1.40966e-32
1.01133e-33
4.65567e-35
1.56653e-36
4.25701e-38
9.66119e-40
1.86437e-41
3.08601e-43
4.3971e-45
5.38746e-47
5.65087e-49
5.03779e-51
3.76799e-53
2.31558e-55
1.12792e-57
4.10766e-60
9.9855e-63
1.10621e-65
1.73332e-33
3.3604e-34
2.53658e-35
1.20963e-36
4.1442e-38
1.12925e-39
2.54082e-41
4.82234e-43
7.8063e-45
1.08308e-46
1.28808e-48
1.30903e-50
1.12964e-52
8.17141e-55
4.85186e-57
2.28222e-59
8.0247e-62
1.88356e-64
2.00186e-67
3.28049e-35
6.80017e-36
5.50349e-37
2.75462e-38
9.71332e-40
2.67831e-41
6.02248e-43
1.13208e-44
1.80299e-46
2.44866e-48
2.84027e-50
2.80889e-52
2.35483e-54
1.65214e-56
9.50029e-59
4.32426e-61
1.4706e-63
3.3373e-66
3.40555e-69
5.18953e-37
1.17883e-37
1.03883e-38
5.5215e-40
2.02336e-41
5.69332e-43
1.28895e-44
2.41538e-46
3.80626e-48
5.0859e-50
5.7807e-52
5.58609e-54
4.56475e-56
3.11469e-58
1.73863e-60
7.67396e-63
2.52855e-65
5.55508e-68
5.44708e-71
6.95233e-39
1.76619e-39
1.71686e-40
9.78942e-42
3.76028e-43
1.088e-44
2.49701e-46
4.69279e-48
7.35642e-50
9.71843e-52
1.08724e-53
1.0305e-55
8.23339e-58
5.4781e-60
2.97547e-62
1.2762e-64
4.08112e-67
8.69079e-70
8.19501e-73
7.98312e-41
2.307e-41
2.50101e-42
1.54339e-43
6.26174e-45
1.87589e-46
4.39146e-48
8.32317e-50
1.30446e-51
1.71171e-53
1.89261e-55
1.76554e-57
1.38319e-59
8.99717e-62
4.7664e-64
1.9906e-66
6.18802e-69
1.2788e-71
1.16047e-74
7.94482e-43
2.64944e-43
3.23339e-44
2.17603e-45
9.38773e-47
2.92981e-48
7.03526e-50
1.35156e-51
2.12774e-53
2.78517e-55
3.05496e-57
2.81368e-59
2.16739e-61
1.38174e-63
7.15584e-66
2.91549e-68
8.82333e-71
1.77145e-73
1.54814e-76
6.92434e-45
2.69737e-45
3.73558e-46
2.75979e-47
1.27354e-48
4.16314e-50
1.03058e-51
2.01618e-53
3.20206e-55
4.19745e-57
4.58262e-59
4.17906e-61
3.17341e-63
1.98761e-65
1.00844e-67
4.01529e-70
1.1846e-72
2.31281e-75
1.94791e-78
5.33744e-47
2.45424e-47
3.88355e-48
3.16765e-49
1.57163e-50
5.40731e-52
1.38616e-53
2.77325e-55
4.46073e-57
5.87609e-59
6.40451e-61
5.79815e-63
4.35104e-65
2.68354e-67
1.3365e-69
5.20864e-72
1.49979e-74
2.85009e-77
2.31481e-80
3.67343e-49
2.0116e-49
3.65849e-50
3.31084e-51
1.77411e-52
6.45167e-54
1.71957e-55
3.53158e-57
5.7732e-59
7.66564e-61
8.36308e-63
7.53469e-65
5.60054e-67
3.40853e-69
1.6693e-71
6.3764e-74
1.79387e-76
3.32062e-79
2.60239e-82
2.2784e-51
1.49712e-51
3.14512e-52
3.17129e-53
1.84244e-54
7.10812e-56
1.97678e-57
4.1816e-59
6.96859e-61
9.35136e-63
1.02363e-64
9.19842e-67
6.78685e-69
4.08362e-71
1.96966e-73
7.3829e-76
2.03119e-78
3.66517e-81
2.77328e-84
1.28532e-53
1.01983e-53
2.48507e-54
2.80191e-55
1.77079e-56
7.27103e-58
2.11642e-59
4.6248e-61
7.87738e-63
1.07078e-64
1.17852e-66
1.05846e-68
7.7671e-71
4.62796e-73
2.20132e-75
8.10509e-78
2.18246e-80
3.84136e-83
2.80777e-86
6.6563e-56
6.40987e-56
1.81789e-56
2.29872e-57
1.58478e-58
6.94475e-60
2.12138e-61
4.80059e-63
8.3757e-65
1.15553e-66
1.28117e-68
1.15217e-70
8.42297e-73
4.97682e-75
2.33709e-77
8.45996e-80
2.23118e-82
3.83291e-85
2.70767e-88
3.19416e-58
3.74798e-58
1.24038e-58
1.76322e-59
1.32906e-60
6.22992e-62
2.00154e-63
4.70013e-65
8.41496e-67
1.18025e-68
1.32042e-70
1.19099e-72
8.68652e-75
5.09548e-77
2.36448e-79
8.42123e-82
2.17673e-84
3.65163e-87
2.49425e-90
1.43387e-60
2.05601e-60
7.95443e-61
1.27338e-61
1.05128e-62
5.28075e-64
1.78756e-65
4.3629e-67
8.02698e-69
1.14615e-70
1.29575e-72
1.17383e-74
8.55156e-77
4.98462e-79
2.28737e-81
8.02061e-84
2.03307e-86
3.33225e-89
2.20169e-92
6.0801e-63
1.06729e-62
4.83194e-63
8.72086e-64
7.8956e-65
4.25579e-66
1.51985e-67
3.86007e-69
7.30597e-71
1.06324e-72
1.21614e-74
1.10775e-76
8.06828e-79
4.67648e-81
2.12342e-83
7.33479e-86
1.82421e-88
2.9225e-91
1.86852e-94
2.45958e-65
5.28949e-65
2.80247e-65
5.70521e-66
5.66841e-67
3.2813e-68
1.23735e-69
3.27272e-71
6.37724e-73
9.46763e-75
1.0967e-76
1.00532e-78
7.32535e-81
4.22416e-83
1.89882e-85
6.46439e-88
1.57818e-90
2.4723e-93
1.5301e-96
9.59421e-68
2.52721e-67
1.56554e-67
3.59382e-68
3.91859e-69
2.43681e-70
9.70589e-72
2.67429e-73
5.36722e-75
8.13338e-77
9.5477e-79
8.81257e-81
6.42657e-83
3.68808e-85
1.64178e-87
5.51087e-90
1.32117e-92
2.02443e-95
1.21317e-98
)
;

boundaryField
{
    leftWall
    {
        type            zeroGradient;
    }
    rightWall
    {
        type            zeroGradient;
    }
    lowerWall
    {
        type            zeroGradient;
    }
    atmosphere
    {
        type            inletOutlet;
        inletValue      uniform 0;
        value           nonuniform List<scalar> 
46
(
0
0
0
0
0
0
0
0
0
0
0
0
0
0
0
0
0
0
0
0
0
0
0
9.99382e-71
5.82089e-69
3.82187e-68
2.88064e-68
9.59421e-68
2.52721e-67
1.56554e-67
3.59382e-68
3.91859e-69
2.43681e-70
9.70589e-72
2.67429e-73
5.36722e-75
8.13338e-77
9.5477e-79
8.81257e-81
6.42657e-83
3.68808e-85
1.64178e-87
5.51087e-90
1.32117e-92
2.02443e-95
1.21317e-98
)
;
    }
    defaultFaces
    {
        type            empty;
    }
}


// ************************************************************************* //
