/*--------------------------------*- C++ -*----------------------------------*\
| =========                 |                                                 |
| \\      /  F ield         | OpenFOAM: The Open Source CFD Toolbox           |
|  \\    /   O peration     | Version:  2.4.0                                 |
|   \\  /    A nd           | Web:      www.OpenFOAM.org                      |
|    \\/     M anipulation  |                                                 |
\*---------------------------------------------------------------------------*/
FoamFile
{
    version     2.0;
    format      ascii;
    class       volScalarField;
    location    "0.1";
    object      alpha.mercury;
}
// * * * * * * * * * * * * * * * * * * * * * * * * * * * * * * * * * * * * * //

dimensions      [0 0 0 0 0 0 0];

internalField   nonuniform List<scalar> 
2268
(
1
1
1
1
1
1
1
1
1
1
1
1
0.999976
0.999843
0.999156
0.995386
0.974959
0.854542
0.495383
0.138408
0.0164401
0.000520526
1.37531e-06
1
1
1
1
1
1
1
1
1
1
1
1
0.999917
0.999358
0.99654
0.982983
0.88929
0.501104
0.105446
0.0137712
0.00140514
3.52395e-05
1.07219e-07
1
1
1
1
1
1
1
1
1
1
1
1
0.999692
0.996899
0.982428
0.916095
0.585097
0.138304
0.00826612
0.000210169
1.04197e-05
4.2541e-07
3.80759e-08
1
1
1
1
1
1
1
1
1
1
1
0.999999
0.999033
0.989284
0.93414
0.668993
0.201533
0.0135138
0.000132678
1.01798e-06
4.70212e-07
1.47013e-07
1.5912e-08
1
1
1
1
1
1
1
1
1
1
1
0.999998
0.997339
0.967441
0.778793
0.307512
0.0322326
0.000511239
1.22642e-06
3.43693e-07
1.57693e-07
6.38654e-08
8.88683e-09
1
1
1
1
1
1
1
1
1
1
1
0.999997
0.992188
0.897354
0.479001
0.0848461
0.00271813
1.067e-05
6.50061e-07
2.12781e-07
6.93934e-08
2.11998e-08
3.78346e-09
1
1
1
1
1
1
1
1
1
1
1
0.999997
0.971221
0.699474
0.204165
0.0142202
0.000140913
7.04248e-07
3.64213e-07
1.40644e-07
4.97718e-08
1.49767e-08
3.02659e-09
1
1
1
1
1
1
1
1
1
1
1
0.999898
0.899654
0.422673
0.0630829
0.00176128
7.08238e-06
3.93245e-07
2.03975e-07
8.67493e-08
3.36019e-08
1.16083e-08
2.71937e-09
8.2568e-26
3.35866e-24
1.29708e-22
1.52924e-21
1.39967e-20
2.10776e-20
4.26655e-21
3.20005e-22
1.54622e-23
7.00574e-25
2.76657e-26
8.9728e-28
2.32636e-29
4.74949e-31
7.48896e-33
8.8349e-35
7.3738e-37
3.90101e-39
9.87763e-42
7.42595e-24
3.97876e-22
2.23065e-20
8.27449e-20
4.78175e-19
7.03207e-19
1.67518e-19
1.44198e-20
7.83126e-22
3.94383e-23
1.69453e-24
5.90942e-26
1.64382e-27
3.60186e-29
6.09915e-31
7.7298e-33
6.93108e-35
3.93857e-37
1.06968e-39
7.53752e-22
4.86906e-20
2.51216e-18
3.115e-18
8.29875e-18
1.06419e-17
2.98315e-18
3.08053e-19
2.00131e-20
1.13728e-21
5.16771e-23
1.85655e-24
5.2836e-26
1.18317e-27
2.0485e-29
2.65659e-31
2.43938e-33
1.42038e-35
3.95527e-38
7.58442e-20
3.65644e-18
1.41293e-16
9.53998e-17
1.04093e-16
9.89522e-17
3.12058e-17
3.96982e-18
3.2856e-19
2.04343e-20
9.61873e-22
3.55148e-23
1.04006e-24
2.39983e-26
4.28663e-28
5.74055e-30
5.44455e-32
3.27255e-34
9.39528e-37
9.67752e-18
1.63325e-16
3.36277e-15
1.70637e-15
1.01496e-15
6.40689e-16
2.04569e-16
3.14525e-17
3.15146e-18
2.11643e-19
1.05188e-20
4.08227e-22
1.24989e-23
2.99919e-25
5.54681e-27
7.66816e-29
7.49681e-31
4.64408e-33
1.37511e-35
1.3588e-16
3.23279e-14
3.01836e-14
1.37884e-14
6.29616e-15
2.88731e-15
8.5326e-16
1.52076e-16
1.586e-17
1.11719e-18
5.88966e-20
2.4248e-21
7.86204e-23
1.99639e-24
3.90519e-26
5.70514e-28
5.88622e-30
3.8415e-32
1.19609e-34
3.96544e-17
2.69866e-13
1.48873e-13
5.94629e-14
2.32173e-14
8.77244e-15
2.38904e-15
4.04136e-16
4.35848e-17
3.34103e-18
1.94182e-19
8.78355e-21
3.11009e-22
8.56758e-24
1.80548e-25
2.82142e-27
3.09235e-29
2.13017e-31
6.96028e-34
3.95556e-12
1.35763e-12
5.23027e-13
1.80508e-13
5.98034e-14
1.87147e-14
4.5452e-15
7.14834e-16
7.87076e-17
6.50088e-18
4.14186e-19
2.05125e-20
7.90502e-22
2.35579e-23
5.34415e-25
8.95526e-27
1.049e-28
7.69754e-31
2.66987e-33
1
1
0.999999
0.999999
0.999996
0.99999
0.999961
0.999855
0.999401
0.997363
0.98929
0.91564
0.625209
0.156174
0.00927243
9.36138e-05
4.10433e-07
1.1859e-07
6.02834e-08
2.5888e-08
1.10008e-08
4.1785e-09
1.71133e-09
0.999448
0.999356
0.999123
0.998605
0.997443
0.995147
0.989757
0.978542
0.95286
0.896808
0.786736
0.468662
0.171836
0.0145553
0.000153214
4.9622e-07
3.14641e-08
1.47185e-08
7.48429e-09
3.76523e-09
1.87666e-09
8.32558e-10
4.15443e-10
0.938567
0.934203
0.92372
0.904303
0.872596
0.828986
0.760199
0.669975
0.541224
0.387104
0.223819
0.0651507
0.0176504
0.000960296
6.43719e-06
4.10011e-08
2.35914e-08
1.32999e-08
6.26213e-09
2.7575e-09
1.18462e-09
4.8598e-10
2.0564e-10
0.392921
0.382757
0.357387
0.314178
0.258469
0.20724
0.146672
0.0977717
0.0551582
0.0272062
0.0110887
0.00376964
0.000697471
6.18638e-05
1.53888e-06
6.35483e-09
7.17174e-10
5.79369e-10
3.76559e-10
1.65196e-10
8.43495e-11
2.87502e-11
1.0044e-11
8.16578e-06
4.68888e-07
5.23748e-06
3.36861e-06
8.92184e-06
1.0702e-05
1.32366e-05
1.30336e-05
1.21406e-05
1.02585e-05
1.01748e-05
8.22619e-06
4.02834e-06
1.82107e-06
2.80214e-07
7.50032e-09
2.11629e-11
2.36536e-12
7.05294e-13
2.28703e-13
7.71424e-14
2.57198e-14
8.42282e-15
1.53787e-10
1.62941e-12
2.10448e-10
2.29809e-10
1.86381e-09
2.33144e-09
3.68128e-09
4.13702e-09
6.39179e-09
6.54884e-09
6.0758e-09
6.00268e-09
4.55848e-09
2.16156e-09
2.9197e-10
4.06717e-12
5.24853e-13
1.01227e-13
2.29829e-14
5.33413e-15
1.24088e-15
2.90837e-16
6.96962e-17
8.13229e-89
1.35975e-85
1.19225e-82
7.28389e-80
3.45416e-77
1.33075e-74
4.24048e-72
1.11461e-69
2.36909e-67
3.95644e-65
5.07942e-63
5.73435e-61
1.64667e-60
2.9877e-60
5.88544e-59
5.3789e-57
6.46076e-55
8.20311e-53
1.16047e-50
1.99058e-48
3.03866e-46
1.40378e-43
1.49121e-40
6.30368e-87
1.00083e-83
8.25798e-81
4.70581e-78
2.06634e-75
7.28817e-73
2.11043e-70
5.00175e-68
9.53556e-66
1.42631e-63
1.66158e-61
1.6956e-59
5.30615e-59
1.436e-58
3.97998e-57
3.57289e-55
3.94779e-53
4.59752e-51
5.86409e-49
8.46318e-47
1.09633e-44
4.67203e-42
4.14344e-39
4.26581e-85
6.45034e-82
5.03811e-79
2.69643e-76
1.10239e-73
3.59667e-71
9.55458e-69
2.06575e-66
3.57478e-64
4.84623e-62
5.16542e-60
4.78378e-58
1.65185e-57
6.61097e-57
2.3371e-55
1.9989e-53
1.99183e-51
2.10385e-49
2.38759e-47
2.91302e-45
3.17469e-43
1.26494e-40
9.58965e-38
2.57482e-83
3.71848e-80
2.76044e-77
1.39459e-74
5.34409e-72
1.62366e-69
3.98958e-67
7.92681e-65
1.25429e-62
1.5512e-60
1.51965e-58
1.28028e-56
4.96342e-56
2.91157e-55
1.20467e-53
9.623e-52
8.60983e-50
8.19622e-48
8.20354e-46
8.47373e-44
7.72001e-42
2.90236e-39
1.90767e-36
1.40872e-81
1.94789e-78
1.37916e-75
6.6052e-73
2.38435e-70
6.7827e-68
1.54977e-65
2.84441e-63
4.1347e-61
4.68196e-59
4.22896e-57
3.24584e-55
1.44507e-54
1.22299e-53
5.53346e-52
4.07027e-50
3.27714e-48
2.79879e-46
2.45407e-44
2.1439e-42
1.62494e-40
5.79883e-38
3.33116e-35
7.07405e-80
9.38677e-77
6.35861e-74
2.89782e-71
9.89476e-69
2.64601e-66
5.64311e-64
9.59863e-62
1.28535e-59
1.3356e-57
1.11394e-55
7.79227e-54
4.10303e-53
4.88231e-52
2.29773e-50
1.54164e-48
1.12231e-46
8.56156e-45
6.53838e-43
4.81583e-41
3.0323e-39
1.02869e-36
5.16642e-34
3.29364e-78
4.20321e-75
2.73277e-72
1.18925e-69
3.8535e-67
9.71466e-65
1.93826e-62
3.06142e-60
3.7825e-58
3.61087e-56
2.78089e-54
1.77305e-52
1.14698e-51
1.84914e-50
8.71845e-49
5.32517e-47
3.51777e-45
2.38659e-43
1.57826e-41
9.75317e-40
5.14978e-38
1.6448e-35
7.19468e-33
1.43581e-76
1.76554e-73
1.10416e-70
4.60182e-68
1.41894e-65
3.37866e-63
6.31479e-61
9.27234e-59
1.058e-56
9.28407e-55
6.59222e-53
3.83085e-51
3.19448e-50
6.63461e-49
3.05095e-47
1.70505e-45
1.0232e-43
6.14705e-42
3.49666e-40
1.80207e-38
8.29851e-37
2.40806e-34
9.09665e-32
5.9111e-75
7.02073e-72
4.23049e-69
1.69116e-66
4.97035e-64
1.11928e-61
1.96121e-59
2.67952e-57
2.82567e-55
2.27981e-53
1.48877e-51
7.88597e-50
8.95767e-49
2.25542e-47
9.93355e-46
5.1257e-44
2.79299e-42
1.47899e-40
7.17715e-39
3.06676e-37
1.35325e-35
3.2782e-33
1.06137e-30
2.31175e-73
2.66168e-70
1.54967e-67
5.95056e-65
1.66674e-62
3.54931e-60
5.83351e-58
7.42271e-56
7.24191e-54
5.37837e-52
3.23028e-50
1.5633e-48
2.51897e-47
7.24326e-46
3.03225e-44
1.4599e-42
7.21018e-41
3.34742e-39
1.37391e-37
4.8761e-36
2.38235e-34
4.15975e-32
1.10698e-29
8.6447e-72
9.67888e-69
5.45623e-66
2.01486e-63
5.38252e-61
1.08368e-58
1.67113e-56
1.98131e-54
1.78984e-52
1.22699e-50
6.82564e-49
3.08268e-47
6.86273e-46
2.1529e-44
8.74676e-43
3.97339e-41
1.77268e-39
7.15991e-38
2.46659e-36
7.50301e-35
4.58903e-33
4.7917e-31
9.755e-29
3.1209e-70
3.40624e-67
1.86064e-64
6.60864e-62
1.6845e-59
3.20916e-57
4.64633e-55
5.12546e-53
4.2714e-51
2.69727e-49
1.39893e-47
5.89656e-46
1.77734e-44
5.97512e-43
2.44993e-41
1.05652e-39
4.20354e-38
1.43171e-36
4.01038e-35
1.08519e-33
7.9821e-32
5.276e-30
8.67782e-29
1.08824e-68
1.16087e-65
6.14541e-63
2.09905e-60
5.1027e-58
9.18854e-56
1.24655e-53
1.27875e-51
9.86647e-50
5.70722e-48
2.47334e-46
8.89069e-45
3.57912e-43
1.52295e-41
6.62592e-40
2.68583e-38
9.33454e-37
2.65461e-35
6.09218e-34
1.19695e-32
2.05289e-31
2.63e-30
2.16047e-29
7.63772e-68
6.95806e-65
3.35547e-62
1.07295e-59
2.52575e-57
4.61809e-55
6.70884e-53
7.72595e-51
6.93982e-49
4.74935e-47
2.41585e-45
9.18959e-44
2.59959e-42
6.64926e-41
1.65098e-39
3.99429e-38
9.2448e-37
1.94954e-35
3.52031e-34
5.07284e-33
5.57866e-32
4.74618e-31
3.33318e-30
1.3152e-69
1.59661e-66
1.00263e-63
4.03102e-61
1.12492e-58
2.27634e-56
3.42527e-54
3.9078e-52
3.42522e-50
2.32633e-48
1.23645e-46
5.26985e-45
1.87687e-43
6.05771e-42
1.76228e-40
4.56457e-39
1.03075e-37
1.9708e-36
3.11184e-35
3.97441e-34
4.09771e-33
3.50967e-32
2.72793e-31
5.49735e-71
6.02519e-68
3.19196e-65
1.07184e-62
2.54452e-60
4.51561e-58
6.17356e-56
6.60569e-54
5.59934e-52
3.80239e-50
2.09614e-48
9.50882e-47
3.6159e-45
1.19093e-43
3.4715e-42
9.0059e-41
2.06924e-39
4.18497e-38
7.33902e-37
1.07734e-35
1.28829e-34
1.29613e-33
1.20786e-32
3.54463e-73
3.96328e-70
2.12967e-67
7.24361e-65
1.73805e-62
3.11356e-60
4.30626e-58
4.6947e-56
4.09664e-54
2.89949e-52
1.68623e-50
8.17982e-49
3.384e-47
1.22215e-45
3.88115e-44
1.08508e-42
2.65548e-41
5.62705e-40
1.02299e-38
1.60245e-37
2.19523e-36
2.70348e-35
3.13468e-34
1.1755e-75
1.31237e-72
7.01156e-70
2.37959e-67
5.73313e-65
1.03996e-62
1.47155e-60
1.66321e-58
1.52818e-56
1.15817e-54
7.33276e-53
3.92814e-51
1.8048e-49
7.18735e-48
2.49892e-46
7.63102e-45
2.05569e-43
4.89677e-42
1.03181e-40
1.91374e-39
3.11615e-38
4.55186e-37
6.18827e-36
2.62554e-78
3.00752e-75
1.65243e-72
5.78663e-70
1.44577e-67
2.73482e-65
4.06037e-63
4.84739e-61
4.73652e-59
3.84273e-57
2.62207e-55
1.52393e-53
7.63582e-52
3.33135e-50
1.27382e-48
4.28808e-47
1.27436e-45
3.35156e-44
7.8215e-43
1.62922e-41
3.0687e-40
5.31973e-39
8.6792e-38
3.68156e-81
4.40549e-78
2.52973e-75
9.2797e-73
2.43692e-70
4.86685e-68
7.67135e-66
9.7867e-64
1.02937e-61
9.05862e-60
6.75427e-58
4.31571e-56
2.3867e-54
1.15194e-52
4.8866e-51
1.83228e-49
6.10325e-48
1.81452e-46
4.83995e-45
1.16604e-43
2.56234e-42
5.20828e-41
9.96574e-40
3.56191e-84
4.50794e-81
2.74279e-78
1.06858e-75
2.98964e-73
6.38596e-71
1.08158e-68
1.49035e-66
1.70262e-64
1.63681e-62
1.34068e-60
9.45736e-59
5.79884e-57
3.11489e-55
1.47584e-53
6.20523e-52
2.32837e-50
7.84184e-49
2.38602e-47
6.61255e-46
1.68694e-44
4.01211e-43
9.01731e-42
2.42587e-87
3.2903e-84
2.14813e-81
8.99803e-79
2.71381e-76
6.26949e-74
1.15288e-71
1.73223e-69
2.1679e-67
2.29393e-65
2.07756e-63
1.6273e-61
1.11222e-59
6.68499e-58
3.55816e-56
1.68794e-54
7.18153e-53
2.75812e-51
9.63085e-50
3.08332e-48
9.14094e-47
2.53786e-45
6.67662e-44
1.18909e-90
1.7477e-87
1.23793e-84
5.63563e-82
1.85148e-79
4.6723e-77
9.41574e-75
1.55606e-72
2.15026e-70
2.5223e-68
2.54244e-66
2.22488e-64
1.70527e-62
1.15371e-60
6.93907e-59
3.73525e-57
1.81148e-55
7.96957e-54
3.20461e-52
1.1877e-50
4.09567e-49
1.32754e-47
4.08685e-46
4.23211e-94
6.81365e-91
5.29192e-88
2.64551e-85
9.56273e-83
2.66146e-80
5.93154e-78
1.08741e-75
1.67242e-73
2.19088e-71
2.47481e-69
2.4354e-67
2.10642e-65
1.61395e-63
1.10345e-61
6.77863e-60
3.76736e-58
1.90775e-56
8.8691e-55
3.81671e-53
1.53399e-51
5.81207e-50
2.09573e-48
1.09441e-97
1.95052e-94
1.67845e-91
9.3087e-89
3.73913e-86
1.15878e-83
2.88247e-81
5.91354e-79
1.02067e-76
1.505e-74
1.91944e-72
2.13934e-70
2.1025e-68
1.83659e-66
1.43653e-64
1.01324e-62
6.49011e-61
3.80233e-59
2.05293e-57
1.02968e-55
4.83842e-54
2.14855e-52
9.09588e-51
2.03913e-101
4.06699e-98
3.91946e-95
2.43716e-92
1.09918e-89
3.83142e-87
1.07415e-84
2.48927e-82
4.86524e-80
8.14495e-78
1.18262e-75
1.5049e-73
1.69358e-71
1.69923e-69
1.53146e-67
1.24877e-65
9.27821e-64
6.32654e-62
3.98858e-60
2.34308e-58
1.29292e-56
6.75622e-55
3.37106e-53
2.6866e-105
6.0668e-102
6.62426e-99
4.67131e-96
2.39226e-93
9.48286e-91
3.02862e-88
8.01139e-86
1.79114e-83
3.43799e-81
5.73739e-79
8.41286e-77
1.09387e-74
1.27159e-72
1.33163e-70
1.2654e-68
1.09892e-66
8.7844e-65
6.51079e-63
4.50816e-61
2.93869e-59
1.81739e-57
1.07468e-55
2.42357e-109
6.27821e-106
7.8687e-103
6.37473e-100
3.75452e-97
1.71386e-94
6.31289e-92
1.92922e-89
4.99242e-87
1.11142e-84
2.15587e-82
3.6828e-80
5.59204e-78
7.61031e-76
9.35428e-74
1.0461e-71
1.07205e-69
1.01411e-67
8.92111e-66
7.35457e-64
5.72625e-62
4.24243e-60
3.01155e-58
1.42173e-113
4.29059e-110
6.26836e-107
5.92377e-104
4.07358e-101
2.17354e-98
9.37039e-96
3.35655e-93
1.01981e-90
2.67031e-88
6.10415e-86
1.23145e-83
2.21329e-81
3.57427e-79
5.22763e-77
6.97691e-75
8.55897e-73
9.71993e-71
1.029e-68
1.02252e-66
9.60346e-65
8.58392e-63
7.3517e-61
5.00108e-118
1.79212e-114
3.11055e-111
3.49446e-108
2.85886e-105
1.81653e-102
9.33698e-100
3.99322e-97
1.4509e-94
4.55171e-92
1.24919e-89
3.03237e-87
6.57314e-85
1.28318e-82
2.27349e-80
3.68255e-78
5.49141e-76
7.59045e-74
9.79155e-72
1.18686e-69
1.36108e-67
1.48684e-65
1.55746e-63
9.26207e-123
4.0429e-119
8.54963e-116
1.1709e-112
1.1687e-109
9.06909e-107
5.69982e-104
2.9847e-101
1.32972e-98
5.12247e-96
1.72877e-93
5.16764e-91
1.3812e-88
3.32895e-86
7.29142e-84
1.46199e-81
2.70244e-79
4.63685e-77
7.43513e-75
1.12169e-72
1.60279e-70
2.18351e-68
2.85405e-66
7.28854e-128
4.0203e-124
1.07368e-120
1.85687e-117
2.34101e-114
2.29549e-111
1.82399e-108
1.20836e-105
6.81594e-103
3.32726e-100
1.42432e-97
5.4062e-95
1.83697e-92
5.63576e-90
1.57341e-87
4.02676e-85
9.51354e-83
2.0891e-80
4.29246e-78
8.30698e-76
1.52399e-73
2.66725e-71
4.48036e-69
1.62757e-133
1.2015e-129
4.26781e-126
9.80565e-123
1.64196e-119
2.13874e-116
2.25851e-113
1.98967e-110
1.49347e-107
9.70927e-105
5.53994e-102
2.80532e-99
1.27294e-96
5.2205e-94
1.95036e-91
6.68653e-89
2.1184e-86
6.24412e-84
1.72369e-81
4.4851e-79
1.10697e-76
2.60717e-74
5.89287e-72
4.09104e-140
4.44124e-136
2.294e-132
7.65156e-129
1.86333e-125
3.54012e-122
5.46447e-119
7.04614e-116
7.74678e-113
7.37841e-110
6.1669e-107
4.57232e-104
3.03581e-101
1.82047e-98
9.93839e-96
4.97711e-93
2.30313e-90
9.91537e-88
3.99741e-85
1.51872e-82
5.47097e-80
1.8797e-77
6.19351e-75
8.98474e-149
1.83238e-144
1.70541e-140
1.00734e-136
4.29918e-133
1.42192e-129
3.81289e-126
8.55269e-123
1.64206e-119
2.74646e-116
4.05842e-113
5.35945e-110
6.38543e-107
6.91839e-104
6.8614e-101
6.26275e-98
5.28592e-95
4.14409e-92
3.03043e-89
2.07459e-86
1.3336e-83
8.06771e-81
4.60297e-78
3.05063e-157
1.00041e-152
1.30988e-148
1.07507e-144
6.39792e-141
2.97075e-137
1.12673e-133
3.60501e-130
9.97212e-127
2.43263e-123
5.32202e-120
1.05983e-116
1.94742e-113
3.34428e-110
5.43436e-107
8.45906e-104
1.27693e-100
1.89277e-97
2.79037e-94
4.14486e-91
6.28297e-88
9.81852e-85
1.58025e-81
9.74585e-10
5.23032e-10
2.27747e-10
1.02101e-10
2.96425e-10
2.13315e-10
9.51503e-11
4.39891e-11
1.30946e-10
7.83648e-11
4.51839e-11
2.55149e-11
5.14615e-12
2.67209e-12
1.39867e-12
7.24588e-13
4.34825e-15
2.2213e-15
1.115e-15
5.4888e-16
2.88393e-17
1.19381e-17
4.9277e-18
2.04019e-18
4.28348e-37
1.97998e-34
2.55192e-30
3.45855e-27
8.59087e-36
2.03393e-33
9.17135e-31
2.05782e-27
1.41506e-34
2.6427e-32
2.45696e-30
1.45615e-27
1.98962e-33
3.01367e-31
2.54957e-29
1.54943e-27
2.46673e-32
3.06712e-30
2.56297e-28
8.18374e-27
2.71919e-31
2.85933e-29
2.20154e-27
1.09226e-25
2.67678e-30
2.38213e-28
1.57769e-26
4.92126e-24
2.38198e-29
1.78493e-27
2.26834e-25
2.69826e-24
1.91801e-28
1.58198e-26
1.86211e-25
1.0638e-24
1.51321e-27
1.64155e-26
8.17143e-26
3.1736e-25
1.49182e-27
6.80503e-27
2.46118e-26
7.30293e-26
6.01312e-28
1.97136e-27
5.53245e-27
1.3131e-26
1.34308e-28
3.65169e-28
8.62494e-28
1.78441e-27
1.79313e-29
4.29978e-29
9.27032e-29
1.80363e-28
1.40533e-30
3.27967e-30
7.17966e-30
1.33317e-29
7.07061e-32
1.82899e-31
4.15056e-31
7.19376e-31
2.37393e-33
7.00444e-33
1.71092e-32
3.02624e-32
5.93808e-35
1.98051e-34
5.25171e-34
9.96619e-34
1.0756e-36
4.18347e-36
1.2369e-35
2.63914e-35
1.51157e-38
6.83961e-38
2.29538e-37
5.58905e-37
1.66951e-40
8.89771e-40
3.43132e-39
9.59702e-39
1.49194e-42
9.38377e-42
4.19693e-41
1.35487e-40
1.0997e-44
8.17581e-44
4.26344e-43
1.59432e-42
6.7833e-47
5.97228e-46
3.64598e-45
1.5843e-44
3.54507e-49
3.70423e-48
2.65645e-47
1.34528e-46
1.58603e-51
1.97215e-50
1.66688e-49
9.86743e-49
6.12921e-54
9.1007e-53
9.097e-52
6.315e-51
2.06168e-56
3.67126e-55
4.35713e-54
3.55968e-53
6.07348e-59
1.30452e-57
1.84685e-56
1.78311e-55
1.57452e-61
4.11002e-60
6.98103e-59
8.00442e-58
3.60166e-64
1.15428e-62
2.36949e-61
3.24562e-60
7.2658e-67
2.89996e-65
7.264e-64
1.1973e-62
1.28513e-69
6.52311e-68
2.02004e-66
4.04314e-65
1.96408e-72
1.30928e-70
5.10642e-69
1.25539e-67
2.50806e-75
2.32027e-73
1.17198e-71
3.58987e-70
2.50071e-78
3.53852e-76
2.41929e-74
9.38233e-73
3.0197e-11
3.11876e-12
1.16676e-12
3.81719e-13
1.13241e-13
3.08441e-14
6.26082e-15
8.6894e-16
9.59594e-17
8.49802e-18
5.93224e-19
3.24121e-20
1.37951e-21
4.53222e-23
1.12932e-24
2.06837e-26
2.63291e-28
2.08663e-30
7.76733e-33
1.65808e-11
5.77302e-12
1.87255e-12
5.59599e-13
1.61583e-13
4.41467e-14
7.03789e-15
8.02684e-16
7.80275e-17
6.38389e-18
4.24246e-19
2.24683e-20
9.35532e-22
3.01838e-23
7.39288e-25
1.33041e-26
1.66243e-28
1.29177e-30
4.70717e-33
8.49862e-12
2.72437e-12
8.17773e-13
2.28298e-13
7.59257e-14
1.89529e-14
2.92017e-15
3.26087e-16
3.0418e-17
2.37812e-18
1.51358e-19
7.69699e-21
3.08343e-22
9.58657e-24
2.26569e-25
3.93876e-27
4.75879e-29
3.57756e-31
1.26126e-33
2.17587e-13
6.60265e-14
1.85396e-14
5.87686e-15
2.24002e-15
2.50271e-15
6.0464e-16
7.72819e-17
7.4018e-18
5.66614e-19
3.47075e-20
1.68887e-21
6.4658e-23
1.92204e-24
4.34768e-26
7.24235e-28
8.39394e-30
6.05982e-32
2.05249e-34
1.55952e-16
4.27153e-17
1.31127e-17
3.44183e-17
3.75559e-16
4.74946e-16
1.14203e-16
1.47405e-17
1.38925e-18
1.02316e-19
5.96854e-21
2.75604e-22
1.00087e-23
2.82469e-25
6.0747e-27
9.63558e-29
1.06508e-30
7.34492e-33
2.37853e-35
4.66069e-19
1.16123e-19
6.4365e-19
1.62195e-17
1.13298e-16
9.19864e-17
1.96164e-17
2.41148e-18
2.16488e-19
1.508e-20
8.2889e-22
3.60356e-23
1.2331e-24
3.28449e-26
6.67952e-28
1.00398e-29
1.05384e-31
6.91608e-34
2.13409e-36
2.14884e-23
7.09729e-21
4.81962e-19
8.8084e-18
3.10485e-17
1.64412e-17
3.02996e-18
3.44852e-19
2.89108e-20
1.88115e-21
9.66073e-23
3.92876e-24
1.26001e-25
3.15292e-27
6.03888e-29
8.57103e-31
8.51778e-33
5.30639e-35
1.55664e-37
1.19133e-23
5.39324e-21
3.43282e-19
3.76819e-18
7.07515e-18
2.6322e-18
4.18538e-19
4.34207e-20
3.3583e-21
2.02384e-22
9.65076e-24
3.65371e-25
1.09397e-26
2.56323e-28
4.61105e-30
6.16557e-32
5.79015e-34
3.41907e-36
9.52191e-39
8.37032e-24
4.38522e-21
2.15315e-19
1.23776e-18
1.35196e-18
3.74511e-19
5.14909e-20
4.82598e-21
3.41755e-22
1.89682e-23
8.36378e-25
2.93846e-26
8.19315e-28
1.79394e-29
3.02617e-31
3.80735e-33
3.37571e-35
1.88832e-37
4.98901e-40
1.18115e-23
6.89388e-21
1.00492e-19
3.1411e-19
2.20859e-19
4.79962e-20
5.67237e-21
4.73484e-22
3.05681e-23
1.55737e-24
6.33449e-26
2.06173e-27
5.34661e-29
1.09302e-30
1.72796e-32
2.04495e-34
1.71168e-36
9.0719e-39
2.27352e-41
7.36183e-23
3.85106e-21
3.26178e-20
6.43563e-20
3.13497e-20
5.5512e-21
5.72149e-22
4.25445e-23
2.44335e-24
1.12361e-25
4.21219e-27
1.26965e-28
3.06176e-30
5.84483e-32
8.66217e-34
9.6475e-36
7.6284e-38
3.83392e-40
9.11621e-43
1.0942e-22
1.50072e-21
8.15974e-21
1.09673e-20
3.92855e-21
5.81905e-22
5.28762e-23
3.50909e-24
1.81049e-25
7.53416e-27
2.54047e-28
6.93671e-30
1.54651e-31
2.76016e-33
3.83885e-35
4.02893e-37
3.01319e-39
1.43804e-41
3.24477e-44
4.90822e-23
4.43259e-22
1.66253e-21
1.59177e-21
4.38864e-22
5.54326e-23
4.47209e-24
2.66257e-25
1.24306e-26
4.68563e-28
1.43285e-29
3.57967e-31
7.32106e-33
1.19903e-34
1.54054e-36
1.50649e-38
1.06178e-40
4.82205e-43
1.03264e-45
1.59115e-23
1.05775e-22
2.85657e-22
2.00221e-22
4.39769e-23
4.80371e-24
3.45983e-25
1.85941e-26
7.88859e-28
2.70331e-29
7.55568e-31
1.73701e-32
3.26495e-34
4.93574e-36
5.89845e-38
5.4091e-40
3.59673e-42
1.54527e-44
3.1351e-47
4.21849e-24
2.11736e-23
4.20532e-23
2.2078e-23
3.96417e-24
3.7851e-25
2.44723e-26
1.19371e-27
4.61834e-29
1.44709e-30
3.72071e-32
7.89171e-34
1.36935e-35
1.92222e-37
2.14947e-39
1.8547e-41
1.1641e-43
4.74478e-46
9.13638e-49
9.32707e-25
3.61337e-24
5.32725e-24
2.14578e-24
3.21343e-25
2.70723e-26
1.58045e-27
7.03111e-29
2.49121e-30
7.18127e-32
1.70662e-33
3.34983e-35
5.39572e-37
7.07553e-39
7.43218e-41
6.04449e-43
3.58772e-45
1.39074e-47
2.54657e-50
1.70166e-25
5.19296e-25
5.79993e-25
1.83522e-25
2.33559e-26
1.7526e-27
9.29655e-29
3.79091e-30
1.23666e-31
3.29817e-33
7.2728e-35
1.32677e-36
1.99529e-38
2.45612e-40
2.43004e-42
1.86654e-44
1.05078e-46
3.88403e-49
6.77265e-52
2.544e-26
6.19313e-26
5.38452e-26
1.37485e-26
1.51482e-27
1.02297e-28
4.96501e-30
1.86648e-31
5.63971e-33
1.39874e-34
2.87389e-36
4.89831e-38
6.91423e-40
8.01964e-42
7.49219e-44
5.4507e-46
2.91931e-48
1.03136e-50
1.71566e-53
3.06997e-27
6.02866e-27
4.24744e-27
8.96162e-28
8.72298e-29
5.36034e-30
2.39959e-31
8.37228e-33
2.35787e-34
5.46569e-36
1.05151e-37
1.68369e-39
2.24114e-41
2.45709e-43
2.17404e-45
1.50307e-47
7.68219e-50
2.60039e-52
4.13113e-55
2.88752e-28
4.81246e-28
2.81535e-28
5.05929e-29
4.43669e-30
2.51122e-31
1.04622e-32
3.41352e-34
9.01797e-36
1.96434e-37
3.55821e-39
5.38115e-41
6.78219e-43
7.05096e-45
5.92934e-47
3.90913e-49
1.91203e-51
6.21341e-54
9.44336e-57
2.0551e-29
3.16966e-29
1.55405e-29
2.46454e-30
1.98414e-31
1.04816e-32
4.10416e-34
1.26236e-35
3.14928e-37
6.48462e-39
1.11248e-40
1.59699e-42
1.91319e-44
1.89276e-46
1.51844e-48
9.57795e-51
4.4948e-53
1.40474e-55
2.04571e-58
1.12261e-30
1.68775e-30
7.09668e-31
1.03282e-31
7.77519e-33
3.88799e-34
1.44568e-35
4.22734e-37
1.00287e-38
1.96456e-40
3.21076e-42
4.3957e-44
5.02502e-46
4.74924e-48
3.64837e-50
2.2086e-52
9.96739e-55
3.00092e-57
4.19045e-60
4.97934e-32
7.227e-32
2.70674e-32
3.71408e-33
2.666e-34
1.27981e-35
4.56723e-37
1.28059e-38
2.91005e-40
5.45937e-42
8.54822e-44
1.12119e-45
1.22807e-47
1.11331e-49
8.21876e-52
4.78819e-54
2.08223e-56
6.04778e-59
8.10335e-62
1.77196e-33
2.50178e-33
8.70819e-34
1.14883e-34
8.0072e-36
3.73848e-37
1.29387e-38
3.50853e-40
7.69387e-42
1.3914e-43
2.09853e-45
2.64888e-47
2.79188e-49
2.43742e-51
1.73477e-53
9.75003e-56
4.0927e-58
1.14818e-60
1.47738e-63
5.06974e-35
7.09652e-35
2.37535e-35
3.07054e-36
2.11193e-37
9.70489e-39
3.28971e-40
8.69907e-42
1.85435e-43
3.25299e-45
4.75023e-47
5.79672e-49
5.90433e-51
4.9829e-53
3.42897e-55
1.86321e-57
7.56152e-60
2.05141e-62
2.53678e-65
1.17666e-36
1.67207e-36
5.52607e-37
7.12846e-38
4.90787e-39
2.24419e-40
7.51953e-42
1.95447e-43
4.0782e-45
6.98063e-47
9.91854e-49
1.17546e-50
1.16186e-52
9.5113e-55
6.34457e-57
3.33956e-59
1.31237e-61
3.44706e-64
4.0995e-67
2.24214e-38
3.30934e-38
1.10442e-38
1.4457e-39
1.00891e-40
4.63687e-42
1.54887e-43
3.98663e-45
8.19562e-47
1.37632e-48
1.91193e-50
2.21028e-52
2.12835e-54
1.69527e-56
1.09873e-58
5.61287e-61
2.1391e-63
5.4459e-66
6.23287e-69
3.55266e-40
5.56003e-40
1.91115e-40
2.57674e-41
1.84298e-42
8.59094e-44
2.88324e-45
7.39959e-47
1.50765e-48
2.49666e-50
3.4065e-52
3.8577e-54
3.63165e-56
2.82231e-58
1.78109e-60
8.84684e-63
3.27469e-65
8.08964e-68
8.91568e-71
4.73645e-42
8.0103e-42
2.88657e-42
4.0613e-43
3.00627e-44
1.43298e-45
4.86646e-47
1.2531e-48
2.54413e-50
4.17428e-52
5.61853e-54
6.25713e-56
5.77698e-58
4.39124e-60
2.70395e-62
1.30824e-64
4.71025e-67
1.13026e-69
1.20023e-72
5.37291e-44
9.99237e-44
3.83561e-44
5.69638e-45
4.40167e-46
2.16113e-47
7.47419e-49
1.94188e-50
3.94786e-52
6.44619e-54
8.59406e-56
9.44512e-58
8.57631e-60
6.39096e-62
3.8475e-64
1.81643e-66
6.37019e-69
1.48625e-71
1.52152e-74
5.24122e-46
1.08939e-45
4.51861e-46
7.1552e-47
5.81567e-48
2.96024e-49
1.04855e-50
2.76255e-52
5.64886e-54
9.21666e-56
1.22161e-57
1.32907e-59
1.18986e-61
8.71107e-64
5.13723e-66
2.37053e-68
8.10818e-71
1.84105e-73
1.81795e-76
4.44156e-48
1.04733e-47
4.75502e-48
8.09987e-49
6.97158e-50
3.70004e-51
1.34908e-52
3.62036e-54
7.47587e-56
1.22338e-57
1.6174e-59
1.74674e-61
1.54531e-63
1.11374e-65
6.44604e-68
2.91182e-70
9.72534e-73
2.15086e-75
2.04964e-78
3.30197e-50
8.95607e-50
4.50255e-50
8.31577e-51
7.62434e-52
4.24043e-53
1.59859e-54
4.38692e-56
9.18136e-58
1.512e-59
1.99969e-61
2.14885e-63
1.88249e-65
1.33825e-67
7.61464e-70
3.37203e-72
1.10094e-74
2.37336e-77
2.18368e-80
2.17413e-52
6.86971e-52
3.86408e-52
7.79155e-53
7.64951e-54
4.47804e-55
1.75226e-56
4.93461e-58
1.05015e-59
1.7455e-61
2.31516e-63
2.48069e-65
2.15611e-67
1.51458e-69
8.48607e-72
3.68869e-74
1.17838e-76
2.47784e-79
2.20221e-82
1.27977e-54
4.76574e-54
3.02698e-54
6.70474e-55
7.08083e-56
4.37978e-57
1.78491e-58
5.17429e-60
1.12293e-61
1.88867e-63
2.51769e-65
2.69498e-67
2.32808e-69
1.61868e-71
8.94329e-74
3.82002e-76
1.19503e-78
2.45254e-81
2.10647e-84
6.79693e-57
3.01474e-56
2.17992e-56
5.33262e-57
6.08217e-58
3.98824e-59
1.69777e-60
5.08012e-62
1.12712e-63
1.92242e-65
2.58034e-67
2.76388e-69
2.3769e-71
1.63821e-73
8.93659e-76
3.75451e-78
1.151e-80
2.30672e-83
1.91547e-86
3.28694e-59
1.75331e-58
1.45364e-58
3.94554e-59
4.87663e-60
3.39962e-61
1.51551e-62
4.69175e-64
1.06646e-65
1.84794e-67
2.50138e-69
2.6851e-71
2.30217e-73
1.57493e-75
8.49166e-78
3.51183e-80
1.05568e-82
2.067e-85
1.6601e-88
1.46049e-61
9.45264e-61
9.04107e-61
2.73363e-61
3.67194e-62
2.72792e-63
1.2762e-64
4.09575e-66
9.55477e-68
1.68447e-69
2.30247e-71
2.48022e-73
2.12283e-75
1.44307e-77
7.69714e-80
3.13556e-82
9.24737e-85
1.76972e-87
1.37525e-90
6.016e-64
4.76414e-63
5.28397e-63
1.78555e-63
2.61267e-64
2.07247e-65
1.01929e-66
3.39663e-68
8.14348e-70
1.46238e-71
2.02077e-73
2.1869e-75
1.8706e-77
1.26472e-79
6.67802e-82
2.6811e-84
7.76107e-87
1.45229e-89
1.09237e-92
2.31756e-66
2.26398e-65
2.92401e-65
1.10713e-65
1.7679e-66
1.49963e-67
7.7643e-69
2.68982e-70
6.63448e-72
1.21466e-73
1.69837e-75
1.84834e-77
1.58142e-79
1.06415e-81
5.56547e-84
2.20312e-86
6.26216e-89
1.14618e-91
8.34739e-95
8.42089e-69
1.02331e-67
1.54395e-67
6.56245e-68
1.14503e-68
1.03975e-69
5.67257e-71
2.04476e-72
5.19217e-74
9.69778e-76
1.37307e-77
1.5039e-79
1.28794e-81
8.62992e-84
4.47222e-86
1.74617e-88
4.87531e-91
8.73105e-94
6.15858e-97
2.90764e-71
4.44099e-70
7.84543e-70
3.7473e-70
7.14886e-71
6.95288e-72
3.99907e-73
1.50051e-74
3.92373e-76
7.4791e-78
1.0728e-79
1.18317e-81
1.01465e-83
6.77181e-86
3.47808e-88
1.3398e-90
3.67542e-93
6.44189e-96
4.40213e-99
)
;

boundaryField
{
    leftWall
    {
        type            zeroGradient;
    }
    rightWall
    {
        type            zeroGradient;
    }
    lowerWall
    {
        type            zeroGradient;
    }
    atmosphere
    {
        type            inletOutlet;
        inletValue      uniform 0;
        value           nonuniform List<scalar> 
46
(
0
0
0
0
0
0
0
0
0
0
0
0
0
0
0
0
0
0
0
0
0
0
0
2.50071e-78
3.53852e-76
2.41929e-74
9.38233e-73
2.90764e-71
4.44099e-70
7.84543e-70
3.7473e-70
7.14886e-71
6.95288e-72
3.99907e-73
1.50051e-74
3.92373e-76
7.4791e-78
1.0728e-79
1.18317e-81
1.01465e-83
6.77181e-86
3.47808e-88
1.3398e-90
3.67542e-93
6.44189e-96
4.40213e-99
)
;
    }
    defaultFaces
    {
        type            empty;
    }
}


// ************************************************************************* //
