/*--------------------------------*- C++ -*----------------------------------*\
| =========                 |                                                 |
| \\      /  F ield         | OpenFOAM: The Open Source CFD Toolbox           |
|  \\    /   O peration     | Version:  2.4.0                                 |
|   \\  /    A nd           | Web:      www.OpenFOAM.org                      |
|    \\/     M anipulation  |                                                 |
\*---------------------------------------------------------------------------*/
FoamFile
{
    version     2.0;
    format      ascii;
    class       volScalarField;
    location    "0.1";
    object      p;
}
// * * * * * * * * * * * * * * * * * * * * * * * * * * * * * * * * * * * * * //

dimensions      [1 -1 -2 0 0 0 0];

internalField   nonuniform List<scalar> 
2268
(
12737.6
12714.1
12666.7
12594.4
12495.7
12366
12207.3
11994.7
11743.4
11416
10906.6
10409.8
9592.87
8205.11
6472.83
4867.61
3601.31
2234.2
1484.67
1461.13
1505.88
1498.82
1483.55
11942.7
11919.1
11871.4
11798.6
11699.3
11568.8
11408.7
11194.3
10941.7
10608.3
10108.9
9582.04
8700.01
7282.24
5571.7
4060.79
2504.79
1357.33
1239.22
1321.79
1409.2
1435.83
1434.59
11149.3
11125.4
11077.2
11003.6
10903
10770.7
10608
10389.9
10134.9
9790.29
9301.5
8733.4
7764.6
6263.72
4562.57
3166.12
1578.29
1197.03
1240.53
1296.41
1340.67
1364.62
1371.43
10357.5
10333.3
10284.3
10209.4
10106.9
9972.23
9805.5
9582.65
9321.67
8966.11
8479.87
7857.73
6788.63
5222.46
3608
1929.71
1165.59
1131.17
1191.7
1240.14
1273
1292.22
1299.03
9567.57
9542.86
9492.9
9416.35
9311.42
9173.7
9001.9
8773.1
8504.06
8134.47
7645.03
6963.02
5799.77
4192.04
2482.47
1250.45
1083.59
1105.54
1150.48
1184.2
1206.27
1216.07
1216.66
8779.8
8754.53
8703.38
8624.9
8517.07
8375.71
8197.94
7962.28
7682.8
7297.1
6803.67
6059.88
4820.72
3189.08
1521.68
1067.93
1050.95
1077.56
1108.31
1130.79
1140.99
1137.37
1120.2
7994.6
7968.68
7916.22
7835.53
7724.42
7579.06
7394.86
7151.9
6860.62
6457.72
5957.62
5168.6
3888.96
2155
1137.34
1025.82
1028.6
1048.41
1069.25
1080.21
1077.29
1056.58
1002.02
7211.96
7185.34
7131.5
7048.55
6934.15
6784.99
6594.61
6344.85
6040.26
5618.12
5107.71
4254.89
2996.08
1511.91
1033.89
1000.18
1008.3
1021.11
1032.23
1033.52
1014.28
974.611
852.515
8.53647
8.6071
8.75186
8.83839
8.82306
8.89629
8.95856
8.89532
8.67408
8.43359
8.22324
8.04584
7.9035
7.79369
7.70964
7.64669
7.60177
7.57284
7.55868
8.45964
8.53478
8.69955
8.79407
8.75442
8.81845
8.90356
8.85477
8.6233
8.36674
8.15472
7.97788
7.83712
7.72875
7.64576
7.58354
7.5391
7.51047
7.49645
8.36467
8.44487
8.65431
8.76628
8.67633
8.71498
8.84752
8.8294
8.56507
8.28589
8.07006
7.89905
7.76289
7.65764
7.57679
7.51602
7.47254
7.4445
7.43075
8.24312
8.33085
8.61732
8.76046
8.60225
8.57812
8.77266
8.79762
8.47867
8.17767
7.97111
7.80947
7.68086
7.58044
7.5028
7.4442
7.40214
7.37496
7.36162
8.11239
8.20166
8.57471
8.78968
8.55348
8.39775
8.69957
8.57865
8.30671
8.04868
7.85924
7.71062
7.59162
7.49746
7.424
7.36821
7.32801
7.30195
7.28915
7.82787
7.99946
8.43195
8.54484
8.02336
7.94856
8.30573
8.12677
8.09275
7.89685
7.73504
7.60349
7.49582
7.40913
7.34068
7.28829
7.25032
7.22563
7.21348
8.09973
7.72521
8.62216
8.00051
6.56434
7.18221
7.54942
7.80764
7.84933
7.72727
7.60095
7.48914
7.39417
7.3159
7.25316
7.20464
7.16924
7.14613
7.13472
6.09139
8.83408
11.3805
10.266
7.35559
6.05783
7.25364
7.55383
7.61371
7.55197
7.46028
7.36903
7.28753
7.21835
7.16182
7.11757
7.08501
7.06364
7.05306
5993.48
5965.8
5909.96
5823.7
5704.19
5549.82
5350.34
5089.85
4758.1
4298.93
3743.03
2867.5
1752.71
1090.6
993.416
972.449
974.312
979.455
976.547
964.042
919.681
841.987
520.302
4348.28
4318.28
4257.66
4167.71
4041.42
3879.5
3662.72
3377.35
3011.78
2553.92
2044.64
1527.17
1144.64
1013.88
973.148
947.315
935.025
924.359
906.574
878.008
827.221
745.247
626.384
2684.03
2650.95
2569.91
2438.92
2259.83
2078.28
1897.43
1731.99
1574.45
1412.06
1235.97
1108.12
1031.88
978.862
940.218
911.403
886.808
864.247
838.205
802.211
757.183
685.562
594.831
1449.44
1427.32
1404.43
1369.57
1330.46
1289.69
1242.6
1193.36
1142.89
1096.77
1065.6
1023.02
967.165
915.711
879.912
849.771
823.651
798.468
769.354
731.543
686.16
617.686
534.988
1317.46
1312.25
1302.39
1284.81
1262
1231.78
1196.55
1154.8
1107.08
1054.64
1000.72
941.022
885.337
837.426
805.693
780.572
756.253
730.667
700.478
662.522
616.804
554.737
480.931
1203.04
1197.43
1187.8
1171.87
1150.72
1124.06
1091.53
1053.73
1010.21
962.545
910.79
855.175
802.611
758.657
733.012
711.338
688.182
662.893
632.714
595.463
550.441
492.479
423.323
1088.04
1083.51
1074.35
1060.45
1041.7
1017.74
988.651
954.688
915.646
872.125
824.046
773.026
723.656
680.976
661.103
642.298
620.384
595.998
566.551
530.357
486.424
430.726
363.907
976.038
971.886
963.612
951.041
934.069
912.589
886.446
855.832
820.581
781.517
737.689
690.198
644.424
605.795
590.647
574.014
553.615
530.525
502.233
467.38
424.809
371.031
306.248
866.076
862.345
854.867
843.568
828.309
809.078
785.713
758.297
726.703
691.359
651.725
608.669
566.285
533.668
521.625
507.11
488.457
466.81
439.969
406.788
365.967
314.431
252.015
758.406
755.089
748.439
738.399
724.904
707.861
687.208
662.896
634.865
603.396
567.766
528.753
489.204
464.218
454.17
441.778
424.96
404.933
379.856
348.735
310.19
261.5
202.457
652.947
650.032
644.177
635.357
623.527
608.602
590.494
569.16
544.518
516.673
485.002
450.253
413.139
397.018
388.598
377.92
363.115
344.879
321.861
293.233
257.558
212.167
156.504
549.615
547.077
541.982
534.333
524.157
511.306
495.681
477.213
455.834
431.553
403.837
373.347
338.543
332.099
324.493
315.467
302.791
286.469
265.762
240.063
207.928
166.779
116.906
447.329
445.261
441.126
434.946
426.528
415.747
402.538
386.849
368.64
347.875
324.276
298.285
266.066
268.76
261.89
254.521
243.857
229.534
211.337
188.957
160.944
125.475
83.6019
347.498
346.007
342.991
338.209
331.418
322.672
311.873
298.914
283.793
266.514
247.324
225.847
197.089
207.013
201.367
195.708
186.763
174.292
158.505
139.412
115.664
86.4943
49.3828
250.88
249.699
247.25
243.419
238.146
231.211
222.389
211.489
198.454
183.513
167.937
150.825
134.75
146.913
143.496
139.227
131.187
119.155
103.881
86.2156
66.0053
42.4284
11.495
145.478
144.525
142.572
139.564
135.387
129.78
122.512
113.356
102.083
89.1788
76.2611
63.1872
76.608
85.4244
84.2163
79.9494
71.5833
58.5788
42.9125
28.4651
18.6212
11.8749
3.53045
35.5049
35.502
35.4837
35.5361
35.7065
35.9776
36.2
35.9746
34.7437
32.2243
28.4626
23.7517
21.3469
22.3795
22.287
22.1917
21.7687
19.4041
14.9659
9.65412
5.32434
2.52975
1.59896
3.91575
3.83285
3.68316
3.47796
3.23065
2.95751
2.67357
2.39788
2.15132
1.9684
1.88832
1.77249
2.94997
3.36277
3.22462
2.82812
2.38708
2.03901
1.83169
1.81531
1.87289
1.95816
1.95528
2.12986
2.13942
2.15711
2.18356
2.21856
2.26226
2.31524
2.37813
2.45071
2.51086
2.5678
2.55051
2.36384
2.35245
2.40287
2.49341
2.61145
2.71001
2.75129
2.72998
2.6069
2.3988
2.25965
2.56289
2.55824
2.54851
2.53485
2.51792
2.49918
2.48119
2.46717
2.4591
2.45248
2.45591
2.46436
2.53465
2.5854
2.60344
2.5986
2.58619
2.57396
2.56982
2.52572
2.42497
2.34021
2.33751
2.22632
2.22709
2.22837
2.23119
2.23684
2.24407
2.25364
2.26595
2.28017
2.29358
2.30531
2.31233
2.32
2.33918
2.36319
2.38958
2.41818
2.44547
2.46149
2.45167
2.41078
2.38162
2.35849
2.18061
2.18098
2.18175
2.18291
2.18426
2.18765
2.19293
2.20008
2.20896
2.21906
2.23031
2.24278
2.25819
2.27567
2.29436
2.31266
2.3298
2.34566
2.35859
2.36297
2.35303
2.3369
2.32145
2.07955
2.08019
2.08154
2.08361
2.08631
2.09031
2.09582
2.10288
2.1114
2.12123
2.13241
2.1451
2.15965
2.17596
2.19306
2.20995
2.2261
2.24036
2.25148
2.25901
2.26397
2.26246
2.2572
1.98115
1.98191
1.98347
1.98592
1.98943
1.99403
1.99989
2.00708
2.01555
2.02528
2.0363
2.04855
2.0621
2.07686
2.09213
2.10742
2.12234
2.13632
2.14861
2.15809
2.16429
2.16788
2.17058
1.88155
1.88238
1.88408
1.88672
1.89039
1.89514
1.90106
1.90819
1.91652
1.92602
1.93666
1.94837
1.96108
1.97458
1.98863
2.00289
2.01697
2.03034
2.0426
2.05346
2.06251
2.06916
2.07476
1.78064
1.78151
1.78329
1.78601
1.78972
1.79448
1.80033
1.80727
1.81532
1.82444
1.83458
1.84565
1.85757
1.87017
1.88322
1.89646
1.90958
1.92226
1.93416
1.94504
1.9548
1.96347
1.97153
1.67867
1.67955
1.68134
1.68407
1.68777
1.69246
1.69816
1.70487
1.71259
1.72128
1.73087
1.74128
1.7524
1.76411
1.77624
1.78857
1.80089
1.81294
1.82449
1.83535
1.84544
1.85476
1.86366
1.57535
1.57622
1.57798
1.58066
1.58426
1.5888
1.59429
1.60071
1.60805
1.61626
1.62528
1.63504
1.64543
1.65634
1.66762
1.67911
1.69062
1.70196
1.71296
1.7235
1.73355
1.74313
1.75241
1.47083
1.47168
1.4734
1.47598
1.47945
1.4838
1.48903
1.49512
1.50205
1.50977
1.51822
1.52733
1.53701
1.54715
1.55763
1.56831
1.57904
1.58967
1.60008
1.61018
1.61994
1.62938
1.6386
1.36514
1.36595
1.36759
1.37007
1.37337
1.3775
1.38244
1.38818
1.39468
1.4019
1.40979
1.41827
1.42726
1.43666
1.44637
1.45628
1.46625
1.47617
1.48594
1.49549
1.50481
1.51391
1.52283
1.25835
1.25912
1.26067
1.26301
1.26613
1.27002
1.27466
1.28004
1.28611
1.29284
1.30016
1.30802
1.31635
1.32504
1.33401
1.34316
1.35239
1.3616
1.3707
1.37965
1.38843
1.39704
1.40552
1.15053
1.15125
1.15272
1.15491
1.15784
1.16147
1.16581
1.17081
1.17645
1.18269
1.18947
1.19673
1.2044
1.21241
1.22067
1.22909
1.23759
1.24608
1.2545
1.2628
1.27097
1.279
1.28696
1.04176
1.04244
1.04381
1.04586
1.04858
1.05196
1.05598
1.06061
1.06583
1.07158
1.07782
1.08449
1.09154
1.09888
1.10644
1.11416
1.12194
1.12972
1.13745
1.14508
1.15258
1.15994
1.16711
0.93214
0.932771
0.934036
0.935932
0.938448
0.941569
0.945275
0.94954
0.954331
0.959607
0.965324
0.971427
0.977857
0.984552
0.991443
0.998462
1.00554
1.01262
1.01965
1.02659
1.03341
1.04011
1.04667
0.821738
0.822318
0.823481
0.825223
0.827533
0.830394
0.833788
0.837688
0.842062
0.846872
0.852075
0.85762
0.863454
0.869519
0.875752
0.882093
0.888482
0.894865
0.901194
0.907434
0.913564
0.919572
0.925456
0.710637
0.711166
0.712227
0.713813
0.715916
0.718519
0.721603
0.725142
0.729105
0.733457
0.738157
0.743157
0.748408
0.753856
0.759445
0.76512
0.770828
0.776518
0.782149
0.787687
0.793113
0.798415
0.803587
0.598917
0.599393
0.600349
0.60178
0.603676
0.606021
0.608797
0.611979
0.615538
0.61944
0.623645
0.628111
0.63279
0.637634
0.642591
0.64761
0.652643
0.657646
0.66258
0.667414
0.672128
0.676711
0.681159
0.486656
0.487078
0.487928
0.489202
0.49089
0.492978
0.495448
0.498277
0.501436
0.504892
0.50861
0.51255
0.516667
0.520916
0.525249
0.529621
0.533986
0.538305
0.542543
0.54667
0.550667
0.554524
0.558237
0.373929
0.374293
0.375036
0.376149
0.377629
0.379461
0.381628
0.384105
0.386867
0.389883
0.393119
0.396538
0.400099
0.40376
0.407477
0.411205
0.414906
0.418544
0.422086
0.425505
0.42878
0.431902
0.434871
0.260787
0.261086
0.261719
0.262676
0.263952
0.265532
0.267396
0.269522
0.271887
0.274463
0.277219
0.28012
0.28313
0.286208
0.289313
0.2924
0.295438
0.2984
0.301249
0.303958
0.306507
0.308886
0.311094
0.14743
0.147668
0.148198
0.149
0.150063
0.151372
0.152914
0.154669
0.156616
0.15873
0.160982
0.163342
0.165777
0.168253
0.170736
0.173197
0.175592
0.17788
0.180036
0.182037
0.183865
0.185508
0.186952
0.0337896
0.0338874
0.0342971
0.0349332
0.0357861
0.036841
0.0380818
0.0394901
0.0410449
0.0427229
0.0444982
0.0463425
0.0482254
0.0501148
0.0519774
0.0537797
0.0554862
0.0570638
0.0584839
0.0597216
0.0607588
0.0615933
0.0622615
-92.5648
-141.645
-45.9295
9.74066
485.371
398.931
326.957
260.138
493.398
414.819
336.962
271.089
464.561
413.192
356.858
300.483
420.855
378.806
331.185
277.643
366.448
327.161
280.044
231.887
307.258
265.733
216.069
162.629
249.403
206.961
160.3
115.258
195.375
153.073
104.685
48.9519
150.752
115.522
78.7995
23.2298
107.489
71.6299
23.6907
7.73649
71.4215
36.5265
6.07965
2.4885
39.5539
7.69341
2.72937
2.62402
8.29463
2.76477
2.41192
2.56154
3.0935
2.15533
2.3596
2.42784
2.04133
2.18656
2.26259
2.35937
1.85265
2.02941
2.18966
2.31891
2.05773
2.15622
2.26437
2.34799
2.2667
2.30234
2.34164
2.38403
2.35733
2.36913
2.37994
2.40294
2.36519
2.36911
2.37608
2.39051
2.32632
2.32987
2.33474
2.34473
2.26003
2.26349
2.26837
2.27588
2.17538
2.17948
2.18456
2.1913
2.08066
2.08506
2.09026
2.09639
1.97826
1.98298
1.98819
1.99396
1.87075
1.87555
1.88066
1.88612
1.75954
1.76427
1.76919
1.77436
1.64557
1.65013
1.65481
1.65966
1.52949
1.53382
1.53822
1.54273
1.41177
1.41581
1.4199
1.42406
1.29271
1.29644
1.3002
1.304
1.1725
1.17593
1.17937
1.18281
1.05149
1.05457
1.05765
1.06073
0.929728
0.932457
0.935173
0.937886
0.807318
0.809694
0.812052
0.814398
0.684345
0.686367
0.688367
0.69035
0.560874
0.562541
0.564184
0.565807
0.436954
0.438264
0.43955
0.440813
0.312616
0.313567
0.314493
0.315399
0.187885
0.188465
0.189028
0.189576
0.0626802
0.0629165
0.0631287
0.0633243
21.893
24.7135
27.9562
19.2238
5.01264
5.93025
6.88132
7.17259
7.26604
7.2788
7.23453
7.17463
7.11451
7.06005
7.01376
6.97659
6.94879
6.93036
6.92119
156.508
89.7272
59.6119
11.188
5.77446
6.08673
6.5294
6.74482
6.86832
6.92477
6.92437
6.9001
6.86672
6.83193
6.79993
6.77296
6.75215
6.73808
6.731
185.921
119.048
64.8402
5.85072
5.90674
5.90941
6.23618
6.40009
6.52587
6.59575
6.62234
6.62462
6.61346
6.59626
6.57769
6.56062
6.54676
6.53709
6.53215
214.379
136.934
19.1533
5.51621
5.43566
5.66962
5.91443
6.07922
6.20892
6.28718
6.332
6.35347
6.35983
6.35741
6.35069
6.34265
6.33528
6.32979
6.3269
191.738
75.1832
8.51385
5.22224
5.26422
5.45577
5.63273
5.79146
5.91223
5.99743
6.05422
6.08935
6.1091
6.11864
6.12189
6.12171
6.12011
6.11841
6.11737
167.265
20.2733
4.92446
4.79123
5.05909
5.21599
5.37465
5.52067
5.63615
5.72455
5.78885
5.83358
5.86335
5.88225
5.89361
5.90002
5.90336
5.90493
5.90554
58.52
8.07986
4.30198
4.61363
4.80776
4.96963
5.12666
5.26305
5.37613
5.46619
5.53532
5.58671
5.62381
5.64986
5.66763
5.67937
5.68679
5.69111
5.69309
13.7486
3.94585
4.03898
4.3547
4.55235
4.73001
4.88514
5.01825
5.12985
5.22078
5.29296
5.34888
5.39122
5.42257
5.44525
5.46117
5.47185
5.47839
5.4815
7.35694
3.53513
3.93508
4.12516
4.32496
4.50222
4.65511
4.7859
4.8962
4.98728
5.0612
5.12004
5.16595
5.20109
5.22739
5.24647
5.25966
5.26793
5.27192
3.30094
3.34903
3.66752
3.90363
4.11118
4.28715
4.43814
4.56597
4.67472
4.76498
4.83959
4.90005
4.9482
4.98587
5.01469
5.03605
5.05107
5.06063
5.06528
2.49662
3.31108
3.45982
3.71694
3.91446
4.08684
4.23367
4.35892
4.46558
4.5532
4.62774
4.68876
4.73799
4.77713
4.80756
4.83043
4.84669
4.85715
4.86227
2.75385
3.08066
3.31664
3.54849
3.73716
3.90199
4.04282
4.16347
4.26624
4.35269
4.42555
4.4861
4.53523
4.57494
4.60622
4.62998
4.64691
4.65793
4.66338
2.70025
2.9585
3.18943
3.39997
3.57717
3.73182
3.86497
3.97966
4.07788
4.16138
4.23199
4.29108
4.33977
4.37932
4.41075
4.43497
4.45191
4.46325
4.46893
2.64783
2.88252
3.08186
3.26951
3.43216
3.57497
3.69907
3.80666
3.89945
3.97896
4.04662
4.10365
4.15108
4.18989
4.2209
4.24483
4.26209
4.2734
4.27894
2.58795
2.80492
2.98423
3.15249
3.29951
3.42962
3.54368
3.64334
3.72995
3.80474
3.86885
3.92326
3.96885
4.00639
4.03658
4.05998
4.07705
4.08821
4.09371
2.52916
2.72894
2.89566
3.04506
3.17675
3.29377
3.39726
3.48845
3.56837
3.63793
3.698
3.74934
3.79265
3.82854
3.85755
3.88016
3.89675
3.90764
3.91306
2.48411
2.66437
2.81489
2.94542
3.06165
3.16549
3.25823
3.3407
3.41363
3.47764
3.53335
3.58129
3.62199
3.65592
3.6835
3.70509
3.721
3.73147
3.73667
2.46631
2.61517
2.74104
2.85172
2.95226
3.043
3.12506
3.19881
3.26466
3.32298
3.37413
3.41848
3.45636
3.48813
3.51407
3.53447
3.54956
3.55951
3.56447
2.46489
2.57134
2.67029
2.76164
2.84647
2.92461
2.99631
3.06156
3.12045
3.17309
3.21964
3.26028
3.29523
3.3247
3.34888
3.36798
3.38214
3.3915
3.39612
2.45244
2.52281
2.59859
2.67198
2.74228
2.80869
2.87064
2.92782
2.98002
3.02713
3.06915
3.10611
3.13809
3.16519
3.18755
3.20526
3.21844
3.22717
3.23149
2.41874
2.46543
2.52204
2.5804
2.6379
2.69381
2.74687
2.79659
2.84251
2.88437
2.92202
2.95538
2.98442
3.00918
3.02968
3.04599
3.05815
3.06624
3.07029
2.36362
2.39715
2.43922
2.48514
2.53207
2.57883
2.62403
2.667
2.70716
2.74413
2.77766
2.80757
2.83378
2.85623
2.8749
2.88981
2.90096
2.90837
2.91208
2.29046
2.31654
2.34906
2.38553
2.42393
2.46298
2.50138
2.53838
2.57335
2.60584
2.63554
2.66222
2.68573
2.70596
2.72286
2.7364
2.74654
2.7533
2.75667
2.20375
2.22517
2.25162
2.2813
2.31305
2.34577
2.37841
2.41022
2.44058
2.46903
2.49522
2.5189
2.53988
2.55802
2.57323
2.58545
2.59463
2.60075
2.6038
2.10733
2.12573
2.14796
2.17272
2.19935
2.22698
2.2548
2.28215
2.30847
2.33331
2.35634
2.37728
2.39591
2.41209
2.42571
2.43667
2.44493
2.45045
2.4532
2.004
2.02027
2.03937
2.06043
2.08304
2.10656
2.13038
2.15393
2.17674
2.1984
2.21859
2.23703
2.25352
2.26789
2.28002
2.28982
2.29721
2.30215
2.30462
1.8955
1.91017
1.92687
1.94505
1.96446
1.98464
2.00511
2.02543
2.0452
2.06407
2.08173
2.09792
2.11246
2.12517
2.13593
2.14464
2.15122
2.15563
2.15783
1.78315
1.7965
1.81127
1.82715
1.84395
1.86136
1.87903
1.8966
1.91374
1.93015
1.94556
1.95975
1.97252
1.98372
1.99323
2.00093
2.00676
2.01067
2.01262
1.66788
1.68005
1.69322
1.70717
1.72181
1.73691
1.7522
1.76741
1.78227
1.79653
1.80995
1.82235
1.83353
1.84336
1.85171
1.8585
1.86364
1.86709
1.86882
1.55035
1.56144
1.57321
1.58553
1.59833
1.61145
1.6247
1.63788
1.65075
1.66312
1.67479
1.68558
1.69533
1.70392
1.71123
1.71718
1.7217
1.72473
1.72624
1.43106
1.44113
1.45164
1.46252
1.47373
1.48514
1.49663
1.50803
1.51917
1.52987
1.53998
1.54933
1.5578
1.56528
1.57165
1.57683
1.58077
1.58342
1.58474
1.31039
1.31947
1.32882
1.33841
1.34821
1.35813
1.36807
1.37791
1.38751
1.39674
1.40545
1.41353
1.42085
1.42731
1.43283
1.43732
1.44074
1.44303
1.44418
1.18859
1.19672
1.20499
1.21341
1.22193
1.23051
1.23908
1.24753
1.25577
1.26368
1.27116
1.27808
1.28437
1.28992
1.29466
1.29853
1.30147
1.30345
1.30444
1.06588
1.07307
1.08033
1.08765
1.09502
1.10239
1.10972
1.11694
1.12396
1.13069
1.13705
1.14294
1.14829
1.15302
1.15706
1.16036
1.16287
1.16456
1.1654
0.942409
0.948697
0.954986
0.961281
0.967575
0.973847
0.980057
0.986152
0.992069
0.997739
1.00309
1.00805
1.01256
1.01654
1.01994
1.02272
1.02484
1.02626
1.02697
0.818302
0.823698
0.829055
0.834383
0.839681
0.844934
0.850117
0.855189
0.860105
0.864809
0.869247
0.873361
0.877095
0.880398
0.883223
0.885529
0.887285
0.888463
0.889053
0.693642
0.698164
0.702623
0.707032
0.711392
0.715698
0.719932
0.724065
0.728062
0.731885
0.735488
0.738827
0.741859
0.74454
0.746834
0.748708
0.750134
0.751091
0.75157
0.568491
0.572157
0.575747
0.579277
0.582753
0.586171
0.589521
0.592785
0.595937
0.598947
0.601784
0.604412
0.606797
0.608908
0.610715
0.61219
0.613313
0.614067
0.614444
0.442897
0.445721
0.44847
0.451157
0.453791
0.456373
0.458897
0.461351
0.463717
0.465976
0.468103
0.470074
0.471863
0.473447
0.474802
0.475909
0.476752
0.477318
0.4776
0.316885
0.318884
0.320815
0.322693
0.324527
0.326319
0.328066
0.329763
0.331397
0.332957
0.334425
0.335786
0.337022
0.338115
0.339052
0.339818
0.3404
0.340791
0.340986
0.190471
0.19166
0.1928
0.193902
0.194974
0.196017
0.197033
0.198018
0.198966
0.199871
0.200723
0.201513
0.20223
0.202866
0.20341
0.203855
0.204194
0.204422
0.204534
0.0636326
0.0640285
0.0644016
0.0647588
0.0651037
0.0654381
0.0657624
0.0660762
0.0663779
0.0666655
0.0669364
0.0671875
0.0674158
0.0676182
0.0677916
0.0679334
0.0680416
0.0681138
0.0681494
)
;

boundaryField
{
    leftWall
    {
        type            fixedFluxPressure;
        gradient        uniform 0;
        value           nonuniform List<scalar> 
50
(
12737.6
11942.7
11149.3
10357.5
9567.57
8779.8
7994.6
7211.96
5993.48
4348.28
2684.03
1449.44
1317.46
1203.04
1088.04
976.038
866.076
758.406
652.947
549.615
447.329
347.498
250.88
145.478
35.5049
3.91575
2.12986
2.56289
2.22632
2.18061
2.07955
1.98115
1.88155
1.78064
1.67867
1.57535
1.47083
1.36514
1.25835
1.15053
1.04176
0.93214
0.821738
0.710637
0.598917
0.486656
0.373929
0.260787
0.14743
0.0337896
)
;
    }
    rightWall
    {
        type            fixedFluxPressure;
        gradient        uniform 0;
        value           nonuniform List<scalar> 
50
(
7.55868
7.49645
7.43075
7.36162
7.28915
7.21348
7.13472
7.05306
6.92119
6.731
6.53215
6.3269
6.11737
5.90554
5.69309
5.4815
5.27192
5.06528
4.86227
4.66338
4.46893
4.27894
4.09371
3.91306
3.73667
3.56447
3.39612
3.23149
3.07029
2.91208
2.75667
2.6038
2.4532
2.30462
2.15783
2.01262
1.86882
1.72624
1.58474
1.44418
1.30444
1.1654
1.02697
0.889053
0.75157
0.614444
0.4776
0.340986
0.204534
0.0681494
)
;
    }
    lowerWall
    {
        type            fixedFluxPressure;
        gradient        nonuniform List<scalar> 
62
(
132719
132719
132719
132719
132719
132719
132719
132719
132719
132719
132719
132719
132716
132645
131862
127509
108673
50526.1
11904.3
5862.99
4998.44
4908.13
4905
0
0
0
0
0
0
0
0
4905
4905
4905
4905
0
0
0
0
0
0
0
0
9.81
9.81
9.81
9.81
9.81
9.81
9.81
9.81
9.81
9.81
9.81
9.81
9.81
9.81
9.81
9.81
9.81
9.81
9.81
)
;
        value           nonuniform List<scalar> 
62
(
13135.8
13112.3
13064.9
12992.5
12893.9
12764.2
12605.4
12392.9
12141.6
11814.1
11304.7
10808
9991.01
8603.03
6868.41
5250.13
3927.33
2385.77
1520.38
1478.72
1520.87
1513.54
1498.26
1483.55
1434.59
1371.43
1299.03
1216.66
1120.2
1002.02
852.515
-61.2661
-110.346
-14.6309
41.0393
8.53647
8.45964
8.36467
8.24312
8.11239
7.82787
8.09973
6.09139
8.5659
8.63653
8.78129
8.86782
8.85249
8.92572
8.98799
8.92475
8.70351
8.46302
8.25267
8.07527
7.93293
7.82312
7.73907
7.67612
7.6312
7.60227
7.58811
)
;
    }
    atmosphere
    {
        type            totalPressure;
        U               U.air;
        phi             phi.air;
        rho             rho;
        psi             none;
        gamma           1;
        p0              uniform 0;
        value           nonuniform List<scalar> 
46
(
-0.0234057
-0.0235551
-0.0231679
-0.0225789
-0.0217987
-0.0208406
-0.0197184
-0.0184489
-0.0170519
-0.0155499
-0.0139681
-0.0123347
-0.0106798
-0.00903567
-0.00743592
-0.00591491
-0.00450674
-0.00324396
-0.00215667
-0.00127177
-0.000611996
-0.000195864
-3.91083e-05
0
0
0
0
0
0
0
0
0
0
0
0
0
0
0
0
0
0
0
0
0
0
0
)
;
    }
    defaultFaces
    {
        type            empty;
    }
}


// ************************************************************************* //
