/*--------------------------------*- C++ -*----------------------------------*\
| =========                 |                                                 |
| \\      /  F ield         | OpenFOAM: The Open Source CFD Toolbox           |
|  \\    /   O peration     | Version:  2.4.0                                 |
|   \\  /    A nd           | Web:      www.OpenFOAM.org                      |
|    \\/     M anipulation  |                                                 |
\*---------------------------------------------------------------------------*/
FoamFile
{
    version     2.0;
    format      ascii;
    class       surfaceScalarField;
    location    "0.1";
    object      phi;
}
// * * * * * * * * * * * * * * * * * * * * * * * * * * * * * * * * * * * * * //

dimensions      [0 3 -1 0 0 0 0];

internalField   nonuniform List<scalar> 
4432
(
2.213e-06
-2.213e-06
4.4896e-06
-2.2766e-06
6.89664e-06
-2.40704e-06
9.50911e-06
-2.61247e-06
1.24138e-05
-2.90464e-06
1.57253e-05
-3.31157e-06
1.95572e-05
-3.83185e-06
2.41145e-05
-4.55738e-06
2.94804e-05
-5.36588e-06
3.66959e-05
-7.2155e-06
4.3193e-05
-6.49706e-06
5.39184e-05
-1.07255e-05
6.87622e-05
-1.48437e-05
8.4217e-05
-1.54548e-05
9.56568e-05
-1.14398e-05
0.000100689
-5.03237e-06
0.000102104
-1.41475e-06
0.000103102
-9.98335e-07
0.000105914
-2.81235e-06
8.90079e-05
1.69065e-05
5.18738e-05
3.7134e-05
2.34983e-05
2.83755e-05
2.34984e-05
2.19954e-06
-4.41254e-06
4.46194e-06
-4.539e-06
6.85303e-06
-4.79813e-06
9.44654e-06
-5.20599e-06
1.23277e-05
-5.78584e-06
1.56108e-05
-6.59466e-06
1.94028e-05
-7.62386e-06
2.39277e-05
-9.08222e-06
2.93134e-05
-1.07516e-05
3.61651e-05
-1.40672e-05
4.32562e-05
-1.35882e-05
5.42018e-05
-2.1671e-05
6.8132e-05
-2.8774e-05
8.21339e-05
-2.94568e-05
9.37183e-05
-2.30241e-05
0.000100727
-1.20408e-05
0.000103442
-4.12985e-06
0.000106132
-3.6892e-06
8.52219e-05
1.80985e-05
5.81814e-05
4.39471e-05
4.08538e-05
5.44616e-05
2.13254e-05
4.79039e-05
4.4824e-05
2.17126e-06
-6.5838e-06
4.40375e-06
-6.77149e-06
6.7615e-06
-7.15588e-06
9.31553e-06
-7.76001e-06
1.21485e-05
-8.61879e-06
1.53706e-05
-9.81676e-06
1.9089e-05
-1.13423e-05
2.35259e-05
-1.35191e-05
2.88739e-05
-1.60996e-05
3.53176e-05
-2.05109e-05
4.27755e-05
-2.10462e-05
5.37446e-05
-3.26401e-05
6.71683e-05
-4.21977e-05
7.97516e-05
-4.20401e-05
8.94196e-05
-3.26922e-05
9.55299e-05
-1.8151e-05
0.000102429
-1.10297e-05
8.93536e-05
9.38688e-06
6.50589e-05
4.23933e-05
4.69283e-05
6.20777e-05
3.59883e-05
6.54016e-05
2.04999e-05
6.33924e-05
6.53238e-05
2.12934e-06
-8.71314e-06
4.31756e-06
-8.95971e-06
6.62609e-06
-9.46441e-06
9.12177e-06
-1.02557e-05
1.18834e-05
-1.13804e-05
1.50137e-05
-1.29471e-05
1.86254e-05
-1.4954e-05
2.29206e-05
-1.78143e-05
2.80902e-05
-2.12692e-05
3.42813e-05
-2.67019e-05
4.18689e-05
-2.86338e-05
5.27381e-05
-4.35093e-05
6.50829e-05
-5.45424e-05
7.60613e-05
-5.30184e-05
8.4752e-05
-4.13829e-05
9.44683e-05
-2.78673e-05
8.82687e-05
-4.83009e-06
6.89293e-05
2.87265e-05
5.12644e-05
6.00582e-05
4.28539e-05
7.04883e-05
3.47833e-05
7.34723e-05
2.03768e-05
7.77989e-05
8.57006e-05
2.07428e-06
-1.07874e-05
4.20446e-06
-1.10899e-05
6.44878e-06
-1.17087e-05
8.86827e-06
-1.26752e-05
1.15361e-05
-1.40482e-05
1.45466e-05
-1.59576e-05
1.80145e-05
-1.84219e-05
2.21147e-05
-2.19145e-05
2.70146e-05
-2.61692e-05
3.28404e-05
-3.25277e-05
4.05406e-05
-3.6334e-05
5.11577e-05
-5.41263e-05
6.21988e-05
-6.55835e-05
7.1139e-05
-6.19586e-05
7.9852e-05
-5.00959e-05
8.25716e-05
-3.0587e-05
7.00233e-05
7.71839e-06
5.19605e-05
4.67893e-05
4.47217e-05
6.7297e-05
4.14279e-05
7.37821e-05
3.55291e-05
7.9371e-05
2.27334e-05
9.05946e-05
0.000108434
2.00666e-06
-1.27941e-05
4.06572e-06
-1.3149e-05
6.232e-06
-1.3875e-05
8.5589e-06
-1.5002e-05
1.11116e-05
-1.66008e-05
1.39771e-05
-1.88231e-05
1.7263e-05
-2.17079e-05
2.11244e-05
-2.57759e-05
2.56644e-05
-3.07092e-05
3.11284e-05
-3.79917e-05
3.86717e-05
-4.38773e-05
4.84953e-05
-6.395e-05
5.79327e-05
-7.50208e-05
6.48989e-05
-6.89248e-05
7.45077e-05
-5.97047e-05
6.69574e-05
-2.30367e-05
5.13286e-05
2.33472e-05
4.18768e-05
5.6241e-05
4.12565e-05
6.79173e-05
4.11864e-05
7.38523e-05
3.77327e-05
8.28247e-05
2.63457e-05
0.000101982
0.00013478
1.92661e-06
-1.47207e-05
3.90144e-06
-1.51238e-05
5.97608e-06
-1.59496e-05
8.19481e-06
-1.72208e-05
1.06129e-05
-1.90189e-05
1.33107e-05
-2.1521e-05
1.63783e-05
-2.47754e-05
1.99548e-05
-2.93523e-05
2.40816e-05
-3.4836e-05
2.91275e-05
-4.30377e-05
3.61027e-05
-5.08525e-05
4.45163e-05
-7.23636e-05
5.22253e-05
-8.27298e-05
6.28563e-05
-7.95558e-05
6.26877e-05
-5.95361e-05
5.02776e-05
-1.06265e-05
3.77468e-05
3.58781e-05
3.67677e-05
5.72202e-05
4.00994e-05
6.45856e-05
4.30581e-05
7.08936e-05
4.12443e-05
8.46384e-05
3.35587e-05
0.000109667
0.000168338
1.8295e-06
-1.65502e-05
3.70179e-06
-1.69961e-05
5.66606e-06
-1.79139e-05
7.75687e-06
-1.93116e-05
1.00233e-05
-2.12854e-05
1.25321e-05
-2.40298e-05
1.53429e-05
-2.75862e-05
1.85833e-05
-3.25927e-05
2.23048e-05
-3.85576e-05
2.68063e-05
-4.75392e-05
3.29693e-05
-5.70155e-05
3.9456e-05
-7.88503e-05
4.59859e-05
-8.92596e-05
5.74178e-05
-9.09876e-05
4.93025e-05
-5.14208e-05
3.47432e-05
3.93281e-06
2.99948e-05
4.06265e-05
3.45394e-05
5.26755e-05
4.04078e-05
5.87173e-05
4.61764e-05
6.5125e-05
4.73931e-05
8.34216e-05
4.39638e-05
0.000113097
0.000212302
-1.08435e-05
1.08433e-05
-1.44685e-05
3.62462e-06
-1.09026e-05
-3.56636e-06
-4.52525e-06
-6.37747e-06
4.68186e-06
-9.20613e-06
2.24423e-05
-1.77597e-05
4.20309e-05
-1.95891e-05
5.29179e-05
-1.08877e-05
5.35371e-05
-6.19373e-07
4.93455e-05
4.19157e-06
4.2689e-05
6.65655e-06
3.57358e-05
6.95317e-06
2.93472e-05
6.38865e-06
2.35654e-05
5.78174e-06
1.8288e-05
5.27735e-06
1.33955e-05
4.89249e-06
8.77789e-06
4.61764e-06
4.33811e-06
4.43977e-06
4.33807e-06
-1.21576e-05
2.30006e-05
-1.59523e-05
7.41913e-06
-1.13319e-05
-8.18708e-06
-4.36017e-06
-1.33498e-05
4.95104e-06
-1.85172e-05
2.35705e-05
-3.63791e-05
4.52204e-05
-4.12388e-05
5.66225e-05
-2.22895e-05
5.68366e-05
-8.33242e-07
5.17582e-05
9.27019e-06
4.42758e-05
1.41392e-05
3.69358e-05
1.42933e-05
3.03147e-05
1.30099e-05
2.43472e-05
1.17493e-05
1.89008e-05
1.07238e-05
1.38482e-05
9.94518e-06
9.07598e-06
9.38995e-06
4.48111e-06
9.03474e-06
8.81933e-06
-1.45297e-05
3.75302e-05
-1.89652e-05
1.18545e-05
-1.18747e-05
-1.52776e-05
-3.12512e-06
-2.20991e-05
7.4839e-06
-2.91258e-05
2.73531e-05
-5.62481e-05
5.23485e-05
-6.62347e-05
6.50052e-05
-3.49468e-05
6.25519e-05
1.61976e-06
5.34809e-05
1.8341e-05
4.44804e-05
2.31397e-05
3.68167e-05
2.19569e-05
3.01582e-05
1.96684e-05
2.42135e-05
1.7694e-05
1.87982e-05
1.61391e-05
1.37749e-05
1.49685e-05
9.0288e-06
1.4136e-05
4.45864e-06
1.36049e-05
1.32779e-05
-1.89203e-05
5.64504e-05
-2.17875e-05
1.47217e-05
-7.20123e-06
-2.98637e-05
1.01818e-05
-3.94817e-05
2.68952e-05
-4.58383e-05
5.10542e-05
-8.04074e-05
7.86136e-05
-9.37944e-05
8.16935e-05
-3.8027e-05
6.70218e-05
1.62912e-05
5.36295e-05
3.17332e-05
4.40168e-05
3.27524e-05
3.63976e-05
2.95761e-05
2.98113e-05
2.62548e-05
2.39384e-05
2.35669e-05
1.85903e-05
2.14873e-05
1.36267e-05
1.99322e-05
8.93383e-06
1.8829e-05
4.41275e-06
1.81261e-05
1.76908e-05
-2.11104e-05
7.75605e-05
-1.11446e-05
4.75589e-06
2.43802e-05
-6.5388e-05
5.98047e-05
-7.49058e-05
9.06984e-05
-7.67324e-05
0.000119953
-0.000109662
0.000125166
-9.90081e-05
9.31693e-05
-6.03128e-06
6.73971e-05
4.20631e-05
5.2738e-05
4.63922e-05
4.32785e-05
4.22118e-05
3.57969e-05
3.70577e-05
2.93309e-05
3.27208e-05
2.35653e-05
2.93324e-05
1.83106e-05
2.67419e-05
1.3428e-05
2.48148e-05
8.80664e-06
2.34503e-05
4.35095e-06
2.25817e-05
2.20416e-05
1.29434e-06
7.62663e-05
5.15404e-05
-4.54901e-05
8.51648e-05
-9.90121e-05
0.000109325
-9.90647e-05
0.000137247
-0.000104654
0.000153141
-0.000125557
0.000134986
-8.08548e-05
8.88367e-05
4.01162e-05
6.4508e-05
6.63912e-05
5.12541e-05
5.96457e-05
4.22859e-05
5.11799e-05
3.50203e-05
4.43233e-05
2.87242e-05
3.90169e-05
2.31001e-05
3.49565e-05
1.79639e-05
3.18781e-05
1.31823e-05
2.95964e-05
8.64944e-06
2.79832e-05
4.27448e-06
2.69567e-05
2.63162e-05
4.16693e-05
3.45968e-05
7.98549e-05
-8.36759e-05
8.66467e-05
-0.000105804
0.000101459
-0.000113878
0.000126383
-0.000129577
0.000153313
-0.000152484
0.000112788
-4.03318e-05
7.85461e-05
7.43561e-05
6.05929e-05
8.43438e-05
4.94098e-05
7.08284e-05
4.10354e-05
5.95542e-05
3.40718e-05
5.12868e-05
2.7997e-05
4.50917e-05
2.25473e-05
4.04063e-05
1.75534e-05
3.6872e-05
1.28919e-05
3.4258e-05
8.46376e-06
3.24114e-05
4.18402e-06
3.12365e-05
3.05002e-05
9.13288e-05
-5.67318e-05
9.24528e-05
-8.47998e-05
9.55146e-05
-0.000108866
0.000104108
-0.000122471
0.000116485
-0.000141953
0.00013076
-0.000166758
9.40831e-05
-3.65515e-06
7.0088e-05
9.83504e-05
5.66239e-05
9.78075e-05
4.72269e-05
8.02253e-05
3.95421e-05
6.72389e-05
3.29662e-05
5.78626e-05
2.71605e-05
5.08975e-05
2.19153e-05
4.56515e-05
1.70855e-05
4.17017e-05
1.2561e-05
3.87825e-05
8.25237e-06
3.67201e-05
4.08119e-06
3.54077e-05
3.45815e-05
3.50295e-06
-2.00531e-05
7.08912e-06
-2.05822e-05
1.08748e-05
-2.16996e-05
1.48925e-05
-2.33293e-05
1.92178e-05
-2.56106e-05
2.39597e-05
-2.87716e-05
2.90705e-05
-3.2697e-05
3.49568e-05
-3.8479e-05
4.14345e-05
-4.50352e-05
4.92526e-05
-5.53573e-05
5.94845e-05
-6.72474e-05
6.76304e-05
-8.69962e-05
7.97746e-05
-0.000101404
7.46446e-05
-8.58576e-05
5.13358e-05
-2.81121e-05
4.40446e-05
1.1224e-05
5.68394e-05
2.78317e-05
7.41186e-05
3.53964e-05
9.03021e-05
4.25337e-05
0.00011043
4.49976e-05
0.000129813
6.40378e-05
0.000180414
6.24962e-05
0.000106342
0.000286374
3.08316e-06
-2.31363e-05
6.23983e-06
-2.37389e-05
9.59564e-06
-2.50554e-05
1.29461e-05
-2.66797e-05
1.63161e-05
-2.89806e-05
2.01883e-05
-3.26438e-05
2.40596e-05
-3.65683e-05
2.84365e-05
-4.28559e-05
3.29366e-05
-4.95353e-05
3.69578e-05
-5.93786e-05
3.99599e-05
-7.02494e-05
4.93423e-05
-9.63786e-05
5.51093e-05
-0.000107171
3.95161e-05
-7.02643e-05
3.34195e-05
-2.20156e-05
4.4774e-05
-1.30469e-07
6.19318e-05
1.06739e-05
7.99008e-05
1.74275e-05
9.81053e-05
2.43291e-05
0.000119912
2.31905e-05
0.000147205
3.67448e-05
0.000184405
2.52971e-05
5.04514e-05
0.000240295
2.68905e-06
-2.58254e-05
5.42201e-06
-2.64719e-05
8.46467e-06
-2.80981e-05
1.16452e-05
-2.98603e-05
1.41057e-05
-3.14412e-05
1.68639e-05
-3.5402e-05
1.91373e-05
-3.88418e-05
2.12558e-05
-4.49744e-05
2.4978e-05
-5.32574e-05
3.1975e-05
-6.63756e-05
4.48465e-05
-8.31209e-05
5.48008e-05
-0.000106333
5.0585e-05
-0.000102955
4.11054e-05
-6.07847e-05
4.5077e-05
-2.59872e-05
5.65134e-05
-1.15669e-05
7.03761e-05
-3.18881e-06
8.6057e-05
1.74649e-06
0.000103854
6.53214e-06
0.000122827
4.21781e-06
0.000147577
1.19943e-05
0.000169863
3.01141e-06
3.60044e-06
0.000216714
2.90754e-06
-2.87329e-05
4.23813e-06
-2.78025e-05
7.39093e-06
-3.12509e-05
1.10903e-05
-3.35596e-05
1.57145e-05
-3.60654e-05
2.24729e-05
-4.21605e-05
3.11286e-05
-4.74974e-05
4.16362e-05
-5.5482e-05
5.30197e-05
-6.4641e-05
6.29676e-05
-7.63234e-05
6.82643e-05
-8.84177e-05
6.54389e-05
-0.000103507
5.92898e-05
-9.68059e-05
5.77705e-05
-5.92654e-05
5.96523e-05
-2.78689e-05
6.63107e-05
-1.82252e-05
7.67693e-05
-1.36474e-05
9.00032e-05
-1.14874e-05
0.000105993
-9.45766e-06
0.000123392
-1.31811e-05
0.000146697
-1.13105e-05
0.000168232
-1.85236e-05
-2.57299e-05
0.000197562
8.61351e-06
-3.73465e-05
1.84223e-05
-3.76114e-05
2.65751e-05
-3.94038e-05
3.55048e-05
-4.24894e-05
4.35702e-05
-4.41308e-05
5.11532e-05
-4.97436e-05
5.847e-05
-5.48142e-05
6.52994e-05
-6.23114e-05
7.07887e-05
-7.01303e-05
7.46234e-05
-8.01582e-05
7.42409e-05
-8.80352e-05
6.87239e-05
-9.79905e-05
6.43434e-05
-9.24254e-05
6.26568e-05
-5.75789e-05
6.44996e-05
-2.97116e-05
7.03101e-05
-2.40358e-05
7.94215e-05
-2.27588e-05
9.11546e-05
-2.32205e-05
0.000105616
-2.39186e-05
0.000121694
-2.92597e-05
0.000141055
-3.06711e-05
0.000160808
-3.82766e-05
-4.88703e-05
0.000183948
7.07611e-06
-4.44227e-05
1.45658e-05
-4.51011e-05
2.1938e-05
-4.67761e-05
2.88877e-05
-4.94391e-05
3.70225e-05
-5.22656e-05
4.39657e-05
-5.66868e-05
5.07893e-05
-6.16378e-05
5.6307e-05
-6.78291e-05
6.06398e-05
-7.44632e-05
6.23145e-05
-8.18329e-05
6.30218e-05
-8.87425e-05
6.23786e-05
-9.73473e-05
6.0919e-05
-9.09658e-05
6.05755e-05
-5.72355e-05
6.38166e-05
-3.29526e-05
7.00251e-05
-3.02443e-05
7.87396e-05
-3.14733e-05
8.9605e-05
-3.40859e-05
0.000102744
-3.70578e-05
0.000117179
-4.36945e-05
0.000133751
-4.72428e-05
0.000152237
-5.67629e-05
-6.85856e-05
0.000171952
6.53479e-06
-5.09575e-05
1.31724e-05
-5.17387e-05
1.969e-05
-5.32937e-05
2.5819e-05
-5.55681e-05
3.20419e-05
-5.84885e-05
3.77046e-05
-6.23495e-05
4.30335e-05
-6.69667e-05
4.75757e-05
-7.23714e-05
5.15512e-05
-7.84386e-05
5.46376e-05
-8.49194e-05
5.66959e-05
-9.08007e-05
5.77795e-05
-9.8431e-05
5.74364e-05
-9.06227e-05
5.74916e-05
-5.72906e-05
6.15621e-05
-3.70231e-05
6.76404e-05
-3.63226e-05
7.5999e-05
-3.98319e-05
8.60387e-05
-4.41256e-05
9.78946e-05
-4.89138e-05
0.000110784
-5.6584e-05
0.000125533
-6.19919e-05
0.000142054
-7.32833e-05
-8.56703e-05
0.000159138
5.80098e-06
-5.67585e-05
1.15818e-05
-5.75195e-05
1.72354e-05
-5.89473e-05
2.27398e-05
-6.10725e-05
2.82074e-05
-6.39561e-05
3.33517e-05
-6.74939e-05
3.81799e-05
-7.17949e-05
4.24598e-05
-7.66513e-05
4.60509e-05
-8.20298e-05
4.88107e-05
-8.76791e-05
5.10426e-05
-9.30327e-05
5.29039e-05
-0.000100292
5.27949e-05
-9.05137e-05
5.28455e-05
-5.73412e-05
5.73727e-05
-4.15504e-05
6.36081e-05
-4.2558e-05
7.15607e-05
-4.77845e-05
8.08001e-05
-5.33651e-05
9.14464e-05
-5.956e-05
0.000102931
-6.80683e-05
0.000115958
-7.50191e-05
0.000130323
-8.7648e-05
-0.000100787
0.000145439
5.08384e-06
-6.18423e-05
1.01299e-05
-6.25656e-05
1.50927e-05
-6.39101e-05
1.99398e-05
-6.59196e-05
2.45819e-05
-6.85982e-05
2.90078e-05
-7.19198e-05
3.30647e-05
-7.58518e-05
3.67416e-05
-8.03281e-05
3.99668e-05
-8.52551e-05
4.2737e-05
-9.04493e-05
4.53139e-05
-9.56096e-05
4.76395e-05
-0.000102618
4.74235e-05
-9.02977e-05
4.75733e-05
-5.74911e-05
5.2248e-05
-4.62251e-05
5.85447e-05
-4.88548e-05
6.59578e-05
-5.51975e-05
7.43214e-05
-6.17287e-05
8.37677e-05
-6.90064e-05
9.38858e-05
-7.81864e-05
0.000105318
-8.64511e-05
0.000117739
-0.000100069
-0.000113823
0.000130776
4.40741e-06
-6.62497e-05
8.77362e-06
-6.69318e-05
1.30539e-05
-6.81903e-05
1.72143e-05
-7.00801e-05
2.12151e-05
-7.25989e-05
2.50061e-05
-7.57108e-05
2.85447e-05
-7.93904e-05
3.17844e-05
-8.35679e-05
3.47148e-05
-8.81854e-05
3.73886e-05
-9.3123e-05
3.9969e-05
-9.81901e-05
4.23121e-05
-0.000104961
4.1572e-05
-8.95576e-05
4.20134e-05
-5.79324e-05
4.65502e-05
-5.0762e-05
5.26604e-05
-5.49649e-05
5.9418e-05
-6.19551e-05
6.68539e-05
-6.91646e-05
7.50964e-05
-7.72489e-05
8.38716e-05
-8.69616e-05
9.37683e-05
-9.63478e-05
0.000104422
-0.000110723
-0.000124783
0.000115381
3.7706e-06
-7.00203e-05
7.50121e-06
-7.06624e-05
1.11475e-05
-7.18366e-05
1.46816e-05
-7.36142e-05
1.80724e-05
-7.59897e-05
2.12915e-05
-7.893e-05
2.43001e-05
-8.23989e-05
2.70911e-05
-8.6359e-05
2.96709e-05
-9.07651e-05
3.20848e-05
-9.55369e-05
3.45007e-05
-0.000100606
3.67251e-05
-0.000107185
3.52797e-05
-8.81122e-05
3.61275e-05
-5.87802e-05
4.04237e-05
-5.50581e-05
4.6184e-05
-6.07252e-05
5.2187e-05
-6.79581e-05
5.86443e-05
-7.5622e-05
6.56608e-05
-8.42654e-05
7.3063e-05
-9.43638e-05
8.14318e-05
-0.000104717
9.04494e-05
-0.000119741
-0.000134279
9.99456e-05
3.16626e-06
-7.31865e-05
6.29947e-06
-7.37955e-05
9.34304e-06
-7.48802e-05
1.22762e-05
-7.65473e-05
1.50951e-05
-7.88086e-05
1.77706e-05
-8.16055e-05
2.02809e-05
-8.49092e-05
2.26213e-05
-8.86993e-05
2.48109e-05
-9.29547e-05
2.68997e-05
-9.76257e-05
2.90404e-05
-0.000102747
3.09805e-05
-0.000109125
2.86884e-05
-8.582e-05
2.98874e-05
-5.99793e-05
3.40778e-05
-5.92484e-05
3.92687e-05
-6.59161e-05
4.44686e-05
-7.31579e-05
4.99062e-05
-8.10596e-05
5.56606e-05
-9.00198e-05
6.16256e-05
-0.000100329
6.84511e-05
-0.000111542
7.5772e-05
-0.000127062
-0.000141877
8.33705e-05
2.50144e-06
-7.5688e-05
5.00977e-06
-7.63038e-05
7.5124e-06
-7.73827e-05
9.94326e-06
-7.89781e-05
1.22455e-05
-8.11108e-05
1.44121e-05
-8.37721e-05
1.64291e-05
-8.69262e-05
1.82992e-05
-9.05694e-05
2.00424e-05
-9.46979e-05
2.17127e-05
-9.9296e-05
2.3467e-05
-0.000104501
2.49991e-05
-0.000110658
2.18372e-05
-8.26581e-05
2.34675e-05
-6.16095e-05
2.76186e-05
-6.33995e-05
3.21059e-05
-7.04034e-05
3.64694e-05
-7.75213e-05
4.08375e-05
-8.54277e-05
4.52749e-05
-9.44572e-05
4.97365e-05
-0.00010479
5.49012e-05
-0.000116707
5.98433e-05
-0.000132004
-0.000147123
6.50887e-05
1.90636e-06
-7.75943e-05
3.80661e-06
-7.8204e-05
5.73865e-06
-7.93147e-05
7.67136e-06
-8.09108e-05
9.50305e-06
-8.29424e-05
1.11806e-05
-8.54495e-05
1.27105e-05
-8.84561e-05
1.4088e-05
-9.19467e-05
1.53255e-05
-9.59354e-05
1.648e-05
-0.00010045
1.76925e-05
-0.000105714
1.8649e-05
-0.000111614
1.50081e-05
-7.90171e-05
1.70671e-05
-6.36685e-05
2.11497e-05
-6.74822e-05
2.49482e-05
-7.42019e-05
2.84382e-05
-8.10113e-05
3.17058e-05
-8.86952e-05
3.47748e-05
-9.75262e-05
3.77177e-05
-0.000107733
4.11688e-05
-0.000120158
4.32123e-05
-0.000134047
-0.000148853
4.49426e-05
1.52697e-06
-7.91212e-05
2.99591e-06
-7.9673e-05
4.38168e-06
-8.07005e-05
5.70025e-06
-8.22294e-05
6.98386e-06
-8.4226e-05
8.17808e-06
-8.66437e-05
9.23873e-06
-8.95167e-05
1.01365e-05
-9.28444e-05
1.08296e-05
-9.66285e-05
1.1287e-05
-0.000100908
1.14363e-05
-0.000105863
1.0988e-05
-0.000111166
8.25861e-06
-7.62878e-05
1.1067e-05
-6.64769e-05
1.50603e-05
-7.14754e-05
1.82324e-05
-7.7374e-05
2.09026e-05
-8.36814e-05
2.31277e-05
-9.09204e-05
2.47384e-05
-9.91368e-05
2.57683e-05
-0.000108763
2.6591e-05
-0.00012098
2.71199e-05
-0.000134576
-0.000155524
3.37913e-05
1.14577e-06
-8.0267e-05
2.26358e-06
-8.07908e-05
3.28368e-06
-8.17206e-05
4.16904e-06
-8.31147e-05
4.90488e-06
-8.49618e-05
5.54326e-06
-8.72821e-05
6.08071e-06
-9.00542e-05
6.48217e-06
-9.32459e-05
6.63458e-06
-9.67809e-05
6.32652e-06
-0.0001006
4.96149e-06
-0.000104498
9.3757e-07
-0.000107142
1.4507e-06
-7.68009e-05
6.32057e-06
-7.13468e-05
1.0021e-05
-7.51759e-05
1.23422e-05
-7.96951e-05
1.39562e-05
-8.52954e-05
1.49335e-05
-9.18977e-05
1.48283e-05
-9.90316e-05
1.31093e-05
-0.000107044
9.59913e-06
-0.00011747
1.40801e-05
-0.000139057
-0.000170289
2.88445e-05
5.48796e-07
-8.08159e-05
1.04289e-06
-8.12849e-05
1.45985e-06
-8.21376e-05
1.76946e-06
-8.34244e-05
1.95179e-06
-8.51443e-05
1.97719e-06
-8.73076e-05
1.87734e-06
-8.99545e-05
1.79638e-06
-9.31651e-05
1.82448e-06
-9.68092e-05
1.90182e-06
-0.000100677
1.00951e-06
-0.000103606
-2.4021e-06
-0.000103731
-1.75426e-06
-7.74487e-05
2.99754e-06
-7.60986e-05
4.50729e-06
-7.66856e-05
4.45176e-06
-7.96397e-05
4.21027e-06
-8.5054e-05
5.12705e-06
-9.28146e-05
8.4939e-06
-0.000102399
1.50125e-05
-0.000113563
2.48499e-05
-0.000127308
1.75569e-05
-0.000131764
-6.06843e-05
-9.20482e-05
2.16324e-07
-8.1032e-05
3.29028e-07
-8.13975e-05
4.77458e-07
-8.22859e-05
6.57968e-07
-8.36047e-05
8.73929e-07
-8.536e-05
1.17708e-06
-8.76105e-05
1.57759e-06
-9.03546e-05
1.78499e-06
-9.33721e-05
1.18801e-06
-9.62117e-05
-4.56013e-07
-9.90325e-05
-8.71205e-06
-9.5349e-05
-2.11952e-05
-9.12465e-05
-6.46206e-06
-9.21817e-05
-1.44062e-06
-8.11199e-05
3.47795e-07
-7.8474e-05
1.37061e-06
-8.0662e-05
2.15625e-06
-8.58392e-05
1.3063e-06
-9.19642e-05
-3.04478e-06
-9.80473e-05
-1.01597e-05
-0.000106448
-2.88664e-05
-0.000108601
-8.52041e-05
-7.5427e-05
2.15422e-05
-0.000167431
-2.12787e-06
-7.89038e-05
-4.33385e-06
-7.91911e-05
-6.66611e-06
-7.99532e-05
-9.20057e-06
-8.10698e-05
-1.20499e-05
-8.25103e-05
-1.52828e-05
-8.43772e-05
-1.89266e-05
-8.67103e-05
-2.2933e-05
-8.93652e-05
-2.68617e-05
-9.22826e-05
-3.01128e-05
-9.5781e-05
-2.79571e-05
-9.75043e-05
-2.10088e-05
-9.81943e-05
-3.36298e-05
-7.95604e-05
-4.17933e-05
-7.29561e-05
-4.83385e-05
-7.19283e-05
-5.52461e-05
-7.37543e-05
-6.26633e-05
-7.84218e-05
-6.92628e-05
-8.53646e-05
-7.1798e-05
-9.55122e-05
-7.599e-05
-0.000102256
-9.71556e-05
-8.7436e-05
-0.000142119
-3.0464e-05
4.6587e-05
-0.000167164
-2.12053e-06
-7.67831e-05
-3.94502e-06
-7.73665e-05
-5.9372e-06
-7.7961e-05
-8.12466e-06
-7.88823e-05
-1.06041e-05
-8.00308e-05
-1.35538e-05
-8.14275e-05
-1.72601e-05
-8.3004e-05
-2.20386e-05
-8.45868e-05
-2.82803e-05
-8.6041e-05
-3.69404e-05
-8.71211e-05
-4.7511e-05
-8.69339e-05
-6.13385e-05
-8.4367e-05
-6.38075e-05
-7.70915e-05
-6.27967e-05
-7.39668e-05
-6.25221e-05
-7.22031e-05
-6.42007e-05
-7.20757e-05
-6.94352e-05
-7.31873e-05
-7.95886e-05
-7.52114e-05
-9.66383e-05
-7.84626e-05
-0.000121089
-7.78057e-05
-0.0001483
-6.02245e-05
-0.000166
-1.27648e-05
3.47015e-05
-0.000154114
-2.22236e-06
-7.45608e-05
-4.19864e-06
-7.53903e-05
-6.39868e-06
-7.57609e-05
-8.96787e-06
-7.63132e-05
-1.19458e-05
-7.70529e-05
-1.54898e-05
-7.78835e-05
-1.96641e-05
-7.88298e-05
-2.45645e-05
-7.96865e-05
-3.03363e-05
-8.02694e-05
-3.71143e-05
-8.03432e-05
-4.44114e-05
-7.9637e-05
-5.12564e-05
-7.75221e-05
-5.47246e-05
-7.36234e-05
-5.84114e-05
-7.02802e-05
-6.29852e-05
-6.76293e-05
-6.92897e-05
-6.57714e-05
-7.83447e-05
-6.41324e-05
-9.07566e-05
-6.27996e-05
-0.000107333
-6.18863e-05
-0.000126866
-5.82732e-05
-0.000144813
-4.22776e-05
-0.000147941
-9.63667e-06
1.89892e-05
-0.000132229
-2.46466e-06
-7.20961e-05
-4.94366e-06
-7.29113e-05
-7.55662e-06
-7.3148e-05
-1.0362e-05
-7.35078e-05
-1.34751e-05
-7.39398e-05
-1.69646e-05
-7.43941e-05
-2.09723e-05
-7.48223e-05
-2.55564e-05
-7.51026e-05
-3.07345e-05
-7.50914e-05
-3.64387e-05
-7.46392e-05
-4.25901e-05
-7.34857e-05
-4.8844e-05
-7.12683e-05
-5.4138e-05
-6.83295e-05
-5.86987e-05
-6.57196e-05
-6.32549e-05
-6.30733e-05
-6.84708e-05
-6.05556e-05
-7.45075e-05
-5.80958e-05
-8.21737e-05
-5.51334e-05
-9.3672e-05
-5.03882e-05
-0.000109404
-4.2541e-05
-0.000123025
-2.86567e-05
-0.000124088
-8.57387e-06
9.72832e-06
-0.000114827
-2.47981e-06
-6.96164e-05
-5.00639e-06
-7.03848e-05
-7.66314e-06
-7.04913e-05
-1.05196e-05
-7.06514e-05
-1.36481e-05
-7.08114e-05
-1.71011e-05
-7.09411e-05
-2.09548e-05
-7.09687e-05
-2.52498e-05
-7.08077e-05
-2.9989e-05
-7.03522e-05
-3.51345e-05
-6.94939e-05
-4.05298e-05
-6.80905e-05
-4.57096e-05
-6.60886e-05
-5.03253e-05
-6.3714e-05
-5.49583e-05
-6.10867e-05
-5.98919e-05
-5.81398e-05
-6.55948e-05
-5.48528e-05
-7.25719e-05
-5.11188e-05
-8.09268e-05
-4.67786e-05
-8.96522e-05
-4.16627e-05
-9.76378e-05
-3.45555e-05
-0.000103005
-2.32897e-05
-0.000102969
-8.60974e-06
6.43534e-06
-9.9676e-05
-2.56303e-06
-6.70534e-05
-5.198e-06
-6.77498e-05
-7.93435e-06
-6.7755e-05
-1.08304e-05
-6.77555e-05
-1.39244e-05
-6.77173e-05
-1.72631e-05
-6.76026e-05
-2.08772e-05
-6.73547e-05
-2.47781e-05
-6.69069e-05
-2.89522e-05
-6.61782e-05
-3.33728e-05
-6.50734e-05
-3.79534e-05
-6.351e-05
-4.25492e-05
-6.14928e-05
-4.71645e-05
-5.90988e-05
-5.18522e-05
-5.6399e-05
-5.66215e-05
-5.33706e-05
-6.15211e-05
-4.99532e-05
-6.66421e-05
-4.59978e-05
-7.21094e-05
-4.13113e-05
-7.83333e-05
-3.54388e-05
-8.51295e-05
-2.77593e-05
-9.01496e-05
-1.82696e-05
-9.14935e-05
-7.26581e-06
3.57108e-06
-8.86292e-05
-2.56895e-06
-6.44845e-05
-5.19999e-06
-6.51188e-05
-7.91459e-06
-6.50405e-05
-1.07541e-05
-6.4916e-05
-1.37581e-05
-6.47134e-05
-1.69624e-05
-6.43983e-05
-2.03915e-05
-6.39257e-05
-2.40561e-05
-6.32423e-05
-2.79453e-05
-6.2289e-05
-3.20149e-05
-6.10039e-05
-3.61806e-05
-5.93443e-05
-4.03597e-05
-5.73137e-05
-4.45367e-05
-5.49219e-05
-4.87872e-05
-5.21485e-05
-5.31687e-05
-4.89892e-05
-5.77454e-05
-4.53764e-05
-6.25199e-05
-4.12232e-05
-6.74488e-05
-3.63824e-05
-7.22483e-05
-3.06392e-05
-7.62491e-05
-2.37585e-05
-7.88562e-05
-1.56625e-05
-7.9452e-05
-6.6699e-06
2.56474e-06
-7.84457e-05
-2.53291e-06
-6.19516e-05
-5.12644e-06
-6.25253e-05
-7.78737e-06
-6.23796e-05
-1.05489e-05
-6.21545e-05
-1.34405e-05
-6.18218e-05
-1.64859e-05
-6.13529e-05
-1.96995e-05
-6.07121e-05
-2.30842e-05
-5.98577e-05
-2.66283e-05
-5.87449e-05
-3.03008e-05
-5.73314e-05
-3.4057e-05
-5.55882e-05
-3.78644e-05
-5.35063e-05
-4.17102e-05
-5.10761e-05
-4.5584e-05
-4.82747e-05
-4.94979e-05
-4.50753e-05
-5.34424e-05
-4.1432e-05
-5.73925e-05
-3.72731e-05
-6.12736e-05
-3.25012e-05
-6.49201e-05
-2.69926e-05
-6.80174e-05
-2.06612e-05
-7.01131e-05
-1.35667e-05
-7.0789e-05
-5.99402e-06
1.69403e-06
-6.99182e-05
-2.46834e-06
-5.94833e-05
-4.98792e-06
-6.00058e-05
-7.56167e-06
-5.98058e-05
-1.02151e-05
-5.95011e-05
-1.297e-05
-5.90669e-05
-1.58431e-05
-5.84799e-05
-1.88435e-05
-5.77117e-05
-2.1971e-05
-5.67302e-05
-2.52142e-05
-5.55018e-05
-2.85497e-05
-5.39958e-05
-3.19487e-05
-5.21893e-05
-3.53894e-05
-5.00656e-05
-3.88584e-05
-4.76071e-05
-4.23405e-05
-4.47926e-05
-4.58196e-05
-4.15962e-05
-4.92698e-05
-3.79817e-05
-5.26402e-05
-3.39025e-05
-5.58383e-05
-2.9303e-05
-5.86992e-05
-2.41316e-05
-6.09873e-05
-1.83731e-05
-6.24586e-05
-1.20954e-05
-6.29533e-05
-5.49922e-06
1.17548e-06
-6.24347e-05
-2.37375e-06
-5.71095e-05
-4.7923e-06
-5.75872e-05
-7.25317e-06
-5.7345e-05
-9.77609e-06
-5.69782e-05
-1.23771e-05
-5.64659e-05
-1.50678e-05
-5.57893e-05
-1.78535e-05
-5.49261e-05
-2.07324e-05
-5.38512e-05
-2.3695e-05
-5.25393e-05
-2.67242e-05
-5.09667e-05
-2.97999e-05
-4.91135e-05
-3.29031e-05
-4.69625e-05
-3.60141e-05
-4.44961e-05
-3.91112e-05
-4.16955e-05
-4.21683e-05
-3.85391e-05
-4.51479e-05
-3.5002e-05
-4.7994e-05
-3.10564e-05
-5.06213e-05
-2.66755e-05
-5.29076e-05
-2.18453e-05
-5.46988e-05
-1.65817e-05
-5.58399e-05
-1.09542e-05
-5.62313e-05
-5.10784e-06
7.88663e-07
-5.58444e-05
-2.25792e-06
-5.48516e-05
-4.55421e-06
-5.5291e-05
-6.88302e-06
-5.50162e-05
-9.25939e-06
-5.46018e-05
-1.16949e-05
-5.40304e-05
-1.41973e-05
-5.32869e-05
-1.67696e-05
-5.23538e-05
-1.94091e-05
-5.12117e-05
-2.21075e-05
-4.98409e-05
-2.48514e-05
-4.82228e-05
-2.76244e-05
-4.63405e-05
-3.04083e-05
-4.41786e-05
-3.31825e-05
-4.17219e-05
-3.59226e-05
-3.89554e-05
-3.85979e-05
-3.58637e-05
-4.11686e-05
-3.24313e-05
-4.35804e-05
-2.86445e-05
-4.57605e-05
-2.44953e-05
-4.76166e-05
-1.99891e-05
-4.9044e-05
-1.51543e-05
-4.99457e-05
-1.00525e-05
-5.02623e-05
-4.79116e-06
5.02722e-07
-4.99763e-05
-2.12475e-06
-5.27269e-05
-4.28245e-06
-5.31333e-05
-6.46463e-06
-5.2834e-05
-8.68259e-06
-5.23839e-05
-1.09446e-05
-5.17684e-05
-1.32556e-05
-5.09759e-05
-1.56169e-05
-4.99925e-05
-1.80254e-05
-4.88032e-05
-2.04736e-05
-4.73927e-05
-2.295e-05
-4.57464e-05
-2.54401e-05
-4.38505e-05
-2.79264e-05
-4.16923e-05
-3.03882e-05
-3.92601e-05
-3.28006e-05
-3.65429e-05
-3.51332e-05
-3.35311e-05
-3.73476e-05
-3.02168e-05
-3.93959e-05
-2.65961e-05
-4.12188e-05
-2.26723e-05
-4.27474e-05
-1.84604e-05
-4.39092e-05
-1.39924e-05
-4.464e-05
-9.32162e-06
-4.49011e-05
-4.52993e-06
2.82966e-07
-4.46814e-05
-1.97858e-06
-5.07483e-05
-3.98534e-06
-5.11265e-05
-6.01014e-06
-5.08092e-05
-8.06132e-06
-5.03327e-05
-1.01445e-05
-4.96852e-05
-1.22629e-05
-4.88576e-05
-1.44163e-05
-4.78391e-05
-1.66013e-05
-4.66182e-05
-1.8811e-05
-4.51831e-05
-2.1035e-05
-4.35224e-05
-2.326e-05
-4.16255e-05
-2.54696e-05
-3.94827e-05
-2.7644e-05
-3.70857e-05
-2.97595e-05
-3.44274e-05
-3.17875e-05
-3.1503e-05
-3.36937e-05
-2.83105e-05
-3.54372e-05
-2.48525e-05
-3.69708e-05
-2.11386e-05
-3.8243e-05
-1.71882e-05
-3.92024e-05
-1.3033e-05
-3.98051e-05
-8.7188e-06
-4.00252e-05
-4.30988e-06
1.11969e-07
-3.98541e-05
-1.82266e-06
-4.89256e-05
-3.66934e-06
-4.92799e-05
-5.52896e-06
-4.89496e-05
-7.40757e-06
-4.84541e-05
-9.30889e-06
-4.77839e-05
-1.12345e-05
-4.6932e-05
-1.31835e-05
-4.58901e-05
-1.51521e-05
-4.46496e-05
-1.71338e-05
-4.32014e-05
-1.91191e-05
-4.15371e-05
-2.10958e-05
-3.96488e-05
-2.30487e-05
-3.75299e-05
-2.49594e-05
-3.51749e-05
-2.68065e-05
-3.25804e-05
-2.85642e-05
-2.97452e-05
-3.0203e-05
-2.66717e-05
-3.16889e-05
-2.33666e-05
-3.29845e-05
-1.98429e-05
-3.40511e-05
-1.61215e-05
-3.48516e-05
-1.22325e-05
-3.53553e-05
-8.21509e-06
-3.55445e-05
-4.12061e-06
-2.32195e-08
-3.54093e-05
-1.65961e-06
-4.7266e-05
-3.33958e-06
-4.75999e-05
-5.02856e-06
-4.72607e-05
-6.73082e-06
-4.67519e-05
-8.4486e-06
-4.60662e-05
-1.01824e-05
-4.51982e-05
-1.19307e-05
-4.41419e-05
-1.36896e-05
-4.28906e-05
-1.54529e-05
-4.14381e-05
-1.7212e-05
-3.9778e-05
-1.89557e-05
-3.79052e-05
-2.06702e-05
-3.58153e-05
-2.23392e-05
-3.35059e-05
-2.39434e-05
-3.09761e-05
-2.54607e-05
-2.82279e-05
-2.6866e-05
-2.52664e-05
-2.81316e-05
-2.2101e-05
-2.9228e-05
-1.87464e-05
-3.0126e-05
-1.52236e-05
-3.0798e-05
-1.15604e-05
-3.1222e-05
-7.79115e-06
-3.1384e-05
-3.95857e-06
-1.21217e-07
-3.1286e-05
-1.49147e-06
-4.57746e-05
-3.00008e-06
-4.60913e-05
-4.51473e-06
-4.5746e-05
-6.03832e-06
-4.52283e-05
-7.57203e-06
-4.45325e-05
-9.11558e-06
-4.36547e-05
-1.0667e-05
-4.25904e-05
-1.22225e-05
-4.13352e-05
-1.37762e-05
-3.98843e-05
-1.53204e-05
-3.82339e-05
-1.68449e-05
-3.63807e-05
-1.83376e-05
-3.43226e-05
-1.97841e-05
-3.20594e-05
-2.11678e-05
-2.95924e-05
-2.24699e-05
-2.69258e-05
-2.36695e-05
-2.40667e-05
-2.47442e-05
-2.10262e-05
-2.56711e-05
-1.78195e-05
-2.64276e-05
-1.44671e-05
-2.69935e-05
-1.09945e-05
-2.73524e-05
-7.43223e-06
-2.74946e-05
-3.81635e-06
-1.94195e-07
-2.74216e-05
-1.31983e-06
-4.44548e-05
-2.65386e-06
-4.47573e-05
-3.99181e-06
-4.44081e-05
-5.33556e-06
-4.38845e-05
-6.68546e-06
-4.31826e-05
-8.0407e-06
-4.22994e-05
-9.39913e-06
-4.1232e-05
-1.07571e-05
-3.99772e-05
-1.21092e-05
-3.85322e-05
-1.34484e-05
-3.68946e-05
-1.47661e-05
-3.5063e-05
-1.60515e-05
-3.30372e-05
-1.72923e-05
-3.08185e-05
-1.84745e-05
-2.84102e-05
-1.95823e-05
-2.5818e-05
-2.05987e-05
-2.30503e-05
-2.15058e-05
-2.0119e-05
-2.22856e-05
-1.70396e-05
-2.2921e-05
-1.38316e-05
-2.33969e-05
-1.05187e-05
-2.37012e-05
-7.12793e-06
-2.38268e-05
-3.69075e-06
-2.45785e-07
-2.37752e-05
-1.14574e-06
-4.3309e-05
-2.30311e-06
-4.35999e-05
-3.46301e-06
-4.32482e-05
-4.62652e-06
-4.2721e-05
-5.79341e-06
-4.20157e-05
-6.96254e-06
-4.11303e-05
-8.13168e-06
-4.00629e-05
-9.2974e-06
-3.88115e-05
-1.0455e-05
-3.73746e-05
-1.15983e-05
-3.57513e-05
-1.27197e-05
-3.39416e-05
-1.38103e-05
-3.19466e-05
-1.48597e-05
-2.97691e-05
-1.58561e-05
-2.74138e-05
-1.67868e-05
-2.48873e-05
-1.76379e-05
-2.21991e-05
-1.83955e-05
-1.93614e-05
-1.90456e-05
-1.63896e-05
-1.95751e-05
-1.33021e-05
-1.99728e-05
-1.01209e-05
-2.023e-05
-6.87075e-06
-2.03415e-05
-3.57932e-06
-2.78533e-07
-2.03087e-05
-9.69547e-07
-4.23395e-05
-1.9492e-06
-4.26203e-05
-2.93047e-06
-4.22669e-05
-3.91393e-06
-4.17376e-05
-4.89897e-06
-4.10306e-05
-5.88421e-06
-4.0145e-05
-6.86751e-06
-3.90796e-05
-7.84582e-06
-3.78332e-05