/*--------------------------------*- C++ -*----------------------------------*\
| =========                 |                                                 |
| \\      /  F ield         | OpenFOAM: The Open Source CFD Toolbox           |
|  \\    /   O peration     | Version:  2.4.0                                 |
|   \\  /    A nd           | Web:      www.OpenFOAM.org                      |
|    \\/     M anipulation  |                                                 |
\*---------------------------------------------------------------------------*/
FoamFile
{
    version     2.0;
    format      ascii;
    class       surfaceScalarField;
    location    "0.1";
    object      phi.air;
}
// * * * * * * * * * * * * * * * * * * * * * * * * * * * * * * * * * * * * * //

dimensions      [0 3 -1 0 0 0 0];

internalField   nonuniform List<scalar> 
4432
(
2.21309e-06
-2.21276e-06
4.48978e-06
-2.27636e-06
6.89693e-06
-2.4068e-06
9.50949e-06
-2.61224e-06
1.24142e-05
-2.90442e-06
1.57258e-05
-3.31138e-06
1.95577e-05
-3.83169e-06
2.4115e-05
-4.55724e-06
2.94809e-05
-5.36576e-06
3.66963e-05
-7.21543e-06
4.31933e-05
-6.49697e-06
5.39183e-05
-1.07251e-05
6.87613e-05
-1.48431e-05
8.42182e-05
-1.54507e-05
9.56753e-05
-1.13975e-05
0.000100702
-4.9857e-06
0.00010172
-2.31585e-06
0.000101993
-1.12295e-05
0.000107198
-2.80869e-05
0.000108136
-3.28526e-05
8.29131e-05
-1.6171e-05
2.93784e-05
1.74901e-05
2.34938e-05
2.19963e-06
-4.41197e-06
4.46212e-06
-4.53844e-06
6.85332e-06
-4.79757e-06
9.44692e-06
-5.20545e-06
1.23282e-05
-5.78532e-06
1.56113e-05
-6.5942e-06
1.94033e-05
-7.62346e-06
2.39281e-05
-9.08187e-06
2.93138e-05
-1.07513e-05
3.61655e-05
-1.4067e-05
4.32565e-05
-1.3588e-05
5.42018e-05
-2.16704e-05
6.81324e-05
-2.87723e-05
8.2148e-05
-2.94158e-05
9.37412e-05
-2.29554e-05
0.000100477
-1.24595e-05
0.000102118
-1.10627e-05
0.000106966
-2.47371e-05
0.000101927
-1.94547e-05
8.19468e-05
4.03449e-06
5.14922e-05
3.57669e-05
2.17592e-05
4.72212e-05
4.48138e-05
2.17135e-06
-6.58302e-06
4.40394e-06
-6.77069e-06
6.76179e-06
-7.15509e-06
9.3159e-06
-7.75924e-06
1.21489e-05
-8.61808e-06
1.53711e-05
-9.81613e-06
1.90895e-05
-1.13418e-05
2.35264e-05
-1.35187e-05
2.88744e-05
-1.60992e-05
3.53179e-05
-2.05106e-05
4.27757e-05
-2.10458e-05
5.37446e-05
-3.26392e-05
6.71756e-05
-4.21852e-05
7.97795e-05
-4.1958e-05
8.92615e-05
-3.3013e-05
9.39642e-05
-2.38701e-05
9.89196e-05
-3.26352e-05
9.61824e-05
-3.36131e-05
7.53488e-05
6.46122e-06
4.8483e-05
5.86039e-05
3.6023e-05
6.53101e-05
2.04996e-05
6.33847e-05
6.53124e-05
2.12943e-06
-8.71191e-06
4.31775e-06
-8.9585e-06
6.62637e-06
-9.46321e-06
9.12213e-06
-1.02545e-05
1.18838e-05
-1.13793e-05
1.50141e-05
-1.29461e-05
1.86258e-05
-1.49532e-05
2.2921e-05
-1.78136e-05
2.80906e-05
-2.12686e-05
3.42817e-05
-2.67015e-05
4.18692e-05
-2.86333e-05
5.27377e-05
-4.35083e-05
6.51107e-05
-5.44958e-05
7.59703e-05
-5.30682e-05
8.34018e-05
-4.42473e-05
8.90878e-05
-4.67029e-05
8.5909e-05
-4.70725e-05
7.01749e-05
-9.3729e-06
5.11318e-05
5.77823e-05
4.2846e-05
7.04896e-05
3.47811e-05
7.34689e-05
2.03764e-05
7.77887e-05
8.56866e-05
2.07436e-06
-1.0786e-05
4.20464e-06
-1.10885e-05
6.44906e-06
-1.17074e-05
8.86861e-06
-1.26739e-05
1.15365e-05
-1.4047e-05
1.4547e-05
-1.59565e-05
1.80149e-05
-1.8421e-05
2.21151e-05
-2.19137e-05
2.7015e-05
-2.61685e-05
3.28407e-05
-3.25272e-05
4.05409e-05
-3.63335e-05
5.11559e-05
-5.41253e-05
6.22179e-05
-6.55024e-05
7.04073e-05
-6.27477e-05
7.4893e-05
-6.2625e-05
7.56641e-05
-6.42718e-05
6.63543e-05
-3.68459e-05
5.09119e-05
3.89956e-05
4.47132e-05
6.7292e-05
4.14224e-05
7.37794e-05
3.5527e-05
7.93643e-05
2.27322e-05
9.05838e-05
0.00010842
2.00675e-06
-1.27924e-05
4.0659e-06
-1.31473e-05
6.23226e-06
-1.38734e-05
8.55922e-06
-1.50006e-05
1.11119e-05
-1.65995e-05
1.39775e-05
-1.88219e-05
1.72634e-05
-2.17068e-05
2.11248e-05
-2.5775e-05
2.56648e-05
-3.07085e-05
3.11288e-05
-3.79912e-05
3.8672e-05
-4.38767e-05
4.84928e-05
-6.39491e-05
5.77707e-05
-7.50171e-05
6.18681e-05
-7.36629e-05
6.60877e-05
-8.20253e-05
5.92333e-05
-6.56578e-05
4.81796e-05
4.02116e-06
4.18599e-05
5.6165e-05
4.12503e-05
6.79128e-05
4.11826e-05
7.38464e-05
3.77301e-05
8.28172e-05
2.63437e-05
0.000101972
0.000134766
1.92668e-06
-1.47189e-05
3.9016e-06
-1.5122e-05
5.97631e-06
-1.59479e-05
8.1951e-06
-1.72192e-05
1.06132e-05
-1.90175e-05
1.33111e-05
-2.15197e-05
1.63787e-05
-2.47744e-05
1.99551e-05
-2.93515e-05
2.40819e-05
-3.48353e-05
2.91279e-05
-4.30372e-05
3.6103e-05
-5.0852e-05
4.45158e-05
-7.2363e-05
5.11381e-05
-8.34228e-05
5.50243e-05
-9.2073e-05
5.33288e-05
-9.02598e-05
4.52022e-05
-4.21618e-05
3.7367e-05
3.37303e-05
3.67633e-05
5.72128e-05
4.00952e-05
6.45794e-05
4.30548e-05
7.08863e-05
4.12411e-05
8.46319e-05
3.35557e-05
0.00010966
0.000168324
1.82958e-06
-1.65484e-05
3.70194e-06
-1.69943e-05
5.66627e-06
-1.79122e-05
7.75713e-06
-1.931e-05
1.00236e-05
-2.12839e-05
1.25324e-05
-2.40286e-05
1.53432e-05
-2.75852e-05
1.85836e-05
-3.25915e-05
2.23051e-05
-3.85504e-05
2.68066e-05
-4.74821e-05
3.29696e-05
-5.68022e-05
3.94364e-05
-7.79159e-05
4.23479e-05
-9.28016e-05
4.67434e-05
-0.000108544
4.13363e-05
-8.58651e-05
3.28222e-05
-1.03334e-05
2.99889e-05
4.05893e-05
3.45366e-05
5.26687e-05
4.04049e-05
5.87104e-05
4.61733e-05
6.51178e-05
4.73896e-05
8.34163e-05
4.39594e-05
0.000113091
0.000212284
-1.08434e-05
1.08432e-05
-1.44683e-05
3.62456e-06
-1.09024e-05
-3.5663e-06
-4.52518e-06
-6.37735e-06
4.6818e-06
-9.20596e-06
2.2442e-05
-1.77595e-05
4.20304e-05
-1.95887e-05
5.29175e-05
-1.08871e-05
5.35367e-05
-6.19353e-07
4.93452e-05
4.1942e-06
4.26888e-05
6.65701e-06
3.57356e-05
6.95313e-06
2.9347e-05
6.38861e-06
2.35653e-05
5.7817e-06
1.82879e-05
5.27732e-06
1.33955e-05
4.89246e-06
8.77784e-06
4.61762e-06
4.33809e-06
4.43975e-06
4.33805e-06
-1.21574e-05
2.30003e-05
-1.5952e-05
7.41902e-06
-1.13317e-05
-8.18693e-06
-4.3601e-06
-1.33495e-05
4.95093e-06
-1.85166e-05
2.357e-05
-3.63783e-05
4.52192e-05
-4.12361e-05
5.66215e-05
-2.2265e-05
5.68344e-05
-7.55047e-07
5.17541e-05
9.33342e-06
4.42751e-05
1.41413e-05
3.69355e-05
1.42932e-05
3.03144e-05
1.30098e-05
2.4347e-05
1.17493e-05
1.89006e-05
1.07238e-05
1.38481e-05
9.94511e-06
9.07591e-06
9.3899e-06
4.48108e-06
9.03469e-06
8.81929e-06
-1.45295e-05
3.75296e-05
-1.89649e-05
1.18544e-05
-1.18746e-05
-1.52771e-05
-3.12518e-06
-2.20983e-05
7.48354e-06
-2.91243e-05
2.73509e-05
-5.62397e-05
5.2329e-05
-6.60696e-05
6.49036e-05
-3.40195e-05
6.24204e-05
2.08755e-06
5.34478e-05
1.84063e-05
4.44796e-05
2.31409e-05
3.68165e-05
2.19567e-05
3.01581e-05
1.96683e-05
2.42134e-05
1.76939e-05
1.87981e-05
1.6139e-05
1.37748e-05
1.49684e-05
9.02876e-06
1.41359e-05
4.45862e-06
1.36048e-05
1.32778e-05
-1.892e-05
5.64506e-05
-2.17875e-05
1.47246e-05
-7.20189e-06
-2.97366e-05
1.01807e-05
-3.93299e-05
2.68848e-05
-4.56418e-05
5.08951e-05
-7.99473e-05
7.79694e-05
-9.1815e-05
8.09179e-05
-3.58957e-05
6.68443e-05
1.66588e-05
5.36267e-05
3.17372e-05
4.40163e-05
3.27524e-05
3.63973e-05
2.95759e-05
2.9811e-05
2.62546e-05
2.39382e-05
2.35668e-05
1.85902e-05
2.14872e-05
1.36266e-05
1.99321e-05
8.93376e-06
1.88289e-05
4.41272e-06
1.8126e-05
1.76907e-05
-2.11139e-05
7.75641e-05
-1.1339e-05
6.22835e-06
2.40299e-05
-6.05924e-05
5.95241e-05
-6.92604e-05
9.02667e-05
-7.03173e-05
0.000118837
-0.000103913
0.0001236
-9.33915e-05
9.25936e-05
-4.40833e-06
6.73855e-05
4.20939e-05
5.27376e-05
4.63923e-05
4.32783e-05
4.22116e-05
3.57967e-05
3.70575e-05
2.93307e-05
3.27206e-05
2.35652e-05
2.93322e-05
1.83106e-05
2.67418e-05
1.3428e-05
2.48146e-05
8.80661e-06
2.34502e-05
4.35094e-06
2.25816e-05
2.20415e-05
2.98922e-07
7.6271e-05
4.7995e-05
-3.44534e-05
8.42158e-05
-9.35126e-05
0.000109979
-8.0547e-05
0.000137007
-7.93771e-05
0.000150962
-0.000111008
0.000133344
-7.51444e-05
8.8757e-05
4.04704e-05
6.45069e-05
6.63924e-05
5.12537e-05
5.96453e-05
4.22857e-05
5.11795e-05
3.50201e-05
4.4323e-05
2.8724e-05
3.90166e-05
2.30999e-05
3.49563e-05
1.79638e-05
3.18779e-05
1.31822e-05
2.95962e-05
8.64939e-06
2.7983e-05
4.27445e-06
2.69565e-05
2.63161e-05
3.43294e-05
8.24446e-05
7.70928e-05
-8.95757e-05
8.84059e-05
-0.000117393
0.00010329
-0.000121432
0.000123284
-0.000123511
0.000152264
-0.000142608
0.000112116
-3.72451e-05
7.85388e-05
7.43834e-05
6.05921e-05
8.43441e-05
4.94094e-05
7.08279e-05
4.10351e-05
5.95537e-05
3.40716e-05
5.12865e-05
2.79968e-05
4.50914e-05
2.25471e-05
4.0406e-05
1.75533e-05
3.68717e-05
1.28918e-05
3.42578e-05
8.4637e-06
3.24112e-05
4.18399e-06
3.12363e-05
3.05001e-05
8.65981e-05
-0.000116441
9.08706e-05
-0.000118981
9.65303e-05
-0.000139906
0.000103675
-0.000145041
0.000109044
-0.000136438
0.000127935
-0.000164191
9.37499e-05
-1.53426e-06
7.0086e-05
9.83573e-05
5.66234e-05
9.78074e-05
4.72266e-05
8.02248e-05
3.95418e-05
6.72385e-05
3.2966e-05
5.78623e-05
2.71603e-05
5.08972e-05
2.19151e-05
4.56512e-05
1.70854e-05
4.17015e-05
1.2561e-05
3.87823e-05
8.25232e-06
3.67199e-05
4.08117e-06
3.54075e-05
3.45813e-05
3.50308e-06
-2.00435e-05
7.08936e-06
-2.057e-05
1.08752e-05
-2.1679e-05
1.4893e-05
-2.32904e-05
1.92183e-05
-2.55385e-05
2.39602e-05
-2.86506e-05
2.9071e-05
-3.24938e-05
3.49583e-05
-3.81656e-05
4.14535e-05
-4.45929e-05
4.93342e-05
-5.4906e-05
5.95915e-05
-6.7596e-05
6.493e-05
-9.27435e-05
6.33109e-05
-0.000116247
5.59698e-05
-0.000115414
4.5175e-05
-5.02605e-05
4.37432e-05
1.05686e-05
5.6838e-05
2.7826e-05
7.41155e-05
3.53903e-05
9.02978e-05
4.25274e-05
0.000110424
4.49917e-05
0.000129807
6.40333e-05
0.000180404
6.24936e-05
0.000106335
0.000286353
3.0837e-06
-2.27023e-05
6.24139e-06
-2.32966e-05
9.59972e-06
-2.45988e-05
1.29558e-05
-2.62217e-05
1.63342e-05
-2.86146e-05
2.0219e-05
-3.25487e-05
2.4105e-05
-3.70412e-05
2.84816e-05
-4.43212e-05
3.28831e-05
-5.30186e-05
3.64513e-05
-6.61623e-05
3.72067e-05
-8.15999e-05
3.58712e-05
-0.000115402
3.66966e-05
-0.000130015
3.21163e-05
-8.97256e-05
3.29233e-05
-2.39654e-05
4.47746e-05
-1.35289e-07
6.1931e-05
1.06686e-05
7.98984e-05
1.74219e-05
9.81016e-05
2.43235e-05
0.000119908
2.31851e-05
0.0001472
3.67404e-05
0.000184399
2.52934e-05
5.04439e-05
0.000240288
2.68688e-06
-3.08406e-05
5.41196e-06
-3.17139e-05
8.43058e-06
-3.38217e-05
1.15484e-05
-3.64134e-05
1.39121e-05
-3.93415e-05
1.64896e-05
-4.48881e-05
1.847e-05
-5.04601e-05
1.996e-05
-5.87652e-05
2.21628e-05
-6.985e-05
2.56607e-05
-8.54012e-05
3.3091e-05
-0.000103377
4.02457e-05
-0.000125277
4.16943e-05
-0.000117149
4.07459e-05
-6.66034e-05
4.45937e-05
-2.86915e-05
5.65134e-05
-1.15788e-05
7.03751e-05
-3.19384e-06
8.60547e-05
1.74136e-06
0.00010385
6.52697e-06
0.000122822
4.21275e-06
0.000147572
1.199e-05
0.000169858
3.0065e-06
3.59311e-06
0.000216707
2.30745e-06
-3.26568e-05
3.41599e-06
-2.79437e-05
5.76895e-06
-3.36678e-05
8.60955e-06
-3.45154e-05
1.23e-05
-3.89807e-05
1.72687e-05
-4.45964e-05
2.39322e-05
-5.01662e-05
3.22481e-05
-5.72289e-05
4.24293e-05
-6.56562e-05
5.30856e-05
-7.61516e-05
6.06106e-05
-8.82544e-05
6.06492e-05
-0.000103347
5.8259e-05
-9.66703e-05
5.75413e-05
-6.34878e-05
5.87203e-05
-3.13089e-05
6.62849e-05
-1.8292e-05
7.67681e-05
-1.36522e-05
9.00008e-05
-1.14922e-05
0.00010599
-9.46244e-06
0.000123388
-1.31859e-05
0.000146692
-1.13151e-05
0.000168227
-1.85285e-05
-2.57338e-05
0.000197552
8.61349e-06
-3.73431e-05
1.84227e-05
-3.76088e-05
2.65754e-05
-3.94009e-05
3.55049e-05
-4.24869e-05
4.35703e-05
-4.41276e-05
5.11533e-05
-4.97401e-05
5.84702e-05
-5.48102e-05
6.53002e-05
-6.23075e-05
7.07902e-05
-7.01267e-05
7.46256e-05
-8.01554e-05
7.42365e-05
-8.80326e-05
6.86531e-05
-9.79858e-05
6.42159e-05
-9.23262e-05
6.20604e-05
-6.141e-05
6.36023e-05
-3.33076e-05
7.02245e-05
-2.41565e-05
7.94203e-05
-2.27632e-05
9.11524e-05
-2.32249e-05
0.000105612
-2.3923e-05
0.00012169
-2.92642e-05
0.00014105
-3.06754e-05
0.000160802
-3.82806e-05
-4.8873e-05
0.000183941
7.07627e-06
-4.44198e-05
1.4566e-05
-4.50983e-05
2.19383e-05
-4.67734e-05
2.88879e-05
-4.94366e-05
3.70227e-05
-5.22633e-05
4.3966e-05
-5.66846e-05
5.07899e-05
-6.16359e-05
5.63081e-05
-6.78275e-05
6.06414e-05
-7.44619e-05
6.23166e-05
-8.18321e-05
6.30186e-05
-8.87422e-05
6.2332e-05
-9.73447e-05
6.07409e-05
-9.09039e-05
5.98974e-05
-6.11759e-05
6.28684e-05
-3.6363e-05
6.99414e-05
-3.03253e-05
7.87386e-05
-3.14771e-05
8.96028e-05
-3.40898e-05
0.000102741
-3.70617e-05
0.000117175
-4.36984e-05
0.000133746
-4.72466e-05
0.000152232
-5.67663e-05
-6.85893e-05
0.000171948
6.53487e-06
-5.09547e-05
1.31725e-05
-5.17359e-05
1.96901e-05
-5.32911e-05
2.58191e-05
-5.55657e-05
3.20419e-05
-5.84862e-05
3.77047e-05
-6.23474e-05
4.30339e-05
-6.69647e-05
4.75764e-05
-7.23696e-05
5.15523e-05
-7.84372e-05
5.46391e-05
-8.49184e-05
5.6693e-05
-9.08003e-05
5.77434e-05
-9.84283e-05
5.71939e-05
-9.06474e-05
5.67232e-05
-6.14131e-05
6.05557e-05
-3.97383e-05
6.75894e-05
-3.6352e-05
7.59979e-05
-3.98351e-05
8.60365e-05
-4.41289e-05
9.78915e-05
-4.8917e-05
0.00011078
-5.65873e-05
0.000125529
-6.1995e-05
0.000142049
-7.32863e-05
-8.56741e-05
0.000159134
5.80103e-06
-5.6756e-05
1.15818e-05
-5.75171e-05
1.72353e-05
-5.8945e-05
2.27397e-05
-6.10703e-05
2.82072e-05
-6.3954e-05
3.33517e-05
-6.74919e-05
3.818e-05
-7.1793e-05
4.24602e-05
-7.66496e-05
4.60517e-05
-8.20284e-05
4.88117e-05
-8.76781e-05
5.10398e-05
-9.30322e-05
5.28756e-05
-0.00010029
5.24928e-05
-9.06924e-05
5.2112e-05
-6.16953e-05
5.64101e-05
-4.35317e-05
6.35883e-05
-4.2565e-05
7.15596e-05
-4.77871e-05
8.0798e-05
-5.33678e-05
9.14433e-05
-5.95626e-05
0.000102927
-6.80707e-05
0.000115954
-7.50212e-05
0.000130318
-8.76499e-05
-0.000100789
0.000145435
5.08383e-06
-6.18404e-05
1.01299e-05
-6.25637e-05
1.50925e-05
-6.39083e-05
1.99395e-05
-6.59179e-05
2.45816e-05
-6.85964e-05
2.90076e-05
-7.19181e-05
3.30647e-05
-7.58502e-05
3.67418e-05
-8.03267e-05
3.99673e-05
-8.52537e-05
4.27376e-05
-9.04482e-05
4.53112e-05
-9.56091e-05
4.76185e-05
-0.000102615
4.7071e-05
-9.07155e-05
4.69163e-05
-6.19334e-05
5.1481e-05
-4.75013e-05
5.85401e-05
-4.88568e-05
6.59566e-05
-5.51996e-05
7.43193e-05
-6.17305e-05
8.37649e-05
-6.90078e-05
9.38825e-05
-7.81872e-05
0.000105314
-8.64512e-05
0.000117735
-0.000100069
-0.000113822
0.000130773
4.40737e-06
-6.62483e-05
8.77348e-06
-6.69305e-05
1.30536e-05
-6.8189e-05
1.7214e-05
-7.00788e-05
2.12147e-05
-7.25975e-05
2.50058e-05
-7.57094e-05
2.85445e-05
-7.93889e-05
3.17845e-05
-8.35664e-05
3.4715e-05
-8.81839e-05
3.73889e-05
-9.31216e-05
3.99664e-05
-9.8189e-05
4.22962e-05
-0.000104958
4.11948e-05
-9.03308e-05
4.14511e-05
-6.22573e-05
4.61024e-05
-5.14491e-05
5.26596e-05
-5.49665e-05
5.94169e-05
-6.19563e-05
6.68523e-05
-6.91647e-05
7.50945e-05
-7.72473e-05
8.38698e-05
-8.69585e-05
9.37669e-05
-9.63423e-05
0.000104421
-0.00011072
-0.000124774
0.000115383
3.77054e-06
-7.0019e-05
7.50106e-06
-7.06614e-05
1.11473e-05
-7.18355e-05
1.46813e-05
-7.36129e-05
1.80722e-05
-7.59881e-05
2.12913e-05
-7.89281e-05
2.43e-05
-8.23966e-05
2.70912e-05
-8.63561e-05
2.96711e-05
-9.07616e-05
3.20851e-05
-9.55334e-05
3.44984e-05
-0.000100603
3.67128e-05
-0.000107183
3.49265e-05
-8.93907e-05
3.5662e-05
-6.26758e-05
4.0161e-05
-5.52865e-05
4.61836e-05
-6.07265e-05
5.21865e-05
-6.79563e-05
5.86442e-05
-7.56162e-05
6.56616e-05
-8.42546e-05
7.30662e-05
-9.43469e-05
8.14363e-05
-0.000104697
9.04584e-05
-0.000119727
-0.000134262
9.99697e-05
3.16622e-06
-7.31824e-05
6.29938e-06
-7.37929e-05
9.34294e-06
-7.4877e-05
1.22761e-05
-7.65435e-05
1.50951e-05
-7.88039e-05
1.77708e-05
-8.15994e-05
2.02813e-05
-8.49013e-05
2.2622e-05
-8.8688e-05
2.48119e-05
-9.29405e-05
2.69009e-05
-9.76112e-05
2.90389e-05
-0.000102734
3.09708e-05
-0.00010912
2.84181e-05
-8.77837e-05
2.93714e-05
-6.3104e-05
3.40131e-05
-5.92674e-05
3.92687e-05
-6.59139e-05
4.44699e-05
-7.31462e-05
4.99103e-05
-8.10316e-05
5.56702e-05
-8.99787e-05
6.16425e-05
-0.000100279
6.8472e-05
-0.000111493
7.57955e-05
-0.000127038
-0.000141801
8.43228e-05
2.50161e-06
-7.56667e-05
5.01e-06
-7.62845e-05
7.51276e-06
-7.73624e-05
9.94387e-06
-7.89556e-05
1.22465e-05
-8.10856e-05
1.44137e-05
-8.37429e-05
1.64318e-05
-8.68924e-05
1.83034e-05
-9.05313e-05
2.00479e-05
-9.46579e-05
2.17188e-05
-9.92573e-05
2.34694e-05
-0.000104462
2.49923e-05
-0.000110588
2.17057e-05
-8.59746e-05
2.2978e-05
-6.41442e-05
2.76104e-05
-6.33276e-05
3.21078e-05
-7.03825e-05
3.6477e-05
-7.74761e-05
4.08551e-05
-8.53689e-05
4.53033e-05
-9.43971e-05
4.97764e-05
-0.000104689
5.4937e-05
-0.000116326
5.99287e-05
-0.000130361
-0.000125623
0.000105079
1.90697e-06
-7.7308e-05
3.80784e-06
-7.7893e-05
5.74072e-06
-7.89516e-05
7.67454e-06
-8.0455e-05
9.50758e-06
-8.23339e-05
1.11868e-05
-8.45845e-05
1.27185e-05
-8.71523e-05
1.40973e-05
-8.98876e-05
1.53356e-05
-9.25793e-05
1.6491e-05
-9.49445e-05
1.77138e-05
-9.71477e-05
1.86869e-05
-9.79987e-05
1.50248e-05
-7.63369e-05
1.66781e-05
-5.60266e-05
2.11569e-05
-6.7162e-05
2.4956e-05
-7.36309e-05
2.84527e-05
-7.95406e-05
3.17235e-05
-8.45005e-05
3.4808e-05
-8.58075e-05
3.78603e-05
-7.82084e-05
4.20063e-05
-8.01233e-05
6.62397e-05
-9.28488e-05
-0.000110512
9.75633e-05
1.53104e-06
-3.82842e-05
3.0057e-06
-3.85423e-05
4.40039e-06
-3.90703e-05
5.73417e-06
-3.99672e-05
7.0471e-06
-4.12757e-05
8.30008e-06
-4.30233e-05
9.4815e-06
-4.5261e-05
1.06263e-05
-4.80092e-05
1.18032e-05
-5.13208e-05
1.30229e-05
-5.53589e-05
1.47424e-05
-6.02847e-05
1.44644e-05
-6.54621e-05
6.34489e-06
-2.04169e-05
1.13022e-05
-2.23844e-05
1.50967e-05
-2.79933e-05
1.84004e-05
-3.07026e-05
2.16415e-05
-3.41141e-05
2.60137e-05
-3.87879e-05
3.45656e-05
-4.49765e-05
4.36229e-05
-5.41441e-05
4.83399e-05
-7.01307e-05
5.73577e-05
-9.24298e-05
-0.000133126
6.24683e-05
1.59553e-06
-2.77938e-05
3.18594e-06
-2.85008e-05
4.70097e-06
-2.97962e-05
6.13354e-06
-3.17961e-05
7.54245e-06
-3.45426e-05
8.96788e-06
-3.81413e-05
1.0407e-05
-4.25953e-05
1.18457e-05
-4.7836e-05
1.28665e-05
-5.35748e-05
1.26791e-05
-5.96687e-05
1.15944e-05
-6.53309e-05
-6.62506e-06
-6.81315e-05
-7.0703e-06
-2.44083e-05
7.39832e-06
-1.58697e-05
1.38232e-05
-1.9517e-05
1.96758e-05
-2.48967e-05
2.52173e-05
-3.26786e-05
2.8601e-05
-4.19736e-05
2.79455e-05
-5.19497e-05
2.28957e-05
-6.43435e-05
1.74995e-05
-8.23627e-05
2.94681e-05
-0.00011942
-0.000163324
3.47364e-05
5.50723e-07
-3.98741e-05
1.05263e-06
-4.06716e-05
1.43827e-06
-4.21912e-05
1.69388e-06
-4.44675e-05
1.82813e-06
-4.74848e-05
1.87255e-06
-5.12238e-05
1.98897e-06
-5.56812e-05
2.43535e-06
-6.08703e-05
3.22729e-06
-6.65033e-05
4.19186e-06
-7.22315e-05
4.26788e-06
-7.65508e-05
2.16594e-07
-7.68541e-05
-2.60981e-06
-3.41522e-05
3.04587e-06
-3.05713e-05
4.57933e-06
-3.13661e-05
4.8141e-06
-3.71801e-05
6.51788e-06
-4.67908e-05
1.02952e-05
-5.88143e-05
1.62268e-05
-7.13698e-05
2.3623e-05
-8.76028e-05
3.26294e-05
-0.000108527
1.99783e-05
-0.000121479
-5.78363e-05
-9.27483e-05
3.53307e-07
-7.12131e-05
5.79717e-07
-7.1798e-05
8.28277e-07
-7.31204e-05
1.09152e-06
-7.50575e-05
1.36485e-06
-7.75929e-05
1.69657e-06
-8.07532e-05
2.08192e-06
-8.44919e-05
2.22614e-06
-8.85199e-05
1.51839e-06
-9.23227e-05
-2.51688e-07
-9.60248e-05
-8.91562e-06
-9.29603e-05
-2.39201e-05
-8.8854e-05
-7.82043e-06
-8.36176e-05
-1.36782e-06
-7.03956e-05
1.16214e-06
-6.84694e-05
2.36092e-06
-7.27802e-05
3.0167e-06
-8.04607e-05
1.8632e-06
-8.88764e-05
-2.81403e-06
-9.66706e-05
-1.01072e-05
-0.00010609
-2.88751e-05
-0.000108517
-8.52279e-05
-7.53928e-05
2.15624e-05
-0.000167441
-2.12928e-06
-7.89014e-05
-4.33609e-06
-7.91888e-05
-6.66908e-06
-7.99511e-05
-9.20389e-06
-8.1068e-05
-1.20532e-05
-8.25087e-05
-1.52858e-05
-8.43759e-05
-1.89293e-05
-8.67094e-05
-2.29351e-05
-8.93645e-05
-2.68632e-05
-9.22822e-05
-3.01143e-05
-9.57807e-05
-2.79645e-05
-9.75044e-05
-2.10226e-05
-9.81996e-05
-3.36549e-05
-7.95589e-05
-4.18166e-05
-7.29527e-05
-4.83536e-05
-7.1925e-05
-5.52537e-05
-7.37523e-05
-6.26666e-05
-7.84208e-05
-6.9264e-05
-8.53642e-05
-7.17983e-05
-9.55121e-05
-7.59899e-05
-0.000102256
-9.71553e-05
-8.74359e-05
-0.000142118
-3.0464e-05
4.65871e-05
-0.000167164
-2.12054e-06
-7.67833e-05
-3.94504e-06
-7.73667e-05
-5.93723e-06
-7.79612e-05
-8.1247e-06
-7.88825e-05
-1.06041e-05
-8.0031e-05
-1.35539e-05
-8.14276e-05
-1.72602e-05
-8.30042e-05
-2.20387e-05
-8.4587e-05
-2.82804e-05
-8.60412e-05
-3.69405e-05
-8.71212e-05
-4.75111e-05
-8.6934e-05
-6.13387e-05
-8.43671e-05
-6.38076e-05
-7.70916e-05
-6.27969e-05
-7.39669e-05
-6.25222e-05
-7.22031e-05
-6.42008e-05
-7.20757e-05
-6.94353e-05
-7.31874e-05
-7.95886e-05
-7.52115e-05
-9.66383e-05
-7.84627e-05
-0.000121089
-7.78057e-05
-0.0001483
-6.02245e-05
-0.000165999
-1.27648e-05
3.47015e-05
-0.000154114
-2.22237e-06
-7.45608e-05
-4.19865e-06
-7.53903e-05
-6.39868e-06
-7.5761e-05
-8.96787e-06
-7.63132e-05
-1.19458e-05
-7.70529e-05
-1.54898e-05
-7.78835e-05
-1.96641e-05
-7.88298e-05
-2.45645e-05
-7.96865e-05
-3.03363e-05
-8.02694e-05
-3.71143e-05
-8.03432e-05
-4.44114e-05
-7.9637e-05
-5.12564e-05
-7.7522e-05
-5.47246e-05
-7.36234e-05
-5.84114e-05
-7.02802e-05
-6.29852e-05
-6.76293e-05
-6.92897e-05
-6.57714e-05
-7.83447e-05
-6.41324e-05
-9.07566e-05
-6.27996e-05
-0.000107333
-6.18864e-05
-0.000126866
-5.82732e-05
-0.000144813
-4.22777e-05
-0.000147941
-9.63666e-06
1.89892e-05
-0.000132228
-2.46466e-06
-7.20961e-05
-4.94366e-06
-7.29113e-05
-7.55662e-06
-7.3148e-05
-1.0362e-05
-7.35078e-05
-1.34751e-05
-7.39398e-05
-1.69646e-05
-7.43941e-05
-2.09723e-05
-7.48223e-05
-2.55564e-05
-7.51026e-05
-3.07345e-05
-7.50914e-05
-3.64387e-05
-7.46392e-05
-4.25901e-05
-7.34857e-05
-4.8844e-05
-7.12683e-05
-5.4138e-05
-6.83295e-05
-5.86987e-05
-6.57196e-05
-6.32549e-05
-6.30733e-05
-6.84708e-05
-6.05556e-05
-7.45075e-05
-5.80958e-05
-8.21738e-05
-5.51334e-05
-9.3672e-05
-5.03882e-05
-0.000109404
-4.25411e-05
-0.000123025
-2.86567e-05
-0.000124088
-8.57388e-06
9.72832e-06
-0.000114827
-2.47981e-06
-6.96164e-05
-5.00639e-06
-7.03848e-05
-7.66314e-06
-7.04913e-05
-1.05196e-05
-7.06514e-05
-1.36481e-05
-7.08114e-05
-1.71011e-05
-7.09411e-05
-2.09548e-05
-7.09687e-05
-2.52498e-05
-7.08077e-05
-2.9989e-05
-7.03522e-05
-3.51345e-05
-6.94939e-05
-4.05298e-05
-6.80905e-05
-4.57096e-05
-6.60886e-05
-5.03253e-05
-6.37139e-05
-5.49583e-05
-6.10867e-05
-5.98919e-05
-5.81398e-05
-6.55948e-05
-5.48527e-05
-7.25719e-05
-5.11187e-05
-8.09268e-05
-4.67786e-05
-8.96523e-05
-4.16628e-05
-9.7638e-05
-3.45555e-05
-0.000103005
-2.32898e-05
-0.000102969
-8.60975e-06
6.43535e-06
-9.96761e-05
-2.56303e-06
-6.70534e-05
-5.198e-06
-6.77498e-05
-7.93435e-06
-6.7755e-05
-1.08304e-05
-6.77555e-05
-1.39244e-05
-6.77173e-05
-1.72631e-05
-6.76026e-05
-2.08772e-05
-6.73547e-05
-2.47781e-05
-6.69069e-05
-2.89522e-05
-6.61782e-05
-3.33728e-05
-6.50734e-05
-3.79534e-05
-6.351e-05
-4.25492e-05
-6.14928e-05
-4.71644e-05
-5.90988e-05
-5.18522e-05
-5.6399e-05
-5.66214e-05
-5.33706e-05
-6.15211e-05
-4.99532e-05
-6.66421e-05
-4.59978e-05
-7.21094e-05
-4.13113e-05
-7.83334e-05
-3.54388e-05
-8.51296e-05
-2.77593e-05
-9.01497e-05
-1.82696e-05
-9.14937e-05
-7.26582e-06
3.57109e-06
-8.86293e-05
-2.56895e-06
-6.44845e-05
-5.19999e-06
-6.51188e-05
-7.91459e-06
-6.50405e-05
-1.07541e-05
-6.4916e-05
-1.37581e-05
-6.47134e-05
-1.69624e-05
-6.43983e-05
-2.03915e-05
-6.39257e-05
-2.40561e-05
-6.32423e-05
-2.79453e-05
-6.2289e-05
-3.20149e-05
-6.10039e-05
-3.61806e-05
-5.93443e-05
-4.03597e-05
-5.73137e-05
-4.45367e-05
-5.49219e-05
-4.87872e-05
-5.21485e-05
-5.31687e-05
-4.89892e-05
-5.77454e-05
-4.53764e-05
-6.25199e-05
-4.12232e-05
-6.74488e-05
-3.63824e-05
-7.22484e-05
-3.06392e-05
-7.62492e-05
-2.37585e-05
-7.88563e-05
-1.56626e-05
-7.94522e-05
-6.66991e-06
2.56475e-06
-7.84459e-05
-2.53291e-06
-6.19516e-05
-5.12644e-06
-6.25253e-05
-7.78737e-06
-6.23796e-05
-1.05489e-05
-6.21545e-05
-1.34405e-05
-6.18218e-05
-1.64859e-05
-6.13529e-05
-1.96995e-05
-6.07121e-05
-2.30842e-05
-5.98577e-05
-2.66283e-05
-5.87449e-05
-3.03008e-05
-5.73314e-05
-3.4057e-05
-5.55882e-05
-3.78644e-05
-5.35063e-05
-4.17102e-05
-5.10761e-05
-4.5584e-05
-4.82747e-05
-4.94979e-05
-4.50753e-05
-5.34424e-05
-4.1432e-05
-5.73925e-05
-3.72731e-05
-6.12737e-05
-3.25012e-05
-6.49202e-05
-2.69926e-05
-6.80174e-05
-2.06612e-05
-7.01132e-05
-1.35667e-05
-7.07891e-05
-5.99403e-06
1.69403e-06
-6.99183e-05
-2.46834e-06
-5.94833e-05
-4.98792e-06
-6.00058e-05
-7.56167e-06
-5.98058e-05
-1.02151e-05
-5.95011e-05
-1.297e-05
-5.90669e-05
-1.58431e-05
-5.84799e-05
-1.88435e-05
-5.77117e-05
-2.1971e-05
-5.67302e-05
-2.52142e-05
-5.55018e-05
-2.85497e-05
-5.39958e-05
-3.19487e-05
-5.21893e-05
-3.53894e-05
-5.00656e-05
-3.88584e-05
-4.76071e-05
-4.23405e-05
-4.47926e-05
-4.58196e-05
-4.15962e-05
-4.92698e-05
-3.79817e-05
-5.26402e-05
-3.39026e-05
-5.58383e-05
-2.9303e-05
-5.86993e-05
-2.41316e-05
-6.09873e-05
-1.83731e-05
-6.24586e-05
-1.20954e-05
-6.29534e-05
-5.49923e-06
1.17548e-06
-6.24349e-05
-2.37375e-06
-5.71095e-05
-4.7923e-06
-5.75872e-05
-7.25317e-06
-5.7345e-05
-9.77609e-06
-5.69782e-05
-1.23771e-05
-5.64659e-05
-1.50678e-05
-5.57893e-05
-1.78535e-05
-5.49261e-05
-2.07324e-05
-5.38512e-05
-2.3695e-05
-5.25393e-05
-2.67242e-05
-5.09667e-05
-2.97999e-05
-4.91135e-05
-3.29031e-05
-4.69625e-05
-3.60141e-05
-4.44961e-05
-3.91112e-05
-4.16955e-05
-4.21683e-05
-3.85391e-05
-4.51479e-05
-3.5002e-05
-4.7994e-05
-3.10564e-05
-5.06214e-05
-2.66756e-05
-5.29076e-05
-2.18453e-05
-5.46989e-05
-1.65817e-05
-5.584e-05
-1.09542e-05
-5.62313e-05
-5.10785e-06
7.88665e-07
-5.58445e-05
-2.25792e-06
-5.48516e-05
-4.55421e-06
-5.5291e-05
-6.88302e-06
-5.50162e-05
-9.25939e-06
-5.46018e-05
-1.16949e-05
-5.40304e-05
-1.41973e-05
-5.32869e-05
-1.67696e-05
-5.23538e-05
-1.94091e-05
-5.12117e-05
-2.21075e-05
-4.98409e-05
-2.48514e-05
-4.82228e-05
-2.76244e-05
-4.63405e-05
-3.04083e-05
-4.41786e-05
-3.31825e-05
-4.17219e-05
-3.59226e-05
-3.89554e-05
-3.85979e-05
-3.58637e-05
-4.11686e-05
-3.24313e-05
-4.35804e-05
-2.86445e-05
-4.57606e-05
-2.44953e-05
-4.76166e-05
-1.99891e-05
-4.9044e-05
-1.51543e-05
-4.99457e-05
-1.00525e-05
-5.02624e-05
-4.79116e-06
5.02723e-07
-4.99764e-05
-2.12475e-06
-5.27269e-05
-4.28245e-06
-5.31333e-05
-6.46463e-06
-5.2834e-05
-8.68259e-06
-5.23839e-05
-1.09446e-05
-5.17684e-05
-1.32556e-05
-5.09759e-05
-1.56169e-05
-4.99925e-05
-1.80254e-05
-4.88032e-05
-2.04736e-05
-4.73927e-05
-2.295e-05
-4.57464e-05
-2.54401e-05
-4.38505e-05
-2.79264e-05
-4.16923e-05
-3.03882e-05
-3.92601e-05
-3.28006e-05
-3.65429e-05
-3.51332e-05
-3.35311e-05
-3.73477e-05
-3.02168e-05
-3.93959e-05
-2.65961e-05
-4.12188e-05
-2.26723e-05
-4.27474e-05
-1.84605e-05
-4.39092e-05
-1.39925e-05
-4.464e-05
-9.32163e-06
-4.49012e-05
-4.52994e-06
2.82966e-07
-4.46814e-05
-1.97858e-06
-5.07483e-05
-3.98534e-06
-5.11265e-05
-6.01014e-06
-5.08093e-05
-8.06132e-06
-5.03327e-05
-1.01445e-05
-4.96852e-05
-1.22629e-05
-4.88576e-05
-1.44163e-05
-4.78391e-05
-1.66013e-05
-4.66182e-05
-1.8811e-05
-4.51831e-05
-2.1035e-05
-4.35224e-05
-2.326e-05
-4.16255e-05
-2.54696e-05
-3.94827e-05
-2.7644e-05
-3.70857e-05
-2.97595e-05
-3.44274e-05
-3.17875e-05
-3.1503e-05
-3.36937e-05
-2.83105e-05
-3.54372e-05
-2.48525e-05
-3.69709e-05
-2.11386e-05
-3.8243e-05
-1.71882e-05
-3.92024e-05
-1.3033e-05
-3.98052e-05
-8.71881e-06
-4.00252e-05
-4.30989e-06
1.11969e-07
-3.98542e-05
-1.82266e-06
-4.89256e-05
-3.66934e-06
-4.92799e-05
-5.52896e-06
-4.89496e-05
-7.40758e-06
-4.84541e-05
-9.30889e-06
-4.77839e-05
-1.12345e-05
-4.6932e-05
-1.31835e-05
-4.58901e-05
-1.51521e-05
-4.46496e-05
-1.71338e-05
-4.32014e-05
-1.91191e-05
-4.15371e-05
-2.10958e-05
-3.96488e-05
-2.30487e-05
-3.75299e-05
-2.49594e-05
-3.51749e-05
-2.68065e-05
-3.25804e-05
-2.85643e-05
-2.97452e-05
-3.0203e-05
-2.66717e-05
-3.16889e-05
-2.33666e-05
-3.29846e-05
-1.98429e-05
-3.40512e-05
-1.61216e-05
-3.48516e-05
-1.22325e-05
-3.53553e-05
-8.2151e-06
-3.55446e-05
-4.12061e-06
-2.32195e-08
-3.54094e-05
-1.65961e-06
-4.7266e-05
-3.33958e-06
-4.75999e-05
-5.02856e-06
-4.72607e-05
-6.73082e-06
-4.67519e-05
-8.4486e-06
-4.60662e-05
-1.01824e-05
-4.51982e-05
-1.19307e-05
-4.41419e-05
-1.36896e-05
-4.28906e-05
-1.54529e-05
-4.14381e-05
-1.7212e-05
-3.9778e-05
-1.89557e-05
-3.79052e-05
-2.06702e-05
-3.58153e-05
-2.23392e-05
-3.35059e-05
-2.39434e-05
-3.09761e-05
-2.54607e-05
-2.82279e-05
-2.6866e-05
-2.52664e-05
-2.81316e-05
-2.2101e-05
-2.92281e-05
-1.87464e-05
-3.0126e-05
-1.52236e-05
-3.07981e-05
-1.15604e-05
-3.1222e-05
-7.79115e-06
-3.1384e-05
-3.95857e-06
-1.21217e-07
-3.1286e-05
-1.49147e-06
-4.57746e-05
-3.00008e-06
-4.60913e-05
-4.51473e-06
-4.5746e-05
-6.03832e-06
-4.52283e-05
-7.57203e-06
-4.45325e-05
-9.11558e-06
-4.36547e-05
-1.0667e-05
-4.25904e-05
-1.22225e-05
-4.13352e-05
-1.37762e-05
-3.98843e-05
-1.53204e-05
-3.82339e-05
-1.68449e-05
-3.63807e-05
-1.83376e-05
-3.43226e-05
-1.97841e-05
-3.20594e-05
-2.11678e-05
-2.95924e-05
-2.24699e-05
-2.69258e-05
-2.36695e-05
-2.40667e-05
-2.47443e-05
-2.10262e-05
-2.56711e-05
-1.78195e-05
-2.64276e-05
-1.44671e-05
-2.69935e-05
-1.09945e-05
-2.73524e-05
-7.43223e-06
-2.74946e-05
-3.81635e-06
-1.94195e-07
-2.74216e-05
-1.31983e-06
-4.44548e-05
-2.65386e-06
-4.47573e-05
-3.99181e-06
-4.44081e-05
-5.33556e-06
-4.38845e-05
-6.68546e-06
-4.31826e-05
-8.0407e-06
-4.22994e-05
-9.39913e-06
-4.1232e-05
-1.07571e-05
-3.99772e-05
-1.21092e-05
-3.85322e-05
-1.34484e-05
-3.68946e-05
-1.47661e-05
-3.5063e-05
-1.60515e-05
-3.30372e-05
-1.72923e-05
-3.08185e-05
-1.84745e-05
-2.84102e-05
-1.95823e-05
-2.5818e-05
-2.05987e-05
-2.30503e-05
-2.15058e-05
-2.0119e-05
-2.22856e-05
-1.70396e-05
-2.2921e-05
-1.38316e-05
-2.33969e-05
-1.05187e-05
-2.37012e-05
-7.12793e-06
-2.38268e-05
-3.69075e-06
-2.45785e-07
-2.37752e-05
-1.14574e-06
-4.3309e-05
-2.30311e-06
-4.35999e-05
-3.46301e-06
-4.32482e-05
-4.62652e-06
-4.2721e-05
-5.79341e-06
-4.20157e-05
-6.96254e-06
-4.11303e-05
-8.13168e-06
-4.00629e-05
-9.2974e-06
-3.88115e-05
-1.0455e-05
-3.73746e-05
-1.15983e-05
-3.57513e-05
-1.27197e-05
-3.39416e-05
-1.38103e-05
-3.19466e-05
-1.48597e-05
-2.97691e-05
-1.58561e-05
-2.74138e-05
-1.67868e-05
-2.48873e-05
-1.76379e-05
-2.21991e-05
-1.83955e-05
-1.93615e-05
-1.90456e-05
-1.63896e-05
-1.95751e-05
-1.33021e-05
-1.99729e-05
-1.01209e-05
-2.02301e-05
-6.87075e-06
-2.03415e-05
-3.57932e-06
-2.78533e-07
-2.03087e-05
-9.69547e-07
-4.23395e-05
-1.9492e-06
-4.26203e-05
-2.93047e-06
-4.22669e-05
-3.91393e-06
-4.17376e-05
-4.89897e-06
-4.10306e-05
-5.88421e-06
-4.0145e-05
-6.86751e-06
-3.90796e-05
-7.84582e-06
-3.78332e-05
-8.81505e-06
-3.64054e-05