/*--------------------------------*- C++ -*----------------------------------*\
| =========                 |                                                 |
| \\      /  F ield         | OpenFOAM: The Open Source CFD Toolbox           |
|  \\    /   O peration     | Version:  2.4.0                                 |
|   \\  /    A nd           | Web:      www.OpenFOAM.org                      |
|    \\/     M anipulation  |                                                 |
\*---------------------------------------------------------------------------*/
FoamFile
{
    version     2.0;
    format      ascii;
    class       surfaceScalarField;
    location    "0.1";
    object      phi.oil;
}
// * * * * * * * * * * * * * * * * * * * * * * * * * * * * * * * * * * * * * //

dimensions      [0 3 -1 0 0 0 0];

internalField   nonuniform List<scalar> 
4432
(
2.21309e-06
-2.21276e-06
4.48978e-06
-2.27636e-06
6.89693e-06
-2.4068e-06
9.50949e-06
-2.61224e-06
1.24142e-05
-2.90442e-06
1.57258e-05
-3.31138e-06
1.95577e-05
-3.83169e-06
2.4115e-05
-4.55724e-06
2.94809e-05
-5.36576e-06
3.66963e-05
-7.21543e-06
4.31933e-05
-6.49697e-06
5.37393e-05
-1.07237e-05
7.03117e-05
-9.86281e-06
8.986e-05
2.13621e-06
0.00010641
1.63991e-05
0.000110886
2.1703e-05
0.000111903
3.21943e-05
0.000106756
3.39545e-05
0.000104954
1.50493e-05
8.58873e-05
2.47339e-05
5.1134e-05
3.84936e-05
2.34819e-05
2.84097e-05
2.34984e-05
2.19963e-06
-4.41197e-06
4.46212e-06
-4.53844e-06
6.85332e-06
-4.79757e-06
9.44692e-06
-5.20545e-06
1.23282e-05
-5.78532e-06
1.56113e-05
-6.5942e-06
1.94033e-05
-7.62346e-06
2.39281e-05
-9.08187e-06
2.93138e-05
-1.07513e-05
3.61655e-05
-1.4067e-05
4.32565e-05
-1.3588e-05
5.37677e-05
-2.16485e-05
7.139e-05
-1.63024e-05
9.21063e-05
-2.72366e-07
0.000104575
8.92713e-06
0.00011167
1.53791e-05
0.000108373
2.82691e-05
0.000105563
1.14774e-05
8.31063e-05
2.2539e-05
5.76162e-05
4.47518e-05
4.08015e-05
5.45476e-05
2.13248e-05
4.7905e-05
4.4824e-05
2.17135e-06
-6.58302e-06
4.40394e-06
-6.77069e-06
6.76179e-06
-7.15509e-06
9.3159e-06
-7.75924e-06
1.21489e-05
-8.61808e-06
1.53711e-05
-9.81613e-06
1.90895e-05
-1.13418e-05
2.35264e-05
-1.35187e-05
2.88744e-05
-1.60992e-05
3.53179e-05
-2.05106e-05
4.27739e-05
-2.10458e-05
5.2844e-05
-3.25439e-05
7.31232e-05
-1.5885e-05
9.17638e-05
-9.87852e-06
9.95858e-05
-3.54445e-06
0.000103589
2.0692e-05
0.000105487
1.03099e-05
8.82999e-05
1.60014e-05
6.48968e-05
4.29244e-05
4.69244e-05
6.20863e-05
3.59882e-05
6.54019e-05
2.04999e-05
6.33924e-05
6.5324e-05
2.12943e-06
-8.71191e-06
4.31775e-06
-8.9585e-06
6.62637e-06
-9.46321e-06
9.12213e-06
-1.02545e-05
1.18838e-05
-1.13793e-05
1.50141e-05
-1.29461e-05
1.86258e-05
-1.49532e-05
2.2921e-05
-1.78136e-05
2.80906e-05
-2.12686e-05
3.42817e-05
-2.67015e-05
4.18596e-05
-2.86333e-05
5.12977e-05
-4.33042e-05
7.66412e-05
-2.25254e-05
8.7264e-05
-2.16763e-05
9.47971e-05
-7.92671e-06
0.000100868
-6.12654e-07
8.87529e-05
4.58644e-06
6.89021e-05
2.9624e-05
5.12648e-05
6.00638e-05
4.28539e-05
7.04884e-05
3.47833e-05
7.34724e-05
2.03768e-05
7.7799e-05
8.57008e-05
2.07436e-06
-1.0786e-05
4.20464e-06
-1.10885e-05
6.44906e-06
-1.17074e-05
8.86861e-06
-1.26739e-05
1.15365e-05
-1.4047e-05
1.4547e-05
-1.59565e-05
1.80149e-05
-1.8421e-05
2.21151e-05
-2.19137e-05
2.7015e-05
-2.61685e-05
3.28407e-05
-3.25272e-05
4.05282e-05
-3.63335e-05
4.92341e-05
-5.38103e-05
7.37823e-05
-3.38928e-05
8.21622e-05
-3.246e-05
8.90987e-05
-1.69243e-05
8.4878e-05
-1.76886e-05
7.01712e-05
9.70837e-06
5.19645e-05
4.6819e-05
4.47217e-05
6.7297e-05
4.14279e-05
7.37822e-05
3.55292e-05
7.93711e-05
2.27334e-05
9.05947e-05
0.000108434
2.00675e-06
-1.27924e-05
4.0659e-06
-1.31473e-05
6.23226e-06
-1.38734e-05
8.55922e-06
-1.50006e-05
1.11119e-05
-1.65995e-05
1.39775e-05
-1.88219e-05
1.72634e-05
-2.17068e-05
2.11248e-05
-2.5775e-05
2.56648e-05
-3.07085e-05
3.11288e-05
-3.79912e-05
3.86653e-05
-4.38767e-05
4.70457e-05
-6.3631e-05
6.93257e-05
-4.56094e-05
7.61642e-05
-3.54411e-05
7.97581e-05
-4.22863e-05
6.76499e-05
-1.87282e-05
5.13539e-05
2.35272e-05
4.18769e-05
5.62413e-05
4.12566e-05
6.79173e-05
4.11864e-05
7.38523e-05
3.77328e-05
8.28247e-05
2.63457e-05
0.000101982
0.00013478
1.92668e-06
-1.47189e-05
3.9016e-06
-1.5122e-05
5.97631e-06
-1.59479e-05
8.1951e-06
-1.72192e-05
1.06132e-05
-1.90175e-05
1.33111e-05
-2.15197e-05
1.63787e-05
-2.47744e-05
1.99551e-05
-2.93515e-05
2.40819e-05
-3.48353e-05
2.91279e-05
-4.30372e-05
3.61137e-05
-5.08521e-05
4.40197e-05
-6.72718e-05
6.3992e-05
-5.40473e-05
7.31121e-05
-5.49222e-05
6.46647e-05
-5.17838e-05
5.03926e-05
-9.77286e-06
3.77479e-05
3.58844e-05
3.67677e-05
5.72202e-05
4.00994e-05
6.45856e-05
4.30581e-05
7.08936e-05
4.12443e-05
8.46385e-05
3.35587e-05
0.000109667
0.000168339
1.82958e-06
-1.65484e-05
3.70194e-06
-1.69943e-05
5.66627e-06
-1.79122e-05
7.75713e-06
-1.931e-05
1.00236e-05
-2.1284e-05
1.25324e-05
-2.40286e-05
1.53432e-05
-2.75852e-05
1.85836e-05
-3.25917e-05
2.23051e-05
-3.85529e-05
2.68066e-05
-4.75022e-05
3.31768e-05
-5.65745e-05
4.16773e-05
-4.3163e-05
5.82183e-05
-5.87922e-05
6.29981e-05
-7.78372e-05
4.98759e-05
-4.81043e-05
3.47564e-05
4.06422e-06
2.99948e-05
4.06267e-05
3.45394e-05
5.26756e-05
4.04078e-05
5.87173e-05
4.61764e-05
6.5125e-05
4.73932e-05
8.34217e-05
4.39638e-05
0.000113097
0.000212302
-1.08433e-05
1.08516e-05
-1.44205e-05
3.49051e-06
-1.04509e-05
-4.83304e-06
-3.68541e-06
-1.02844e-05
5.50304e-06
-2.01068e-05
2.34087e-05
-2.84596e-05
4.38903e-05
-4.30193e-05
5.41356e-05
-7.47314e-05
5.36995e-05
-2.15515e-05
5.44755e-05
-0.000125082
4.78272e-05
-8.53612e-05
3.57619e-05
-4.98643e-06
2.93564e-05
6.30187e-06
2.35721e-05
5.78069e-06
1.82927e-05
5.27594e-06
1.33986e-05
4.89108e-06
8.77961e-06
4.6162e-06
4.33867e-06
4.43829e-06
4.33676e-06
-1.22505e-05
2.28927e-05
-1.45635e-05
4.5648e-06
-8.56634e-06
-1.40173e-05
-1.85041e-06
-2.62642e-05
1.10687e-05
-4.73616e-05
4.13972e-05
-6.21444e-05
0.000101963
-0.000102702
9.57061e-05
-0.000183349
0.000131764
-0.000178613
0.000192727
-0.000277585
9.83955e-05
-0.000169524
4.62703e-05
-1.2568e-05
3.05301e-05
1.25167e-05
2.43562e-05
1.17471e-05
1.89054e-05
1.072e-05
1.38512e-05
9.94142e-06
9.07765e-06
9.38629e-06
4.48168e-06
9.03113e-06
8.81562e-06
-1.40019e-05
3.11183e-05
-1.13258e-05
-5.53331e-06
-5.09346e-06
-4.59266e-05
6.83168e-06
-6.11011e-05
2.70193e-05
-8.72371e-05
7.82119e-05
-9.90175e-05
0.00016125
-0.000156259
0.000237848
-0.000254478
0.000267498
-0.000305623
0.000212148
-0.000281468
0.000112464
-0.000121161
4.33897e-05
1.79421e-06
3.06279e-05
1.89703e-05
2.42361e-05
1.76798e-05
1.88034e-05
1.61341e-05
1.37779e-05
1.49637e-05
9.03051e-06
1.41312e-05
4.4592e-06
1.36001e-05
1.32734e-05
-1.0457e-05
-3.23385e-06
1.41725e-05
-5.90512e-05
3.86552e-05
-9.27611e-05
5.31788e-05
-0.0001043
8.13499e-05
-0.000131323
0.000131608
-0.000159931
0.000187885
-0.000209438
0.000231561
-0.000268115
0.000227509
-0.000289509
0.000160778
-0.000166634
6.53805e-05
-2.32292e-05
3.73992e-05
2.26191e-05
2.99918e-05
2.5985e-05
2.39553e-05
2.35509e-05
1.85953e-05
2.14798e-05
1.36297e-05
1.99251e-05
8.9355e-06
1.8822e-05
4.41334e-06
1.81192e-05
1.76837e-05
4.47102e-05
-4.85613e-05
8.40588e-05
-9.59384e-05
0.000105033
-0.000112066
0.000120458
-0.000129866
0.000145182
-0.000159024
0.000172955
-0.000196034
0.000201276
-0.000234298
0.000202386
-0.000263701
0.000157526
-0.000204943
7.97116e-05
-3.54446e-05
4.17331e-05
2.53833e-05
3.58956e-05
3.53399e-05
2.94055e-05
3.26391e-05
2.35763e-05
2.93222e-05
1.83155e-05
2.67346e-05
1.34311e-05
2.48074e-05
8.80837e-06
2.34429e-05
4.35153e-06
2.25742e-05
2.20345e-05
6.94588e-05
-6.24605e-05
8.15864e-05
-8.63243e-05
8.94257e-05
-0.000104994
0.000105906
-0.000119353
0.000138891
-0.000145595
0.000177636
-0.000185779
0.000196523
-0.000233748
0.000157295
-0.000249807
0.000116532
-0.000101474
5.36723e-05
1.7604e-05
4.02859e-05
4.35947e-05
3.51984e-05
4.37098e-05
2.87642e-05
3.89785e-05
2.31088e-05
3.49468e-05
1.79686e-05
3.18693e-05
1.31853e-05
2.95873e-05
8.65114e-06
2.7974e-05
4.27511e-06
2.69475e-05
2.63066e-05
7.132e-05
-5.93975e-05
8.18044e-05
-8.04939e-05
8.61327e-05
-0.00010425
0.000100666
-0.000112808
0.000130178
-0.000131844
0.0001593
-0.00017972
0.000171742
-0.00021794
0.00015614
-0.000209102
8.84873e-05
-4.52311e-05
4.83974e-05
4.32619e-05
4.04981e-05
5.57451e-05
3.42186e-05
5.10296e-05
2.80213e-05
4.50706e-05
2.25549e-05
4.03966e-05
1.75581e-05
3.68618e-05
1.28949e-05
3.42473e-05
8.46545e-06
3.24004e-05
4.18457e-06
3.12253e-05
3.04895e-05
9.25971e-05
-3.97609e-05
9.25444e-05
-8.23729e-05
9.54978e-05
-0.000108612
0.000104153
-0.000122095
0.000122709
-0.000143344
0.000148976
-0.000175791
0.000149915
-0.000232107
0.000142144
-0.000156235
7.74266e-05
3.33683e-06
4.61217e-05
6.16806e-05
3.96067e-05
6.50911e-05
3.30523e-05
5.77286e-05
2.71762e-05
5.08844e-05
2.1922e-05
4.56428e-05
1.70899e-05
4.16916e-05
1.25639e-05
3.87714e-05
8.25398e-06
3.67085e-05
4.08182e-06
3.53961e-05
3.45696e-05
3.50308e-06
-2.00466e-05
7.08936e-06
-2.0574e-05
1.08752e-05
-2.16862e-05
1.4893e-05
-2.33042e-05
1.92183e-05
-2.55621e-05
2.39602e-05
-2.8687e-05
2.9071e-05
-3.25505e-05
3.49579e-05
-3.82483e-05
4.1447e-05
-4.47093e-05
4.92678e-05
-5.50765e-05
5.82879e-05
-6.70325e-05
8.65331e-05
-5.57839e-05
9.65667e-05
-9.3388e-05
7.75916e-05
-8.00705e-05
5.14514e-05
-2.76153e-05
4.40456e-05
1.12262e-05
5.68394e-05
2.78317e-05
7.41186e-05
3.53964e-05
9.03022e-05
4.25337e-05
0.00011043
4.49976e-05
0.000129813
6.40378e-05
0.000180414
6.24963e-05
0.000106342
0.000286374
3.08352e-06
-2.28215e-05
6.24086e-06
-2.34197e-05
9.59829e-06
-2.4731e-05
1.29526e-05
-2.63671e-05
1.63294e-05
-2.87384e-05
2.02122e-05
-3.26493e-05
2.40957e-05
-3.71151e-05
2.84702e-05
-4.43614e-05
3.28669e-05
-5.28321e-05
3.67044e-05
-6.56714e-05
3.70728e-05
-8.08359e-05
6.06183e-05
-9.07802e-05
5.9178e-05
-0.00010111
3.92219e-05
-6.67238e-05
3.34271e-05
-2.18623e-05
4.4774e-05
-1.30452e-07
6.19318e-05
1.06739e-05
7.99008e-05
1.74275e-05
9.81053e-05
2.43291e-05
0.000119912
2.31905e-05
0.000147205
3.67448e-05
0.000184405
2.52971e-05
5.04514e-05
0.000240295
2.68597e-06
-3.04319e-05
5.40997e-06
-3.12658e-05
8.4279e-06
-3.33167e-05
1.15461e-05
-3.58249e-05
1.39121e-05
-3.86249e-05
1.64938e-05
-4.40711e-05
1.84812e-05
-4.96521e-05
2.00119e-05
-5.79849e-05
2.23789e-05
-6.86953e-05
2.67757e-05
-8.34982e-05
3.3109e-05
-0.000100027
6.01269e-05
-0.000101123
5.043e-05
-9.51673e-05
4.06007e-05
-5.53519e-05
4.51138e-05
-2.55582e-05
5.65134e-05
-1.15661e-05
7.0376e-05
-3.18881e-06
8.6057e-05
1.74649e-06
0.000103854
6.53214e-06
0.000122827
4.2178e-06
0.000147577
1.19943e-05
0.000169863
3.01141e-06
3.60044e-06
0.000216714
2.3603e-06
-3.22121e-05
3.4932e-06
-2.79269e-05
5.9354e-06
-3.33686e-05
8.89706e-06
-3.43865e-05
1.27506e-05
-3.85374e-05
1.80033e-05
-4.4179e-05
2.49774e-05
-4.96907e-05
3.37056e-05
-5.68935e-05
4.42505e-05
-6.544e-05
5.58197e-05
-7.61908e-05
4.0038e-05
-8.44642e-05
6.93099e-05
-8.82546e-05
6.0148e-05
-8.89705e-05
5.79085e-05
-5.21013e-05
5.97727e-05
-2.70548e-05
6.63132e-05
-1.82199e-05
7.67693e-05
-1.36474e-05
9.00032e-05
-1.14874e-05
0.000105993
-9.45766e-06
0.000123392
-1.31811e-05
0.000146697
-1.13105e-05
0.000168232
-1.85236e-05
-2.57299e-05
0.000197562
8.61358e-06
-3.73435e-05
1.84227e-05
-3.76088e-05
2.65754e-05
-3.94011e-05
3.55051e-05
-4.2487e-05
4.35704e-05
-4.41281e-05
5.11535e-05
-4.97408e-05
5.84705e-05
-5.48112e-05
6.53004e-05
-6.23086e-05
7.07904e-05
-7.01279e-05
7.45689e-05
-8.01564e-05
4.3612e-05
-8.8009e-05
6.68963e-05
-9.1689e-05
6.5985e-05
-8.42217e-05
6.31937e-05
-5.02722e-05
6.46424e-05
-2.87522e-05
7.03171e-05
-2.40259e-05
7.94214e-05
-2.27588e-05
9.11546e-05
-2.32205e-05
0.000105616
-2.39186e-05
0.000121694
-2.92597e-05
0.000141055
-3.0671e-05
0.000160808
-3.82766e-05
-4.88703e-05
0.000183948
7.07627e-06
-4.44198e-05
1.4566e-05
-4.50983e-05
2.19383e-05
-4.67734e-05
2.88879e-05
-4.94366e-05
3.70227e-05
-5.22633e-05
4.3966e-05
-5.66846e-05
5.07899e-05
-6.16359e-05
5.63081e-05
-6.78275e-05
6.06414e-05
-7.44619e-05
6.23098e-05
-8.18321e-05
3.80353e-05
-8.87391e-05
6.12111e-05
-9.14715e-05
6.29031e-05
-8.265e-05
6.11719e-05
-5.03566e-05
6.39689e-05
-3.20939e-05
7.00323e-05
-3.02373e-05
7.87396e-05
-3.14733e-05
8.9605e-05
-3.40859e-05
0.000102744
-3.70578e-05
0.000117179
-4.36945e-05
0.000133751
-4.72428e-05
0.000152237
-5.67629e-05
-6.85856e-05
0.000171952
6.53487e-06
-5.09547e-05
1.31725e-05
-5.17359e-05
1.96901e-05
-5.32911e-05
2.58191e-05
-5.55657e-05
3.20419e-05
-5.84862e-05
3.77047e-05
-6.23474e-05
4.30339e-05
-6.69647e-05
4.75764e-05
-7.23696e-05
5.15523e-05
-7.84372e-05
5.46369e-05
-8.49184e-05
3.48185e-05
-9.07974e-05
5.69214e-05
-9.25427e-05
5.95173e-05
-8.21485e-05
5.80907e-05
-5.13199e-05
6.17114e-05
-3.64371e-05
6.76453e-05
-3.63199e-05
7.5999e-05
-3.98319e-05
8.60387e-05
-4.41256e-05
9.78946e-05
-4.89138e-05
0.000110784
-5.6584e-05
0.000125533
-6.19919e-05
0.000142054
-7.32833e-05
-8.56703e-05
0.000159138
5.80103e-06
-5.6756e-05
1.15818e-05
-5.75171e-05
1.72353e-05
-5.8945e-05
2.27397e-05
-6.10703e-05
2.82072e-05
-6.3954e-05
3.33517e-05
-6.74919e-05
3.818e-05
-7.1793e-05
4.24602e-05
-7.66496e-05
4.60517e-05
-8.20284e-05
4.88104e-05
-8.76781e-05
3.16182e-05
-9.303e-05
5.22688e-05
-9.44075e-05
5.46835e-05
-8.1983e-05
5.33138e-05
-5.2416e-05
5.74977e-05
-4.12044e-05
6.36105e-05
-4.25574e-05
7.15607e-05
-4.77845e-05
8.08002e-05
-5.33651e-05
9.14464e-05
-5.956e-05
0.000102931
-6.80683e-05
0.000115958
-7.50191e-05
0.000130323
-8.7648e-05
-0.000100787
0.000145439
5.08383e-06
-6.18404e-05
1.01299e-05
-6.25637e-05
1.50925e-05
-6.39083e-05
1.99395e-05
-6.59179e-05
2.45816e-05
-6.85965e-05
2.90076e-05
-7.19182e-05
3.30647e-05
-7.58502e-05
3.67418e-05
-8.03267e-05
3.99673e-05
-8.52538e-05
4.27372e-05
-9.04483e-05
2.83315e-05
-9.56073e-05
4.71903e-05
-9.67832e-05
4.90113e-05
-8.1769e-05
4.79046e-05
-5.36908e-05
5.23336e-05
-4.60495e-05
5.85455e-05
-4.88548e-05
6.59578e-05
-5.51975e-05
7.43214e-05
-6.17287e-05
8.37677e-05
-6.90064e-05
9.38858e-05
-7.81864e-05
0.000105318
-8.64511e-05
0.000117739
-0.000100069
-0.000113823
0.000130776
4.40737e-06
-6.62485e-05
8.77348e-06
-6.69305e-05
1.30536e-05
-6.81891e-05
1.7214e-05
-7.00788e-05
2.12147e-05
-7.25977e-05
2.50058e-05
-7.57096e-05
2.85445e-05
-7.93891e-05
3.17844e-05
-8.35667e-05
3.4715e-05
-8.81844e-05
3.73889e-05
-9.31221e-05
2.5184e-05
-9.81883e-05
4.19867e-05
-9.90997e-05
4.27938e-05
-8.10748e-05
4.22308e-05
-5.52031e-05
4.65934e-05
-5.06879e-05
5.26605e-05
-5.49649e-05
5.9418e-05
-6.19551e-05
6.68539e-05
-6.91646e-05
7.50964e-05
-7.72489e-05
8.38716e-05
-8.69616e-05
9.37683e-05
-9.63478e-05
0.000104422
-0.000110723
-0.000124783
0.000115381
3.77053e-06
-7.00198e-05
7.50106e-06
-7.06618e-05
1.11473e-05
-7.1836e-05
1.46813e-05
-7.36136e-05
1.80721e-05
-7.5989e-05
2.12913e-05
-7.89292e-05
2.42999e-05
-8.2398e-05
2.7091e-05
-8.6358e-05
2.96708e-05
-9.07642e-05
3.2085e-05
-9.55361e-05
2.19321e-05
-0.000100605
3.64855e-05
-0.000101241
3.61007e-05
-7.98232e-05
3.6262e-05
-5.70116e-05
4.04463e-05
-5.50376e-05
4.6184e-05
-6.07253e-05
5.2187e-05
-6.79581e-05
5.86443e-05
-7.5622e-05
6.56608e-05
-8.42654e-05
7.3063e-05
-9.43638e-05
8.14318e-05
-0.000104717
9.04494e-05
-0.000119741
-0.000134279
9.99456e-05
3.16619e-06
-7.31871e-05
6.29933e-06
-7.3796e-05
9.34286e-06
-7.48805e-05
1.2276e-05
-7.65476e-05
1.50949e-05
-7.88087e-05
1.77705e-05
-8.16055e-05
2.02808e-05
-8.4909e-05
2.26211e-05
-8.8699e-05
2.48106e-05
-9.29543e-05
2.68997e-05
-9.76254e-05
1.86387e-05
-0.000102746
3.08033e-05
-0.000103087
2.91329e-05
-7.8042e-05
2.99978e-05
-5.89903e-05
3.40837e-05
-5.92468e-05
3.92687e-05
-6.59162e-05
4.44686e-05
-7.31579e-05
4.99062e-05
-8.10596e-05
5.56606e-05
-9.00198e-05
6.16256e-05
-0.000100329
6.84511e-05
-0.000111542
7.5772e-05
-0.000127062
-0.000141877
8.33705e-05
2.50148e-06
-7.56899e-05
5.00976e-06
-7.63058e-05
7.51236e-06
-7.73847e-05
9.94322e-06
-7.898e-05
1.22454e-05
-8.11126e-05
1.4412e-05
-8.37737e-05
1.6429e-05
-8.69278e-05
1.8299e-05
-9.05709e-05
2.00421e-05
-9.46994e-05
2.17124e-05
-9.92976e-05
1.52549e-05
-0.000104503
2.48775e-05
-0.00010494
2.19859e-05
-7.5973e-05
2.3547e-05
-6.11659e-05
2.76198e-05
-6.34004e-05
3.21059e-05
-7.04034e-05
3.64694e-05
-7.75213e-05
4.08375e-05
-8.54277e-05
4.52749e-05
-9.44572e-05
4.97365e-05
-0.00010479
5.49012e-05
-0.000116707
5.98433e-05
-0.000132004
-0.000147134
6.50186e-05
1.9064e-06
-7.75982e-05
3.80667e-06
-7.8208e-05
5.73872e-06
-7.93187e-05
7.67141e-06
-8.09148e-05
9.50313e-06
-8.29465e-05
1.11806e-05
-8.54537e-05
1.27106e-05
-8.84604e-05
1.40878e-05
-9.19511e-05
1.5325e-05
-9.59399e-05
1.64795e-05
-0.000100455
1.15229e-05
-0.000105721
1.85802e-05
-9.74737e-05
1.49944e-05
-7.42422e-05
1.71013e-05
-6.35275e-05
2.11498e-05
-6.74823e-05
2.49482e-05
-7.42019e-05
2.84382e-05
-8.10113e-05
3.17058e-05
-8.86953e-05
3.47748e-05
-9.75274e-05
3.77177e-05
-0.000107744
4.11687e-05
-0.000120208
4.32003e-05
-0.000134219
-0.000150275
4.07181e-05
1.52698e-06
-7.91741e-05
2.99593e-06
-7.97293e-05
4.38171e-06
-8.07637e-05
5.70028e-06
-8.23041e-05
6.98389e-06
-8.43186e-05
8.17809e-06
-8.67637e-05
9.23867e-06
-8.96782e-05
1.01362e-05
-9.30687e-05
1.08291e-05
-9.69467e-05
1.12863e-05
-0.000101362
6.36016e-06
-0.000106604
1.09765e-05
-0.000104467
8.21702e-06
-7.41733e-05
1.10746e-05
-6.65081e-05
1.50603e-05
-7.15223e-05
1.82324e-05
-7.7462e-05
2.09025e-05
-8.38641e-05
2.31273e-05
-9.13189e-05
2.47336e-05
-0.000100012
2.57392e-05
-0.000110608
2.64733e-05
-0.000124398
2.588e-05
-0.000140407
-0.000166393
1.07238e-05
1.14464e-06
-8.39987e-05
2.26107e-06
-8.46381e-05
3.27928e-06
-8.5791e-05
4.16171e-06
-8.7525e-05
4.89247e-06
-8.98404e-05
5.52206e-06
-9.2767e-05
6.04415e-06
-9.62954e-05
6.41866e-06
-0.000100404
6.5295e-06
-0.000105046
6.16453e-06
-0.000110153
1.77928e-06
-0.000115084
8.32951e-07
-0.00010286
1.48707e-06
-7.95637e-05
6.31889e-06
-7.46477e-05
1.00098e-05
-7.9148e-05
1.23013e-05
-8.50702e-05
1.38285e-05
-9.2827e-05
1.46067e-05
-0.000102683
1.41656e-05
-0.000114595
1.20935e-05
-0.000128629
7.87501e-06
-0.000144187
3.43672e-06
-0.000163154
-0.000194621
-2.51125e-06
5.48592e-07
-0.000115129
1.0415e-06
-0.000116009
1.46393e-06
-0.00011759
1.78474e-06
-0.00011994
1.98042e-06
-0.000123063
2.00618e-06
-0.000126984
1.84268e-06
-0.000131778
1.54272e-06
-0.000137579
1.12259e-06
-0.000144472
1.89076e-07
-0.000152703
-1.90865e-06
-0.000135033
-3.08655e-06
-0.000128701
-1.63509e-06
-0.00011327
2.99091e-06
-0.00011206
4.49427e-06
-0.000116747
4.35601e-06
-0.000125266
3.26012e-06
-0.000137509
1.64206e-06
-0.000155268
-4.42794e-07
-0.000183501
-2.7794e-06
-0.000217737
-7.05796e-06
-0.000252528
-1.01183e-05
-0.000275669
-0.000259291
-1.62689e-05
-3.02574e-07
-0.00015773
-6.70748e-07
-0.000158798
-1.04365e-06
-0.000160778
-1.45473e-06
-0.000163719
-1.90847e-06
-0.000167625
-2.37188e-06
-0.000172521
-2.73047e-06
-0.000178391
-3.10253e-06
-0.000185138
-3.75652e-06
-0.000192543
-2.19936e-06
-0.000203642
-2.22978e-06
-0.00015417
-2.8407e-06
-0.000144325
-1.6575e-06
-0.000163746
-1.71404e-06
-0.000164222
-3.74956e-06
-0.00017209
-6.41844e-06
-0.000186068
-1.00332e-05
-0.000204459
-1.55571e-05
-0.000225388
-2.15511e-05
-0.00024359
-2.39763e-05
-0.000227369
-2.08686e-05
-0.000209415
-2.27982e-05
-0.000198403
-0.00015461
-6.66461e-05
-1.58199e-06
-8.04309e-05
-3.42488e-06
-8.07107e-05
-5.38155e-06
-8.14153e-05
-7.63404e-06
-8.24515e-05
-1.03098e-05
-8.37873e-05
-1.34914e-05
-8.55237e-05
-1.72092e-05
-8.77161e-05
-2.14073e-05
-9.03404e-05
-2.48523e-05
-9.41333e-05
-8.8685e-06
-9.99276e-05
-4.3171e-06
-7.82388e-05
-1.82494e-06
-7.85634e-05
-1.92049e-06
-8.36869e-05
-1.76916e-06
-8.29889e-05
-2.33654e-06
-8.68909e-05
-3.76521e-06
-9.37894e-05
-7.28147e-06
-0.000103242
-1.57349e-05
-0.000114914
-3.50126e-05
-0.000129468
-7.07012e-05
-0.000136412
-0.000117791
-0.00010446
-0.000146458
-3.04981e-05
1.84208e-05
-0.000119217
-2.1213e-06
-7.68132e-05
-3.94622e-06
-7.73967e-05
-5.93873e-06
-7.79917e-05
-8.12605e-06
-7.8914e-05
-1.06052e-05
-8.00641e-05
-1.35545e-05
-8.1463e-05
-1.72669e-05
-8.30463e-05
-2.21001e-05
-8.46955e-05
-2.80394e-05
-8.67656e-05
-3.4576e-05
-8.87016e-05
-4.33318e-05
-8.03378e-05
-5.91848e-05
-8.57103e-05
-6.35385e-05
-7.81322e-05
-6.25968e-05
-7.42086e-05
-6.24071e-05
-7.23801e-05
-6.41635e-05
-7.21872e-05
-6.94955e-05
-7.32718e-05
-7.99698e-05
-7.53697e-05
-9.66183e-05
-7.87388e-05
-0.000117186
-7.74223e-05
-0.000142959
-5.71138e-05
-0.000162584
-9.53538e-06
2.99178e-05
-0.000147899
-2.22324e-06
-7.45846e-05
-4.20025e-06
-7.54142e-05
-6.40091e-06
-7.5785e-05
-8.97057e-06
-7.63374e-05
-1.19486e-05
-7.7078e-05
-1.54928e-05
-7.79093e-05
-1.96681e-05
-7.88565e-05
-2.45705e-05
-7.97139e-05
-3.03428e-05
-8.02965e-05
-3.71191e-05
-8.03697e-05
-4.44152e-05
-7.96627e-05
-5.12606e-05
-7.75465e-05
-5.47323e-05
-7.36467e-05
-5.84215e-05
-7.0301e-05
-6.29978e-05
-6.76475e-05
-6.93027e-05
-6.57857e-05
-7.83586e-05
-6.41429e-05
-9.0901e-05
-6.28067e-05
-0.00010765
-6.19677e-05
-0.000125064
-5.8681e-05
-0.000137625
-4.31252e-05
-0.000146003
-1.05296e-05
1.75372e-05
-0.000132369
-2.46562e-06
-7.21137e-05
-4.94545e-06
-7.29288e-05
-7.5592e-06
-7.31654e-05
-1.03652e-05
-7.35251e-05
-1.34788e-05
-7.39574e-05
-1.69688e-05
-7.44115e-05
-2.09773e-05
-7.48396e-05
-2.55624e-05
-7.51195e-05
-3.07406e-05
-7.51075e-05
-3.64428e-05
-7.46542e-05
-4.25927e-05
-7.35e-05
-4.88469e-05
-7.12824e-05
-5.41429e-05
-6.8343e-05
-5.87062e-05
-6.57319e-05
-6.32638e-05
-6.30833e-05
-6.848e-05
-6.05632e-05
-7.4515e-05
-5.81006e-05
-8.21983e-05
-5.51361e-05
-9.38405e-05
-5.04139e-05
-0.000109347
-4.26913e-05
-0.000122869
-2.83271e-05
-0.000123519
-8.08095e-06
9.28174e-06
-0.000114984
-2.48071e-06
-6.96287e-05
-5.00813e-06
-7.03969e-05
-7.66562e-06
-7.05033e-05
-1.05227e-05
-7.06631e-05
-1.36518e-05
-7.08229e-05
-1.71053e-05
-7.09523e-05
-2.09595e-05
-7.09794e-05
-2.52551e-05
-7.08176e-05
-2.99939e-05
-7.0361e-05
-3.51379e-05
-6.95017e-05
-4.05319e-05
-6.80979e-05
-4.57117e-05
-6.60958e-05
-5.03289e-05
-6.37209e-05
-5.49635e-05
-6.10927e-05
-5.98984e-05
-5.81447e-05
-6.56011e-05
-5.48558e-05
-7.25767e-05
-5.11201e-05
-8.09304e-05
-4.67783e-05
-8.96718e-05
-4.1662e-05
-9.76466e-05
-3.45821e-05
-0.000102979
-2.34791e-05
-0.000102912
-8.80966e-06
6.39345e-06
-9.95618e-05
-2.56384e-06
-6.70616e-05
-5.19959e-06
-6.77579e-05
-7.93663e-06
-6.77629e-05
-1.08332e-05
-6.77631e-05
-1.39277e-05
-6.77246e-05
-1.72667e-05
-6.76094e-05
-2.08811e-05
-6.7361e-05
-2.47822e-05
-6.69124e-05
-2.8956e-05
-6.61828e-05
-3.33756e-05
-6.50772e-05
-3.79553e-05
-6.35133e-05
-4.25511e-05
-6.1496e-05
-4.7167e-05
-5.91017e-05
-5.18562e-05
-5.64016e-05
-5.66261e-05
-5.33721e-05
-6.15256e-05
-4.99537e-05
-6.66452e-05
-4.59969e-05
-7.2111e-05
-4.13094e-05
-7.83347e-05
-3.54362e-05
-8.51358e-05
-2.77562e-05
-9.0157e-05
-1.82672e-05
-9.14941e-05
-7.26569e-06
3.56434e-06
-8.86365e-05
-2.56968e-06
-6.44897e-05
-5.2014e-06
-6.5124e-05
-7.9166e-06
-6.50454e-05
-1.07566e-05
-6.49207e-05
-1.3761e-05
-6.47177e-05
-1.69654e-05
-6.44022e-05
-2.03947e-05
-6.39291e-05
-2.40594e-05
-6.32451e-05
-2.79483e-05
-6.22911e-05
-3.20172e-05
-6.10053e-05
-3.61823e-05
-5.93453e-05
-4.03613e-05
-5.73145e-05
-4.4539e-05
-5.49226e-05
-4.87901e-05
-5.21487e-05
-5.31723e-05
-4.89891e-05
-5.77486e-05
-4.53752e-05
-6.2522e-05
-4.12212e-05
-6.74497e-05
-3.63797e-05
-7.22489e-05
-3.06359e-05
-7.62504e-05
-2.37548e-05
-7.88579e-05
-1.56586e-05
-7.94542e-05
-6.6665e-06
2.56873e-06
-7.8445e-05
-2.53353e-06
-6.19546e-05
-5.12765e-06
-6.25283e-05
-7.78909e-06
-6.23824e-05
-1.0551e-05
-6.21571e-05
-1.34429e-05
-6.1824e-05
-1.64885e-05
-6.13548e-05
-1.97021e-05
-6.07135e-05
-2.30868e-05
-5.98587e-05
-2.66307e-05
-5.87455e-05
-3.03028e-05
-5.73314e-05
-3.40585e-05
-5.55879e-05
-3.78659e-05
-5.35059e-05
-4.17119e-05
-5.10754e-05
-4.55866e-05
-4.82739e-05
-4.95005e-05
-4.50737e-05
-5.34448e-05
-4.143e-05
-5.73938e-05
-3.72705e-05
-6.12741e-05
-3.2498e-05
-6.49203e-05
-2.69891e-05
-6.80181e-05
-2.06574e-05
-7.01146e-05
-1.35627e-05
-7.07904e-05
-5.98954e-06
1.69842e-06
-6.99186e-05
-2.4689e-06
-5.94847e-05
-4.98897e-06
-6.00071e-05
-7.56316e-06
-5.9807e-05
-1.0217e-05
-5.95021e-05
-1.29721e-05
-5.90676e-05
-1.58452e-05
-5.84804e-05
-1.88456e-05
-5.77118e-05
-2.1973e-05
-5.67299e-05
-2.5216e-05
-5.55012e-05
-2.85513e-05
-5.39949e-05
-3.195e-05
-5.21881e-05
-3.53906e-05
-5.00642e-05
-3.886e-05
-4.76057e-05
-4.23423e-05
-4.47908e-05
-4.58218e-05
-4.15942e-05
-4.92714e-05
-3.79791e-05
-5.26411e-05
-3.38996e-05
-5.58384e-05
-2.92996e-05
-5.86992e-05
-2.4128e-05
-6.09878e-05
-1.83693e-05
-6.24595e-05
-1.20914e-05
-6.29548e-05
-5.49523e-06
1.18e-06
-6.24346e-05
-2.37422e-06
-5.71097e-05
-4.7932e-06
-5.75874e-05
-7.25444e-06
-5.7345e-05
-9.77765e-06
-5.6978e-05
-1.23789e-05
-5.64655e-05
-1.50696e-05
-5.57887e-05
-1.78553e-05
-5.49252e-05
-2.07341e-05
-5.385e-05
-2.36965e-05
-5.25378e-05
-2.67255e-05
-5.0965e-05
-2.98011e-05
-4.91116e-05
-3.29043e-05
-4.69605e-05
-3.60154e-05
-4.44939e-05
-3.9113e-05
-4.16933e-05
-4.21698e-05
-3.85363e-05
-4.51491e-05
-3.49992e-05
-4.79945e-05
-3.10531e-05
-5.06212e-05
-2.6672e-05
-5.29074e-05
-2.18416e-05
-5.46991e-05
-1.65779e-05
-5.58409e-05
-1.09503e-05
-5.62322e-05
-5.10358e-06
7.92841e-07
-5.5845e-05
-2.25833e-06
-5.48509e-05
-4.55498e-06
-5.52902e-05
-6.88411e-06
-5.50153e-05
-9.26073e-06
-5.46008e-05
-1.16964e-05
-5.40291e-05
-1.41988e-05
-5.32855e-05
-1.67711e-05
-5.23521e-05
-1.94105e-05
-5.12098e-05
-2.21088e-05
-4.98388e-05
-2.48525e-05
-4.82206e-05
-2.76254e-05
-4.63381e-05
-3.04092e-05
-4.4176e-05
-3.31838e-05
-4.17193e-05
-3.59238e-05
-3.89525e-05
-3.85994e-05
-3.58608e-05
-4.11695e-05
-3.2428e-05
-4.35806e-05
-2.8641e-05
-4.57602e-05
-2.44916e-05
-4.76163e-05
-1.99854e-05
-4.90441e-05
-1.51505e-05
-4.99463e-05
-1.00485e-05
-5.02634e-05
-4.78719e-06
5.07088e-07
-4.99765e-05
-2.12509e-06
-5.27254e-05
-4.28311e-06
-5.31317e-05
-6.46557e-06
-5.28324e-05
-8.68374e-06
-5.23821e-05
-1.09458e-05
-5.17665e-05
-1.32569e-05
-5.09738e-05
-1.56182e-05
-4.99902e-05
-1.80267e-05
-4.88008e-05
-2.04747e-05
-4.73901e-05
-2.2951e-05
-4.57437e-05
-2.54409e-05
-4.38476e-05
-2.79273e-05
-4.16894e-05
-3.03891e-05
-3.9257e-05
-3.28019e-05
-3.65398e-05
-3.51342e-05
-3.35276e-05
-3.73483e-05
-3.02133e-05
-3.93959e-05
-2.65924e-05
-4.12184e-05
-2.26685e-05
-4.2747e-05
-1.84565e-05
-4.39092e-05
-1.39885e-05
-4.46406e-05
-9.31761e-06
-4.49019e-05
-4.52565e-06
2.87201e-07
-4.4682e-05
-1.97889e-06
-5.07463e-05
-3.98592e-06
-5.11244e-05
-6.01095e-06
-5.08071e-05
-8.06231e-06
-5.03304e-05
-1.01456e-05
-4.96828e-05
-1.2264e-05
-4.8855e-05
-1.44174e-05
-4.78363e-05
-1.66024e-05
-4.66153e-05
-1.88119e-05
-4.51801e-05
-2.10358e-05
-4.35193e-05
-2.32608e-05
-4.16222e-05
-2.54704e-05
-3.94794e-05
-2.7645e-05
-3.70823e-05
-2.97604e-05
-3.44238e-05
-3.17884e-05
-3.14994e-05
-3.36941e-05
-2.83066e-05
-3.54371e-05
-2.48485e-05
-3.69704e-05
-2.11346e-05
-3.82426e-05
-1.71841e-05
-3.92024e-05
-1.30289e-05
-3.98055e-05
-8.71462e-06
-4.0026e-05
-4.30574e-06
1.16407e-07
-3.98544e-05
-1.8229e-06
-4.89231e-05
-3.66982e-06
-4.92773e-05
-5.52965e-06
-4.8947e-05
-7.40843e-06
-4.84514e-05
-9.30985e-06
-4.77811e-05
-1.12355e-05
-4.6929e-05
-1.31845e-05
-4.5887e-05
-1.51531e-05
-4.46463e-05
-1.71347e-05
-4.3198e-05
-1.91199e-05
-4.15336e-05
-2.10965e-05
-3.96452e-05
-2.30494e-05
-3.75262e-05
-2.49602e-05
-3.51711e-05
-2.68074e-05
-3.25766e-05
-2.85649e-05
-2.97412e-05
-3.02034e-05
-2.66676e-05
-3.16888e-05
-2.33624e-05
-3.2984e-05
-1.98386e-05
-3.40507e-05
-1.61173e-05
-3.48515e-05
-1.22282e-05
-3.53557e-05
-8.21079e-06
-3.5545e-05
-4.11612e-06
-1.87878e-08
-3.541e-05
-1.65983e-06
-4.72632e-05
-3.34e-06
-4.7597e-05
-5.02916e-06
-4.72577e-05
-6.73155e-06
-4.67488e-05
-8.44943e-06
-4.6063e-05
-1.01833e-05
-4.51949e-05
-1.19315e-05
-4.41384e-05
-1.36904e-05
-4.28871e-05
-1.54537e-05
-4.14344e-05
-1.72127e-05
-3.97743e-05
-1.89563e-05
-3.79013e-05
-2.06707e-05
-3.58114e-05
-2.23399e-05
-3.35019e-05
-2.39441e-05
-3.09719e-05
-2.54613e-05
-2.82237e-05
-2.68662e-05
-2.5262e-05
-2.81314e-05
-2.20965e-05
-2.92276e-05
-1.87418e-05
-3.01255e-05
-1.52191e-05
-3.07979e-05
-1.15559e-05
-3.12222e-05
-7.78662e-06
-3.13846e-05
-3.95407e-06
-1.16481e-07
-3.12863e-05
-1.49165e-06
-4.57714e-05
-3.00043e-06
-4.60881e-05
-4.51523e-06
-4.57427e-05
-6.03895e-06
-4.52249e-05
-7.57275e-06
-4.4529e-05
-9.11633e-06
-4.36511e-05
-1.06678e-05
-4.25868e-05
-1.22232e-05
-4.13314e-05
-1.37769e-05
-3.98804e-05
-1.53209e-05
-3.82299e-05
-1.68454e-05
-3.63766e-05
-1.83381e-05
-3.43185e-05
-1.97846e-05
-3.20551e-05
-2.11685e-05
-2.95881e-05
-2.24703e-05
-2.69212e-05
-2.36696e-05
-2.40621e-05
-2.4744e-05
-2.10214e-05
-2.56706e-05
-1.78147e-05
-2.64272e-05
-1.44623e-05
-2.69933e-05
-1.09898e-05
-2.73526e-05
-7.42751e-06
-2.74949e-05
-3.8115e-06
-1.89403e-07
-2.74222e-05
-1.31999e-06
-4.44514e-05
-2.65416e-06
-4.47538e-05
-3.99224e-06
-4.44046e-05
-5.33609e-06
-4.3881e-05
-6.68606e-06
-4.31789e-05
-8.04135e-06
-4.22957e-05
-9.39978e-06
-4.12282e-05
-1.07577e-05
-3.99733e-05
-1.21097e-05
-3.85282e-05
-1.34489e-05
-3.68905e-05
-1.47665e-05
-3.50588e-05
-1.60519e-05
-3.30329e-05
-1.72928e-05
-3.08141e-05
-1.84749e-05
-2.84056e-05
-1.95826e-05
-2.58133e-05
-2.05987e-05
-2.30455e-05
-2.15055e-05
-2.01141e-05
-2.22852e-05
-1.70346e-05
-2.29206e-05
-1.38267e-05
-2.33967e-05
-1.05137e-05
-2.37013e-05
-7.12302e-06
-2.38272e-05
-3.68593e-06
-2.40782e-07
-2.37754e-05
-1.14586e-06
-4.33054e-05
-2.30335e-06
-4.35963e-05
-3.46336e-06
-4.32445e-05
-4.62696e-06
-4.27173e-05
-5.79392e-06
-4.20118e-05
-6.96308e-06
-4.11264e-05
-8.13222e-06
-4.00589e-05
-9.29792e-06
-3.88074e-05
-1.04554e-05
-3.73705e-05
-1.15986e-05
-3.5747e-05
-1.272e-05
-3.39372e-05
-1.38106e-05
-3.19421e-05
-1.48599e-05
-2.97645e-05
-1.58564e-05
-2.74091e-05
-1.67869e-05
-2.48824e-05
-1.76379e-05
-2.21941e-05
-1.83952e-05
-1.93563e-05
-1.90451e-05
-1.63844e-05
-1.95748e-05
-1.3297e-05
-1.99727e-05
-1.01159e-05
-2.02303e-05
-6.86576e-06
-2.03417e-05
-3.57427e-06
-2.73589e-07
-2.03092e-05
-9.69654e-07
-4.23358e-05
-1.9494e-06
-4.26165e-05
-2.93075e-06
-4.22631e-05
-3.91429e-06
-4.17337e-05
-4.89939e-06
-4.10267e-05
-5.88465e-06
-4.0141e-05
-6.86796e-06
-3.90755e-05
-7.84624e-06
-3.7829e-05
-8.81541e-06