/*--------------------------------*- C++ -*----------------------------------*\
| =========                 |                                                 |
| \\      /  F ield         | OpenFOAM: The Open Source CFD Toolbox           |
|  \\    /   O peration     | Version:  2.4.0                                 |
|   \\  /    A nd           | Web:      www.OpenFOAM.org                      |
|    \\/     M anipulation  |                                                 |
\*---------------------------------------------------------------------------*/
FoamFile
{
    version     2.0;
    format      ascii;
    class       surfaceScalarField;
    location    "0.1";
    object      phi.mercury;
}
// * * * * * * * * * * * * * * * * * * * * * * * * * * * * * * * * * * * * * //

dimensions      [0 3 -1 0 0 0 0];

internalField   nonuniform List<scalar> 
4432
(
2.213e-06
-2.213e-06
4.4896e-06
-2.2766e-06
6.89664e-06
-2.40704e-06
9.50911e-06
-2.61247e-06
1.24138e-05
-2.90464e-06
1.57253e-05
-3.31157e-06
1.95572e-05
-3.83185e-06
2.41146e-05
-4.55738e-06
2.94804e-05
-5.36588e-06
3.66959e-05
-7.2155e-06
4.3193e-05
-6.49706e-06
5.39185e-05
-1.07255e-05
6.87621e-05
-1.4844e-05
8.42143e-05
-1.54619e-05
9.56275e-05
-1.14998e-05
0.000100536
-5.32465e-06
0.000101191
-3.86203e-06
0.000101343
-1.76117e-05
0.000107985
-4.44074e-05
0.000126194
-7.81364e-05
0.00013838
-0.000113878
8.63957e-05
-9.45818e-05
8.97297e-06
2.19954e-06
-4.41254e-06
4.46194e-06
-4.539e-06
6.85303e-06
-4.79813e-06
9.44654e-06
-5.20599e-06
1.23277e-05
-5.78584e-06
1.56108e-05
-6.59466e-06
1.94028e-05
-7.62386e-06
2.39277e-05
-9.08222e-06
2.93134e-05
-1.07516e-05
3.61651e-05
-1.40672e-05
4.32563e-05
-1.35882e-05
5.42018e-05
-2.1671e-05
6.81309e-05
-2.87764e-05
8.21135e-05
-2.95115e-05
9.36061e-05
-2.33637e-05
9.99804e-05
-1.34979e-05
0.00010128
-1.56799e-05
0.000107441
-3.5962e-05
0.000118596
-5.55628e-05
0.000132103
-7.03578e-05
0.00011342
-6.69261e-05
5.80006e-05
-9.59962e-06
4.35553e-05
2.17126e-06
-6.58381e-06
4.40375e-06
-6.77149e-06
6.7615e-06
-7.15588e-06
9.31553e-06
-7.76001e-06
1.21485e-05
-8.61879e-06
1.53706e-05
-9.81676e-06
1.9089e-05
-1.13423e-05
2.35259e-05
-1.35191e-05
2.88739e-05
-1.60996e-05
3.53176e-05
-2.05109e-05
4.27755e-05
-2.10462e-05
5.37447e-05
-3.26401e-05
6.71582e-05
-4.22144e-05
7.96262e-05
-4.22638e-05
8.88764e-05
-3.3961e-05
9.28522e-05
-2.83185e-05
9.70331e-05
-4.39457e-05
0.000102677
-7.1136e-05
0.00010313
-8.35542e-05
8.24148e-05
-1.86677e-05
5.1396e-05
2.72196e-05
2.20625e-05
6.03666e-05
6.50002e-05
2.12934e-06
-8.71314e-06
4.31756e-06
-8.95972e-06
6.6261e-06
-9.46441e-06
9.12177e-06
-1.02557e-05
1.18834e-05
-1.13804e-05
1.50137e-05
-1.29471e-05
1.86254e-05
-1.4954e-05
2.29206e-05
-1.78143e-05
2.80902e-05
-2.12692e-05
3.42813e-05
-2.67019e-05
4.18689e-05
-2.86338e-05
5.27388e-05
-4.35093e-05
6.5015e-05
-5.46006e-05
7.56154e-05
-5.37116e-05
8.22654e-05
-4.69898e-05
8.61652e-05
-5.64335e-05
8.425e-05
-7.59775e-05
7.2885e-05
-9.83635e-05
4.66636e-05
-2.36372e-05
4.53626e-05
6.3651e-05
3.50011e-05
7.07031e-05
2.08221e-05
7.68249e-05
8.55817e-05
2.07428e-06
-1.07874e-05
4.20447e-06
-1.10899e-05
6.44879e-06
-1.17087e-05
8.86827e-06
-1.26752e-05
1.15361e-05
-1.40482e-05
1.45466e-05
-1.59576e-05
1.80145e-05
-1.84219e-05
2.21147e-05
-2.19145e-05
2.70146e-05
-2.61692e-05
3.28404e-05
-3.25277e-05
4.05406e-05
-3.6334e-05
5.11603e-05
-5.41263e-05
6.19912e-05
-6.57504e-05
6.95372e-05
-6.40974e-05
7.20748e-05
-6.967e-05
7.13007e-05
-8.34366e-05
6.11359e-05
-0.000104165
3.65069e-05
-6.73175e-05
4.58753e-05
5.70859e-05
4.13818e-05
7.23976e-05
3.56169e-05
7.85369e-05
2.29795e-05
9.01089e-05
0.000108331
2.00666e-06
-1.27941e-05
4.06573e-06
-1.3149e-05
6.23201e-06
-1.3875e-05
8.5589e-06
-1.50021e-05
1.11116e-05
-1.66008e-05
1.39771e-05
-1.88231e-05
1.7263e-05
-2.17079e-05
2.11244e-05
-2.57759e-05
2.56644e-05
-3.07092e-05
3.11284e-05
-3.79917e-05
3.86717e-05
-4.38773e-05
4.8501e-05
-6.395e-05
5.72667e-05
-7.5569e-05
5.97945e-05
-7.73772e-05
6.11348e-05
-9.32747e-05
5.18334e-05
-0.000105704
3.2815e-05
-0.000102366
3.42998e-05
1.4992e-05
4.04273e-05
6.58146e-05
4.1011e-05
7.32114e-05
3.77529e-05
8.25033e-05
2.64547e-05
0.000101844
0.000134724
1.92661e-06
-1.47207e-05
3.90144e-06
-1.51238e-05
5.97608e-06
-1.59496e-05
8.19481e-06
-1.72208e-05
1.06129e-05
-1.90189e-05
1.33107e-05
-2.1521e-05
1.63783e-05
-2.47754e-05
1.99548e-05
-2.93523e-05
2.40815e-05
-3.4836e-05
2.91275e-05
-4.30377e-05
3.61027e-05
-5.08525e-05
4.45236e-05
-7.23638e-05
4.99068e-05
-8.47066e-05
5.04164e-05
-9.8877e-05
4.65654e-05
-0.000109772
3.43902e-05
-0.00011654
2.22954e-05
-4.98285e-05
3.65853e-05
5.43441e-05
3.95771e-05
6.36689e-05
4.28483e-05
7.04701e-05
4.12373e-05
8.44223e-05
3.36237e-05
0.000109544
0.000168273
1.8295e-06
-1.65502e-05
3.70179e-06
-1.69961e-05
5.66606e-06
-1.79139e-05
7.75687e-06
-1.93116e-05
1.00233e-05
-2.12854e-05
1.25321e-05
-2.40298e-05
1.53429e-05
-2.75862e-05
1.85833e-05
-3.25931e-05
2.23048e-05
-3.85618e-05
2.68063e-05
-4.75667e-05
3.29693e-05
-5.7147e-05
3.93385e-05
-8.01607e-05
3.97618e-05
-9.67764e-05
4.00849e-05
-0.000117905
3.24213e-05
-0.000119659
1.99067e-05
-0.000102657
2.34105e-05
9.89238e-06
3.41304e-05
5.15751e-05
4.00399e-05
5.82612e-05
4.60402e-05
6.50279e-05
4.73354e-05
8.33128e-05
4.40072e-05
0.000113066
0.000212233
-1.08374e-05
1.08428e-05
-1.44571e-05
3.62947e-06
-1.0892e-05
-3.552e-06
-4.52644e-06
-6.35857e-06
4.6608e-06
-9.18889e-06
2.24183e-05
-1.7762e-05
4.20292e-05
-1.96446e-05
5.29375e-05
-1.11293e-05
5.35625e-05
-6.31769e-07
4.93696e-05
1.35694e-06
4.27061e-05
6.2805e-06
3.57484e-05
6.95209e-06
2.93564e-05
6.38723e-06
2.35721e-05
5.7803e-06
1.82927e-05
5.27594e-06
1.33986e-05
4.89108e-06
8.77961e-06
4.6162e-06
4.33867e-06
4.43829e-06
4.33676e-06
-1.21503e-05
2.29992e-05
-1.59392e-05
7.42448e-06
-1.13203e-05
-8.16345e-06
-4.35976e-06
-1.33147e-05
4.93137e-06
-1.85289e-05
2.35789e-05
-3.64284e-05
4.55047e-05
-4.23825e-05
5.67856e-05
-3.8133e-05
5.85133e-05
-4.00875e-05
5.52841e-05
-3.14453e-05
4.45113e-05
1.24314e-05
3.69478e-05
1.42824e-05
3.03237e-05
1.30046e-05
2.43538e-05
1.17449e-05
1.89054e-05
1.07199e-05
1.38512e-05
9.94142e-06
9.07765e-06
9.38629e-06
4.48168e-06
9.03113e-06
8.81562e-06
-1.45213e-05
3.7527e-05
-1.89469e-05
1.18507e-05
-1.18537e-05
-1.53579e-05
-3.09916e-06
-2.21774e-05
7.52407e-06
-2.94482e-05
2.82288e-05
-5.89575e-05
6.32635e-05
-9.5501e-05
0.000104065
-0.000137966
0.000111467
-0.000104568
7.60728e-05
-2.40633e-05
4.48763e-05
2.22037e-05
3.68297e-05
2.19469e-05
3.01675e-05
1.9662e-05
2.42203e-05
1.76888e-05
1.88029e-05
1.61343e-05
1.37779e-05
1.49637e-05
9.03051e-06
1.41312e-05
4.4592e-06
1.36001e-05
1.32734e-05
-1.89059e-05
5.59365e-05
-2.16244e-05
1.30657e-05
-6.88931e-06
-5.205e-05
1.05422e-05
-6.39221e-05
3.04254e-05
-7.66883e-05
7.72865e-05
-0.000117369
0.000133649
-0.000166568
0.000155294
-0.000170656
0.000119665
-8.28498e-05
5.5922e-05
2.74793e-05
4.40564e-05
3.26822e-05
3.64106e-05
2.95667e-05
2.98207e-05
2.62461e-05
2.39452e-05
2.35592e-05
1.8595e-05
2.148e-05
1.36297e-05
1.99251e-05
8.9355e-06
1.8822e-05
4.41334e-06
1.81192e-05
1.76837e-05
-1.92293e-05
7.53698e-05
2.18829e-05
-5.86951e-05
6.06855e-05
-0.000101317
8.74919e-05
-0.000117888
0.000118986
-0.00014094
0.000155575
-0.000176089
0.000175737
-0.000201522
0.000148614
-0.000140677
7.55879e-05
1.96327e-05
5.28057e-05
4.62233e-05
4.32965e-05
4.22059e-05
3.58106e-05
3.70507e-05
2.93406e-05
3.27135e-05
2.35722e-05
2.93252e-05
1.83154e-05
2.67347e-05
1.34311e-05
2.48074e-05
8.80837e-06
2.34429e-05
4.35153e-06
2.25742e-05
2.20345e-05
4.43979e-05
7.29483e-05
7.58127e-05
-7.97666e-05
8.88934e-05
-0.000104562
0.000106332
-0.000117815
0.000138698
-0.000141811
0.000173228
-0.000178655
0.000177386
-0.000195434
0.000109869
-4.63166e-05
6.48052e-05
6.52234e-05
5.12765e-05
5.9623e-05
4.23041e-05
5.11782e-05
3.50338e-05
4.43179e-05
2.87339e-05
3.90095e-05
2.31069e-05
3.49483e-05
1.79685e-05
3.18693e-05
1.31853e-05
2.95873e-05
8.65114e-06
2.7974e-05
4.27511e-06
2.69475e-05
2.63066e-05
6.72781e-05
-5.07714e-05
8.16954e-05
-8.0665e-05
8.61454e-05
-0.000104326
0.000100675
-0.000112857
0.000129896
-0.000131707
0.000158382
-0.000177131
0.000149153
-0.000157819
8.36658e-05
5.41939e-05
6.07e-05
8.39353e-05
4.94325e-05
7.08392e-05
4.10534e-05
5.95582e-05
3.40851e-05
5.1284e-05
2.80065e-05
4.50848e-05
2.2554e-05
4.03973e-05
1.75581e-05
3.68618e-05
1.28949e-05
3.42473e-05
8.46545e-06
3.24004e-05
4.18457e-06
3.12253e-05
3.04895e-05
9.25354e-05
-4.05842e-05
9.25483e-05
-8.24844e-05
9.55053e-05
-0.000108627
0.000104136
-0.000122122
0.000122268
-0.000143275
0.000145492
-0.000174814
0.000124316
-0.000134806
7.14682e-05
9.24079e-05
5.66762e-05
9.77405e-05
4.72479e-05
8.02507e-05
3.95585e-05
6.72483e-05
3.29785e-05
5.78631e-05
2.71694e-05
5.08923e-05
2.19216e-05
4.56432e-05
1.70899e-05
4.16917e-05
1.25639e-05
3.87714e-05
8.25398e-06
3.67085e-05
4.08182e-06
3.53961e-05
3.45696e-05
3.50295e-06
-2.00582e-05
7.08912e-06
-2.05887e-05
1.08748e-05
-2.17098e-05
1.48925e-05
-2.33472e-05
1.92178e-05
-2.56455e-05
2.39597e-05
-2.88407e-05
2.90704e-05
-3.28466e-05
3.49562e-05
-3.88017e-05
4.14248e-05
-4.57795e-05
4.91891e-05
-5.71517e-05
5.89069e-05
-7.15632e-05
6.184e-05
-0.000101547
5.22767e-05
-0.000129883
4.03623e-05
-0.000139558
2.83264e-05
-0.000113238
2.2841e-05
-3.43001e-05
5.53696e-05
2.68658e-05
7.37542e-05
3.56722e-05
8.99977e-05
4.26769e-05
0.000110325
4.50771e-05
0.00012968
6.40676e-05
0.000180323
6.2536e-05
0.000106378
0.000286298
3.08288e-06
-2.40571e-05
6.23903e-06
-2.4738e-05
9.59371e-06
-2.62515e-05
1.29414e-05
-2.82436e-05
1.63052e-05
-3.11105e-05
2.01605e-05
-3.56229e-05
2.39862e-05
-4.09584e-05
2.82326e-05
-4.95052e-05
3.23411e-05
-6.00024e-05
3.52979e-05
-7.57514e-05
3.4022e-05
-9.49863e-05
2.5152e-05
-0.000135495
1.96333e-05
-0.000153946
1.27442e-05
-0.00014337
1.30087e-05
-5.95784e-05
4.12545e-05
-5.31191e-08
6.18248e-05
1.06629e-05
7.98506e-05
1.74001e-05
9.80689e-05
2.43129e-05
0.000119889
2.31828e-05
0.000147186
3.67421e-05
0.00018439
2.52959e-05
5.04487e-05
0.000240286
2.64685e-06
-3.91189e-05
5.30964e-06
-4.00988e-05
8.23947e-06
-4.25309e-05
1.12216e-05
-4.57595e-05
1.3471e-05
-4.986e-05
1.58681e-05
-5.67839e-05
1.76047e-05
-6.44147e-05
1.85995e-05
-7.493e-05
1.96464e-05
-8.85218e-05
2.01898e-05
-0.000106294
2.04884e-05
-0.000127382
1.68909e-05
-0.000159624
1.22824e-05
-0.000159425
1.44602e-05
-0.000109469
2.62543e-05
-3.58087e-05
5.64156e-05
-1.15421e-05
7.03054e-05
-3.13647e-06
8.6008e-05
1.77957e-06
0.000103821
6.54842e-06
0.000122807
4.22334e-06
0.000147565
1.19965e-05
0.000169853
3.0088e-06
3.59442e-06
0.000216706
1.79294e-06
-3.52182e-05
2.71594e-06
-2.80386e-05
4.38728e-06
-3.52986e-05
6.46702e-06
-3.51966e-05
9.23982e-06
-4.12261e-05
1.22318e-05
-4.66744e-05
1.60402e-05
-5.28198e-05
1.97314e-05
-5.93452e-05
2.36553e-05
-6.72945e-05
2.71113e-05
-7.57439e-05
2.68693e-05
-8.75962e-05
2.19948e-05
-0.000102055
2.47476e-05
-9.71518e-05
3.02075e-05
-5.27909e-05
4.72819e-05
-3.05475e-05
6.628e-05
-1.82941e-05
7.67669e-05
-1.36512e-05
8.99994e-05
-1.14908e-05
0.000105988
-9.46118e-06
0.000123387
-1.31853e-05
0.000146692
-1.13147e-05
0.000168227
-1.85284e-05
-2.57337e-05
0.000197552
6.11185e-06
-2.47035e-05
1.6047e-05
-3.66069e-05
2.47327e-05
-2.79593e-05
3.23557e-05
-3.28885e-05
4.18146e-05
-2.88069e-05
4.89123e-05
-3.18943e-05
5.60114e-05
-3.47718e-05
6.26598e-05
-3.95568e-05
6.80901e-05
-4.48916e-05
7.24983e-05
-5.20639e-05
7.21545e-05
-5.77669e-05
6.60833e-05
-6.58671e-05
6.2653e-05
-7.4712e-05
5.79946e-05
-5.89233e-05
6.17172e-05
-3.27825e-05
7.02423e-05
-2.41097e-05
7.94203e-05
-2.27631e-05
9.11523e-05
-2.32249e-05
0.000105612
-2.3923e-05
0.00012169
-2.92642e-05
0.00014105
-3.06754e-05
0.000160802
-3.82806e-05
-4.8873e-05
0.000183941
7.07614e-06
-4.44196e-05
1.45662e-05
-4.50983e-05
2.19383e-05
-4.67732e-05
2.88891e-05
-4.94364e-05
3.70228e-05
-5.22615e-05
4.39667e-05
-5.66822e-05
5.07896e-05
-6.16319e-05
5.63085e-05
-6.78229e-05
6.06399e-05
-7.44545e-05
6.23148e-05
-8.18253e-05
6.30215e-05
-8.87342e-05
6.23714e-05
-9.73371e-05
6.07135e-05
-9.10509e-05
5.99301e-05
-6.11158e-05
6.30751e-05
-3.59398e-05
6.99766e-05
-3.02929e-05
7.87386e-05
-3.14771e-05
8.96028e-05
-3.40898e-05
0.000102741
-3.70617e-05
0.000117175
-4.36984e-05
0.000133746
-4.72466e-05
0.000152232
-5.67663e-05
-6.85893e-05
0.000171948
6.53487e-06
-5.09547e-05
1.31725e-05
-5.17359e-05
1.96901e-05
-5.32911e-05
2.58191e-05
-5.55657e-05
3.20419e-05
-5.84862e-05
3.77047e-05
-6.23474e-05
4.30339e-05
-6.69647e-05
4.75764e-05
-7.23696e-05
5.15523e-05
-7.84372e-05
5.46391e-05
-8.49184e-05
5.66964e-05
-9.08003e-05
5.77681e-05
-9.84302e-05
5.71368e-05
-9.08272e-05
5.67629e-05
-6.13465e-05
6.07886e-05
-3.93525e-05
6.76106e-05
-3.63411e-05
7.59979e-05
-3.98351e-05
8.60365e-05
-4.41289e-05
9.78915e-05
-4.89171e-05
0.00011078
-5.65873e-05
0.000125529
-6.1995e-05
0.000142049
-7.32863e-05
-8.56742e-05
0.000159134
5.80103e-06
-5.6756e-05
1.15818e-05
-5.75171e-05
1.72353e-05
-5.8945e-05
2.27397e-05
-6.10703e-05
2.82072e-05
-6.3954e-05
3.33517e-05
-6.74919e-05
3.818e-05
-7.1793e-05
4.24602e-05
-7.66496e-05
4.60517e-05
-8.20284e-05
4.88117e-05
-8.76781e-05
5.10428e-05
-9.30322e-05
5.28956e-05
-0.000100291
5.24434e-05
-9.08727e-05
5.21604e-05
-6.15737e-05
5.66577e-05
-4.31834e-05
6.35963e-05
-4.25631e-05
7.15596e-05
-4.77871e-05
8.0798e-05
-5.33678e-05
9.14433e-05
-5.95627e-05
0.000102927
-6.8071e-05
0.000115954
-7.50216e-05
0.000130318
-8.76503e-05
-0.00010079
0.000145434
5.08383e-06
-6.18404e-05
1.01299e-05
-6.25637e-05
1.50925e-05
-6.39083e-05
1.99395e-05
-6.59179e-05
2.45816e-05
-6.85965e-05
2.90076e-05
-7.19182e-05
3.30647e-05
-7.58502e-05
3.67418e-05
-8.03267e-05
3.99673e-05
-8.52538e-05
4.27376e-05
-9.04483e-05
4.53138e-05
-9.56091e-05
4.76342e-05
-0.000102617
4.70332e-05
-9.08912e-05
4.69722e-05
-6.17482e-05
5.17038e-05
-4.72163e-05
5.85418e-05
-4.88567e-05
6.59566e-05
-5.51997e-05
7.43192e-05
-6.17309e-05
8.37647e-05
-6.90086e-05
9.38822e-05
-7.81885e-05
0.000105314
-8.64529e-05
0.000117734
-0.000100071
-0.000113824
0.000130771
4.40737e-06
-6.62485e-05
8.77348e-06
-6.69305e-05
1.30536e-05
-6.81891e-05
1.7214e-05
-7.00788e-05
2.12147e-05
-7.25977e-05
2.50058e-05
-7.57096e-05
2.85445e-05
-7.93891e-05
3.17844e-05
-8.35667e-05
3.4715e-05
-8.81844e-05
3.73888e-05
-9.31221e-05
3.99686e-05
-9.81896e-05
4.23089e-05
-0.00010496
4.11711e-05
-9.04951e-05
4.1513e-05
-6.20051e-05
4.62502e-05
-5.12521e-05
5.26597e-05
-5.49666e-05
5.94168e-05
-6.19571e-05
6.68518e-05
-6.91666e-05
7.50936e-05
-7.72508e-05
8.38682e-05
-8.69633e-05
9.37647e-05
-9.63491e-05
0.000104418
-0.000110724
-0.000124783
0.000115378
3.77053e-06
-7.00198e-05
7.50106e-06
-7.06618e-05
1.11473e-05
-7.1836e-05
1.46813e-05
-7.36136e-05
1.80721e-05
-7.5989e-05
2.12913e-05
-7.89292e-05
2.42999e-05
-8.2398e-05
2.7091e-05
-8.6358e-05
2.96708e-05
-9.07642e-05
3.20847e-05
-9.55361e-05
3.45e-05
-0.000100606
3.67233e-05
-0.000107185
3.49171e-05
-8.95321e-05
3.57289e-05
-6.23633e-05
4.02589e-05
-5.52024e-05
4.61835e-05
-6.07271e-05
5.21857e-05
-6.79601e-05
5.86424e-05
-7.5624e-05
6.56582e-05
-8.42674e-05
7.30599e-05
-9.43656e-05
8.14283e-05
-0.000104718
9.04458e-05
-0.000119742
-0.00013428
9.99428e-05
3.16619e-06
-7.31871e-05
6.29933e-06
-7.3796e-05
9.34286e-06
-7.48805e-05
1.2276e-05
-7.65476e-05
1.50949e-05
-7.88087e-05
1.77705e-05
-8.16055e-05
2.02808e-05
-8.4909e-05
2.26211e-05
-8.8699e-05
2.48106e-05
-9.29543e-05
2.68993e-05
-9.76254e-05
2.90395e-05
-0.000102747
3.09796e-05
-0.000109125
2.84196e-05
-8.78833e-05
2.94729e-05
-6.27504e-05
3.40398e-05
-5.92606e-05
3.92679e-05
-6.59186e-05
4.44673e-05
-7.31605e-05
4.99043e-05
-8.10623e-05
5.56582e-05
-9.00224e-05
6.16227e-05
-0.000100331
6.8448e-05
-0.000111544
7.5769e-05
-0.000127063
-0.000141879
8.33676e-05
2.50148e-06
-7.56899e-05
5.00976e-06
-7.63058e-05
7.51236e-06
-7.73847e-05
9.94322e-06
-7.898e-05
1.22454e-05
-8.11126e-05
1.4412e-05
-8.37737e-05
1.6429e-05
-8.69278e-05
1.8299e-05
-9.05709e-05
2.00421e-05
-9.46994e-05
2.17121e-05
-9.92976e-05
2.34658e-05
-0.000104503
2.49986e-05
-0.000110659
2.17107e-05
-8.55132e-05
2.30941e-05
-6.33656e-05
2.76131e-05
-6.33998e-05
3.2105e-05
-7.04073e-05
3.6468e-05
-7.75253e-05
4.08357e-05
-8.54315e-05
4.52725e-05
-9.4461e-05
4.97338e-05
-0.000104794
5.48984e-05
-0.00011671
5.98405e-05
-0.000132006
-0.000147135
6.502e-05
1.9064e-06
-7.75982e-05
3.80667e-06
-7.8208e-05
5.73872e-06
-7.93187e-05
7.67141e-06
-8.09148e-05
9.50313e-06
-8.29465e-05
1.11806e-05
-8.54537e-05
1.27106e-05
-8.84604e-05
1.40878e-05
-9.19511e-05
1.5325e-05
-9.59399e-05
1.64792e-05
-0.000100455
1.76914e-05
-0.000105719
1.8649e-05
-0.000111621
1.50248e-05
-8.26096e-05
1.68664e-05
-6.44583e-05
2.11486e-05
-6.74873e-05
2.49471e-05
-7.42074e-05
2.84369e-05
-8.10167e-05
3.17039e-05
-8.87007e-05
3.47727e-05
-9.75324e-05
3.77154e-05
-0.000107748
4.11666e-05
-0.000120209
4.31987e-05
-0.000134212
-0.000150195
4.09626e-05
1.52698e-06
-7.91741e-05
2.99593e-06
-7.97293e-05
4.38171e-06
-8.07637e-05
5.70028e-06
-8.23041e-05
6.98389e-06
-8.43186e-05
8.17809e-06
-8.67637e-05
9.23867e-06
-8.96782e-05
1.01362e-05
-9.30687e-05
1.08291e-05
-9.69467e-05
1.1286e-05
-0.000101362
1.14351e-05
-0.000106493
1.09874e-05
-0.000112034
8.34559e-06
-8.01396e-05
1.1015e-05
-6.65862e-05
1.50595e-05
-7.15261e-05
1.82314e-05
-7.74633e-05
2.09013e-05
-8.38597e-05
2.31258e-05
-9.13014e-05
2.47321e-05
-9.99659e-05
2.57392e-05
-0.000110504
2.64786e-05
-0.000124206
2.59488e-05
-0.00014008
-0.000165703
1.23596e-05
1.14464e-06
-8.39987e-05
2.26107e-06
-8.46381e-05
3.27928e-06
-8.5791e-05
4.16171e-06
-8.7525e-05
4.89247e-06
-8.98404e-05
5.52206e-06
-9.2767e-05
6.04415e-06
-9.62954e-05
6.41866e-06
-0.000100404
6.5295e-06
-0.000105046
6.17549e-06
-0.000110151
4.73193e-06
-0.000115468
1.1506e-06
-0.000119876
1.57357e-06
-8.34192e-05
6.31624e-06
-7.44384e-05
1.00098e-05
-7.89099e-05
1.2303e-05
-8.47446e-05
1.3835e-05
-9.23637e-05
1.46248e-05
-0.000102003
1.42035e-05
-0.00011357
1.21524e-05
-0.000127087
7.97583e-06
-0.000142108
4.13347e-06
-0.000160975
-0.00019117
2.83349e-06
5.48592e-07
-0.000115129
1.0415e-06
-0.000116009
1.46393e-06
-0.00011759
1.78474e-06
-0.00011994
1.98042e-06
-0.000123063
2.00618e-06
-0.000126984
1.84268e-06
-0.000131778
1.54272e-06
-0.000137579
1.12266e-06
-0.000144465
4.63189e-07
-0.000152444
-1.52401e-06
-0.000160408
-3.71017e-06
-0.000165046
-1.68621e-06
-0.000112445
2.99173e-06
-0.000109252
4.4961e-06
-0.000113477
4.36423e-06
-0.000121216
3.32442e-06
-0.00013226
1.88191e-06
-0.000147955
2.27054e-07
-0.000172019
-1.16323e-06
-0.000199919
-3.19374e-06
-0.000227761
-4.45946e-06
-0.000239582
-0.00017162
-5.60387e-05
-3.02574e-07
-0.00015773
-6.70748e-07
-0.000158798
-1.04365e-06
-0.000160778
-1.45473e-06
-0.000163719
-1.90847e-06
-0.000167625
-2.37188e-06
-0.000172521
-2.73045e-06
-0.000178391
-3.10214e-06
-0.000185127
-3.72205e-06
-0.000192354
-4.60608e-06
-0.000199378
-4.86581e-06
-0.000203067
-5.48845e-06
-0.000187882
-2.19153e-06
-0.000150446
-1.68402e-06
-0.000149457
-3.21901e-06
-0.000154607
-5.18063e-06
-0.000164243
-7.48561e-06
-0.000175526
-1.06162e-05
-0.00018408
-1.36228e-05
-0.000181935
-1.56213e-05
-0.000154878
-2.69866e-05
-0.000131484
-7.69317e-05
-8.98892e-05
9.93129e-06
-0.000162007
-1.58199e-06
-8.04309e-05
-3.42488e-06
-8.07107e-05
-5.38155e-06
-8.14153e-05
-7.63404e-06
-8.24515e-05
-1.03098e-05
-8.37873e-05
-1.34914e-05
-8.55233e-05
-1.72085e-05
-8.77081e-05
-2.13974e-05
-9.02195e-05
-2.56011e-05
-9.30006e-05
-2.91091e-05
-9.63526e-05
-2.60435e-05
-9.792e-05
-1.79449e-05
-9.72331e-05
-2.80124e-05
-8.00501e-05
-3.58867e-05
-7.4131e-05
-4.36207e-05
-7.32143e-05
-5.22175e-05
-7.47354e-05
-6.10875e-05
-7.90126e-05
-6.86587e-05
-8.56461e-05
-7.16718e-05
-9.56226e-05
-7.59998e-05
-0.000102297
-9.71857e-05
-8.74413e-05
-0.000142133
-3.04539e-05
4.65642e-05
-0.000166952
-2.1213e-06
-7.68132e-05
-3.94622e-06
-7.73967e-05
-5.93873e-06
-7.79917e-05
-8.12605e-06
-7.8914e-05
-1.06052e-05
-8.00641e-05
-1.35542e-05
-8.14628e-05
-1.72616e-05
-8.30422e-05
-2.20418e-05
-8.46278e-05
-2.8289e-05
-8.60849e-05
-3.69467e-05
-8.71629e-05
-4.75176e-05
-8.69739e-05
-6.13428e-05
-8.44038e-05
-6.38202e-05
-7.71274e-05
-6.28127e-05
-7.39986e-05
-6.25395e-05
-7.22301e-05
-6.42195e-05
-7.20982e-05
-6.94529e-05
-7.3204e-05
-7.96003e-05
-7.52219e-05
-9.66475e-05
-7.84705e-05
-0.000121103
-7.78102e-05
-0.000148314
-6.02209e-05
-0.000166003
-1.27583e-05
3.47075e-05
-0.000154103
-2.22324e-06
-7.45846e-05
-4.20025e-06
-7.54142e-05
-6.40091e-06
-7.5785e-05
-8.97057e-06
-7.63374e-05
-1.19486e-05
-7.7078e-05
-1.54928e-05
-7.79093e-05
-1.96681e-05
-7.88565e-05
-2.45705e-05
-7.97139e-05
-3.03428e-05
-8.02965e-05
-3.71191e-05
-8.03696e-05
-4.44152e-05
-7.96626e-05
-5.12606e-05
-7.75465e-05
-5.47323e-05
-7.36467e-05
-5.84215e-05
-7.0301e-05
-6.29978e-05
-6.76475e-05
-6.93024e-05
-6.57857e-05
-7.83561e-05
-6.41427e-05
-9.07645e-05
-6.28058e-05
-0.00010734
-6.189e-05
-0.000126875
-5.82738e-05
-0.000144818
-4.22753e-05
-0.000147944
-9.633e-06
1.8996e-05
-0.000132223
-2.46562e-06
-7.21137e-05
-4.94545e-06
-7.29288e-05
-7.5592e-06
-7.31654e-05
-1.03652e-05
-7.35251e-05
-1.34788e-05
-7.39574e-05
-1.69688e-05
-7.44115e-05
-2.09773e-05
-7.48396e-05
-2.55624e-05
-7.51195e-05
-3.07406e-05
-7.51075e-05
-3.64428e-05
-7.46542e-05
-4.25927e-05
-7.35e-05
-4.88469e-05
-7.12824e-05
-5.41429e-05
-6.8343e-05
-5.87062e-05
-6.57319e-05
-6.32638e-05
-6.30833e-05
-6.84799e-05
-6.05632e-05
-7.45149e-05
-5.81006e-05
-8.21789e-05
-5.51359e-05
-9.36761e-05
-5.03889e-05
-0.000109409
-4.25398e-05
-0.00012303
-2.86537e-05
-0.000124091
-8.56914e-06
9.73374e-06
-0.000114825
-2.48071e-06
-6.96287e-05
-5.00813e-06
-7.03969e-05
-7.66562e-06
-7.05033e-05
-1.05227e-05
-7.06631e-05
-1.36518e-05
-7.08229e-05
-1.71053e-05
-7.09523e-05
-2.09595e-05
-7.09794e-05
-2.52551e-05
-7.08176e-05
-2.99939e-05
-7.0361e-05
-3.51379e-05
-6.95017e-05
-4.05319e-05
-6.80979e-05
-4.57117e-05
-6.60958e-05
-5.03289e-05
-6.37209e-05
-5.49635e-05
-6.10927e-05
-5.98984e-05
-5.81447e-05
-6.56011e-05
-5.48558e-05
-7.25767e-05
-5.11201e-05
-8.09297e-05
-4.67783e-05
-8.96544e-05
-4.16613e-05
-9.76407e-05
-3.4553e-05
-0.000103008
-2.32861e-05
-0.000102972
-8.60556e-06
6.44093e-06
-9.96742e-05
-2.56384e-06
-6.70616e-05
-5.19959e-06
-6.77579e-05
-7.93663e-06
-6.77629e-05
-1.08332e-05
-6.77631e-05
-1.39277e-05
-6.77246e-05
-1.72667e-05
-6.76094e-05
-2.08811e-05
-6.7361e-05
-2.47822e-05
-6.69124e-05
-2.8956e-05
-6.61828e-05
-3.33756e-05
-6.50772e-05
-3.79553e-05
-6.35133e-05
-4.25511e-05
-6.1496e-05
-4.7167e-05
-5.91017e-05
-5.18562e-05
-5.64016e-05
-5.66261e-05
-5.33721e-05
-6.15256e-05
-4.99537e-05
-6.66452e-05
-4.59969e-05
-7.2111e-05
-4.13094e-05
-7.83345e-05
-3.54362e-05
-8.51312e-05
-2.7756e-05
-9.0152e-05
-1.82657e-05
-9.14955e-05
-7.26104e-06
3.5759e-06
-8.8629e-05
-2.56968e-06
-6.44897e-05
-5.2014e-06
-6.5124e-05
-7.9166e-06
-6.50454e-05
-1.07566e-05
-6.49207e-05
-1.3761e-05
-6.47177e-05
-1.69654e-05
-6.44022e-05
-2.03947e-05
-6.39291e-05
-2.40594e-05
-6.32451e-05
-2.79483e-05
-6.22911e-05
-3.20172e-05
-6.10053e-05
-3.61823e-05
-5.93453e-05
-4.03613e-05
-5.73145e-05
-4.4539e-05
-5.49226e-05
-4.87901e-05
-5.21487e-05
-5.31723e-05
-4.89891e-05
-5.77486e-05
-4.53752e-05
-6.2522e-05
-4.12212e-05
-6.74497e-05
-3.63796e-05
-7.22489e-05
-3.06359e-05
-7.62503e-05
-2.37548e-05
-7.88577e-05
-1.56585e-05
-7.94542e-05
-6.66574e-06
2.56971e-06
-7.8445e-05
-2.53353e-06
-6.19546e-05
-5.12765e-06
-6.25283e-05
-7.78909e-06
-6.23824e-05
-1.0551e-05
-6.21571e-05
-1.34429e-05
-6.1824e-05
-1.64885e-05
-6.13548e-05
-1.97021e-05
-6.07135e-05
-2.30868e-05
-5.98587e-05
-2.66307e-05
-5.87455e-05
-3.03028e-05
-5.73314e-05
-3.40585e-05
-5.55879e-05
-3.78659e-05
-5.35059e-05
-4.17119e-05
-5.10754e-05
-4.55866e-05
-4.82739e-05
-4.95005e-05
-4.50737e-05
-5.34448e-05
-4.143e-05
-5.73938e-05
-3.72705e-05
-6.12741e-05
-3.2498e-05
-6.49203e-05
-2.69891e-05
-6.80181e-05
-2.06574e-05
-7.01146e-05
-1.35627e-05
-7.07904e-05
-5.98952e-06
1.69848e-06
-6.99186e-05
-2.4689e-06
-5.94847e-05
-4.98897e-06
-6.00071e-05
-7.56316e-06
-5.9807e-05
-1.0217e-05
-5.95021e-05
-1.29721e-05
-5.90676e-05
-1.58452e-05
-5.84804e-05
-1.88456e-05
-5.77118e-05
-2.1973e-05
-5.67299e-05
-2.5216e-05
-5.55012e-05
-2.85513e-05
-5.39949e-05
-3.195e-05
-5.21881e-05
-3.53906e-05
-5.00642e-05
-3.886e-05
-4.76057e-05
-4.23423e-05
-4.47908e-05
-4.58218e-05
-4.15942e-05
-4.92714e-05
-3.79791e-05
-5.26411e-05
-3.38996e-05
-5.58384e-05
-2.92996e-05
-5.86992e-05
-2.4128e-05
-6.09878e-05
-1.83693e-05
-6.24595e-05
-1.20914e-05
-6.29548e-05
-5.49523e-06
1.18e-06
-6.24346e-05
-2.37422e-06
-5.71097e-05
-4.7932e-06
-5.75874e-05
-7.25444e-06
-5.7345e-05
-9.77765e-06
-5.6978e-05
-1.23789e-05
-5.64655e-05
-1.50696e-05
-5.57887e-05
-1.78553e-05
-5.49252e-05
-2.07341e-05
-5.385e-05
-2.36965e-05
-5.25378e-05
-2.67255e-05
-5.0965e-05
-2.98011e-05
-4.91116e-05
-3.29043e-05
-4.69605e-05
-3.60154e-05
-4.44939e-05
-3.9113e-05
-4.16933e-05
-4.21698e-05
-3.85363e-05
-4.51491e-05
-3.49992e-05
-4.79945e-05
-3.10531e-05
-5.06212e-05
-2.6672e-05
-5.29074e-05
-2.18416e-05
-5.46991e-05
-1.65779e-05
-5.58409e-05
-1.09503e-05
-5.62322e-05
-5.10358e-06
7.92841e-07
-5.5845e-05
-2.25833e-06
-5.48509e-05
-4.55498e-06
-5.52902e-05
-6.88411e-06
-5.50153e-05
-9.26073e-06
-5.46008e-05
-1.16964e-05
-5.40291e-05
-1.41988e-05
-5.32855e-05
-1.67711e-05
-5.23521e-05
-1.94105e-05
-5.12098e-05
-2.21088e-05
-4.98388e-05
-2.48525e-05
-4.82206e-05
-2.76254e-05
-4.63381e-05
-3.04092e-05
-4.4176e-05
-3.31838e-05
-4.17193e-05
-3.59238e-05
-3.89525e-05
-3.85994e-05
-3.58608e-05
-4.11695e-05
-3.2428e-05
-4.35806e-05
-2.8641e-05
-4.57602e-05
-2.44916e-05
-4.76163e-05
-1.99854e-05
-4.90441e-05
-1.51505e-05
-4.99463e-05
-1.00485e-05
-5.02634e-05
-4.78719e-06
5.07088e-07
-4.99765e-05
-2.12509e-06
-5.27254e-05
-4.28311e-06
-5.31317e-05
-6.46557e-06
-5.28324e-05
-8.68374e-06
-5.23821e-05
-1.09458e-05
-5.17665e-05
-1.32569e-05
-5.09738e-05
-1.56182e-05
-4.99902e-05
-1.80267e-05
-4.88008e-05
-2.04747e-05
-4.73901e-05
-2.2951e-05
-4.57437e-05
-2.54409e-05
-4.38476e-05
-2.79273e-05
-4.16894e-05
-3.03891e-05
-3.9257e-05
-3.28019e-05
-3.65398e-05
-3.51342e-05
-3.35276e-05
-3.73483e-05
-3.02133e-05
-3.93959e-05
-2.65924e-05
-4.12184e-05
-2.26685e-05
-4.2747e-05
-1.84565e-05
-4.39092e-05
-1.39885e-05
-4.46406e-05
-9.31761e-06
-4.49019e-05
-4.52565e-06
2.87201e-07
-4.4682e-05
-1.97889e-06
-5.07463e-05
-3.98592e-06
-5.11244e-05
-6.01095e-06
-5.08071e-05
-8.06231e-06
-5.03304e-05
-1.01456e-05
-4.96828e-05
-1.2264e-05
-4.8855e-05
-1.44174e-05
-4.78363e-05
-1.66024e-05
-4.66153e-05
-1.88119e-05
-4.51801e-05
-2.10358e-05
-4.35193e-05
-2.32608e-05
-4.16222e-05
-2.54704e-05
-3.94794e-05
-2.7645e-05
-3.70823e-05
-2.97604e-05
-3.44238e-05
-3.17884e-05
-3.14994e-05
-3.36941e-05
-2.83066e-05
-3.54371e-05
-2.48485e-05
-3.69704e-05
-2.11346e-05
-3.82426e-05
-1.71841e-05
-3.92024e-05
-1.30289e-05
-3.98055e-05
-8.71462e-06
-4.0026e-05
-4.30574e-06
1.16407e-07
-3.98544e-05
-1.8229e-06
-4.89231e-05
-3.66982e-06
-4.92773e-05
-5.52965e-06
-4.8947e-05
-7.40843e-06
-4.84514e-05
-9.30985e-06
-4.77811e-05
-1.12355e-05
-4.6929e-05
-1.31845e-05
-4.5887e-05
-1.51531e-05
-4.46463e-05
-1.71347e-05
-4.3198e-05
-1.91199e-05
-4.15336e-05
-2.10965e-05
-3.96452e-05
-2.30494e-05
-3.75262e-05
-2.49602e-05
-3.51711e-05
-2.68074e-05
-3.25766e-05
-2.85649e-05
-2.97412e-05
-3.02034e-05
-2.66676e-05
-3.16888e-05
-2.33624e-05
-3.2984e-05
-1.98386e-05
-3.40507e-05
-1.61173e-05
-3.48515e-05
-1.22282e-05
-3.53557e-05
-8.21079e-06
-3.5545e-05
-4.11612e-06
-1.87878e-08
-3.541e-05
-1.65983e-06
-4.72632e-05
-3.34e-06
-4.7597e-05
-5.02916e-06
-4.72577e-05
-6.73155e-06
-4.67488e-05
-8.44943e-06
-4.6063e-05
-1.01833e-05
-4.51949e-05
-1.19315e-05
-4.41384e-05
-1.36904e-05
-4.28871e-05
-1.54537e-05
-4.14344e-05
-1.72127e-05
-3.97743e-05
-1.89563e-05
-3.79013e-05
-2.06707e-05
-3.58114e-05
-2.23399e-05
-3.35019e-05
-2.39441e-05
-3.09719e-05
-2.54613e-05
-2.82237e-05
-2.68662e-05
-2.5262e-05
-2.81314e-05
-2.20965e-05
-2.92276e-05
-1.87418e-05
-3.01255e-05
-1.52191e-05
-3.07979e-05
-1.15559e-05
-3.12222e-05
-7.78662e-06
-3.13846e-05
-3.95407e-06
-1.16481e-07
-3.12863e-05
-1.49165e-06
-4.57714e-05
-3.00043e-06
-4.60881e-05
-4.51523e-06
-4.57427e-05
-6.03895e-06
-4.52249e-05
-7.57275e-06
-4.4529e-05
-9.11633e-06
-4.36511e-05
-1.06678e-05
-4.25868e-05
-1.22232e-05
-4.13314e-05
-1.37769e-05
-3.98804e-05
-1.53209e-05
-3.82299e-05
-1.68454e-05
-3.63766e-05
-1.83381e-05
-3.43185e-05
-1.97846e-05
-3.20551e-05
-2.11685e-05
-2.95881e-05
-2.24703e-05
-2.69212e-05
-2.36696e-05
-2.40621e-05
-2.4744e-05
-2.10214e-05
-2.56706e-05
-1.78147e-05
-2.64272e-05
-1.44623e-05
-2.69933e-05
-1.09898e-05
-2.73526e-05
-7.42751e-06
-2.74949e-05
-3.8115e-06
-1.89403e-07
-2.74222e-05
-1.31999e-06
-4.44514e-05
-2.65416e-06
-4.47538e-05
-3.99224e-06
-4.44046e-05
-5.33609e-06
-4.3881e-05
-6.68606e-06
-4.31789e-05
-8.04135e-06
-4.22957e-05
-9.39978e-06
-4.12282e-05
-1.07577e-05
-3.99733e-05
-1.21097e-05
-3.85282e-05
-1.34489e-05
-3.68905e-05
-1.47665e-05
-3.50588e-05
-1.60519e-05
-3.30329e-05
-1.72928e-05
-3.08141e-05
-1.84749e-05
-2.84056e-05
-1.95826e-05
-2.58133e-05
-2.05987e-05
-2.30455e-05
-2.15055e-05
-2.01141e-05
-2.22852e-05
-1.70346e-05
-2.29206e-05
-1.38267e-05
-2.33967e-05
-1.05137e-05
-2.37013e-05
-7.12302e-06
-2.38272e-05
-3.68593e-06
-2.40782e-07
-2.37754e-05
-1.14586e-06
-4.33054e-05
-2.30335e-06
-4.35963e-05
-3.46336e-06
-4.32445e-05
-4.62696e-06
-4.27173e-05
-5.79392e-06
-4.20118e-05
-6.96308e-06
-4.11264e-05
-8.13222e-06
-4.00589e-05
-9.29792e-06
-3.88074e-05
-1.04554e-05
-3.73705e-05
-1.15986e-05
-3.5747e-05
-1.272e-05
-3.39372e-05
-1.38106e-05
-3.19421e-05
-1.48599e-05
-2.97645e-05
-1.58564e-05
-2.74091e-05
-1.67869e-05
-2.48824e-05
-1.76379e-05
-2.21941e-05
-1.83952e-05
-1.93563e-05
-1.90451e-05
-1.63844e-05
-1.95748e-05
-1.3297e-05
-1.99727e-05
-1.01159e-05
-2.02303e-05
-6.86576e-06
-2.03417e-05
-3.57427e-06
-2.73589e-07
-2.03092e-05
-9.69654e-07
-4.23358e-05
-1.9494e-06
-4.26165e-05
-2.93075e-06
-4.22631e-05
-3.91429e-06
-4.17337e-05
-4.89939e-06
-4.10267e-05
-5.88465e-06
-4.0141e-05
-6.86796e-06
-3.90755e-05
-7.84624e-06