/*--------------------------------*- C++ -*----------------------------------*\
| =========                 |                                                 |
| \\      /  F ield         | OpenFOAM: The Open Source CFD Toolbox           |
|  \\    /   O peration     | Version:  2.4.0                                 |
|   \\  /    A nd           | Web:      www.OpenFOAM.org                      |
|    \\/     M anipulation  |                                                 |
\*---------------------------------------------------------------------------*/
FoamFile
{
    version     2.0;
    format      ascii;
    class       surfaceScalarField;
    location    "0.1";
    object      phi.water;
}
// * * * * * * * * * * * * * * * * * * * * * * * * * * * * * * * * * * * * * //

dimensions      [0 3 -1 0 0 0 0];

internalField   nonuniform List<scalar> 
4432
(
2.21309e-06
-2.21276e-06
4.48978e-06
-2.27636e-06
6.89693e-06
-2.4068e-06
9.50949e-06
-2.61224e-06
1.24142e-05
-2.90442e-06
1.57258e-05
-3.31138e-06
1.95577e-05
-3.83169e-06
2.4115e-05
-4.55724e-06
2.94809e-05
-5.36576e-06
3.66963e-05
-7.21543e-06
4.31933e-05
-6.49696e-06
5.39183e-05
-1.0725e-05
6.87613e-05
-1.48431e-05
8.4217e-05
-1.54534e-05
9.56653e-05
-1.14204e-05
0.000100683
-5.02883e-06
0.000101701
-2.37833e-06
0.000101999
-1.10461e-05
0.00010713
-2.68493e-05
0.000106637
-2.79608e-05
7.95625e-05
-1.01988e-05
2.76192e-05
2.04044e-05
2.34952e-05
2.19963e-06
-4.41197e-06
4.46212e-06
-4.53844e-06
6.85332e-06
-4.79757e-06
9.44692e-06
-5.20545e-06
1.23282e-05
-5.78532e-06
1.56113e-05
-6.5942e-06
1.94033e-05
-7.62346e-06
2.39281e-05
-9.08187e-06
2.93138e-05
-1.07513e-05
3.61655e-05
-1.4067e-05
4.32565e-05
-1.35879e-05
5.42018e-05
-2.16698e-05
6.8132e-05
-2.87724e-05
8.21403e-05
-2.94368e-05
9.37235e-05
-2.30081e-05
0.000100454
-1.25137e-05
0.000102141
-1.09935e-05
0.000106922
-2.36435e-05
0.000100187
-1.51606e-05
7.8548e-05
9.74823e-06
4.9003e-05
4.05678e-05
2.15389e-05
4.75666e-05
4.48138e-05
2.17135e-06
-6.58301e-06
4.40394e-06
-6.77069e-06
6.76179e-06
-7.15509e-06
9.3159e-06
-7.75924e-06
1.21489e-05
-8.61808e-06
1.53711e-05
-9.81613e-06
1.90895e-05
-1.13418e-05
2.35264e-05
-1.35187e-05
2.88744e-05
-1.60992e-05
3.5318e-05
-2.05102e-05
4.27759e-05
-2.10453e-05
5.37449e-05
-3.26364e-05
6.71719e-05
-4.21888e-05
7.97596e-05
-4.20016e-05
8.92419e-05
-3.30674e-05
9.39788e-05
-2.38776e-05
9.90732e-05
-3.1559e-05
9.54166e-05
-2.8805e-05
7.34476e-05
1.32648e-05
4.78658e-05
5.99756e-05
3.59992e-05
6.5369e-05
2.04996e-05
6.33847e-05
6.53124e-05
2.12943e-06
-8.71191e-06
4.31775e-06
-8.9585e-06
6.62637e-06
-9.46321e-06
9.12213e-06
-1.02545e-05
1.18838e-05
-1.13793e-05
1.50141e-05
-1.29461e-05
1.86258e-05
-1.49532e-05
2.2921e-05
-1.78136e-05
2.80907e-05
-2.12683e-05
3.42818e-05
-2.67001e-05
4.18699e-05
-2.86313e-05
5.27397e-05
-4.34979e-05
6.50955e-05
-5.45092e-05
7.59484e-05
-5.31192e-05
8.33973e-05
-4.42931e-05
8.93227e-05
-4.58125e-05
8.61363e-05
-4.30018e-05
6.99442e-05
-2.51755e-06
5.11895e-05
5.88235e-05
4.2846e-05
7.04897e-05
3.47811e-05
7.34689e-05
2.03764e-05
7.77887e-05
8.56866e-05
2.07436e-06
-1.0786e-05
4.20464e-06
-1.10885e-05
6.44906e-06
-1.17073e-05
8.86861e-06
-1.26738e-05
1.15365e-05
-1.40469e-05
1.4547e-05
-1.59564e-05
1.80149e-05
-1.84209e-05
2.21152e-05
-2.19137e-05
2.70152e-05
-2.61672e-05
3.28412e-05
-3.25226e-05
4.05435e-05
-3.63271e-05
5.11623e-05
-5.40998e-05
6.21961e-05
-6.55244e-05
7.03874e-05
-6.29312e-05
7.51305e-05
-6.23011e-05
7.6294e-05
-6.13656e-05
6.68824e-05
-3.0478e-05
5.13031e-05
4.18997e-05
4.47132e-05
6.72924e-05
4.14224e-05
7.37794e-05
3.5527e-05
7.93643e-05
2.27322e-05
9.05838e-05
0.00010842
2.00675e-06
-1.27919e-05
4.0659e-06
-1.3147e-05
6.23227e-06
-1.3873e-05
8.55923e-06
-1.5e-05
1.11119e-05
-1.65991e-05
1.39775e-05
-1.88216e-05
1.72634e-05
-2.17066e-05
2.1125e-05
-2.57748e-05
2.56654e-05
-3.0704e-05
3.11302e-05
-3.79788e-05
3.86776e-05
-4.38597e-05
4.85044e-05
-6.39096e-05
5.76814e-05
-7.52173e-05
6.1807e-05
-6.66015e-05
6.65542e-05
-7.90081e-05
6.00534e-05
-6.21005e-05
4.90777e-05
8.85479e-06
4.18675e-05
5.62058e-05
4.12503e-05
6.79128e-05
4.11826e-05
7.38464e-05
3.77301e-05
8.28172e-05
2.63437e-05
0.000101972
0.000134766
1.92668e-06
-1.47141e-05
3.90161e-06
-1.51192e-05
5.97633e-06
-1.59462e-05
8.19512e-06
-1.72186e-05
1.06132e-05
-1.90171e-05
1.33111e-05
-2.15194e-05
1.63787e-05
-2.47742e-05
1.99557e-05
-2.93511e-05
2.40836e-05
-3.48318e-05
2.91313e-05
-4.30335e-05
3.61108e-05
-5.0847e-05
4.45421e-05
-7.23341e-05
5.09159e-05
-7.37949e-05
5.76134e-05
-4.06613e-05
5.24012e-05
-5.8485e-05
4.49383e-05
-3.93283e-05
3.75608e-05
3.46311e-05
3.67633e-05
5.72128e-05
4.00952e-05
6.45794e-05
4.30548e-05
7.08863e-05
4.12411e-05
8.46319e-05
3.35557e-05
0.00010966
0.000168324
1.82956e-06
-1.65199e-05
3.70195e-06
-1.69586e-05
5.66622e-06
-1.78539e-05
7.75713e-06
-1.9184e-05
1.00236e-05
-2.09292e-05
1.25324e-05
-2.30067e-05
1.53432e-05
-2.44545e-05
1.85836e-05
-2.37676e-05
2.23056e-05
-1.66437e-05
2.68074e-05
-1.50024e-05
3.29652e-05
-1.87234e-05
4.23497e-05
-3.12427e-05
4.39349e-05
-4.71882e-05
5.67804e-05
-5.38878e-05
3.54693e-05
-7.19866e-05
3.17244e-05
-1.48107e-05
3.00015e-05
4.05831e-05
3.45366e-05
5.26687e-05
4.04049e-05
5.87104e-05
4.61733e-05
6.51178e-05
4.73896e-05
8.34163e-05
4.39594e-05
0.000113091
0.000212284
-1.08374e-05
1.08428e-05
-1.44571e-05
3.62947e-06
-1.0892e-05
-3.552e-06
-4.52644e-06
-6.35857e-06
4.6608e-06
-9.18889e-06
2.24183e-05
-1.7762e-05
4.20292e-05
-1.96446e-05
5.29375e-05
-1.11293e-05
5.35625e-05
-6.31769e-07
4.93696e-05
1.35694e-06
4.27061e-05
6.2805e-06
3.57484e-05
6.95209e-06
2.93564e-05
6.38723e-06
2.35721e-05
5.7803e-06
1.82927e-05
5.27594e-06
1.33986e-05
4.89108e-06
8.77961e-06
4.6162e-06
4.33867e-06
4.43829e-06
4.33676e-06
-1.21503e-05
2.29992e-05
-1.59392e-05
7.42448e-06
-1.13203e-05
-8.16345e-06
-4.35976e-06
-1.33147e-05
4.93137e-06
-1.85289e-05
2.35789e-05
-3.64284e-05
4.55047e-05
-4.23825e-05
5.67856e-05
-3.8133e-05
5.85133e-05
-4.00875e-05
5.52841e-05
-3.14453e-05
4.45113e-05
1.24314e-05
3.69478e-05
1.42824e-05
3.03237e-05
1.30046e-05
2.43538e-05
1.17449e-05
1.89054e-05
1.07199e-05
1.38512e-05
9.94142e-06
9.07765e-06
9.38629e-06
4.48168e-06
9.03113e-06
8.81562e-06
-1.45213e-05
3.7527e-05
-1.89469e-05
1.18507e-05
-1.18537e-05
-1.53579e-05
-3.09916e-06
-2.21774e-05
7.52407e-06
-2.94482e-05
2.82288e-05
-5.89575e-05
6.32635e-05
-9.5501e-05
0.000104065
-0.000137966
0.000111467
-0.000104568
7.60728e-05
-2.40633e-05
4.48763e-05
2.22037e-05
3.68297e-05
2.19469e-05
3.01675e-05
1.9662e-05
2.42203e-05
1.76888e-05
1.88029e-05
1.61343e-05
1.37779e-05
1.49637e-05
9.03051e-06
1.41312e-05
4.4592e-06
1.36001e-05
1.32734e-05
-1.89059e-05
5.59365e-05
-2.16244e-05
1.30657e-05
-6.88931e-06
-5.205e-05
1.05422e-05
-6.39221e-05
3.04254e-05
-7.66883e-05
7.72865e-05
-0.000117369
0.000133649
-0.000166568
0.000155294
-0.000170656
0.000119665
-8.28498e-05
5.5922e-05
2.74793e-05
4.40564e-05
3.26822e-05
3.64106e-05
2.95667e-05
2.98207e-05
2.62461e-05
2.39452e-05
2.35592e-05
1.8595e-05
2.148e-05
1.36297e-05
1.99251e-05
8.9355e-06
1.8822e-05
4.41334e-06
1.81192e-05
1.76837e-05
-1.92293e-05
7.53698e-05
2.18829e-05
-5.86951e-05
6.06855e-05
-0.000101317
8.74919e-05
-0.000117888
0.000118986
-0.00014094
0.000155575
-0.000176089
0.000175737
-0.000201522
0.000148614
-0.000140677
7.55879e-05
1.96327e-05
5.28057e-05
4.62233e-05
4.32965e-05
4.22059e-05
3.58106e-05
3.70507e-05
2.93406e-05
3.27135e-05
2.35722e-05
2.93252e-05
1.83154e-05
2.67347e-05
1.34311e-05
2.48074e-05
8.80837e-06
2.34429e-05
4.35153e-06
2.25742e-05
2.20345e-05
4.43979e-05
7.29483e-05
7.58127e-05
-7.97666e-05
8.88934e-05
-0.000104562
0.000106332
-0.000117815
0.000138698
-0.000141811
0.000173228
-0.000178655
0.000177386
-0.000195434
0.000109869
-4.63166e-05
6.48052e-05
6.52234e-05
5.12765e-05
5.9623e-05
4.23041e-05
5.11782e-05
3.50338e-05
4.43179e-05
2.87339e-05
3.90095e-05
2.31069e-05
3.49483e-05
1.79685e-05
3.18693e-05
1.31853e-05
2.95873e-05
8.65114e-06
2.7974e-05
4.27511e-06
2.69475e-05
2.63066e-05
6.72781e-05
-5.07717e-05
8.16954e-05
-8.0665e-05
8.61454e-05
-0.000104326
0.000100675
-0.000112857
0.000129896
-0.000131707
0.000158382
-0.000177131
0.000149153
-0.000157819
8.36658e-05
5.41939e-05
6.07e-05
8.39353e-05
4.94325e-05
7.08392e-05
4.10534e-05
5.95582e-05
3.40851e-05
5.1284e-05
2.80065e-05
4.50848e-05
2.2554e-05
4.03973e-05
1.75581e-05
3.68618e-05
1.28949e-05
3.42473e-05
8.46545e-06
3.24004e-05
4.18457e-06
3.12253e-05
3.04895e-05
9.25353e-05
-4.05846e-05
9.25483e-05
-8.24844e-05
9.55053e-05
-0.000108627
0.000104136
-0.000122122
0.000122268
-0.000143275
0.000145492
-0.000174814
0.000124316
-0.000134806
7.14682e-05
9.24079e-05
5.66762e-05
9.77405e-05
4.72479e-05
8.02507e-05
3.95585e-05
6.72483e-05
3.29785e-05
5.78631e-05
2.71694e-05
5.08923e-05
2.19216e-05
4.56432e-05
1.70899e-05
4.16917e-05
1.25639e-05
3.87714e-05
8.25398e-06
3.67085e-05
4.08182e-06
3.53961e-05
3.45696e-05
3.50398e-06
-1.65007e-06
7.09187e-06
-6.69573e-07
1.08825e-05
1.47544e-06
1.49179e-05
2.33075e-06
1.92996e-05
1.55444e-06
2.42267e-05
-4.35336e-07
2.97282e-05
-3.73995e-06
3.67791e-05
-8.92693e-06
4.74075e-05
-1.45962e-05
5.87088e-05
-2.32416e-05
7.1492e-05
-3.30167e-05
8.78776e-05
-5.42482e-05
0.000103894
-6.84378e-05
8.38468e-05
-9.13324e-05
4.51883e-05
-7.49274e-05
4.34361e-05
6.55163e-06
5.6838e-05
2.78263e-05
7.41155e-05
3.53903e-05
9.02978e-05
4.25274e-05
0.000110424
4.49917e-05
0.000129807
6.40333e-05
0.000180404
6.24936e-05
0.000106335
0.000286353
3.54874e-06
5.65274e-06
7.28505e-06
5.33664e-06
1.12905e-05
4.75329e-06
1.5319e-05
3.97101e-06
1.92374e-05
1.66726e-06
2.3837e-05
-1.74425e-06
2.86158e-05
-5.84404e-06
3.41773e-05
-1.16694e-05
4.02634e-05
-1.86234e-05
4.57899e-05
-3.00229e-05
5.01431e-05
-4.498e-05
6.07918e-05
-8.20227e-05
5.76736e-05
-0.000103055
5.04097e-05
-9.20726e-05
2.6032e-05
-7.01831e-05
4.45189e-05
-4.01491e-06
6.1931e-05
1.06438e-05
7.98984e-05
1.74168e-05
9.81016e-05
2.43226e-05
0.000119908
2.3185e-05
0.0001472
3.67404e-05
0.000184399
2.52934e-05
5.04439e-05
0.000240288
3.31014e-06
6.51648e-07
6.89137e-06
-1.97988e-07
1.08584e-05
-2.37804e-06
1.50194e-05
-5.07143e-06
1.77249e-05
-7.46596e-06
2.0716e-05
-1.24126e-05
2.29839e-05
-1.76262e-05
2.53345e-05
-2.63109e-05
2.95964e-05
-3.8274e-05
3.71589e-05
-5.59457e-05
4.90485e-05
-7.7229e-05
5.56688e-05
-0.000104452
5.16931e-05
-0.000105011
4.74415e-05
-8.1084e-05
2.9124e-05
-5.96863e-05
5.27411e-05
-1.94463e-05
7.03575e-05
-3.24817e-06
8.60507e-05
1.73034e-06
0.00010385
6.52187e-06
0.000122822
4.21084e-06
0.000147572
1.19891e-05
0.000169858
3.00627e-06
3.59301e-06
0.000216707
3.61369e-06
-2.71473e-05
5.13239e-06
-2.77466e-05
8.90936e-06
-3.03703e-05
1.29451e-05
-3.32546e-05
1.76797e-05
-3.52994e-05
2.46748e-05
-4.16387e-05
3.32295e-05
-4.70762e-05
4.34498e-05
-5.52834e-05
5.4281e-05
-6.45658e-05
6.36676e-05
-7.63315e-05
6.86112e-05
-8.84224e-05
6.51152e-05
-0.000103534
5.85764e-05
-9.85341e-05
5.69762e-05
-7.57774e-05
4.81484e-05
-5.72487e-05
3.75281e-05
-3.44041e-05
7.67463e-05
-1.3895e-05
8.99932e-05
-1.14927e-05
0.000105985
-9.46298e-06
0.000123386
-1.31861e-05
0.000146691
-1.13152e-05
0.000168227
-1.85285e-05
-2.57338e-05
0.000197552
8.61352e-06
-3.73466e-05
1.84223e-05
-3.76114e-05
2.65751e-05
-3.94038e-05
3.55048e-05
-4.24894e-05
4.35702e-05
-4.41309e-05
5.11533e-05
-4.97437e-05
5.847e-05
-5.48143e-05
6.52994e-05
-6.23116e-05
7.07887e-05
-7.01305e-05
7.46234e-05
-8.01583e-05
7.42493e-05
-8.80354e-05
6.88874e-05
-9.7994e-05
6.31744e-05
-9.40898e-05
6.0253e-05
-7.25285e-05
5.6209e-05
-5.76908e-05
4.1343e-05
-4.42142e-05
7.92395e-05
-2.30488e-05
9.11478e-05
-2.32223e-05
0.000105609
-2.39207e-05
0.000121689
-2.92633e-05
0.00014105
-3.0675e-05
0.000160802
-3.82804e-05
-4.88729e-05
0.000183941
7.07611e-06
-4.44227e-05
1.45658e-05
-4.51011e-05
2.1938e-05
-4.67761e-05
2.88877e-05
-4.94391e-05
3.70225e-05
-5.22656e-05
4.39657e-05
-5.66868e-05
5.07893e-05
-6.16378e-05
5.6307e-05
-6.78291e-05
6.06398e-05
-7.44632e-05
6.23146e-05
-8.18329e-05
6.30282e-05
-8.87425e-05
6.249e-05
-9.73503e-05
5.94559e-05
-9.28455e-05
5.78382e-05
-7.26123e-05
5.48495e-05
-6.11658e-05
4.04904e-05
-4.71951e-05
7.8549e-05
-3.16402e-05
8.9601e-05
-3.40897e-05
0.000102741
-3.70614e-05
0.000117175
-4.36982e-05
0.000133746
-4.72465e-05
0.000152232
-5.67662e-05
-6.85893e-05
0.000171948
6.53479e-06
-5.09575e-05
1.31724e-05
-5.17387e-05
1.969e-05
-5.32937e-05
2.5819e-05
-5.55681e-05
3.20419e-05
-5.84885e-05
3.77046e-05
-6.23495e-05
4.30335e-05
-6.69667e-05
4.75757e-05
-7.23714e-05
5.15512e-05
-7.84386e-05
5.46376e-05
-8.49194e-05
5.67014e-05
-9.08007e-05
5.78725e-05
-9.8434e-05
5.57282e-05
-9.29055e-05
5.43397e-05
-7.34908e-05
5.04394e-05
-6.34209e-05
3.83853e-05
-4.72778e-05
7.59108e-05
-3.98827e-05
8.60351e-05
-4.4128e-05
9.78914e-05
-4.8917e-05
0.00011078
-5.65873e-05
0.000125529
-6.1995e-05
0.000142049
-7.32863e-05
-8.56742e-05
0.000159134
5.80098e-06
-5.67585e-05
1.15818e-05
-5.75195e-05
1.72354e-05
-5.89473e-05
2.27398e-05
-6.10725e-05
2.82074e-05
-6.39561e-05
3.33517e-05
-6.74939e-05
3.81799e-05
-7.17949e-05
4.24598e-05
-7.66513e-05
4.60509e-05
-8.20298e-05
4.88107e-05
-8.76791e-05
5.10476e-05
-9.30327e-05
5.29864e-05
-0.000100295
5.09652e-05
-9.33892e-05
4.97468e-05
-7.49062e-05
4.31721e-05
-6.65911e-05
3.47965e-05
-4.79197e-05
7.15332e-05
-4.77937e-05
8.0798e-05
-5.33678e-05
9.14433e-05
-5.95627e-05
0.000102927
-6.8071e-05
0.000115954
-7.50216e-05
0.000130318
-8.76503e-05
-0.00010079
0.000145434
5.08384e-06
-6.18423e-05
1.01299e-05
-6.25656e-05
1.50927e-05
-6.39101e-05
1.99398e-05
-6.59196e-05
2.45819e-05
-6.85982e-05
2.90078e-05
-7.19198e-05
3.30647e-05
-7.58518e-05
3.67416e-05
-8.03282e-05
3.99668e-05
-8.52551e-05
4.2737e-05
-9.04493e-05
4.53182e-05
-9.56096e-05
4.77112e-05
-0.000102621
4.55517e-05
-9.40048e-05
4.46355e-05
-7.64673e-05
3.52862e-05
-6.95373e-05
3.58603e-05
-4.92798e-05
6.59505e-05
-5.51993e-05
7.43192e-05
-6.17309e-05
8.37647e-05
-6.90086e-05
9.38822e-05
-7.81885e-05
0.000105314
-8.64529e-05
0.000117734
-0.000100071
-0.000113824
0.000130771
4.40741e-06
-6.62497e-05
8.77362e-06
-6.69318e-05
1.30539e-05
-6.81903e-05
1.72143e-05
-7.00801e-05
2.12151e-05
-7.25989e-05
2.50061e-05
-7.57109e-05
2.85447e-05
-7.93904e-05
3.17845e-05
-8.35679e-05
3.47148e-05
-8.81854e-05
3.73886e-05
-9.3123e-05
3.99727e-05
-9.81901e-05
4.23768e-05
-0.000104964
3.97766e-05
-9.44345e-05
3.92525e-05
-7.83527e-05
2.93227e-05
-7.16492e-05
4.21871e-05
-5.32512e-05
5.94156e-05
-6.19567e-05
6.68518e-05
-6.91666e-05
7.50936e-05
-7.72508e-05
8.38682e-05
-8.69633e-05
9.37647e-05
-9.63491e-05
0.000104418
-0.000110724
-0.000124783
0.000115378
3.7706e-06
-7.00203e-05
7.50121e-06
-7.06624e-05
1.11475e-05
-7.18366e-05
1.46816e-05
-7.36142e-05
1.80724e-05
-7.59897e-05
2.12915e-05
-7.893e-05
2.43001e-05
-8.23989e-05
2.70911e-05
-8.6359e-05
2.96709e-05
-9.07652e-05
3.20848e-05
-9.55369e-05
3.45039e-05
-0.000100606
3.67849e-05
-0.000107188
3.3741e-05
-9.4589e-05
3.34853e-05
-8.03298e-05
1.88963e-05
-6.96353e-05
4.42604e-05
-5.98294e-05
5.21856e-05
-6.796e-05
5.86424e-05
-7.5624e-05
6.56582e-05
-8.42674e-05
7.30599e-05
-9.43656e-05
8.14283e-05
-0.000104718
9.04458e-05
-0.000119742
-0.00013428
9.99428e-05
3.16626e-06
-7.31865e-05
6.29947e-06
-7.37955e-05
9.34304e-06
-7.48802e-05
1.22762e-05
-7.65473e-05
1.50951e-05
-7.88086e-05
1.77706e-05
-8.16055e-05
2.02809e-05
-8.49092e-05
2.26213e-05
-8.86993e-05
2.48109e-05
-9.29547e-05
2.68997e-05
-9.76257e-05
2.90431e-05
-0.000102747
3.10363e-05
-0.000109128
2.75962e-05
-9.44312e-05
2.61694e-05
-8.20727e-05
1.75262e-05
-6.29907e-05
3.91484e-05
-6.58967e-05
4.44673e-05
-7.31605e-05
4.99043e-05
-8.10623e-05
5.56582e-05
-9.00224e-05
6.16227e-05
-0.000100331
6.8448e-05
-0.000111544
7.5769e-05
-0.000127063
-0.000141879
8.33676e-05
2.50144e-06
-7.5688e-05
5.00978e-06
-7.63038e-05
7.5124e-06
-7.73827e-05
9.94326e-06
-7.89781e-05
1.22455e-05
-8.11108e-05
1.44121e-05
-8.37721e-05
1.64291e-05
-8.69262e-05
1.82992e-05
-9.05694e-05
2.00424e-05
-9.46979e-05
2.17127e-05
-9.9296e-05
2.3469e-05
-0.000104501
2.5048e-05
-0.00011066
2.13342e-05
-9.40776e-05
1.80596e-05
-8.36007e-05
1.53628e-05
-5.56479e-05
3.20961e-05
-7.04072e-05
3.64679e-05
-7.75252e-05
4.08357e-05
-8.54315e-05
4.52725e-05
-9.4461e-05
4.97338e-05
-0.000104794
5.48984e-05
-0.00011671
5.98405e-05
-0.000132006
-0.000147135
6.502e-05
1.90636e-06
-7.75943e-05
3.80661e-06
-7.8204e-05
5.73865e-06
-7.93147e-05
7.67135e-06
-8.09108e-05
9.50305e-06
-8.29424e-05
1.11806e-05
-8.54495e-05
1.27105e-05
-8.84561e-05
1.4088e-05
-9.19467e-05
1.53255e-05
-9.59355e-05
1.648e-05
-0.000100451
1.7694e-05
-0.000105714
1.86853e-05
-0.000111633
1.50792e-05
-9.39616e-05
1.07663e-05
-8.47375e-05
1.46011e-05
-5.73162e-05
2.49461e-05
-7.42135e-05
2.84369e-05
-8.10167e-05
3.17039e-05
-8.87007e-05
3.47727e-05
-9.75324e-05
3.77154e-05
-0.000107748
4.11666e-05
-0.000120209
4.31987e-05
-0.000134212
-0.000150195
4.09626e-05
1.52697e-06
-7.91705e-05
2.99591e-06
-7.97257e-05
4.38168e-06
-8.07603e-05
5.70025e-06
-8.23009e-05
6.98386e-06
-8.43158e-05
8.17808e-06
-8.67615e-05
9.23872e-06
-8.96771e-05
1.01364e-05
-9.30692e-05
1.08295e-05
-9.695e-05
1.12867e-05
-0.00010137
1.14402e-05
-0.000106506
1.09946e-05
-0.000112142
8.69263e-06
-9.45237e-05
5.17348e-06
-7.33663e-05
1.45317e-05
-7.19585e-05
1.82255e-05
-7.746e-05
2.09012e-05
-8.38597e-05
2.31258e-05
-9.13014e-05
2.47321e-05
-9.99659e-05
2.57392e-05
-0.000110504
2.64786e-05
-0.000124206
2.59488e-05
-0.00014008
-0.000165703
1.23596e-05
1.14465e-06
-8.41166e-05
2.26107e-06
-8.47599e-05
3.27924e-06
-8.59203e-05
4.1616e-06
-8.76659e-05
4.89223e-06
-8.99974e-05
5.52159e-06
-9.29452e-05
6.04329e-06
-9.65007e-05
6.41708e-06
-0.000100643
6.52678e-06
-0.000105326
6.17164e-06
-0.000110483
4.75756e-06
-0.000115856
1.40913e-06
-0.000121083
2.09803e-06
-0.000105089
3.32724e-06
-5.88925e-05
9.50357e-06
-7.5173e-05
1.23028e-05
-8.47431e-05
1.3835e-05
-9.23637e-05
1.46248e-05
-0.000102003
1.42035e-05
-0.00011357
1.21524e-05
-0.000127087
7.97583e-06
-0.000142108
4.13347e-06
-0.000160975
-0.00019117
2.83349e-06
5.48491e-07
-0.000116764
1.04127e-06
-0.000117678
1.46376e-06
-0.000119325
1.78477e-06
-0.000121776
1.98068e-06
-0.000125041
2.00612e-06
-0.000129158
1.8399e-06
-0.000134216
1.5313e-06
-0.000140374
1.09335e-06
-0.000147751
4.03532e-07
-0.000156405
-1.61222e-06
-0.000165259
-4.26353e-06
-0.000175114
-3.07269e-06
-0.00014737
2.01724e-06
-8.80515e-05
4.49627e-06
-0.00011329
4.36423e-06
-0.000121216
3.32442e-06
-0.00013226
1.88191e-06
-0.000147955
2.27054e-07
-0.000172019
-1.16323e-06
-0.000199919
-3.19374e-06
-0.000227761
-4.45946e-06
-0.000239582
-0.00017162
-5.60387e-05
-3.44552e-07
-0.000169487
-7.54072e-07
-0.000170817
-1.17671e-06
-0.000173264
-1.65265e-06
-0.00017694
-2.19385e-06
-0.00018191
-2.77995e-06
-0.000188285
-3.30011e-06
-0.000196205
-3.86487e-06
-0.00020582
-4.64948e-06
-0.000217159
-5.56945e-06
-0.000229879
-4.33476e-06
-0.000242274
-2.69616e-06
-0.000250473
-1.31797e-06
-0.000165552
-1.97133e-06
-0.000132709
-3.21896e-06
-0.000154604
-5.18063e-06
-0.000164243
-7.48561e-06
-0.000175526
-1.06162e-05
-0.00018408
-1.36228e-05
-0.000181935
-1.56213e-05
-0.000154878
-2.69866e-05
-0.000131484
-7.69317e-05
-8.98892e-05
9.93129e-06
-0.000162007
3.34339e-07
-8.79828e-05
-1.49364e-08
-8.86024e-05
-1.70362e-08
-8.97532e-05
-4.78214e-08
-9.14966e-05
-1.10178e-07
-9.38305e-05
-2.23703e-07
-9.68559e-05
-4.20664e-07
-0.00010068
-7.6048e-07
-0.000105389
-1.34723e-06
-0.000111098
-2.11158e-06
-0.000117642
-3.57597e-06
-0.000124743
-3.00142e-06
-0.000129812
-7.8283e-06
-7.6801e-05
-1.44006e-05
-4.57124e-05
-4.36201e-05
-7.32133e-05
-5.22175e-05
-7.47354e-05
-6.10875e-05
-7.90126e-05
-6.86587e-05
-8.56461e-05
-7.16718e-05
-9.56226e-05
-7.59998e-05
-0.000102297
-9.71857e-05
-8.74413e-05
-0.000142133
-3.04539e-05
4.65642e-05
-0.000166952
-1.53984e-06
-7.71505e-05
-3.90902e-06
-7.77289e-05
-5.89062e-06
-7.82932e-05
-8.07276e-06
-7.91759e-05
-1.05521e-05
-8.02817e-05
-1.35056e-05
-8.16359e-05
-1.72199e-05
-8.31742e-05
-2.2008e-05
-8.47245e-05
-2.82635e-05
-8.61534e-05
-3.69509e-05
-8.72113e-05
-4.77286e-05
-8.70566e-05
-6.15331e-05
-8.48039e-05
-6.38245e-05
-7.82724e-05
-6.27984e-05
-7.42844e-05
-6.25395e-05
-7.22301e-05
-6.42195e-05
-7.20982e-05
-6.94529e-05
-7.3204e-05
-7.96003e-05
-7.52219e-05
-9.66475e-05
-7.84705e-05
-0.000121103
-7.78102e-05
-0.000148314
-6.02209e-05
-0.000166003
-1.27583e-05
3.47075e-05
-0.000154103
-2.22324e-06
-7.45846e-05
-4.20025e-06
-7.54142e-05
-6.40091e-06
-7.5785e-05
-8.97057e-06
-7.63374e-05
-1.19486e-05
-7.7078e-05
-1.54928e-05
-7.79093e-05
-1.96681e-05
-7.88565e-05
-2.45705e-05
-7.97139e-05
-3.03428e-05
-8.02965e-05
-3.71191e-05
-8.03696e-05
-4.44152e-05
-7.96626e-05
-5.12606e-05
-7.75465e-05
-5.47323e-05
-7.36467e-05
-5.84215e-05
-7.0301e-05
-6.29978e-05
-6.76475e-05
-6.93024e-05
-6.57857e-05
-7.83561e-05
-6.41427e-05
-9.07645e-05
-6.28058e-05
-0.00010734
-6.189e-05
-0.000126875
-5.82738e-05
-0.000144818
-4.22753e-05
-0.000147944
-9.633e-06
1.8996e-05
-0.000132223
-2.46562e-06
-7.21137e-05
-4.94545e-06
-7.29288e-05
-7.5592e-06
-7.31654e-05
-1.03652e-05
-7.35251e-05
-1.34788e-05
-7.39574e-05
-1.69688e-05
-7.44115e-05
-2.09773e-05
-7.48396e-05
-2.55624e-05
-7.51195e-05
-3.07406e-05
-7.51075e-05
-3.64428e-05
-7.46542e-05
-4.25927e-05
-7.35e-05
-4.88469e-05
-7.12824e-05
-5.41429e-05
-6.8343e-05
-5.87062e-05
-6.57319e-05
-6.32638e-05
-6.30833e-05
-6.84799e-05
-6.05632e-05
-7.45149e-05
-5.81006e-05
-8.21789e-05
-5.51359e-05
-9.36761e-05
-5.03889e-05
-0.000109409
-4.25398e-05
-0.00012303
-2.86537e-05
-0.000124091
-8.56914e-06
9.73374e-06
-0.000114825
-2.48071e-06
-6.96287e-05
-5.00813e-06
-7.03969e-05
-7.66562e-06
-7.05033e-05
-1.05227e-05
-7.06631e-05
-1.36518e-05
-7.08229e-05
-1.71053e-05
-7.09523e-05
-2.09595e-05
-7.09794e-05
-2.52551e-05
-7.08176e-05
-2.99939e-05
-7.0361e-05
-3.51379e-05
-6.95017e-05
-4.05319e-05
-6.80979e-05
-4.57117e-05
-6.60958e-05
-5.03289e-05
-6.37209e-05
-5.49635e-05
-6.10927e-05
-5.98984e-05
-5.81447e-05
-6.56011e-05
-5.48558e-05
-7.25767e-05
-5.11201e-05
-8.09297e-05
-4.67783e-05
-8.96544e-05
-4.16613e-05
-9.76407e-05
-3.4553e-05
-0.000103008
-2.32861e-05
-0.000102972
-8.60556e-06
6.44093e-06
-9.96742e-05
-2.56384e-06
-6.70616e-05
-5.19959e-06
-6.77579e-05
-7.93663e-06
-6.77629e-05
-1.08332e-05
-6.77631e-05
-1.39277e-05
-6.77246e-05
-1.72667e-05
-6.76094e-05
-2.08811e-05
-6.7361e-05
-2.47822e-05
-6.69124e-05
-2.8956e-05
-6.61828e-05
-3.33756e-05
-6.50772e-05
-3.79553e-05
-6.35133e-05
-4.25511e-05
-6.1496e-05
-4.7167e-05
-5.91017e-05
-5.18562e-05
-5.64016e-05
-5.66261e-05
-5.33721e-05
-6.15256e-05
-4.99537e-05
-6.66452e-05
-4.59969e-05
-7.2111e-05
-4.13094e-05
-7.83345e-05
-3.54362e-05
-8.51312e-05
-2.7756e-05
-9.0152e-05
-1.82657e-05
-9.14955e-05
-7.26104e-06
3.5759e-06
-8.8629e-05
-2.56968e-06
-6.44897e-05
-5.2014e-06
-6.5124e-05
-7.9166e-06
-6.50454e-05
-1.07566e-05
-6.49207e-05
-1.3761e-05
-6.47177e-05
-1.69654e-05
-6.44022e-05
-2.03947e-05
-6.39291e-05
-2.40594e-05
-6.32451e-05
-2.79483e-05
-6.22911e-05
-3.20172e-05
-6.10053e-05
-3.61823e-05
-5.93453e-05
-4.03613e-05
-5.73145e-05
-4.4539e-05
-5.49226e-05
-4.87901e-05
-5.21487e-05
-5.31723e-05
-4.89891e-05
-5.77486e-05
-4.53752e-05
-6.2522e-05
-4.12212e-05
-6.74497e-05
-3.63796e-05
-7.22489e-05
-3.06359e-05
-7.62503e-05
-2.37548e-05
-7.88577e-05
-1.56585e-05
-7.94542e-05
-6.66574e-06
2.56971e-06
-7.8445e-05
-2.53353e-06
-6.19546e-05
-5.12765e-06
-6.25283e-05
-7.78909e-06
-6.23824e-05
-1.0551e-05
-6.21571e-05
-1.34429e-05
-6.1824e-05
-1.64885e-05
-6.13548e-05
-1.97021e-05
-6.07135e-05
-2.30868e-05
-5.98587e-05
-2.66307e-05
-5.87455e-05
-3.03028e-05
-5.73314e-05
-3.40585e-05
-5.55879e-05
-3.78659e-05
-5.35059e-05
-4.17119e-05
-5.10754e-05
-4.55866e-05
-4.82739e-05
-4.95005e-05
-4.50737e-05
-5.34448e-05
-4.143e-05
-5.73938e-05
-3.72705e-05
-6.12741e-05
-3.2498e-05
-6.49203e-05
-2.69891e-05
-6.80181e-05
-2.06574e-05
-7.01146e-05
-1.35627e-05
-7.07904e-05
-5.98952e-06
1.69848e-06
-6.99186e-05
-2.4689e-06
-5.94847e-05
-4.98897e-06
-6.00071e-05
-7.56316e-06
-5.9807e-05
-1.0217e-05
-5.95021e-05
-1.29721e-05
-5.90676e-05
-1.58452e-05
-5.84804e-05
-1.88456e-05
-5.77118e-05
-2.1973e-05
-5.67299e-05
-2.5216e-05
-5.55012e-05
-2.85513e-05
-5.39949e-05
-3.195e-05
-5.21881e-05
-3.53906e-05
-5.00642e-05
-3.886e-05
-4.76057e-05
-4.23423e-05
-4.47908e-05
-4.58218e-05
-4.15942e-05
-4.92714e-05
-3.79791e-05
-5.26411e-05
-3.38996e-05
-5.58384e-05
-2.92996e-05
-5.86992e-05
-2.4128e-05
-6.09878e-05
-1.83693e-05
-6.24595e-05
-1.20914e-05
-6.29548e-05
-5.49523e-06
1.18e-06
-6.24346e-05
-2.37422e-06
-5.71097e-05
-4.7932e-06
-5.75874e-05
-7.25444e-06
-5.7345e-05
-9.77765e-06
-5.6978e-05
-1.23789e-05
-5.64655e-05
-1.50696e-05
-5.57887e-05
-1.78553e-05
-5.49252e-05
-2.07341e-05
-5.385e-05
-2.36965e-05
-5.25378e-05
-2.67255e-05
-5.0965e-05
-2.98011e-05
-4.91116e-05
-3.29043e-05
-4.69605e-05
-3.60154e-05
-4.44939e-05
-3.9113e-05
-4.16933e-05
-4.21698e-05
-3.85363e-05
-4.51491e-05
-3.49992e-05
-4.79945e-05
-3.10531e-05
-5.06212e-05
-2.6672e-05
-5.29074e-05
-2.18416e-05
-5.46991e-05
-1.65779e-05
-5.58409e-05
-1.09503e-05
-5.62322e-05
-5.10358e-06
7.92841e-07
-5.5845e-05
-2.25833e-06
-5.48509e-05
-4.55498e-06
-5.52902e-05
-6.88411e-06
-5.50153e-05
-9.26073e-06
-5.46008e-05
-1.16964e-05
-5.40291e-05
-1.41988e-05
-5.32855e-05
-1.67711e-05
-5.23521e-05
-1.94105e-05
-5.12098e-05
-2.21088e-05
-4.98388e-05
-2.48525e-05
-4.82206e-05
-2.76254e-05
-4.63381e-05
-3.04092e-05
-4.4176e-05
-3.31838e-05
-4.17193e-05
-3.59238e-05
-3.89525e-05
-3.85994e-05
-3.58608e-05
-4.11695e-05
-3.2428e-05
-4.35806e-05
-2.8641e-05
-4.57602e-05
-2.44916e-05
-4.76163e-05
-1.99854e-05
-4.90441e-05
-1.51505e-05
-4.99463e-05
-1.00485e-05
-5.02634e-05
-4.78719e-06
5.07088e-07
-4.99765e-05
-2.12509e-06
-5.27254e-05
-4.28311e-06
-5.31317e-05
-6.46557e-06
-5.28324e-05
-8.68374e-06
-5.23821e-05
-1.09458e-05
-5.17665e-05
-1.32569e-05
-5.09738e-05
-1.56182e-05
-4.99902e-05
-1.80267e-05
-4.88008e-05
-2.04747e-05
-4.73901e-05
-2.2951e-05
-4.57437e-05
-2.54409e-05
-4.38476e-05
-2.79273e-05
-4.16894e-05
-3.03891e-05
-3.9257e-05
-3.28019e-05
-3.65398e-05
-3.51342e-05
-3.35276e-05
-3.73483e-05
-3.02133e-05
-3.93959e-05
-2.65924e-05
-4.12184e-05
-2.26685e-05
-4.2747e-05
-1.84565e-05
-4.39092e-05
-1.39885e-05
-4.46406e-05
-9.31761e-06
-4.49019e-05
-4.52565e-06
2.87201e-07
-4.4682e-05
-1.97889e-06
-5.07463e-05
-3.98592e-06
-5.11244e-05
-6.01095e-06
-5.08071e-05
-8.06231e-06
-5.03304e-05
-1.01456e-05
-4.96828e-05
-1.2264e-05
-4.8855e-05
-1.44174e-05
-4.78363e-05
-1.66024e-05
-4.66153e-05
-1.88119e-05
-4.51801e-05
-2.10358e-05
-4.35193e-05
-2.32608e-05
-4.16222e-05
-2.54704e-05
-3.94794e-05
-2.7645e-05
-3.70823e-05
-2.97604e-05
-3.44238e-05
-3.17884e-05
-3.14994e-05
-3.36941e-05
-2.83066e-05
-3.54371e-05
-2.48485e-05
-3.69704e-05
-2.11346e-05
-3.82426e-05
-1.71841e-05
-3.92024e-05
-1.30289e-05
-3.98055e-05
-8.71462e-06
-4.0026e-05
-4.30574e-06
1.16407e-07
-3.98544e-05
-1.8229e-06
-4.89231e-05
-3.66982e-06
-4.92773e-05
-5.52965e-06
-4.8947e-05
-7.40843e-06
-4.84514e-05
-9.30985e-06
-4.77811e-05
-1.12355e-05
-4.6929e-05
-1.31845e-05
-4.5887e-05
-1.51531e-05
-4.46463e-05
-1.71347e-05
-4.3198e-05
-1.91199e-05
-4.15336e-05
-2.10965e-05
-3.96452e-05
-2.30494e-05
-3.75262e-05
-2.49602e-05
-3.51711e-05
-2.68074e-05
-3.25766e-05
-2.85649e-05
-2.97412e-05
-3.02034e-05
-2.66676e-05
-3.16888e-05
-2.33624e-05
-3.2984e-05
-1.98386e-05
-3.40507e-05
-1.61173e-05
-3.48515e-05
-1.22282e-05
-3.53557e-05
-8.21079e-06
-3.5545e-05
-4.11612e-06
-1.87878e-08
-3.541e-05
-1.65983e-06
-4.72632e-05
-3.34e-06
-4.7597e-05
-5.02916e-06
-4.72577e-05
-6.73155e-06
-4.67488e-05
-8.44943e-06
-4.6063e-05
-1.01833e-05
-4.51949e-05
-1.19315e-05
-4.41384e-05
-1.36904e-05
-4.28871e-05
-1.54537e-05
-4.14344e-05
-1.72127e-05
-3.97743e-05
-1.89563e-05
-3.79013e-05
-2.06707e-05
-3.58114e-05
-2.23399e-05
-3.35019e-05
-2.39441e-05
-3.09719e-05
-2.54613e-05
-2.82237e-05
-2.68662e-05
-2.5262e-05
-2.81314e-05
-2.20965e-05
-2.92276e-05
-1.87418e-05
-3.01255e-05
-1.52191e-05
-3.07979e-05
-1.15559e-05
-3.12222e-05
-7.78662e-06
-3.13846e-05
-3.95407e-06
-1.16481e-07
-3.12863e-05
-1.49165e-06
-4.57714e-05
-3.00043e-06
-4.60881e-05
-4.51523e-06
-4.57427e-05
-6.03895e-06
-4.52249e-05
-7.57275e-06
-4.4529e-05
-9.11633e-06
-4.36511e-05
-1.06678e-05
-4.25868e-05
-1.22232e-05
-4.13314e-05
-1.37769e-05
-3.98804e-05
-1.53209e-05
-3.82299e-05
-1.68454e-05
-3.63766e-05
-1.83381e-05
-3.43185e-05
-1.97846e-05
-3.20551e-05
-2.11685e-05
-2.95881e-05
-2.24703e-05
-2.69212e-05
-2.36696e-05
-2.40621e-05
-2.4744e-05
-2.10214e-05
-2.56706e-05
-1.78147e-05
-2.64272e-05
-1.44623e-05
-2.69933e-05
-1.09898e-05
-2.73526e-05
-7.42751e-06
-2.74949e-05
-3.8115e-06
-1.89403e-07
-2.74222e-05
-1.31999e-06
-4.44514e-05
-2.65416e-06
-4.47538e-05
-3.99224e-06
-4.44046e-05
-5.33609e-06
-4.3881e-05
-6.68606e-06
-4.31789e-05
-8.04135e-06
-4.22957e-05
-9.39978e-06
-4.12282e-05
-1.07577e-05
-3.99733e-05
-1.21097e-05
-3.85282e-05
-1.34489e-05
-3.68905e-05
-1.47665e-05
-3.50588e-05
-1.60519e-05
-3.30329e-05
-1.72928e-05
-3.08141e-05
-1.84749e-05
-2.84056e-05
-1.95826e-05
-2.58133e-05
-2.05987e-05
-2.30455e-05
-2.15055e-05
-2.01141e-05
-2.22852e-05
-1.70346e-05
-2.29206e-05
-1.38267e-05
-2.33967e-05
-1.05137e-05
-2.37013e-05
-7.12302e-06
-2.38272e-05
-3.68593e-06
-2.40782e-07
-2.37754e-05
-1.14586e-06
-4.33054e-05
-2.30335e-06
-4.35963e-05
-3.46336e-06
-4.32445e-05
-4.62696e-06
-4.27173e-05
-5.79392e-06
-4.20118e-05
-6.96308e-06
-4.11264e-05
-8.13222e-06
-4.00589e-05
-9.29792e-06
-3.88074e-05
-1.04554e-05
-3.73705e-05
-1.15986e-05
-3.5747e-05
-1.272e-05
-3.39372e-05
-1.38106e-05
-3.19421e-05
-1.48599e-05
-2.97645e-05
-1.58564e-05
-2.74091e-05
-1.67869e-05
-2.48824e-05
-1.76379e-05
-2.21941e-05
-1.83952e-05
-1.93563e-05
-1.90451e-05
-1.63844e-05
-1.95748e-05
-1.3297e-05
-1.99727e-05
-1.01159e-05
-2.02303e-05
-6.86576e-06
-2.03417e-05
-3.57427e-06
-2.73589e-07
-2.03092e-05
-9.69654e-07
-4.23358e-05
-1.9494e-06
-4.26165e-05
-2.93075e-06
-4.22631e-05
-3.91429e-06
-4.17337e-05
-4.89939e-06
-4.10267e-05
-5.88465e-06
-4.0141e-05
-6.86796e-06
-3.90755e-05
-7.84624e-06
-3.7829e-05