/*--------------------------------*- C++ -*----------------------------------*\
| =========                 |                                                 |
| \\      /  F ield         | OpenFOAM: The Open Source CFD Toolbox           |
|  \\    /   O peration     | Version:  2.4.0                                 |
|   \\  /    A nd           | Web:      www.OpenFOAM.org                      |
|    \\/     M anipulation  |                                                 |
\*---------------------------------------------------------------------------*/
FoamFile
{
    version     2.0;
    format      ascii;
    class       volScalarField;
    location    "0.1";
    object      rho;
}
// * * * * * * * * * * * * * * * * * * * * * * * * * * * * * * * * * * * * * //

dimensions      [1 -3 0 0 0 0 0];

internalField   nonuniform List<scalar> 
2268
(
13529
13529
13529
13529
13529
13529
13529
13529
13529
13529
13529
13529
13528.7
13527
13518
13468.9
13202.7
11633.8
6954.35
2303.32
714.198
506.782
500.018
13529
13529
13529
13529
13529
13529
13529
13529
13529
13529
13529
13529
13527.9
13520.6
13483.9
13307.3
12086.6
7028.89
1873.86
679.425
518.307
500.458
500.001
13529
13529
13529
13529
13529
13529
13529
13529
13529
13529
13529
13529
13525
13488.6
13300.1
12435.8
8123.23
2301.96
607.7
502.738
500.135
500.005
500
13529
13529
13529
13529
13529
13529
13529
13529
13529
13529
13529
13529
13516.4
13389.4
12670.9
9216.3
3125.77
676.071
501.729
500.013
500.006
500.001
499.999
13529
13529
13529
13529
13529
13529
13529
13529
13529
13529
13529
13529
13494.3
13104.8
10646.9
4506.58
919.959
506.661
500.016
500.004
500.002
500
499.999
13529
13529
13529
13529
13529
13529
13529
13529
13529
13529
13529
13529
13427.2
12191.6
6740.9
1605.46
535.415
500.139
500.008
500.002
500
500
499.999
13529
13529
13529
13529
13529
13529
13529
13529
13529
13529
13529
13529
13154
9613.5
3160.11
685.28
501.836
500.009
500.004
500.001
500
500
499.999
13529
13529
13529
13529
13529
13529
13529
13529
13529
13529
13529
13527.7
12221.7
6008.94
1322.41
522.96
500.092
500.005
500.002
500.001
500
500
499.999
1.00001
1.00001
1.00003
1.00011
1.00032
1.00038
1.00032
1.00014
1.00002
1.00001
1.00002
1.00001
1.00001
1.00001
1.00001
1.00001
1
1
1
1.00002
1.00005
1.00026
1.00109
1.00268
1.00283
1.00476
1.00595
1.00067
1.02061
1.00548
1.00024
1.00001
1.00001
1.00001
1.00001
1.00001
1.00001
1.00001
1.00007
1.0004
1.00171
1.00425
1.00701
1.00644
1.02939
1.14433
1.43808
1.1996
1.00643
1.00062
1.00005
1.00001
1
1
1
1
1
1.00043
1.00221
1.00825
1.00853
1.01324
1.17109
2.78815
5.05176
2.07919
1.0183
1.00258
1.00032
1.00003
1.00001
1.00001
1.00001
1.00001
1.00001
1.00001
1.01807
1.03918
2.99683
3.31463
3.26966
6.56064
15.9981
6.1061
1.11956
1.0032
1.00089
1.00012
1.00001
1.00001
1
1
1
1
1
1.01906
15.3452
91.9685
91.635
70.8955
57.7158
25.7766
2.14039
1.00641
1.00207
1.00044
1.00006
1.00001
1.00001
1.00001
1.00001
1.00001
1.00001
1.00001
1.02361
198.995
387.98
386.579
312.052
138.468
12.1528
1.07884
1.005
1.00132
1.00024
1.00003
1.00001
1.00001
1.00001
1.00001
1.00001
1.00001
1.00001
337.639
451.365
494.049
489.737
416.294
129.119
6.89475
1.01932
1.00306
1.00067
1.00012
1.00002
1.00001
1.00001
1.00001
1.00001
1.00001
1.00001
1.00001
13529
13529
13529
13529
13529
13528.9
13528.5
13527.2
13521.5
13496
13394.8
12470.5
8695.62
2554.86
621.97
501.223
500.005
500.001
500.001
500
500
500
499.999
13522.1
13520.9
13518
13511.5
13497
13468.2
13400.7
13260.2
12938.4
12236.1
10857
6866.99
2950.73
732.526
502.809
500.007
500
500
500
500
500
500
500
12759.3
12704.6
12573.3
12330
11932.8
11386.4
10524.5
9394.12
7780.99
5850.03
3804.18
1811.58
1060.41
585.844
502.38
500.005
500
500
500
500
500
500
500
5922.9
5795.57
5477.7
4936.34
4238.35
3596.51
2837.65
2224.98
1691.08
1340.87
1138.91
1045.96
909.881
637.528
510.292
500.088
500
500
500
500
500
500
500
1000.1
1000.01
1000.07
1000.04
1000.11
1000.13
1000.17
1000.16
1000.15
1000.13
1000.13
999.83
918.26
665.889
516.696
500.242
500
500
500
500
500
500
500
1000
1000
1000
1000
1000
1000
1000
1000
1000
1000
1000
999.742
913.132
662.434
516.461
500.245
500
500
500
500
500
500
500
1000
1000
1000
1000
1000
1000
1000
1000
1000
1000
1000
999.749
902.509
646.649
513.079
500.169
500
500
500
500
500
500
500
1000
1000
1000
1000
1000
1000
1000
1000
1000
1000
1000
999.746
885.282
622.655
508.64
500.081
500
500
500
500
500
500
500
1000
1000
1000
1000
1000
1000
1000
1000
1000
1000
1000
999.748
862.616
596.339
504.991
500.031
500
500
500
500
500
500
500
1000
1000
1000
1000
1000
1000
1000
1000
1000
1000
1000
999.748
834.413
570.51
502.487
500.009
500
500
500
500
500
500
500
1000
1000
1000
1000
1000
1000
1000
1000
1000
1000
1000
999.748
800.547
547.388
501.047
500.002
500
500
500
500
500
500
500
1000
1000
1000
1000
1000
1000
1000
1000
1000
1000
1000
999.749
760.817
528.459
500.359
500
500
500
500
500
500
500
500
1000
1000
1000
1000
1000
1000
1000
1000
1000
1000
1000
999.755
713.766
514.387
500.092
500
500
500
500
500
500
500
499.999
1000
1000
1000
1000
1000
1000
1000
1000
1000
1000
1000
999.762
655.485
505.388
500.015
500
500
500
500
500
499.998
499.986
499.495
999.996
999.996
999.995
999.994
999.991
999.987
999.979
999.965
999.938
999.889
999.805
998.679
586.581
501.225
500
499.997
499.99
499.968
499.891
499.623
498.755
495.873
464.815
997.593
997.443
997.138
996.63
995.839
994.632
992.808
990.065
985.983
980.047
972.401
953.786
526.816
499.267
498.928
498.124
496.345
492.461
484.237
467.766
438.391
382.83
209.121
865.843
861.595
853.351
840.611
822.731
798.903
768.252
730.061
684.093
631.356
578.421
512.678
442.791
444.872
434.596
412.729
378.689
330.239
267.822
197.142
130.333
67.2946
14.9986
200.041
194.149
183.381
168.216
149.447
128.176
105.688
83.5366
63.1721
45.8503
32.9311
34.2076
108.076
114.714
97.1361
70.3288
44.2457
23.5581
10.3462
3.94426
1.82949
1.27384
1.11047
1.58655
1.54888
1.48446
1.40374
1.31769
1.23649
1.16693
1.11204
1.07185
1.04502
1.04387
1.29088
1.46416
1.36188
1.22169
1.10508
1.04308
1.01591
1.00522
1.00164
1.00119
1.00174
1.00425
0.999995
0.999995
0.999995
0.999995
0.999996
0.999996
0.999996
0.999998
1.00001
1.00013
1.00048
1.00014
1.00004
1
0.999998
0.999998
0.999999
1
1.00003
1.00014
1.00049
1.0011
1.00128
1
1
1
1
1
1
1
1
1
1
1
1
1
1
1
1
1
1
1.00001
1.00007
1.00024
1.0006
1.00081
1
1
1
1
1
1
1
1
1
1
1
1
1
1
1
1
1
1
1
1.00003
1.0001
1.00016
1.00022
1
1
1
1
1
1
1
1
1
1
1
1
1
1
1
1
1
1
0.999999
1
1.00001
1.00003
1.00005
1
1
1
1
1
1
1
1
1
1
1
1
1
1
1
1
1
1
0.999999
0.999999
0.999999
1
1
1
1
1
1
1
1
1
1
1
1
1
1
1
1
1
1
1
1
0.999999
0.999999
0.999999
0.999998
0.999998
1
1
1
1
1
1
1
1
1
1
1
1
1
1
1
1
1
1
0.999999
0.999999
0.999999
0.999999
0.999998
1
1
1
1
1
1
1
1
1
1
1
1
1
1
1
1
1
1
0.999999
0.999999
0.999999
0.999998
0.999998
1
1
1
1
1
1
1
1
1
1
1
1
1
1
1
1
1
0.999999
0.999999
0.999999
0.999999
0.999999
0.999998
1
1
1
1
1
1
1
1
1
1
1
1
1
1
1
1
1
0.999999
0.999999
0.999999
0.999999
0.999999
0.999998
1
1
1
1
1
1
1
1
1
1
1
1
1
1
1
1
0.999999
0.999999
0.999999
0.999999
0.999999
0.999999
0.999999
1
1
1
1
1
1
1
1
1
1
1
1
1
1
1
1
0.999999
0.999999
0.999999
0.999999
0.999999
0.999999
0.999999
1
1
1
1
1
1
1
1
1
1
1
1
1
1
1
1
0.999999
0.999999
0.999999
0.999999
0.999999
0.999999
0.999999
1
1
1
1
1
1
1
1
1
1
1
1
1
1
1
1
1
0.999999
0.999999
0.999999
0.999999
0.999999
0.999999
1
1
1
1
1
1
1
1
1
1
1
1
1
1
1
1
1
1
1
1
1
1
0.999999
1
1
1
1
1
1
1
1
1
1
1
1
1
1
1
1
1
1
1
1
1
1
0.999999
1
1
1
1
1
1
1
1
1
1
1
1
1
1
1
1
1
1
1
1
1
1
1
1
1
1
1
1
1
1
1
1
1
1
1
1
1
1
1
1
1
1
1
1
1
1
1
1
1
1
1
1
1
1
1
1
1
1
1
1
1
1
1
1
1
1
1
1
1
1
1
1
1
1
1
1
1
1
1
1
1
1
1
1
1
1
1
1
1
1
1
1
1
1
1
1
1
1
1
1
1
1
1
1
1
1
1
1
1
1
1
1
1
1
1
1
1
1
1
1
1
1
1
1
1
1
1
1
1
1
1
1
1
1
1
1
1
1
1
1
1
1
1
1
1
1
1
1
1
1
1
1
1
1
1
1
1
1
1
1
1
499.999
499.999
499.999
499.999
500
500
500
500
500
500
500
500
500
500
500
500
500
500
500
500
500
500
500
499.999
500
500
500
499.999
500
500
499.999
499.975
500
500
499.997
495.586
500
500
499.511
405.388
500
499.966
471.1
163.419
499.994
495.102
272.167
25.3335
498.714
379.904
56.577
1.48227
445.63
119.489
4.10117
1.00134
189.045
14.0357
1.01995
1.00026
18.8772
1.05951
1.00012
1.0001
1.11024
1.00006
1.00005
1.00004
1.02005
1.00003
1.00002
1.00002
1.00566
1.00004
1.00001
1.00001
1.00142
1.00009
1.00001
1
1.00059
1.0001
1
1
1.00017
1.00005
1
1
1.00001
1
1
1
1
1
0.999999
0.999999
0.999998
0.999998
0.999998
0.999998
0.999999
0.999999
0.999998
0.999998
0.999998
0.999998
0.999998
0.999998
0.999999
0.999998
0.999998
0.999998
0.999998
0.999998
0.999998
0.999998
0.999999
0.999999
0.999998
0.999998
0.999998
0.999999
0.999999
0.999998
0.999999
0.999999
0.999999
0.999998
0.999999
0.999999
0.999999
0.999999
0.999999
0.999999
0.999999
0.999999
0.999999
0.999999
0.999999
0.999999
0.999999
0.999999
0.999999
0.999999
1
1
0.999999
0.999999
1
1
1
1
1
1
1
1
1
1
1
1
1
1
1
1
1
1
1
1
499.999
499.998
499.978
496.231
363.642
73.7946
2.81475
1.00364
1.00082
1.0002
1.00003
1.00001
1
1
1
1
1
1
1
500
499.999
499.795
467.12
209.135
19.4237
1.14325
1.00037
1.00021
1.00005
1.00001
1
1
1
1
1
1
1
1
499.999
499.984
494.644
331.393
59.2634
2.39277
1.00247
1.00009
1.00005
1.00001
1
1
1
1
1
1
1
1
1
499.999
499.478
422.026
112.02
5.24061
1.01404
1.00007
1.00002
1.00001
1
1
1
1
1
1
1
1
1
1
499.982
481.367
209.118
15.3261
1.07132
1.00024
1.00001
1
1
1
1
1
1
1
1
1
1
1
1
499.082
344.334
48.4111
1.58661
1.00085
1.00011
1.00001
1
1
1
1
1
1
1
1
1
1
1
1
471.265
137.82
5.4723
1.00691
1.00031
1.00005
1
0.999999
1
1
1
1
1
1
1
1
1
1
1
336.383
33.5903
1.20038
1.00055
1.00011
1.00002
0.999999
1
1
1
1
1
1
1
1
1
1
1
1
171.805
5.64623
1.00332
1.0002
1.00004
1
0.999999
1
1
1
1
1
1
1
1
1
1
1
1
54.0993
1.20326
1.00026
1.00004
1
0.999998
1
1
1
1
1
1
1
1
1
1
1
1
1
8.93678
1.00122
1.00007
1
0.999999
0.999999
1
1
1
1
1
1
1
1
1
1
1
1
1
1.4776
1.00022
1.00001
1
0.999999
1
1
1
1
0.999999
0.999999
0.999999
1
1
1
1
1
1
1
1.00301
1.00008
1
1
1
1
1
1
0.999999
0.999999
0.999999
0.999999
1
1
1
1
1
1
1
1.00025
1.00004
1
1
1
1
1
0.999999
0.999998
0.999998
0.999998
0.999999
0.999999
1
1
1
1
1
1
1.00012
1.00001
1
1
1
0.999999
0.999999
0.999998
0.999997
0.999997
0.999998
0.999998
0.999999
0.999999
0.999999
0.999999
1
1
1
1.00003
1.00001
1
1
1
0.999999
0.999998
0.999997
0.999997
0.999997
0.999997
0.999998
0.999998
0.999999
0.999999
0.999999
0.999999
1
0.999999
1.00002
1
1
1
1
1
0.999999
0.999998
0.999998
0.999998
0.999998
0.999998
0.999999
0.999999
0.999999
0.999999
0.999999
0.999998
1
1.00001
1
1
1
1
1
1
0.999999
0.999998
0.999998
0.999999
0.999999
0.999999
0.999999
0.999999
0.999999
0.999999
0.999999
0.999998
1
1
1
1
1
1
1
0.999999
0.999999
0.999999
0.999999
0.999999
1
1
1
1
0.999999
0.999999
0.999999
1
1
1
1
1
1
1
1
0.999999
0.999999
0.999999
1
1
1
1
1
0.999999
0.999999
0.999999
1
1
1
1
1
1
1
1
0.999999
0.999999
0.999999
1
1
1
1
1
0.999999
0.999999
1
1
1
1
1
1
1
1
0.999999
0.999999
0.999999
0.999999
1
1
1
1
1
0.999999
1
0.999999
1
1
1
1
0.999999
0.999999
0.999999
0.999999
0.999999
0.999999
0.999999
0.999999
1
1
1
1
1
0.999999
1
0.999999
0.999998
0.999998
0.999998
0.999998
0.999999
0.999999
0.999999
0.999999
0.999999
0.999999
0.999999
1
1
1
1
1
1
1
0.999998
0.999998
0.999998
0.999998
0.999998
0.999998
0.999998
0.999999
0.999999
0.999999
0.999999
0.999999
1
1
1
1
1
0.999999
1
0.999998
0.999997
0.999997
0.999997
0.999997
0.999997
0.999998
0.999998
0.999999
0.999999
0.999999
0.999999
1
1
1
1
1
1
1
0.999998
0.999997
0.999997
0.999997
0.999997
0.999997
0.999998
0.999998
0.999999
0.999999
0.999999
1
1
1
1
1
1
0.999999
1
0.999998
0.999997
0.999997
0.999996
0.999997
0.999997
0.999998
0.999998
0.999999
0.999999
0.999999
1
1
1
1
1
1
1
1
0.999998
0.999997
0.999996
0.999996
0.999996
0.999997
0.999998
0.999998
0.999999
0.999999
1
1
1
1
1
1
1
0.999999
1
0.999998
0.999997
0.999997
0.999996
0.999997
0.999997
0.999998
0.999999
0.999999
0.999999
1
1
1
1
1
1
1
1
1
0.999998
0.999997
0.999997
0.999997
0.999997
0.999997
0.999998
0.999999
0.999999
0.999999
0.999999
0.999999
0.999999
1
1
1
1
0.999999
1
0.999998
0.999998
0.999997
0.999997
0.999997
0.999998
0.999999
0.999999
0.999999
0.999999
0.999999
0.999999
0.999999
0.999999
1
1
1
1
1
0.999999
0.999998
0.999998
0.999997
0.999998
0.999998
0.999999
0.999999
0.999999
0.999999
0.999999
0.999999
0.999999
0.999999
0.999999
1
1
0.999999
1
0.999999
0.999998
0.999998
0.999998
0.999998
0.999999
0.999999
0.999999
0.999999
0.999999
0.999999
0.999999
0.999999
0.999999
0.999999
1
1
1
1
0.999999
0.999999
0.999998
0.999998
0.999999
0.999999
0.999999
0.999999
0.999999
0.999999
0.999999
0.999999
0.999999
0.999999
1
1
1
1
1
0.999999
0.999999
0.999999
0.999999
0.999999
0.999999
0.999999
0.999999
0.999999
0.999999
0.999999
0.999999
0.999999
1
1
1
1
1
1
0.999999
0.999999
0.999999
0.999999
0.999999
1
1
0.999999
0.999999
0.999999
0.999999
0.999999
1
1
1
1
1
1
1
1
0.999999
0.999999
0.999999
1
1
1
0.999999
0.999999
0.999999
0.999999
1
1
1
1
1
1
1
1
1
1
1
1
1
1
1
0.999999
0.999999
0.999999
0.999999
1
1
1
1
1
1
1
1
1
1
1
1
1
1
1
0.999999
0.999999
0.999999
0.999999
0.999999
1
1
1
1
1
1
1
1
1
1
1
1
1
1
0.999999
0.999999
0.999999
0.999999
0.999999
0.999999
1
1
1
1
1
1
1
1
1
1
1
1
1
1
1
1
1
1
1
1
1
1
1
1
1
)
;

boundaryField
{
    leftWall
    {
        type            calculated;
        value           nonuniform List<scalar> 
50
(
13529
13529
13529
13529
13529
13529
13529
13529
13529
13522.1
12759.3
5922.9
1000.1
1000
1000
1000
1000
1000
1000
1000
1000
1000
999.996
997.593
865.843
200.041
1.58655
0.999995
1
1
1
1
1
1
1
1
1
1
1
1
1
1
1
1
1
1
1
1
1
1
)
;
    }
    rightWall
    {
        type            calculated;
        value           nonuniform List<scalar> 
50
(
1
1.00001
1
1.00001
1
1.00001
1.00001
1.00001
1
1
1
1
1
1
1
1
1
1
1
1
1
1
1
0.999999
1
0.999998
0.999999
0.999999
1
0.999999
1
1
1
1
1
1
1
1
1
1
1
1
1
1
1
1
1
1
1
1
)
;
    }
    lowerWall
    {
        type            calculated;
        value           nonuniform List<scalar> 
62
(
13529
13529
13529
13529
13529
13529
13529
13529
13529
13529
13529
13529
13528.7
13527
13518
13468.9
13202.7
11633.8
6954.35
2303.32
714.198
506.782
500.018
500.018
500.001
500
499.999
499.999
499.999
499.999
499.999
499.999
499.999
499.999
499.999
1.00001
1.00002
1.00007
1.00043
1.01807
1.01906
1.02361
337.639
1.00001
1.00001
1.00003
1.00011
1.00032
1.00038
1.00032
1.00014
1.00002
1.00001
1.00002
1.00001
1.00001
1.00001
1.00001
1.00001
1
1
1
)
;
    }
    atmosphere
    {
        type            calculated;
        value           uniform 1;
    }
    defaultFaces
    {
        type            empty;
    }
}


// ************************************************************************* //
