/*--------------------------------*- C++ -*----------------------------------*\
| =========                 |                                                 |
| \\      /  F ield         | OpenFOAM: The Open Source CFD Toolbox           |
|  \\    /   O peration     | Version:  2.4.0                                 |
|   \\  /    A nd           | Web:      www.OpenFOAM.org                      |
|    \\/     M anipulation  |                                                 |
\*---------------------------------------------------------------------------*/
FoamFile
{
    version     2.0;
    format      ascii;
    class       volVectorField;
    location    "0.1";
    object      U;
}
// * * * * * * * * * * * * * * * * * * * * * * * * * * * * * * * * * * * * * //

dimensions      [0 1 -1 0 0 0 0];

internalField   nonuniform List<vector> 
2268
(
(0.0126347 -0.00597384 0)
(0.0382716 -0.00614457 0)
(0.0650302 -0.00649649 0)
(0.0936998 -0.00705081 0)
(0.125406 -0.0078394 0)
(0.160401 -0.00893589 0)
(0.203576 -0.0103591 0)
(0.245617 -0.0121822 0)
(0.315518 -0.0150999 0)
(0.366837 -0.0178476 0)
(0.473354 -0.0184573 0)
(0.549269 -0.0331296 0)
(0.670697 -0.0412789 0)
(0.87443 -0.03315 0)
(1.06543 -0.0207772 0)
(1.17031 -0.0249112 0)
(1.20172 -0.0541249 0)
(1.23201 -0.154207 0)
(1.34168 -0.256703 0)
(1.28039 -0.159304 0)
(0.75777 0.0767871 0)
(0.410866 0.0854498 0)
(0.136446 0.0628436 0)
(0.0125579 -0.017888 0)
(0.0380382 -0.0184013 0)
(0.0646254 -0.0194527 0)
(0.0930986 -0.0211081 0)
(0.124559 -0.023462 0)
(0.159277 -0.026745 0)
(0.202047 -0.0309199 0)
(0.243606 -0.03693 0)
(0.313283 -0.0428845 0)
(0.363548 -0.0596737 0)
(0.469184 -0.050375 0)
(0.552402 -0.0859381 0)
(0.680077 -0.126686 0)
(0.862837 -0.139047 0)
(1.03349 -0.103067 0)
(1.15346 -0.0287499 0)
(1.21268 0.0247343 0)
(1.2998 0.077438 0)
(1.2087 0.205448 0)
(0.786762 0.282431 0)
(0.543064 0.263727 0)
(0.35948 0.201659 0)
(0.127233 0.190253 0)
(0.0123972 -0.0296877 0)
(0.0375471 -0.0305355 0)
(0.0637747 -0.0322722 0)
(0.0918381 -0.0350036 0)
(0.122786 -0.0388865 0)
(0.156943 -0.0443057 0)
(0.198812 -0.0512018 0)
(0.23959 -0.0609812 0)
(0.308371 -0.0727043 0)
(0.355364 -0.0927587 0)
(0.463868 -0.0935458 0)
(0.543099 -0.151444 0)
(0.679217 -0.1923 0)
(0.854392 -0.191697 0)
(1.00409 -0.146214 0)
(1.09794 -0.0983216 0)
(1.18068 -0.0647053 0)
(1.24517 -0.0127503 0)
(0.877348 0.108648 0)
(0.594344 0.283599 0)
(0.470503 0.327455 0)
(0.33573 0.305159 0)
(0.12841 0.289905 0)
(0.012159 -0.0412966 0)
(0.0368192 -0.0424685 0)
(0.0625152 -0.0448676 0)
(0.0899732 -0.0486333 0)
(0.120163 -0.0539864 0)
(0.153493 -0.0614505 0)
(0.193944 -0.0709747 0)
(0.233912 -0.0845947 0)
(0.300157 -0.10076 0)
(0.344089 -0.127871 0)
(0.455235 -0.134491 0)
(0.526912 -0.20281 0)
(0.668608 -0.265751 0)
(0.827807 -0.268576 0)
(0.951986 -0.210664 0)
(1.04413 -0.132017 0)
(1.16942 0.000988088 0)
(0.980769 0.135606 0)
(0.627373 0.286979 0)
(0.518315 0.360819 0)
(0.44836 0.375358 0)
(0.334311 0.382215 0)
(0.121802 0.430802 0)
(0.0118461 -0.0526473 0)
(0.0358634 -0.0541292 0)
(0.0608642 -0.0571609 0)
(0.0875309 -0.0619037 0)
(0.116731 -0.0686415 0)
(0.148961 -0.0780204 0)
(0.187572 -0.090085 0)
(0.226421 -0.107212 0)
(0.289098 -0.128179 0)
(0.329591 -0.159855 0)
(0.439312 -0.175261 0)
(0.509228 -0.266292 0)
(0.646676 -0.327474 0)
(0.789708 -0.314036 0)
(0.883151 -0.261419 0)
(1.01139 -0.140942 0)
(1.01371 0.0148828 0)
(0.667898 0.206497 0)
(0.518593 0.353054 0)
(0.48731 0.389799 0)
(0.450064 0.412796 0)
(0.352259 0.452828 0)
(0.147442 0.511597 0)
(0.0114619 -0.0636839 0)
(0.03469 -0.0654577 0)
(0.0588424 -0.0690862 0)
(0.0845454 -0.0747363 0)
(0.112545 -0.0827591 0)
(0.143403 -0.0939195 0)
(0.179828 -0.108394 0)
(0.217131 -0.128863 0)
(0.275449 -0.153843 0)
(0.311742 -0.190864 0)
(0.419839 -0.217606 0)
(0.482952 -0.320035 0)
(0.611932 -0.383381 0)
(0.724686 -0.373035 0)
(0.836795 -0.29328 0)
(0.964487 -0.0988539 0)
(0.705569 0.09181 0)
(0.491149 0.288317 0)
(0.459842 0.372081 0)
(0.473921 0.403168 0)
(0.461805 0.438768 0)
(0.404236 0.530236 0)
(0.159539 0.690739 0)
(0.0110071 -0.0741909 0)
(0.0333007 -0.0762364 0)
(0.0564537 -0.080429 0)
(0.0810193 -0.0869267 0)
(0.107623 -0.0961792 0)
(0.13686 -0.10902 0)
(0.170811 -0.125696 0)
(0.206047 -0.14916 0)
(0.259345 -0.177376 0)
(0.291036 -0.219109 0)
(0.395506 -0.256198 0)
(0.447459 -0.365713 0)
(0.557253 -0.432381 0)
(0.665654 -0.414976 0)
(0.847412 -0.281003 0)
(0.755322 -0.0957412 0)
(0.463152 0.167139 0)
(0.401967 0.314404 0)
(0.434011 0.360445 0)
(0.479234 0.393369 0)
(0.501551 0.453843 0)
(0.468622 0.55335 0)
(0.231251 0.780338 0)
(0.0104645 -0.0841231 0)
(0.0316405 -0.0864494 0)
(0.0536058 -0.0912153 0)
(0.0768188 -0.0984962 0)
(0.101876 -0.108739 0)
(0.129349 -0.122908 0)
(0.160642 -0.141162 0)
(0.193403 -0.166695 0)
(0.241285 -0.19694 0)
(0.268608 -0.242325 0)
(0.368862 -0.287142 0)
(0.399317 -0.407959 0)
(0.488893 -0.482431 0)
(0.639222 -0.440414 0)
(0.777594 -0.269941 0)
(0.484697 -0.0111031 0)
(0.334733 0.222153 0)
(0.351437 0.303768 0)
(0.43317 0.335222 0)
(0.502416 0.373707 0)
(0.543449 0.448271 0)
(0.592532 0.633585 0)
(0.318554 1.08262 0)
(-0.0852164 0.0266482 0)
(-0.158474 0.00925004 0)
(-0.154241 -0.00780183 0)
(-0.108845 -0.014446 0)
(-0.0158632 -0.0209376 0)
(0.147399 -0.0412744 0)
(0.370849 -0.0457166 0)
(0.551041 -0.0251108 0)
(0.614452 -0.00298921 0)
(0.597288 0.00992758 0)
(0.526612 0.0161268 0)
(0.447368 0.0165912 0)
(0.371349 0.0152108 0)
(0.301708 0.0137528 0)
(0.238609 0.0125438 0)
(0.180627 0.0116224 0)
(0.12641 0.0109653 0)
(0.0747864 0.0105365 0)
(0.0246784 0.0104138 0)
(-0.0941298 0.0806666 0)
(-0.177443 0.027194 0)
(-0.162929 -0.0276821 0)
(-0.110389 -0.0469436 0)
(-0.0163657 -0.0648878 0)
(0.15416 -0.127127 0)
(0.397194 -0.143257 0)
(0.592905 -0.0773677 0)
(0.653105 -0.0016833 0)
(0.634982 0.0320885 0)
(0.550686 0.0501535 0)
(0.46302 0.0516344 0)
(0.383582 0.0471748 0)
(0.311645 0.04265 0)
(0.246539 0.0389345 0)
(0.186687 0.0361062 0)
(0.130681 0.0340879 0)
(0.0773131 0.0327925 0)
(0.0254364 0.0319801 0)
(-0.108147 0.152552 0)
(-0.215035 0.0459806 0)
(-0.180043 -0.054195 0)
(-0.104751 -0.0824052 0)
(0.00253841 -0.110178 0)
(0.195324 -0.21499 0)
(0.462994 -0.249149 0)
(0.682172 -0.136315 0)
(0.747498 -0.00707708 0)
(0.677995 0.0607425 0)
(0.559802 0.0882953 0)
(0.462638 0.0877327 0)
(0.381743 0.0793 0)
(0.309933 0.0714721 0)
(0.245174 0.065212 0)
(0.185676 0.0604807 0)
(0.12999 0.0571116 0)
(0.0769146 0.0549594 0)
(0.0253049 0.0536399 0)
(-0.144679 0.197816 0)
(-0.27603 0.0664153 0)
(-0.161725 -0.0927545 0)
(-0.006371 -0.14156 0)
(0.183875 -0.181227 0)
(0.477232 -0.328625 0)
(0.765607 -0.408364 0)
(0.986121 -0.203391 0)
(0.865665 0.0262764 0)
(0.689462 0.118818 0)
(0.553169 0.135586 0)
(0.457588 0.125079 0)
(0.377304 0.111473 0)
(0.306343 0.100162 0)
(0.242404 0.0913408 0)
(0.183639 0.0847242 0)
(0.128601 0.0800245 0)
(0.0761103 0.0770285 0)
(0.0250435 0.0751785 0)
(-0.174118 0.421114 0)
(-0.301418 0.0997289 0)
(0.109415 -0.159559 0)
(0.437745 -0.172088 0)
(0.819006 -0.189863 0)
(1.31797 -0.480822 0)
(1.59231 -0.540215 0)
(1.28333 -0.166801 0)
(0.88158 0.136288 0)
(0.673272 0.189665 0)
(0.543755 0.182126 0)
(0.450042 0.161741 0)
(0.371055 0.14314 0)
(0.301436 0.128399 0)
(0.238665 0.117067 0)
(0.180905 0.108616 0)
(0.126739 0.102626 0)
(0.0750315 0.0988116 0)
(0.0246915 0.0964441 0)
(-0.215194 0.139603 0)
(0.265924 -0.0682855 0)
(0.887144 -0.501697 0)
(1.09021 -0.476223 0)
(1.4066 -0.465454 0)
(1.84226 -0.685813 0)
(1.90873 -0.526293 0)
(1.20735 0.0957489 0)
(0.823028 0.265737 0)
(0.649047 0.258347 0)
(0.53055 0.226934 0)
(0.439907 0.197627 0)
(0.363085 0.174203 0)
(0.295287 0.156114 0)
(0.234019 0.142346 0)
(0.177519 0.132122 0)
(0.124439 0.124889 0)
(0.0736975 0.120286 0)
(0.0242564 0.117418 0)
(-0.0451933 0.927793 0)
(0.917866 -0.419096 0)
(0.979198 -0.531353 0)
(1.08754 -0.586495 0)
(1.36657 -0.674047 0)
(1.82755 -0.774626 0)
(1.59821 -0.241795 0)
(0.990018 0.289271 0)
(0.760607 0.366427 0)
(0.620147 0.316476 0)
(0.5132 0.268308 0)
(0.427281 0.231657 0)
(0.353462 0.203831 0)
(0.287955 0.182668 0)
(0.228511 0.16666 0)
(0.173516 0.154806 0)
(0.12172 0.146427 0)
(0.0721215 0.141096 0)
(0.0237406 0.13776 0)
(1.08129 -0.274711 0)
(1.06772 -0.40164 0)
(1.10846 -0.520695 0)
(1.17244 -0.577834 0)
(1.36311 -0.659609 0)
(1.63999 -0.695561 0)
(1.24153 -0.0942105 0)
(0.855858 0.425881 0)
(0.702907 0.445127 0)
(0.586529 0.36809 0)
(0.492134 0.308459 0)
(0.412269 0.265436 0)
(0.342221 0.233398 0)
(0.279467 0.209227 0)
(0.222161 0.191014 0)
(0.168909 0.177549 0)
(0.118594 0.168037 0)
(0.0703088 0.161985 0)
(0.0231481 0.158184 0)
(0.00940849 -0.101138 0)
(0.028443 -0.103671 0)
(0.0482687 -0.108818 0)
(0.0692294 -0.1163 0)
(0.0918493 -0.126626 0)
(0.116426 -0.141486 0)
(0.143602 -0.160701 0)
(0.172026 -0.188331 0)
(0.211453 -0.222082 0)
(0.233112 -0.276402 0)
(0.317125 -0.343161 0)
(0.316247 -0.485262 0)
(0.391584 -0.547043 0)
(0.540352 -0.426031 0)
(0.37873 -0.183335 0)
(0.219075 0.0900508 0)
(0.260443 0.204784 0)
(0.35555 0.245527 0)
(0.436283 0.278474 0)
(0.565369 0.293607 0)
(0.629577 0.416157 0)
(0.894931 0.478255 0)
(1.16628 0.964011 0)
(0.00829141 -0.114088 0)
(0.0250261 -0.116659 0)
(0.0426309 -0.12213 0)
(0.0607275 -0.1295 0)
(0.0789827 -0.140915 0)
(0.0981127 -0.158349 0)
(0.120032 -0.181278 0)
(0.141653 -0.219176 0)
(0.167359 -0.266956 0)
(0.187867 -0.341298 0)
(0.219948 -0.429821 0)
(0.215001 -0.551902 0)
(0.33262 -0.523812 0)
(0.311376 -0.3663 0)
(0.153072 -0.0939795 0)
(0.204909 0.0451868 0)
(0.28511 0.108892 0)
(0.385709 0.143181 0)
(0.478893 0.182836 0)
(0.598955 0.184254 0)
(0.716032 0.289735 0)
(0.880394 0.233703 0)
(1.15929 0.394285 0)
(0.00732974 -0.143618 0)
(0.0218722 -0.148878 0)
(0.0375417 -0.162526 0)
(0.0529067 -0.179861 0)
(0.0701692 -0.201136 0)
(0.0822533 -0.230959 0)
(0.0972349 -0.257025 0)
(0.1092 -0.295366 0)
(0.122977 -0.327466 0)
(0.150936 -0.367785 0)
(0.195126 -0.397579 0)
(0.284752 -0.499415 0)
(0.339437 -0.523783 0)
(0.226567 -0.337407 0)
(0.224126 -0.131025 0)
(0.274279 -0.0437356 0)
(0.339165 0.0132269 0)
(0.424479 0.0480178 0)
(0.508821 0.0827406 0)
(0.616418 0.0746553 0)
(0.735136 0.131837 0)
(0.846241 0.0688298 0)
(1.05557 0.0857045 0)
(0.00866991 -0.170907 0)
(0.0188939 -0.17336 0)
(0.0300833 -0.175167 0)
(0.046204 -0.171903 0)
(0.0714078 -0.161836 0)
(0.0988947 -0.175245 0)
(0.139722 -0.179543 0)
(0.192268 -0.202442 0)
(0.250254 -0.23967 0)
(0.311682 -0.302676 0)
(0.368309 -0.402856 0)
(0.360637 -0.554589 0)
(0.355637 -0.545897 0)
(0.320627 -0.335979 0)
(0.311101 -0.158877 0)
(0.338355 -0.0908864 0)
(0.382544 -0.0520147 0)
(0.452262 -0.0304678 0)
(0.522574 -0.0107289 0)
(0.626242 -0.0260175 0)
(0.726134 -0.0052333 0)
(0.842552 -0.040891 0)
(1.00209 -0.0563796 0)
(0.0232769 -0.16011 0)
(0.0731669 -0.173601 0)
(0.121717 -0.175786 0)
(0.165269 -0.197289 0)
(0.214484 -0.206814 0)
(0.252588 -0.244454 0)
(0.295869 -0.279026 0)
(0.332351 -0.327182 0)
(0.365623 -0.376351 0)
(0.392129 -0.436697 0)
(0.403819 -0.486374 0)
(0.380923 -0.548303 0)
(0.384572 -0.517929 0)
(0.356121 -0.323711 0)
(0.338558 -0.159579 0)
(0.363975 -0.115958 0)
(0.401389 -0.0998724 0)
(0.461119 -0.0951196 0)
(0.524609 -0.0912921 0)
(0.619629 -0.115417 0)
(0.704562 -0.115709 0)
(0.809384 -0.15066 0)
(0.941714 -0.205081 0)
(0.0190088 -0.224357 0)
(0.0580351 -0.226387 0)
(0.0981437 -0.238001 0)
(0.135292 -0.255212 0)
(0.177702 -0.275196 0)
(0.217109 -0.301768 0)
(0.255179 -0.331269 0)
(0.287275 -0.366746 0)
(0.314102 -0.405185 0)
(0.333792 -0.449542 0)
(0.326336 -0.482847 0)
(0.341037 -0.522013 0)
(0.361397 -0.489434 0)
(0.344736 -0.30644 0)
(0.331594 -0.166093 0)
(0.360397 -0.145416 0)
(0.40002 -0.146491 0)
(0.45439 -0.155205 0)
(0.513575 -0.165362 0)
(0.598731 -0.197639 0)
(0.671213 -0.211002 0)
(0.769005 -0.258346 0)
(0.885474 -0.320741 0)
(0.0176025 -0.256359 0)
(0.0529714 -0.260589 0)
(0.0879368 -0.269144 0)
(0.122766 -0.281902 0)
(0.155232 -0.295625 0)
(0.187364 -0.317571 0)
(0.216333 -0.341719 0)
(0.243308 -0.37305 0)
(0.26387 -0.407036 0)
(0.285657 -0.442543 0)
(0.294541 -0.481028 0)
(0.314375 -0.52844 0)
(0.341918 -0.490092 0)
(0.326143 -0.310589 0)
(0.320628 -0.189263 0)
(0.344359 -0.180042 0)
(0.387299 -0.192606 0)
(0.437165 -0.211345 0)
(0.491589 -0.232479 0)
(0.567569 -0.271063 0)
(0.63059 -0.295407 0)
(0.722442 -0.352626 0)
(0.821167 -0.417251 0)
(0.0155788 -0.291679 0)
(0.046664 -0.295776 0)
(0.0773639 -0.303789 0)
(0.107244 -0.315823 0)
(0.136833 -0.332859 0)
(0.165071 -0.352953 0)
(0.191843 -0.378393 0)
(0.216133 -0.405974 0)
(0.236697 -0.437207 0)
(0.256394 -0.47095 0)
(0.262192 -0.499865 0)
(0.287834 -0.53686 0)
(0.317674 -0.489402 0)
(0.297223 -0.30868 0)
(0.296221 -0.211466 0)
(0.322016 -0.211909 0)
(0.364863 -0.236031 0)
(0.410877 -0.263026 0)
(0.460858 -0.29295 0)
(0.528029 -0.336605 0)
(0.583679 -0.370095 0)
(0.666679 -0.435161 0)
(0.750367 -0.503533 0)
(0.0136432 -0.319905 0)
(0.040835 -0.323913 0)
(0.0676795 -0.331425 0)
(0.0940694 -0.342601 0)
(0.119483 -0.357148 0)
(0.143809 -0.37572 0)
(0.166448 -0.397368 0)
(0.187233 -0.42267 0)
(0.205076 -0.450336 0)
(0.223454 -0.479178 0)
(0.230948 -0.508233 0)
(0.259217 -0.547697 0)
(0.29068 -0.489355 0)
(0.262649 -0.309469 0)
(0.266921 -0.236943 0)
(0.295614 -0.246269 0)
(0.33616 -0.277674 0)
(0.378129 -0.310524 0)
(0.423323 -0.347059 0)
(0.482267 -0.394786 0)
(0.530602 -0.435972 0)
(0.605112 -0.507205 0)
(0.674364 -0.578551 0)
(0.0118264 -0.345865 0)
(0.0353832 -0.349643 0)
(0.0585957 -0.35665 0)
(0.0812358 -0.367167 0)
(0.103135 -0.381297 0)
(0.124005 -0.39867 0)
(0.143618 -0.419427 0)
(0.161823 -0.442829 0)
(0.177967 -0.468753 0)
(0.194941 -0.496409 0)
(0.202622 -0.523902 0)
(0.231141 -0.560449 0)
(0.261886 -0.487303 0)
(0.224646 -0.310335 0)
(0.235433 -0.261666 0)
(0.265907 -0.279722 0)
(0.302502 -0.315944 0)
(0.340217 -0.353124 0)
(0.380414 -0.394709 0)
(0.431318 -0.445679 0)
(0.472728 -0.493419 0)
(0.538412 -0.569233 0)
(0.594668 -0.644619 0)
(0.0101184 -0.36773 0)
(0.0302618 -0.371289 0)
(0.0500632 -0.377842 0)
(0.0693288 -0.387718 0)
(0.0878984 -0.40087 0)
(0.105623 -0.4172 0)
(0.122304 -0.436436 0)
(0.137877 -0.458426 0)
(0.15205 -0.482792 0)
(0.166931 -0.508973 0)
(0.174166 -0.536378 0)
(0.201889 -0.572538 0)
(0.230266 -0.481659 0)
(0.184497 -0.313886 0)
(0.202253 -0.285507 0)
(0.233806 -0.312019 0)
(0.265262 -0.350453 0)
(0.298508 -0.390617 0)
(0.333397 -0.435832 0)
(0.376338 -0.489285 0)
(0.410751 -0.542557 0)
(0.467706 -0.622442 0)
(0.515645 -0.700407 0)
(0.00849502 -0.385855 0)
(0.0253982 -0.389292 0)
(0.04199 -0.395592 0)
(0.058037 -0.405077 0)
(0.073464 -0.417653 0)
(0.0881999 -0.433162 0)
(0.102108 -0.451486 0)
(0.115137 -0.472443 0)
(0.127166 -0.49589 0)
(0.1397 -0.521453 0)
(0.14618 -0.548973 0)
(0.171938 -0.58389 0)
(0.19667 -0.471861 0)
(0.143215 -0.319619 0)
(0.169425 -0.307985 0)
(0.199268 -0.341781 0)
(0.225623 -0.380752 0)
(0.254158 -0.422815 0)
(0.283375 -0.470446 0)
(0.318324 -0.525579 0)
(0.344935 -0.583734 0)
(0.393497 -0.666836 0)
(0.437484 -0.745333 0)
(0.00668887 -0.402012 0)
(0.0200455 -0.405354 0)
(0.0335278 -0.411104 0)
(0.0469165 -0.419867 0)
(0.0595978 -0.43186 0)
(0.0715681 -0.446651 0)
(0.0827949 -0.464135 0)
(0.0932399 -0.484269 0)
(0.102909 -0.506985 0)
(0.112668 -0.532084 0)
(0.11807 -0.560052 0)
(0.140533 -0.593855 0)
(0.160951 -0.45838 0)
(0.101544 -0.327451 0)
(0.137465 -0.330866 0)
(0.162719 -0.368273 0)
(0.1848 -0.407133 0)
(0.20825 -0.449913 0)
(0.231397 -0.498556 0)
(0.258108 -0.554143 0)
(0.275494 -0.616275 0)
(0.317763 -0.699301 0)
(0.349346 -0.772779 0)
(0.00509997 -0.415092 0)
(0.0153217 -0.418311 0)
(0.025568 -0.423994 0)
(0.0359246 -0.432232 0)
(0.0461957 -0.443101 0)
(0.0555606 -0.456895 0)
(0.0641633 -0.473357 0)
(0.072003 -0.492434 0)
(0.0790933 -0.514084 0)
(0.0856326 -0.538382 0)
(0.0898594 -0.566467 0)
(0.106387 -0.598974 0)
(0.122498 -0.441315 0)
(0.0627137 -0.337738 0)
(0.105643 -0.353722 0)
(0.125751 -0.390796 0)
(0.144001 -0.428029 0)
(0.162156 -0.469389 0)
(0.179085 -0.516529 0)
(0.197057 -0.57055 0)
(0.20536 -0.635813 0)
(0.245662 -0.714199 0)
(0.237982 -0.798486 0)
(0.00414028 -0.418109 0)
(0.0123196 -0.421097 0)
(0.0199607 -0.4266 0)
(0.0270118 -0.434737 0)
(0.0339587 -0.445135 0)
(0.0407468 -0.457883 0)
(0.0467995 -0.473311 0)
(0.0521314 -0.491386 0)
(0.0565607 -0.512157 0)
(0.0594225 -0.536001 0)
(0.061836 -0.564181 0)
(0.0641544 -0.596579 0)
(0.074332 -0.417209 0)
(0.0317221 -0.345709 0)
(0.0745545 -0.369867 0)
(0.0910279 -0.402662 0)
(0.105784 -0.43677 0)
(0.119013 -0.476411 0)
(0.12969 -0.523289 0)
(0.137224 -0.580052 0)
(0.137794 -0.653195 0)
(0.160687 -0.736446 0)
(0.107888 -0.856854 0)
(0.00312234 -0.425969 0)
(0.00925813 -0.428988 0)
(0.0149949 -0.434666 0)
(0.0201865 -0.443304 0)
(0.0244002 -0.454898 0)
(0.0280315 -0.469634 0)
(0.0312376 -0.487388 0)
(0.0338192 -0.50799 0)
(0.0354373 -0.531447 0)
(0.0348391 -0.557505 0)
(0.0341067 -0.585813 0)
(0.0116008 -0.613925 0)
(0.00603747 -0.400859 0)
(0.0136474 -0.362783 0)
(0.0470999 -0.389227 0)
(0.0614867 -0.421067 0)
(0.0713127 -0.459847 0)
(0.078193 -0.507789 0)
(0.0803814 -0.563307 0)
(0.0753456 -0.623686 0)
(0.0652807 -0.686979 0)
(0.0534621 -0.747089 0)
(0.0894567 -0.836799 0)
(0.00153473 -0.477683 0)
(0.00424405 -0.480019 0)
(0.00675814 -0.483873 0)
(0.0086935 -0.489232 0)
(0.0100693 -0.495677 0)
(0.0106832 -0.502551 0)
(0.0105098 -0.509272 0)
(0.00979017 -0.515623 0)
(0.00973426 -0.521571 0)
(0.0100154 -0.527193 0)
(0.0117524 -0.534567 0)
(-0.00753118 -0.532114 0)
(-0.0225863 -0.455009 0)
(0.00806525 -0.448409 0)
(0.0213402 -0.464459 0)
(0.0250824 -0.480469 0)
(0.023624 -0.495018 0)
(0.0248064 -0.507819 0)
(0.0346403 -0.521747 0)
(0.0586793 -0.546003 0)
(0.100346 -0.57802 0)
(0.135287 -0.611757 0)
(0.0216302 -0.475268 0)
(0.000765963 -0.450973 0)
(0.00139131 -0.449954 0)
(0.00218785 -0.447157 0)
(0.00304827 -0.44184 0)
(0.00410061 -0.432199 0)
(0.0054019 -0.415814 0)
(0.00707466 -0.389436 0)
(0.00921031 -0.35003 0)
(0.00844686 -0.294557 0)
(2.08089e-05 -0.223571 0)
(-0.00035548 -0.133571 0)
(-0.150442 -0.0628493 0)
(-0.0720844 -0.42284 0)
(-0.0153692 -0.430848 0)
(-0.00246695 -0.412462 0)
(0.0044759 -0.36811 0)
(0.00795439 -0.28191 0)
(0.0110081 -0.142753 0)
(0.000699492 0.0175947 0)
(-0.0285673 0.0824937 0)
(-0.0776306 -0.0231203 0)
(-0.201895 -0.193723 0)
(-0.793074 0.0508754 0)
(-0.00497789 0.107835 0)
(-0.0176844 0.101344 0)
(-0.029095 0.0861367 0)
(-0.0423245 0.0627986 0)
(-0.0565815 0.030143 0)
(-0.0728101 -0.0135616 0)
(-0.0910364 -0.0698544 0)
(-0.111398 -0.13838 0)
(-0.131843 -0.217755 0)
(-0.153543 -0.305257 0)
(-0.152986 -0.370299 0)
(-0.142281 -0.411399 0)
(-0.134419 -0.0607105 0)
(-0.20103 0.0404568 0)
(-0.24053 0.0348017 0)
(-0.275768 -0.037457 0)
(-0.310991 -0.168757 0)
(-0.349425 -0.353827 0)
(-0.373836 -0.577968 0)
(-0.38191 -0.747707 0)
(-0.429062 -0.740149 0)
(-0.678607 -0.393179 0)
(-0.912475 0.225503 0)
(-0.0045052 -0.685086 0)
(-0.017166 -0.68531 0)
(-0.0260329 -0.685088 0)
(-0.0374755 -0.684368 0)
(-0.0497564 -0.682361 0)
(-0.0642643 -0.679051 0)
(-0.0818909 -0.674253 0)
(-0.104507 -0.667529 0)
(-0.133301 -0.659503 0)
(-0.171786 -0.651667 0)
(-0.224531 -0.640439 0)
(-0.302933 -0.62384 0)
(-0.335943 -0.614311 0)
(-0.338258 -0.61979 0)
(-0.334046 -0.611762 0)
(-0.336842 -0.596592 0)
(-0.354822 -0.578772 0)
(-0.392464 -0.560603 0)
(-0.451896 -0.55385 0)
(-0.570063 -0.525864 0)
(-0.746691 -0.380257 0)
(-0.904135 -0.0267554 0)
(-0.894173 0.226821 0)
(-0.00620216 -0.328053 0)
(-0.0172247 -0.332667 0)
(-0.0281763 -0.335729 0)
(-0.0409206 -0.340856 0)
(-0.0557163 -0.347525 0)
(-0.0730617 -0.356212 0)
(-0.0937333 -0.366424 0)
(-0.117857 -0.377007 0)
(-0.146148 -0.386599 0)
(-0.179829 -0.39286 0)
(-0.221289 -0.392512 0)
(-0.259695 -0.381878 0)
(-0.284992 -0.348479 0)
(-0.301342 -0.321126 0)
(-0.325178 -0.306493 0)
(-0.352318 -0.303899 0)
(-0.391891 -0.309063 0)
(-0.444158 -0.320599 0)
(-0.519834 -0.337599 0)
(-0.636995 -0.34082 0)
(-0.761984 -0.273483 0)
(-0.795164 -0.0896393 0)
(-0.787938 0.127586 0)
(-0.00650225 -0.38943 0)
(-0.0198104 -0.394074 0)
(-0.0333907 -0.39615 0)
(-0.0478641 -0.399258 0)
(-0.0636469 -0.403086 0)
(-0.0812432 -0.407405 0)
(-0.101253 -0.41189 0)
(-0.124227 -0.415837 0)
(-0.150501 -0.418013 0)
(-0.180122 -0.417131 0)
(-0.212491 -0.411595 0)
(-0.245966 -0.397986 0)
(-0.276194 -0.379129 0)
(-0.302144 -0.367768 0)
(-0.32615 -0.355973 0)
(-0.352844 -0.345024 0)
(-0.384273 -0.333535 0)
(-0.417064 -0.320176 0)
(-0.462208 -0.300941 0)
(-0.542834 -0.257431 0)
(-0.642516 -0.15852 0)
(-0.692494 -0.0295292 0)
(-0.653652 0.0617972 0)
(-0.00661872 -0.39067 0)
(-0.0200204 -0.39492 0)
(-0.0338671 -0.395648 0)
(-0.048603 -0.396809 0)
(-0.064622 -0.398037 0)
(-0.0822407 -0.399165 0)
(-0.101842 -0.399737 0)
(-0.123723 -0.399219 0)
(-0.14806 -0.397165 0)
(-0.174826 -0.393208 0)
(-0.203236 -0.38667 0)
(-0.231193 -0.376847 0)
(-0.257798 -0.363191 0)
(-0.281866 -0.345643 0)
(-0.307437 -0.327888 0)
(-0.335664 -0.310579 0)
(-0.369321 -0.293598 0)
(-0.410222 -0.273595 0)
(-0.461517 -0.249319 0)
(-0.510134 -0.219223 0)
(-0.538653 -0.167986 0)
(-0.555084 -0.0694088 0)
(-0.551334 0.0408101 0)
(-0.00677438 -0.365421 0)
(-0.0208131 -0.369292 0)
(-0.0351939 -0.369485 0)
(-0.0502997 -0.369748 0)
(-0.0663692 -0.369904 0)
(-0.0836396 -0.36969 0)
(-0.102322 -0.368853 0)
(-0.122533 -0.366978 0)
(-0.144261 -0.363565 0)
(-0.167353 -0.358092 0)
(-0.191341 -0.349989 0)
(-0.215649 -0.339034 0)
(-0.240136 -0.326132 0)
(-0.265577 -0.312921 0)
(-0.291032 -0.29766 0)
(-0.317189 -0.280354 0)
(-0.34386 -0.259537 0)
(-0.372359 -0.234527 0)
(-0.403013 -0.202206 0)
(-0.439262 -0.156414 0)
(-0.474332 -0.0944477 0)
(-0.490712 -0.0323928 0)
(-0.487685 0.0221264 0)
(-0.00684838 -0.355957 0)
(-0.0208439 -0.35959 0)
(-0.0351777 -0.359438 0)
(-0.050078 -0.359174 0)
(-0.0657546 -0.358613 0)
(-0.0824166 -0.357557 0)
(-0.100224 -0.355728 0)
(-0.119272 -0.352801 0)
(-0.139567 -0.34839 0)
(-0.160921 -0.342068 0)
(-0.182937 -0.333493 0)
(-0.205243 -0.32258 0)
(-0.227672 -0.309351 0)
(-0.250287 -0.293844 0)
(-0.273483 -0.276655 0)
(-0.297485 -0.257434 0)
(-0.322677 -0.235783 0)
(-0.348941 -0.210538 0)
(-0.375727 -0.180425 0)
(-0.399759 -0.143649 0)
(-0.416552 -0.0978659 0)
(-0.424837 -0.0423621 0)
(-0.426606 0.0155813 0)
(-0.00673851 -0.340473 0)
(-0.0205614 -0.343708 0)
(-0.0346427 -0.343086 0)
(-0.0491932 -0.342123 0)
(-0.064364 -0.340647 0)
(-0.0802987 -0.338498 0)
(-0.0971002 -0.335463 0)
(-0.114814 -0.331289 0)
(-0.133408 -0.325704 0)
(-0.152753 -0.31844 0)
(-0.172644 -0.309293 0)
(-0.19291 -0.29823 0)
(-0.213453 -0.285294 0)
(-0.234195 -0.270412 0)
(-0.255118 -0.253345 0)
(-0.276243 -0.233819 0)
(-0.297472 -0.211301 0)
(-0.318581 -0.18517 0)
(-0.338903 -0.154426 0)
(-0.357175 -0.118232 0)
(-0.371078 -0.0770875 0)
(-0.378303 -0.0334913 0)
(-0.379175 0.0101478 0)
(-0.00657436 -0.3277 0)
(-0.0200181 -0.330664 0)
(-0.0336702 -0.329739 0)
(-0.0476971 -0.328321 0)
(-0.0622106 -0.326269 0)
(-0.0773143 -0.323442 0)
(-0.0930774 -0.319664 0)
(-0.109523 -0.314736 0)
(-0.126615 -0.308446 0)
(-0.144256 -0.300589 0)
(-0.162311 -0.291015 0)
(-0.180654 -0.279633 0)
(-0.199196 -0.266365 0)
(-0.21786 -0.251139 0)
(-0.236558 -0.233849 0)
(-0.255176 -0.214268 0)
(-0.273517 -0.192099 0)
(-0.291203 -0.166929 0)
(-0.307559 -0.138332 0)
(-0.321466 -0.106011 0)
(-0.331414 -0.0701283 0)
(-0.336449 -0.0317783 0)
(-0.337585 0.00712803 0)
(-0.0063223 -0.31444 0)
(-0.019241 -0.317136 0)
(-0.03232 -0.315943 0)
(-0.0456938 -0.314133 0)
(-0.0594437 -0.311583 0)
(-0.0736441 -0.308178 0)
(-0.0883398 -0.303784 0)
(-0.10354 -0.298245 0)
(-0.119211 -0.291403 0)
(-0.135282 -0.28311 0)
(-0.151657 -0.273245 0)
(-0.168234 -0.261716 0)
(-0.184911 -0.248435 0)
(-0.201577 -0.233296 0)
(-0.218103 -0.216167 0)
(-0.234318 -0.196887 0)
(-0.249974 -0.175253 0)
(-0.264695 -0.151051 0)
(-0.277931 -0.12411 0)
(-0.288936 -0.0944475 0)
(-0.296721 -0.0624529 0)
(-0.300603 -0.0290152 0)
(-0.301477 0.00481801 0)
(-0.006015 -0.302016 0)
(-0.0182916 -0.30449 0)
(-0.0306891 -0.303097 0)
(-0.0433151 -0.300993 0)
(-0.0562272 -0.298075 0)
(-0.0694775 -0.29425 0)
(-0.0830944 -0.289411 0)
(-0.0970783 -0.283438 0)
(-0.111399 -0.276209 0)
(-0.125999 -0.267607 0)
(-0.140799 -0.257532 0)
(-0.155709 -0.245895 0)
(-0.170625 -0.232611 0)
(-0.185426 -0.217592 0)
(-0.199965 -0.200743 0)
(-0.214054 -0.181955 0)
(-0.227439 -0.16112 0)
(-0.239783 -0.138147 0)
(-0.250646 -0.113014 0)
(-0.2595 -0.0858372 0)
(-0.265692 -0.0569575 0)
(-0.268762 -0.0270288 0)
(-0.269481 0.00317301 0)
(-0.00566076 -0.290185 0)
(-0.0172047 -0.292466 0)
(-0.0288377 -0.290919 0)
(-0.0406449 -0.288589 0)
(-0.0526659 -0.285391 0)
(-0.0649366 -0.281251 0)
(-0.0774734 -0.276086 0)
(-0.0902711 -0.269802 0)
(-0.103301 -0.262304 0)
(-0.116513 -0.253503 0)
(-0.129838 -0.243314 0)
(-0.14319 -0.231663 0)
(-0.156468 -0.218479 0)
(-0.169551 -0.203692 0)
(-0.182288 -0.187236 0)
(-0.194497 -0.169049 0)
(-0.205947 -0.149086 0)
(-0.216349 -0.127335 0)
(-0.225365 -0.103851 0)
(-0.232617 -0.0787988 0)
(-0.237658 -0.0524815 0)
(-0.24015 -0.0253937 0)
(-0.240729 0.00189815 0)
(-0.0052718 -0.279124 0)
(-0.0160145 -0.28124 0)
(-0.0268208 -0.279578 0)
(-0.0377579 -0.27708 0)
(-0.0488514 -0.273676 0)
(-0.060125 -0.269308 0)
(-0.0715866 -0.263911 0)
(-0.0832266 -0.257413 0)
(-0.0950172 -0.249741 0)
(-0.106912 -0.240824 0)
(-0.118849 -0.230596 0)
(-0.130748 -0.218997 0)
(-0.142512 -0.205974 0)
(-0.154025 -0.191479 0)
(-0.165147 -0.175474 0)
(-0.175709 -0.157933 0)
(-0.185511 -0.138854 0)
(-0.194316 -0.118271 0)
(-0.201861 -0.0962773 0)
(-0.207874 -0.0730445 0)
(-0.212044 -0.0488361 0)
(-0.214111 -0.024038 0)
(-0.214582 0.000910968 0)
(-0.0048567 -0.268872 0)
(-0.0147471 -0.270847 0)
(-0.0246813 -0.269101 0)
(-0.0347119 -0.26648 0)
(-0.044854 -0.262928 0)
(-0.055122 -0.258399 0)
(-0.0655177 -0.252844 0)
(-0.0760284 -0.246207 0)
(-0.0866267 -0.238432 0)
(-0.0972697 -0.229466 0)
(-0.107899 -0.219258 0)
(-0.118443 -0.207766 0)
(-0.12881 -0.194951 0)
(-0.138895 -0.180787 0)
(-0.148571 -0.165258 0)
(-0.157689 -0.148365 0)
(-0.16608 -0.130133 0)
(-0.173553 -0.110625 0)
(-0.179904 -0.0899478 0)
(-0.184934 -0.0682681 0)
(-0.188421 -0.0458132 0)
(-0.190167 -0.0228903 0)
(-0.190556 0.000155586 0)
(-0.00442254 -0.259479 0)
(-0.0134235 -0.261335 0)
(-0.0224532 -0.25953 0)
(-0.0315524 -0.256822 0)
(-0.0407285 -0.253165 0)
(-0.0499891 -0.248528 0)
(-0.0593313 -0.24287 0)
(-0.0687406 -0.23615 0)
(-0.0781901 -0.228328 0)
(-0.08764 -0.219363 0)
(-0.0970375 -0.20922 0)
(-0.106316 -0.19787 0)
(-0.115395 -0.185291 0)
(-0.124179 -0.171474 0)
(-0.132557 -0.156419 0)
(-0.140404 -0.140147 0)
(-0.147576 -0.122702 0)
(-0.153921 -0.104159 0)
(-0.159283 -0.0846304 0)
(-0.163512 -0.0642721 0)
(-0.166447 -0.0432814 0)
(-0.16793 -0.0219092 0)
(-0.168274 -0.000435796 0)
(-0.00397481 -0.250979 0)
(-0.01206 -0.252733 0)
(-0.0201628 -0.250887 0)
(-0.0283144 -0.248119 0)
(-0.0365171 -0.244394 0)
(-0.044773 -0.239686 0)
(-0.0530762 -0.233967 0)
(-0.0614113 -0.227207 0)
(-0.0697525 -0.219377 0)
(-0.0780633 -0.210449 0)
(-0.0862959 -0.200401 0)
(-0.0943911 -0.189215 0)
(-0.102278 -0.176883 0)
(-0.109873 -0.163409 0)
(-0.117082 -0.148807 0)
(-0.123798 -0.133113 0)
(-0.129905 -0.116379 0)
(-0.135283 -0.0986886 0)
(-0.139808 -0.0801521 0)
(-0.143369 -0.0609135 0)
(-0.14585 -0.0411466 0)
(-0.147126 -0.0210628 0)
(-0.14743 -0.000899977 0)
(-0.0035177 -0.243395 0)
(-0.010669 -0.245064 0)
(-0.01783 -0.243191 0)
(-0.0250246 -0.240383 0)
(-0.0322512 -0.236614 0)
(-0.0395084 -0.231864 0)
(-0.0467883 -0.226116 0)
(-0.0540753 -0.219346 0)
(-0.0613452 -0.211536 0)
(-0.0685653 -0.202668 0)
(-0.0756931 -0.192731 0)
(-0.082677 -0.181717 0)
(-0.0894555 -0.16963 0)
(-0.0959577 -0.156482 0)
(-0.102104 -0.142301 0)
(-0.107807 -0.127128 0)
(-0.112972 -0.111024 0)
(-0.117505 -0.094074 0)
(-0.121309 -0.0763844 0)
(-0.124302 -0.058088 0)
(-0.126398 -0.0393396 0)
(-0.1275 -0.0203204 0)
(-0.127777 -0.00123254 0)
(-0.00305397 -0.236744 0)
(-0.00925918 -0.238342 0)
(-0.0154692 -0.236452 0)
(-0.0217022 -0.233618 0)
(-0.0279539 -0.229823 0)
(-0.0342204 -0.225053 0)
(-0.0404929 -0.219295 0)
(-0.0467561 -0.212536 0)
(-0.0529882 -0.204763 0)
(-0.0591604 -0.195969 0)
(-0.0652359 -0.186148 0)
(-0.0711705 -0.175304 0)
(-0.0769123 -0.163448 0)
(-0.0824023 -0.150601 0)
(-0.0875746 -0.136796 0)
(-0.0923584 -0.122083 0)
(-0.096679 -0.106526 0)
(-0.100461 -0.0902075 0)
(-0.103633 -0.073231 0)
(-0.10613 -0.0557188 0)
(-0.107891 -0.0378106 0)
(-0.108844 -0.0196654 0)
(-0.109105 -0.0014593 0)
(-0.00258425 -0.231037 0)
(-0.00783511 -0.232582 0)
(-0.0130899 -0.23068 0)
(-0.0183603 -0.22783 0)
(-0.0236407 -0.224021 0)
(-0.0289257 -0.219244 0)
(-0.0342059 -0.213491 0)
(-0.0394675 -0.206753 0)
(-0.0446913 -0.199027 0)
(-0.0498527 -0.190308 0)
(-0.0549207 -0.180601 0)
(-0.0598587 -0.169915 0)
(-0.0646237 -0.158268 0)
(-0.0691678 -0.145687 0)
(-0.0734381 -0.132211 0)
(-0.0773782 -0.117893 0)
(-0.0809298 -0.102797 0)
(-0.0840349 -0.0870072 0)
(-0.0866391 -0.0706201 0)
(-0.0886947 -0.0537498 0)
(-0.0901595 -0.0365239 0)
(-0.0909805 -0.0190847 0)
(-0.0912317 -0.00158942 0)
(-0.00210711 -0.226274 0)
(-0.00639783 -0.227779 0)
(-0.0106965 -0.225869 0)
(-0.0150054 -0.223009 0)
(-0.0193191 -0.219194 0)
(-0.0236313 -0.21442 0)
(-0.0279328 -0.20868 0)
(-0.0322118 -0.201971 0)
(-0.0364525 -0.194292 0)
(-0.0406345 -0.185648 0)
(-0.0447328 -0.176045 0)
(-0.0487179 -0.165499 0)
(-0.0525555 -0.154034 0)
(-0.0562078 -0.14168 0)
(-0.0596337 -0.12848 0)
(-0.0627896 -0.114489 0)
(-0.0656312 -0.0997728 0)
(-0.0681147 -0.0844119 0)
(-0.0702002 -0.0684991 0)
(-0.0718537 -0.0521406 0)
(-0.0730472 -0.0354542 0)
(-0.0737458 -0.0185698 0)
(-0.073996 -0.00163058 0)
(-0.00161692 -0.222433 0)
(-0.00493969 -0.22386 0)
(-0.00828548 -0.221948 0)
(-0.0116319 -0.219085 0)
(-0.0149784 -0.215272 0)
(-0.0183204 -0.210507 0)
(-0.0216503 -0.204786 0)
(-0.0249594 -0.19811 0)
(-0.0282359 -0.19048 0)
(-0.0314642 -0.181904 0)
(-0.0346248 -0.172396 0)
(-0.0376946 -0.161973 0)
(-0.0406472 -0.150663 0)
(-0.0434538 -0.138499 0)
(-0.0460833 -0.125526 0)
(-0.0485041 -0.1118 0)
(-0.0506835 -0.0973878 0)
(-0.0525893 -0.0823668 0)
(-0.0541935 -0.0668247 0)
(-0.0554737 -0.0508609 0)
(-0.0564135 -0.0345852 0)