/*--------------------------------*- C++ -*----------------------------------*\
| =========                 |                                                 |
| \\      /  F ield         | OpenFOAM: The Open Source CFD Toolbox           |
|  \\    /   O peration     | Version:  2.4.0                                 |
|   \\  /    A nd           | Web:      www.OpenFOAM.org                      |
|    \\/     M anipulation  |                                                 |
\*---------------------------------------------------------------------------*/
FoamFile
{
    version     2.0;
    format      ascii;
    class       volVectorField;
    location    "0.1";
    object      U.air;
}
// * * * * * * * * * * * * * * * * * * * * * * * * * * * * * * * * * * * * * //

dimensions      [0 1 -1 0 0 0 0];

internalField   nonuniform List<vector> 
2268
(
(0.0126353 -0.00597317 0)
(0.0382732 -0.00614391 0)
(0.0650329 -0.00649583 0)
(0.0937036 -0.00705019 0)
(0.125411 -0.00783879 0)
(0.160407 -0.00893536 0)
(0.203582 -0.0103586 0)
(0.245622 -0.0121818 0)
(0.315523 -0.0150996 0)
(0.366841 -0.0178474 0)
(0.473358 -0.0184567 0)
(0.549272 -0.033128 0)
(0.670692 -0.0412793 0)
(0.874418 -0.0331545 0)
(1.0655 -0.0206937 0)
(1.17061 -0.024605 0)
(1.20118 -0.0547684 0)
(1.22059 -0.166815 0)
(1.30429 -0.300376 0)
(1.3927 -0.333129 0)
(1.18405 -0.189306 0)
(0.567768 0.0142797 0)
(0.136557 0.0628015 0)
(0.0125584 -0.0178858 0)
(0.0380398 -0.0183991 0)
(0.0646281 -0.0194506 0)
(0.0931024 -0.021106 0)
(0.124564 -0.02346 0)
(0.159283 -0.0267432 0)
(0.202052 -0.0309184 0)
(0.243611 -0.0369287 0)
(0.313288 -0.0428834 0)
(0.363552 -0.0596731 0)
(0.469188 -0.0503744 0)
(0.552404 -0.0859354 0)
(0.680077 -0.126679 0)
(0.862876 -0.138986 0)
(1.03378 -0.102717 0)
(1.15337 -0.028875 0)
(1.20447 0.0130323 0)
(1.25373 -0.00217639 0)
(1.29328 0.00999567 0)
(1.10658 0.0528939 0)
(0.754357 0.142459 0)
(0.376828 0.19376 0)
(0.127238 0.19022 0)
(0.0123977 -0.029684 0)
(0.0375487 -0.0305319 0)
(0.0637774 -0.0322686 0)
(0.0918419 -0.035 0)
(0.122791 -0.0388832 0)
(0.156948 -0.0443027 0)
(0.198817 -0.0511993 0)
(0.239595 -0.060979 0)
(0.308376 -0.0727025 0)
(0.355368 -0.0927573 0)
(0.463871 -0.0935439 0)
(0.5431 -0.15144 0)
(0.679224 -0.192285 0)
(0.85467 -0.191327 0)
(1.004 -0.146341 0)
(1.09232 -0.106093 0)
(1.1324 -0.127922 0)
(1.20542 -0.18722 0)
(1.04568 -0.0570489 0)
(0.637718 0.253175 0)
(0.472715 0.32618 0)
(0.335722 0.305133 0)
(0.128411 0.289846 0)
(0.0121595 -0.0412911 0)
(0.0368207 -0.0424631 0)
(0.0625178 -0.0448623 0)
(0.0899769 -0.0486282 0)
(0.120167 -0.0539816 0)
(0.153498 -0.0614462 0)
(0.193949 -0.0709711 0)
(0.233917 -0.0845915 0)
(0.300162 -0.100757 0)
(0.344094 -0.127868 0)
(0.455238 -0.134489 0)
(0.526914 -0.202805 0)
(0.668687 -0.265622 0)
(0.828004 -0.26831 0)
(0.948003 -0.215498 0)
(1.00861 -0.18684 0)
(1.0479 -0.181645 0)
(0.992484 -0.0559299 0)
(0.642678 0.265196 0)
(0.518188 0.360836 0)
(0.448315 0.375362 0)
(0.334302 0.382167 0)
(0.1218 0.430734 0)
(0.0118466 -0.0526403 0)
(0.0358649 -0.0541221 0)
(0.0608667 -0.057154 0)
(0.0875344 -0.0618971 0)
(0.116736 -0.0686354 0)
(0.148966 -0.0780149 0)
(0.187577 -0.0900804 0)
(0.226425 -0.107208 0)
(0.289103 -0.128176 0)
(0.329595 -0.159853 0)
(0.439315 -0.175258 0)
(0.509231 -0.266287 0)
(0.646906 -0.327114 0)
(0.788674 -0.31527 0)
(0.860466 -0.292287 0)
(0.894177 -0.287827 0)
(0.906489 -0.222505 0)
(0.677727 0.149081 0)
(0.518493 0.353009 0)
(0.487227 0.389802 0)
(0.450029 0.412767 0)
(0.352242 0.452772 0)
(0.147433 0.511523 0)
(0.0114624 -0.0636756 0)
(0.0346915 -0.0654496 0)
(0.0588449 -0.0690783 0)
(0.0845487 -0.0747288 0)
(0.112549 -0.0827522 0)
(0.143408 -0.0939135 0)
(0.179832 -0.108389 0)
(0.217135 -0.128859 0)
(0.275453 -0.153839 0)
(0.311746 -0.190861 0)
(0.419843 -0.217603 0)
(0.482955 -0.32003 0)
(0.612189 -0.383016 0)
(0.71628 -0.382405 0)
(0.759398 -0.386441 0)
(0.785659 -0.333131 0)
(0.681634 -0.0264106 0)
(0.491245 0.287297 0)
(0.45976 0.372064 0)
(0.473869 0.403142 0)
(0.461773 0.438726 0)
(0.404211 0.530178 0)
(0.159528 0.690662 0)
(0.0110075 -0.0741815 0)
(0.033302 -0.0762271 0)
(0.056456 -0.0804201 0)
(0.0810224 -0.0869183 0)
(0.107626 -0.0961716 0)
(0.136864 -0.109013 0)
(0.170815 -0.12569 0)
(0.206051 -0.149156 0)
(0.259349 -0.177372 0)
(0.29104 -0.219106 0)
(0.39551 -0.256195 0)
(0.447461 -0.365709 0)
(0.556539 -0.433197 0)
(0.630038 -0.455412 0)
(0.674492 -0.443091 0)
(0.655147 -0.273731 0)
(0.462755 0.147211 0)
(0.401925 0.314364 0)
(0.43396 0.360416 0)
(0.479194 0.393329 0)
(0.501517 0.453805 0)
(0.468586 0.553307 0)
(0.231234 0.780281 0)
(0.010465 -0.0841134 0)
(0.0316417 -0.0864398 0)
(0.0536078 -0.0912061 0)
(0.0768214 -0.0984876 0)
(0.101879 -0.108732 0)
(0.129353 -0.122902 0)
(0.160645 -0.141156 0)
(0.193407 -0.16669 0)
(0.241288 -0.196936 0)
(0.268611 -0.242323 0)
(0.368865 -0.287139 0)
(0.39932 -0.407957 0)
(0.481398 -0.490411 0)
(0.541021 -0.526792 0)
(0.581143 -0.458015 0)
(0.465215 -0.0977229 0)
(0.334738 0.221841 0)
(0.351409 0.303731 0)
(0.433138 0.335185 0)
(0.502386 0.373667 0)
(0.543413 0.448241 0)
(0.592486 0.633545 0)
(0.318523 1.08252 0)
(-0.0852158 0.026648 0)
(-0.158472 0.00924992 0)
(-0.154239 -0.0078017 0)
(-0.108843 -0.0144457 0)
(-0.015863 -0.0209373 0)
(0.147397 -0.0412739 0)
(0.370845 -0.0457161 0)
(0.551036 -0.0251105 0)
(0.614447 -0.00298919 0)
(0.597284 0.00992751 0)
(0.526608 0.0161267 0)
(0.447365 0.0165911 0)
(0.371347 0.0152107 0)
(0.301707 0.0137527 0)
(0.238608 0.0125437 0)
(0.180626 0.0116223 0)
(0.126409 0.0109652 0)
(0.0747861 0.0105365 0)
(0.0246783 0.0104138 0)
(-0.0941285 0.0806655 0)
(-0.17744 0.0271935 0)
(-0.162926 -0.0276816 0)
(-0.110387 -0.0469426 0)
(-0.0163658 -0.0648863 0)
(0.154157 -0.127124 0)
(0.397185 -0.143253 0)
(0.592886 -0.0773596 0)
(0.653097 -0.00168301 0)
(0.634892 0.0321382 0)
(0.550666 0.0501619 0)
(0.463016 0.0516341 0)
(0.383579 0.0471744 0)
(0.311642 0.0426497 0)
(0.246537 0.0389342 0)
(0.186685 0.036106 0)
(0.13068 0.0340876 0)
(0.0773125 0.0327923 0)
(0.0254362 0.0319799 0)
(-0.108146 0.15255 0)
(-0.215032 0.04598 0)
(-0.180041 -0.054194 0)
(-0.10475 -0.0824031 0)
(0.00253589 -0.110173 0)
(0.195318 -0.214985 0)
(0.462937 -0.249118 0)
(0.681672 -0.136015 0)
(0.745417 -0.00578221 0)
(0.677005 0.0613542 0)
(0.559778 0.0883072 0)
(0.462635 0.0877324 0)
(0.381741 0.0792996 0)
(0.309932 0.0714717 0)
(0.245172 0.0652117 0)
(0.185675 0.0604804 0)
(0.129989 0.0571114 0)
(0.0769143 0.0549592 0)
(0.0253049 0.0536398 0)
(-0.144676 0.197812 0)
(-0.276025 0.0664147 0)
(-0.161732 -0.0927487 0)
(-0.00637878 -0.141553 0)
(0.183859 -0.181215 0)
(0.476986 -0.328505 0)
(0.761648 -0.406477 0)
(0.972675 -0.194636 0)
(0.860826 0.0295403 0)
(0.689381 0.118866 0)
(0.553161 0.135586 0)
(0.457584 0.125078 0)
(0.377301 0.111472 0)
(0.306341 0.100161 0)
(0.242402 0.0913401 0)
(0.183638 0.0847235 0)
(0.128599 0.0800239 0)
(0.0761097 0.0770279 0)
(0.0250433 0.0751779 0)
(-0.174134 0.421127 0)
(-0.301495 0.0997715 0)
(0.105564 -0.157816 0)
(0.433942 -0.169603 0)
(0.815816 -0.18696 0)
(1.31206 -0.475764 0)
(1.57166 -0.523063 0)
(1.26931 -0.155481 0)
(0.881154 0.136616 0)
(0.673263 0.189667 0)
(0.543752 0.182125 0)
(0.45004 0.161741 0)
(0.371054 0.14314 0)
(0.301435 0.128398 0)
(0.238664 0.117066 0)
(0.180904 0.108615 0)
(0.126739 0.102626 0)
(0.0750312 0.0988113 0)
(0.0246915 0.096444 0)
(-0.215222 0.13962 0)
(0.248431 -0.0575261 0)
(0.865665 -0.494099 0)
(1.08721 -0.447761 0)
(1.4055 -0.420263 0)
(1.83014 -0.651334 0)
(1.88334 -0.493899 0)
(1.20445 0.0986393 0)
(0.823006 0.265747 0)
(0.649041 0.258346 0)
(0.530546 0.226932 0)
(0.439904 0.197626 0)
(0.363082 0.174201 0)
(0.295285 0.156113 0)
(0.234018 0.142345 0)
(0.177518 0.132122 0)
(0.124438 0.124889 0)
(0.0736971 0.120285 0)
(0.0242562 0.117417 0)
(-0.0452271 0.927831 0)
(0.897508 -0.408402 0)
(0.975023 -0.582212 0)
(1.10905 -0.611805 0)
(1.37063 -0.640065 0)
(1.81937 -0.728262 0)
(1.58572 -0.224123 0)
(0.989776 0.289481 0)
(0.760593 0.36643 0)
(0.620141 0.316474 0)
(0.513196 0.268306 0)
(0.427278 0.231655 0)
(0.353459 0.20383 0)
(0.287953 0.182666 0)
(0.22851 0.166659 0)
(0.173515 0.154805 0)
(0.12172 0.146426 0)
(0.072121 0.141095 0)
(0.0237405 0.13776 0)
(1.05015 -0.332445 0)
(1.04299 -0.520094 0)
(1.10601 -0.653521 0)
(1.20387 -0.685705 0)
(1.40753 -0.653783 0)
(1.63004 -0.661356 0)
(1.23169 -0.0838513 0)
(0.855805 0.425929 0)
(0.702898 0.445127 0)
(0.586524 0.368088 0)
(0.49213 0.308457 0)
(0.412267 0.265434 0)
(0.342219 0.233397 0)
(0.279465 0.209226 0)
(0.22216 0.191013 0)
(0.168908 0.177548 0)
(0.118594 0.168036 0)
(0.0703084 0.161984 0)
(0.023148 0.158183 0)
(0.00940884 -0.101129 0)
(0.028444 -0.103662 0)
(0.0482702 -0.108809 0)
(0.0692315 -0.116292 0)
(0.0918517 -0.126619 0)
(0.116429 -0.14148 0)
(0.143605 -0.160695 0)
(0.17203 -0.18832 0)
(0.211483 -0.221965 0)
(0.233352 -0.275593 0)
(0.317696 -0.341643 0)
(0.315043 -0.487335 0)
(0.354521 -0.586956 0)
(0.367945 -0.576562 0)
(0.321751 -0.328828 0)
(0.218258 0.0812644 0)
(0.260441 0.204751 0)
(0.355537 0.24549 0)
(0.436264 0.278437 0)
(0.565344 0.293573 0)
(0.629543 0.416129 0)
(0.894892 0.478234 0)
(1.1662 0.963916 0)
(0.00829262 -0.113975 0)
(0.0250307 -0.116511 0)
(0.0426438 -0.12188 0)
(0.0607609 -0.129023 0)
(0.0790547 -0.140089 0)
(0.0982356 -0.157193 0)
(0.120233 -0.179759 0)
(0.141916 -0.217591 0)
(0.167476 -0.266409 0)
(0.186818 -0.344923 0)
(0.214236 -0.444304 0)
(0.180457 -0.612712 0)
(0.210242 -0.650922 0)
(0.236684 -0.498919 0)
(0.152693 -0.110344 0)
(0.204915 0.0451618 0)
(0.285109 0.108862 0)
(0.3857 0.143149 0)
(0.478877 0.182803 0)
(0.598932 0.184223 0)
(0.716003 0.28971 0)
(0.880365 0.233686 0)
(1.15925 0.394269 0)
(0.0073253 -0.144021 0)
(0.0218472 -0.149592 0)
(0.0374448 -0.164025 0)
(0.052604 -0.182957 0)
(0.0694409 -0.207125 0)
(0.0808493 -0.241308 0)
(0.0945655 -0.275087 0)
(0.104332 -0.324669 0)
(0.112741 -0.377058 0)
(0.128649 -0.446355 0)
(0.148947 -0.508917 0)
(0.208489 -0.628582 0)
(0.255819 -0.620764 0)
(0.222858 -0.386538 0)
(0.226379 -0.140624 0)
(0.274282 -0.0437623 0)
(0.339162 0.0131989 0)
(0.42447 0.047989 0)
(0.508805 0.0827115 0)
(0.616397 0.0746274 0)
(0.73511 0.131815 0)
(0.84621 0.0688082 0)
(1.05553 0.0856509 0)
(0.00692301 -0.243619 0)
(0.015245 -0.247849 0)
(0.0240008 -0.254056 0)
(0.0356093 -0.258718 0)
(0.0560785 -0.259567 0)
(0.0768728 -0.280252 0)
(0.107104 -0.295033 0)
(0.148693 -0.320362 0)
(0.195898 -0.354264 0)
(0.256904 -0.398968 0)
(0.320577 -0.471669 0)
(0.33101 -0.595738 0)
(0.34084 -0.565161 0)
(0.32091 -0.361138 0)
(0.312404 -0.176659 0)
(0.338379 -0.0910674 0)
(0.382541 -0.0520412 0)
(0.452252 -0.0304946 0)
(0.522559 -0.0107557 0)
(0.626221 -0.026044 0)
(0.72611 -0.00525743 0)
(0.842527 -0.0409202 0)
(1.00206 -0.0564041 0)
(0.0232788 -0.160102 0)
(0.0731687 -0.173588 0)
(0.121719 -0.175776 0)
(0.165271 -0.197278 0)
(0.214485 -0.206807 0)
(0.252588 -0.244449 0)
(0.29587 -0.279024 0)
(0.332354 -0.327181 0)
(0.365629 -0.376351 0)
(0.392139 -0.436697 0)
(0.403832 -0.486378 0)
(0.380948 -0.54829 0)
(0.385039 -0.51735 0)
(0.353894 -0.344703 0)
(0.338674 -0.180159 0)
(0.364014 -0.116643 0)
(0.401386 -0.0998972 0)
(0.46111 -0.0951444 0)
(0.524594 -0.0913167 0)
(0.619609 -0.115442 0)
(0.704539 -0.115733 0)
(0.809357 -0.150683 0)
(0.941673 -0.205094 0)
(0.0190093 -0.224343 0)
(0.0580362 -0.226372 0)
(0.0981451 -0.237987 0)
(0.135293 -0.255199 0)
(0.177703 -0.275184 0)
(0.217111 -0.301757 0)
(0.255181 -0.331259 0)
(0.287279 -0.366738 0)
(0.314109 -0.405179 0)
(0.333802 -0.449539 0)
(0.326347 -0.482846 0)
(0.34106 -0.521999 0)
(0.36179 -0.48895 0)
(0.341878 -0.327134 0)
(0.331277 -0.185295 0)
(0.360412 -0.146022 0)
(0.400018 -0.146513 0)
(0.454382 -0.155227 0)
(0.513561 -0.165384 0)
(0.598711 -0.197662 0)
(0.67119 -0.211024 0)
(0.768979 -0.258365 0)
(0.885437 -0.320758 0)
(0.0176027 -0.256344 0)
(0.052972 -0.260574 0)
(0.0879374 -0.26913 0)
(0.122766 -0.281888 0)
(0.155232 -0.295613 0)
(0.187365 -0.31756 0)
(0.216334 -0.341708 0)
(0.243311 -0.37304 0)
(0.263875 -0.407029 0)
(0.285664 -0.442538 0)
(0.29455 -0.481025 0)
(0.314392 -0.528427 0)
(0.342052 -0.489927 0)
(0.323037 -0.331975 0)
(0.319672 -0.205914 0)
(0.344359 -0.180359 0)
(0.387296 -0.192625 0)
(0.437156 -0.211364 0)
(0.491575 -0.232498 0)
(0.56755 -0.271082 0)
(0.630568 -0.295426 0)
(0.722417 -0.352643 0)
(0.821138 -0.417274 0)
(0.015579 -0.291665 0)
(0.0466642 -0.295762 0)
(0.0773638 -0.303776 0)
(0.107244 -0.315811 0)
(0.136832 -0.332847 0)
(0.16507 -0.352942 0)
(0.191844 -0.378383 0)
(0.216135 -0.405965 0)
(0.2367 -0.437199 0)
(0.256399 -0.470945 0)
(0.262198 -0.499863 0)
(0.287848 -0.536846 0)
(0.317337 -0.489879 0)
(0.294377 -0.331547 0)
(0.295267 -0.224375 0)
(0.322013 -0.212009 0)
(0.36486 -0.236047 0)
(0.410868 -0.263042 0)
(0.460844 -0.292966 0)
(0.52801 -0.336621 0)
(0.583658 -0.370109 0)
(0.666656 -0.435175 0)
(0.75034 -0.503549 0)
(0.0136432 -0.319893 0)
(0.0408348 -0.323901 0)
(0.0676788 -0.331413 0)
(0.0940683 -0.34259 0)
(0.119481 -0.357138 0)
(0.143807 -0.37571 0)
(0.166447 -0.397359 0)
(0.187234 -0.422662 0)
(0.205077 -0.450329 0)
(0.223457 -0.479173 0)
(0.230951 -0.50823 0)
(0.259228 -0.547683 0)
(0.28972 -0.490862 0)
(0.260447 -0.333314 0)
(0.26617 -0.245946 0)
(0.295614 -0.246296 0)
(0.336156 -0.277686 0)
(0.37812 -0.310536 0)
(0.42331 -0.34707 0)
(0.482251 -0.394794 0)
(0.530584 -0.435978 0)
(0.605093 -0.507211 0)
(0.674348 -0.578552 0)
(0.0118263 -0.345856 0)
(0.0353827 -0.349635 0)
(0.0585948 -0.356641 0)
(0.0812344 -0.367158 0)
(0.103134 -0.381289 0)
(0.124003 -0.398661 0)
(0.143617 -0.419419 0)
(0.161823 -0.442821 0)
(0.177967 -0.468746 0)
(0.194943 -0.496403 0)
(0.202624 -0.523897 0)
(0.23115 -0.560436 0)
(0.260207 -0.490366 0)
(0.22332 -0.334119 0)
(0.234937 -0.267094 0)
(0.265907 -0.279733 0)
(0.302498 -0.315952 0)
(0.34021 -0.353129 0)
(0.380404 -0.394709 0)
(0.431308 -0.445673 0)
(0.472719 -0.493405 0)
(0.538406 -0.569224 0)
(0.59467 -0.644592 0)
(0.0101183 -0.367723 0)
(0.0302613 -0.371283 0)
(0.0500622 -0.377835 0)
(0.0693275 -0.387711 0)
(0.087897 -0.400862 0)
(0.105621 -0.417191 0)
(0.122304 -0.436426 0)
(0.137877 -0.458414 0)
(0.152051 -0.482778 0)
(0.166933 -0.508959 0)
(0.174167 -0.536367 0)
(0.201896 -0.572524 0)
(0.22789 -0.486994 0)
(0.184127 -0.336282 0)
(0.202 -0.288125 0)
(0.233805 -0.312027 0)
(0.26526 -0.350452 0)
(0.298506 -0.390602 0)
(0.333398 -0.435799 0)
(0.376348 -0.489231 0)
(0.410771 -0.542488 0)
(0.467743 -0.622397 0)
(0.515729 -0.700338 0)
(0.00849491 -0.38584 0)
(0.0253978 -0.389282 0)
(0.0419895 -0.39558 0)
(0.0580366 -0.405064 0)
(0.0734639 -0.417636 0)
(0.0882005 -0.43314 0)
(0.102109 -0.451459 0)
(0.11514 -0.472405 0)
(0.127171 -0.495842 0)
(0.139706 -0.521405 0)
(0.146185 -0.548928 0)
(0.171944 -0.583868 0)
(0.193745 -0.480366 0)
(0.143664 -0.338647 0)
(0.169352 -0.308685 0)
(0.199267 -0.341778 0)
(0.225627 -0.380715 0)
(0.254173 -0.422724 0)
(0.283411 -0.470306 0)
(0.318395 -0.5254 0)
(0.345036 -0.583547 0)
(0.393615 -0.666736 0)
(0.440132 -0.745105 0)
(0.00668933 -0.401943 0)
(0.0200466 -0.405294 0)
(0.0335294 -0.411041 0)
(0.0469192 -0.419795 0)
(0.0596022 -0.431779 0)
(0.0715752 -0.446556 0)
(0.0828065 -0.464023 0)
(0.0932585 -0.484137 0)
(0.102935 -0.50684 0)
(0.112699 -0.531941 0)
(0.118097 -0.559912 0)
(0.140548 -0.593649 0)
(0.157694 -0.470954 0)
(0.102434 -0.341222 0)
(0.137456 -0.330755 0)
(0.162723 -0.368211 0)
(0.184825 -0.40698 0)
(0.208318 -0.44968 0)
(0.231521 -0.498283 0)
(0.258291 -0.55374 0)
(0.275697 -0.61518 0)
(0.318092 -0.695213 0)
(0.455082 -0.718538 0)
(0.00510159 -0.414281 0)
(0.0153267 -0.41744 0)
(0.0255769 -0.422984 0)
(0.0359386 -0.430973 0)
(0.0462164 -0.441437 0)
(0.0555894 -0.454549 0)
(0.0642013 -0.469855 0)
(0.0720494 -0.486952 0)
(0.0791455 -0.505223 0)
(0.0856896 -0.523931 0)
(0.0899436 -0.54407 0)
(0.106504 -0.563456 0)
(0.118314 -0.44684 0)
(0.0640149 -0.330251 0)
(0.1057 -0.352705 0)
(0.125792 -0.389262 0)
(0.144061 -0.424118 0)
(0.162242 -0.458466 0)
(0.179221 -0.486439 0)
(0.19753 -0.495122 0)
(0.207968 -0.536804 0)
(0.308963 -0.611301 0)
(0.452586 -0.638985 0)
(0.0041504 -0.310864 0)
(0.012357 -0.313054 0)
(0.020037 -0.317177 0)
(0.0271528 -0.323503 0)
(0.0342191 -0.331795 0)
(0.0412432 -0.3422 0)
(0.0477772 -0.354853 0)
(0.0540952 -0.369764 0)
(0.0604851 -0.38572 0)
(0.0666888 -0.40232 0)
(0.0753869 -0.421518 0)
(0.0823339 -0.438536 0)
(0.0762185 -0.284043 0)
(0.0271592 -0.210862 0)
(0.0754051 -0.258446 0)
(0.0915726 -0.282974 0)
(0.108203 -0.307702 0)
(0.128693 -0.333498 0)
(0.163574 -0.352408 0)
(0.211868 -0.353532 0)
(0.244555 -0.406632 0)
(0.302525 -0.511968 0)
(0.303934 -0.693152 0)
(0.00431882 -0.166112 0)
(0.0129444 -0.168659 0)
(0.0212743 -0.173638 0)
(0.0292629 -0.181689 0)
(0.0367522 -0.19314 0)
(0.0443031 -0.208612 0)
(0.0520592 -0.228124 0)
(0.059823 -0.251249 0)
(0.0665521 -0.278221 0)
(0.0686301 -0.308663 0)
(0.0689991 -0.341497 0)
(0.00884237 -0.36828 0)
(-0.038636 -0.10352 0)
(-0.00637672 -0.0864519 0)
(0.0602573 -0.113772 0)
(0.0914165 -0.138081 0)
(0.121312 -0.172779 0)
(0.145189 -0.218514 0)
(0.152506 -0.275382 0)
(0.137122 -0.347337 0)
(0.113607 -0.440015 0)
(0.126047 -0.55645 0)
(0.152771 -0.773081 0)
(0.00153811 -0.174899 0)
(0.00427666 -0.177992 0)
(0.00672652 -0.183547 0)
(0.00843276 -0.191664 0)
(0.00953494 -0.202189 0)
(0.0100749 -0.215001 0)
(0.0105473 -0.230191 0)
(0.011861 -0.248643 0)
(0.0153143 -0.271221 0)
(0.0200186 -0.297414 0)
(0.0268894 -0.328011 0)
(0.00517332 -0.342737 0)
(-0.0176518 -0.148028 0)
(0.00577644 -0.129527 0)
(0.0217469 -0.147432 0)
(0.0263585 -0.172023 0)
(0.0312125 -0.206863 0)
(0.0457434 -0.25719 0)
(0.070272 -0.322105 0)
(0.102163 -0.403308 0)
(0.143004 -0.484466 0)
(0.164715 -0.560067 0)
(0.0238229 -0.456449 0)
(0.00113981 -0.376247 0)
(0.00244141 -0.376407 0)
(0.00381993 -0.375798 0)
(0.00517378 -0.373541 0)
(0.00660446 -0.367695 0)
(0.0081357 -0.355696 0)
(0.00984028 -0.334218 0)
(0.0117449 -0.300225 0)
(0.0105097 -0.250724 0)
(0.00131231 -0.186201 0)
(0.000696874 -0.102131 0)
(-0.156962 -0.022429 0)
(-0.0876458 -0.338407 0)
(-0.0185071 -0.34087 0)
(0.000311784 -0.328528 0)
(0.00948901 -0.295458 0)
(0.0127365 -0.223144 0)
(0.0146281 -0.100688 0)
(0.0026533 0.04201 0)
(-0.0279682 0.0921496 0)
(-0.0775465 -0.0201126 0)
(-0.201953 -0.192744 0)
(-0.793215 0.051253 0)
(-0.00498301 0.108501 0)
(-0.0176941 0.101969 0)
(-0.0291092 0.0866883 0)
(-0.0423416 0.0632589 0)
(-0.0565995 0.0305054 0)
(-0.0728273 -0.0132921 0)
(-0.0910515 -0.0696648 0)
(-0.11141 -0.138254 0)
(-0.131852 -0.217674 0)
(-0.15355 -0.305207 0)
(-0.152994 -0.370261 0)
(-0.142357 -0.411172 0)
(-0.134527 -0.0599215 0)
(-0.201168 0.0411865 0)
(-0.240633 0.0352773 0)
(-0.275823 -0.0372264 0)
(-0.311015 -0.168664 0)
(-0.349435 -0.353794 0)
(-0.373838 -0.577958 0)
(-0.38191 -0.747705 0)
(-0.429061 -0.740148 0)
(-0.678605 -0.393179 0)
(-0.912473 0.225504 0)
(-0.00450522 -0.685089 0)
(-0.0171661 -0.685313 0)
(-0.0260331 -0.685092 0)
(-0.0374757 -0.684371 0)
(-0.0497566 -0.682364 0)
(-0.0642646 -0.679054 0)
(-0.0818913 -0.674256 0)
(-0.104507 -0.667532 0)
(-0.133301 -0.659505 0)
(-0.171787 -0.651669 0)
(-0.224531 -0.64044 0)
(-0.302934 -0.623842 0)
(-0.335944 -0.614312 0)
(-0.338259 -0.619792 0)
(-0.334047 -0.611763 0)
(-0.336843 -0.596593 0)
(-0.354822 -0.578773 0)
(-0.392464 -0.560603 0)
(-0.451897 -0.55385 0)
(-0.570063 -0.525864 0)
(-0.746691 -0.380257 0)
(-0.904133 -0.0267553 0)
(-0.894171 0.226821 0)
(-0.00620216 -0.328053 0)
(-0.0172247 -0.332667 0)
(-0.0281764 -0.335729 0)
(-0.0409206 -0.340856 0)
(-0.0557164 -0.347525 0)
(-0.0730617 -0.356212 0)
(-0.0937333 -0.366424 0)
(-0.117857 -0.377007 0)
(-0.146148 -0.386599 0)
(-0.179829 -0.39286 0)
(-0.221289 -0.392512 0)
(-0.259695 -0.381878 0)
(-0.284992 -0.348479 0)
(-0.301342 -0.321126 0)
(-0.325178 -0.306493 0)
(-0.352318 -0.303899 0)
(-0.391891 -0.309063 0)
(-0.444158 -0.320599 0)
(-0.519834 -0.337599 0)
(-0.636996 -0.34082 0)
(-0.761984 -0.273483 0)
(-0.795164 -0.0896393 0)
(-0.787937 0.127585 0)
(-0.00650225 -0.38943 0)
(-0.0198104 -0.394074 0)
(-0.0333907 -0.39615 0)
(-0.0478641 -0.399258 0)
(-0.0636469 -0.403086 0)
(-0.0812432 -0.407405 0)
(-0.101253 -0.41189 0)
(-0.124227 -0.415837 0)
(-0.150501 -0.418013 0)
(-0.180122 -0.417131 0)
(-0.212491 -0.411595 0)
(-0.245966 -0.397986 0)
(-0.276194 -0.379129 0)
(-0.302144 -0.367768 0)
(-0.32615 -0.355973 0)
(-0.352844 -0.345024 0)
(-0.384272 -0.333535 0)
(-0.417064 -0.320176 0)
(-0.462209 -0.300941 0)
(-0.542834 -0.257431 0)
(-0.642516 -0.158521 0)
(-0.692494 -0.0295292 0)
(-0.653652 0.0617972 0)
(-0.00661872 -0.39067 0)
(-0.0200204 -0.39492 0)
(-0.0338671 -0.395649 0)
(-0.048603 -0.396809 0)
(-0.064622 -0.398037 0)
(-0.0822407 -0.399165 0)
(-0.101842 -0.399737 0)
(-0.123723 -0.399219 0)
(-0.14806 -0.397165 0)
(-0.174826 -0.393208 0)
(-0.203236 -0.38667 0)
(-0.231193 -0.376847 0)
(-0.257798 -0.363191 0)
(-0.281866 -0.345643 0)
(-0.307437 -0.327887 0)
(-0.335664 -0.310579 0)
(-0.369321 -0.293598 0)
(-0.410222 -0.273595 0)
(-0.461517 -0.249319 0)
(-0.510135 -0.219224 0)
(-0.538654 -0.167986 0)
(-0.555085 -0.0694089 0)
(-0.551334 0.0408102 0)
(-0.00677438 -0.365421 0)
(-0.0208131 -0.369292 0)
(-0.0351939 -0.369485 0)
(-0.0502997 -0.369748 0)
(-0.0663692 -0.369904 0)
(-0.0836396 -0.36969 0)
(-0.102322 -0.368853 0)
(-0.122533 -0.366978 0)
(-0.144261 -0.363565 0)
(-0.167353 -0.358092 0)
(-0.191341 -0.349989 0)
(-0.215649 -0.339034 0)
(-0.240135 -0.326132 0)
(-0.265577 -0.312921 0)
(-0.291032 -0.29766 0)
(-0.317188 -0.280354 0)
(-0.34386 -0.259537 0)
(-0.372359 -0.234527 0)
(-0.403014 -0.202206 0)
(-0.439262 -0.156414 0)
(-0.474333 -0.0944478 0)
(-0.490713 -0.0323929 0)
(-0.487686 0.0221264 0)
(-0.00684838 -0.355957 0)
(-0.0208439 -0.35959 0)
(-0.0351777 -0.359438 0)
(-0.050078 -0.359174 0)
(-0.0657546 -0.358613 0)
(-0.0824166 -0.357557 0)
(-0.100224 -0.355728 0)
(-0.119272 -0.352801 0)
(-0.139567 -0.34839 0)
(-0.160921 -0.342068 0)
(-0.182937 -0.333493 0)
(-0.205243 -0.32258 0)
(-0.227672 -0.309351 0)
(-0.250287 -0.293843 0)
(-0.273483 -0.276655 0)
(-0.297485 -0.257434 0)
(-0.322677 -0.235783 0)
(-0.348941 -0.210538 0)
(-0.375727 -0.180425 0)
(-0.399759 -0.143649 0)
(-0.416553 -0.0978661 0)
(-0.424838 -0.0423622 0)
(-0.426607 0.0155814 0)
(-0.00673851 -0.340473 0)
(-0.0205614 -0.343708 0)
(-0.0346427 -0.343086 0)
(-0.0491932 -0.342123 0)
(-0.064364 -0.340647 0)
(-0.0802987 -0.338498 0)
(-0.0971002 -0.335463 0)
(-0.114814 -0.331289 0)
(-0.133408 -0.325704 0)
(-0.152753 -0.31844 0)
(-0.172644 -0.309293 0)
(-0.19291 -0.298229 0)
(-0.213453 -0.285294 0)
(-0.234195 -0.270412 0)
(-0.255118 -0.253345 0)
(-0.276243 -0.233819 0)
(-0.297472 -0.211301 0)
(-0.318581 -0.18517 0)
(-0.338903 -0.154426 0)
(-0.357175 -0.118232 0)
(-0.371078 -0.0770876 0)
(-0.378303 -0.0334913 0)
(-0.379176 0.0101478 0)
(-0.00657436 -0.3277 0)
(-0.0200181 -0.330664 0)
(-0.0336702 -0.329739 0)
(-0.0476971 -0.328321 0)
(-0.0622106 -0.326269 0)
(-0.0773143 -0.323442 0)
(-0.0930774 -0.319664 0)
(-0.109523 -0.314736 0)
(-0.126615 -0.308446 0)
(-0.144256 -0.300589 0)
(-0.162311 -0.291015 0)
(-0.180654 -0.279633 0)
(-0.199196 -0.266365 0)
(-0.21786 -0.251139 0)
(-0.236558 -0.233849 0)
(-0.255176 -0.214268 0)
(-0.273517 -0.192099 0)
(-0.291204 -0.166929 0)
(-0.307559 -0.138332 0)
(-0.321466 -0.106011 0)
(-0.331414 -0.0701284 0)
(-0.336449 -0.0317784 0)
(-0.337586 0.00712804 0)
(-0.0063223 -0.31444 0)
(-0.019241 -0.317136 0)
(-0.03232 -0.315943 0)
(-0.0456938 -0.314134 0)
(-0.0594437 -0.311583 0)
(-0.0736441 -0.308178 0)
(-0.0883398 -0.303784 0)
(-0.10354 -0.298245 0)
(-0.119211 -0.291403 0)
(-0.135282 -0.28311 0)
(-0.151657 -0.273245 0)
(-0.168234 -0.261716 0)
(-0.184911 -0.248435 0)
(-0.201577 -0.233296 0)
(-0.218103 -0.216167 0)
(-0.234318 -0.196887 0)
(-0.249974 -0.175253 0)
(-0.264695 -0.151051 0)
(-0.277932 -0.12411 0)
(-0.288936 -0.0944476 0)
(-0.296721 -0.062453 0)
(-0.300603 -0.0290153 0)
(-0.301478 0.00481802 0)
(-0.006015 -0.302016 0)
(-0.0182916 -0.30449 0)
(-0.0306891 -0.303097 0)
(-0.0433151 -0.300993 0)
(-0.0562272 -0.298075 0)
(-0.0694775 -0.29425 0)
(-0.0830944 -0.289411 0)
(-0.0970783 -0.283438 0)
(-0.111399 -0.276209 0)
(-0.125999 -0.267607 0)
(-0.140799 -0.257532 0)
(-0.155709 -0.245895 0)
(-0.170625 -0.232611 0)
(-0.185426 -0.217592 0)
(-0.199965 -0.200743 0)
(-0.214054 -0.181956 0)
(-0.227439 -0.16112 0)
(-0.239783 -0.138147 0)
(-0.250646 -0.113014 0)
(-0.2595 -0.0858373 0)
(-0.265692 -0.0569575 0)
(-0.268762 -0.0270288 0)
(-0.269481 0.00317301 0)
(-0.00566076 -0.290185 0)
(-0.0172047 -0.292466 0)
(-0.0288377 -0.290919 0)
(-0.0406449 -0.288589 0)
(-0.0526659 -0.285391 0)
(-0.0649366 -0.281251 0)
(-0.0774734 -0.276086 0)
(-0.0902712 -0.269802 0)
(-0.103301 -0.262304 0)
(-0.116513 -0.253503 0)
(-0.129838 -0.243314 0)
(-0.14319 -0.231663 0)
(-0.156468 -0.218479 0)
(-0.169551 -0.203692 0)
(-0.182288 -0.187236 0)
(-0.194498 -0.169049 0)
(-0.205947 -0.149086 0)
(-0.216349 -0.127335 0)
(-0.225365 -0.103852 0)
(-0.232617 -0.0787988 0)
(-0.237658 -0.0524815 0)
(-0.24015 -0.0253937 0)
(-0.240729 0.00189815 0)
(-0.0052718 -0.279124 0)
(-0.0160145 -0.28124 0)
(-0.0268208 -0.279578 0)
(-0.0377579 -0.27708 0)
(-0.0488514 -0.273676 0)
(-0.060125 -0.269308 0)
(-0.0715866 -0.263911 0)
(-0.0832266 -0.257413 0)
(-0.0950173 -0.249741 0)
(-0.106912 -0.240824 0)
(-0.118849 -0.230596 0)
(-0.130748 -0.218997 0)
(-0.142512 -0.205974 0)
(-0.154025 -0.191479 0)
(-0.165147 -0.175474 0)
(-0.17571 -0.157933 0)
(-0.185511 -0.138854 0)
(-0.194316 -0.118271 0)
(-0.201861 -0.0962774 0)
(-0.207874 -0.0730446 0)
(-0.212044 -0.0488361 0)
(-0.214111 -0.024038 0)
(-0.214583 0.00091097 0)
(-0.0048567 -0.268872 0)
(-0.0147471 -0.270847 0)
(-0.0246813 -0.269101 0)
(-0.0347119 -0.26648 0)
(-0.044854 -0.262928 0)
(-0.0551221 -0.258399 0)
(-0.0655177 -0.252844 0)
(-0.0760284 -0.246207 0)
(-0.0866267 -0.238432 0)
(-0.0972697 -0.229466 0)
(-0.107899 -0.219258 0)
(-0.118443 -0.207766 0)
(-0.12881 -0.194951 0)
(-0.138895 -0.180787 0)
(-0.148571 -0.165258 0)
(-0.157689 -0.148365 0)
(-0.166081 -0.130134 0)
(-0.173553 -0.110625 0)
(-0.179904 -0.0899479 0)
(-0.184934 -0.0682681 0)
(-0.188421 -0.0458133 0)
(-0.190167 -0.0228903 0)
(-0.190557 0.000155586 0)
(-0.00442254 -0.259479 0)
(-0.0134235 -0.261335 0)
(-0.0224532 -0.25953 0)
(-0.0315524 -0.256822 0)
(-0.0407285 -0.253165 0)
(-0.0499891 -0.248528 0)
(-0.0593313 -0.24287 0)
(-0.0687406 -0.23615 0)
(-0.0781901 -0.228328 0)
(-0.08764 -0.219363 0)
(-0.0970375 -0.20922 0)
(-0.106316 -0.19787 0)
(-0.115395 -0.185291 0)
(-0.124179 -0.171474 0)
(-0.132557 -0.156419 0)
(-0.140404 -0.140147 0)
(-0.147576 -0.122702 0)
(-0.153921 -0.104159 0)
(-0.159283 -0.0846304 0)
(-0.163512 -0.0642721 0)
(-0.166447 -0.0432814 0)
(-0.16793 -0.0219092 0)
(-0.168274 -0.000435796 0)
(-0.00397481 -0.250979 0)
(-0.01206 -0.252733 0)
(-0.0201628 -0.250887 0)
(-0.0283144 -0.248119 0)
(-0.0365171 -0.244394 0)
(-0.044773 -0.239686 0)
(-0.0530762 -0.233967 0)
(-0.0614113 -0.227207 0)
(-0.0697525 -0.219377 0)
(-0.0780633 -0.210449 0)
(-0.0862959 -0.200401 0)
(-0.0943911 -0.189215 0)
(-0.102278 -0.176883 0)
(-0.109873 -0.163409 0)
(-0.117082 -0.148807 0)
(-0.123798 -0.133113 0)
(-0.129906 -0.116379 0)
(-0.135283 -0.0986886 0)
(-0.139808 -0.0801521 0)
(-0.143369 -0.0609135 0)
(-0.14585 -0.0411467 0)
(-0.147126 -0.0210628 0)
(-0.14743 -0.000899977 0)
(-0.0035177 -0.243395 0)
(-0.010669 -0.245064 0)
(-0.01783 -0.243191 0)
(-0.0250246 -0.240383 0)
(-0.0322512 -0.236614 0)
(-0.0395084 -0.231864 0)
(-0.0467883 -0.226116 0)
(-0.0540753 -0.219346 0)
(-0.0613452 -0.211536 0)
(-0.0685653 -0.202668 0)
(-0.0756931 -0.192731 0)
(-0.082677 -0.181717 0)
(-0.0894555 -0.16963 0)
(-0.0959578 -0.156482 0)
(-0.102104 -0.142301 0)
(-0.107807 -0.127128 0)
(-0.112972 -0.111024 0)
(-0.117505 -0.094074 0)
(-0.121309 -0.0763844 0)
(-0.124302 -0.058088 0)
(-0.126398 -0.0393396 0)
(-0.1275 -0.0203204 0)
(-0.127777 -0.00123255 0)
(-0.00305397 -0.236744 0)
(-0.00925918 -0.238342 0)
(-0.0154692 -0.236452 0)
(-0.0217022 -0.233618 0)
(-0.0279539 -0.229823 0)
(-0.0342204 -0.225053 0)
(-0.0404929 -0.219295 0)
(-0.0467561 -0.212536 0)
(-0.0529882 -0.204763 0)
(-0.0591604 -0.195969 0)
(-0.0652359 -0.186148 0)
(-0.0711705 -0.175304 0)
(-0.0769123 -0.163448 0)
(-0.0824023 -0.150601 0)
(-0.0875746 -0.136796 0)
(-0.0923584 -0.122083 0)
(-0.096679 -0.106526 0)
(-0.100461 -0.0902075 0)
(-0.103633 -0.073231 0)
(-0.10613 -0.0557188 0)
(-0.107891 -0.0378107 0)
(-0.108844 -0.0196654 0)
(-0.109105 -0.0014593 0)
(-0.00258425 -0.231037 0)
(-0.00783511 -0.232582 0)
(-0.0130899 -0.23068 0)
(-0.0183603 -0.22783 0)
(-0.0236407 -0.224021 0)
(-0.0289257 -0.219244 0)
(-0.0342059 -0.213491 0)
(-0.0394675 -0.206753 0)
(-0.0446913 -0.199027 0)
(-0.0498527 -0.190308 0)
(-0.0549207 -0.180601 0)
(-0.0598587 -0.169915 0)
(-0.0646237 -0.158268 0)
(-0.0691678 -0.145687 0)
(-0.0734381 -0.132211 0)
(-0.0773782 -0.117893 0)
(-0.0809298 -0.102797 0)
(-0.084035 -0.0870072 0)
(-0.0866391 -0.0706201 0)
(-0.0886947 -0.0537498 0)
(-0.0901596 -0.0365239 0)
(-0.0909805 -0.0190847 0)
(-0.0912318 -0.00158942 0)
(-0.00210711 -0.226274 0)
(-0.00639783 -0.227779 0)
(-0.0106965 -0.225869 0)
(-0.0150054 -0.223009 0)
(-0.0193191 -0.219194 0)
(-0.0236313 -0.21442 0)
(-0.0279328 -0.20868 0)
(-0.0322118 -0.201971 0)
(-0.0364525 -0.194292 0)
(-0.0406345 -0.185648 0)
(-0.0447328 -0.176045 0)
(-0.0487179 -0.165499 0)
(-0.0525555 -0.154034 0)
(-0.0562078 -0.14168 0)
(-0.0596337 -0.12848 0)
(-0.0627896 -0.114489 0)
(-0.0656312 -0.0997728 0)
(-0.0681147 -0.0844119 0)
(-0.0702002 -0.0684991 0)
(-0.0718537 -0.0521406 0)
(-0.0730473 -0.0354542 0)
(-0.0737458 -0.0185698 0)
(-0.073996 -0.00163059 0)
(-0.00161692 -0.222433 0)
(-0.00493969 -0.22386 0)
(-0.00828548 -0.221948 0)
(-0.0116319 -0.219085 0)
(-0.0149784 -0.215272 0)
(-0.0183204 -0.210507 0)
(-0.0216503 -0.204786 0)
(-0.0249594 -0.19811 0)
(-0.0282359 -0.19048 0)
(-0.0314642 -0.181904 0)
(-0.0346248 -0.172396 0)
(-0.0376946 -0.161973 0)
(-0.0406472 -0.150663 0)
(-0.0434538 -0.138499 0)
(-0.0460833 -0.125526 0)
(-0.0485041 -0.1118 0)
(-0.0506835 -0.0973878 0)
(-0.0525893 -0.0823668 0)
(-0.0541935 -0.0668247 0)
(-0.0554737 -0.0508609 0)
(-0.0564135 -0.0345852 0)
(-0.0569948 -0.0181159 0)