/*--------------------------------*- C++ -*----------------------------------*\
| =========                 |                                                 |
| \\      /  F ield         | OpenFOAM: The Open Source CFD Toolbox           |
|  \\    /   O peration     | Version:  2.4.0                                 |
|   \\  /    A nd           | Web:      www.OpenFOAM.org                      |
|    \\/     M anipulation  |                                                 |
\*---------------------------------------------------------------------------*/
FoamFile
{
    version     2.0;
    format      ascii;
    class       volVectorField;
    location    "0.1";
    object      U.mercury;
}
// * * * * * * * * * * * * * * * * * * * * * * * * * * * * * * * * * * * * * //

dimensions      [0 1 -1 0 0 0 0];

internalField   nonuniform List<vector> 
2268
(
(0.0126347 -0.00597384 0)
(0.0382716 -0.00614457 0)
(0.0650302 -0.00649649 0)
(0.0936998 -0.00705082 0)
(0.125406 -0.0078394 0)
(0.160401 -0.00893589 0)
(0.203576 -0.0103591 0)
(0.245617 -0.0121822 0)
(0.315518 -0.0150999 0)
(0.366837 -0.0178476 0)
(0.473354 -0.0184573 0)
(0.549269 -0.0331296 0)
(0.670697 -0.0412794 0)
(0.874422 -0.0331601 0)
(1.06532 -0.0208931 0)
(1.1697 -0.0255795 0)
(1.19841 -0.0580103 0)
(1.2113 -0.177077 0)
(1.2849 -0.322882 0)
(1.45789 -0.43379 0)
(1.78801 -0.566228 0)
(1.91328 -0.596177 0)
(0.465915 -0.0574869 0)
(0.0125579 -0.0178881 0)
(0.0380382 -0.0184013 0)
(0.0646254 -0.0194528 0)
(0.0930986 -0.0211081 0)
(0.124559 -0.023462 0)
(0.159277 -0.026745 0)
(0.202047 -0.0309199 0)
(0.243606 -0.03693 0)
(0.313283 -0.0428845 0)
(0.363548 -0.0596738 0)
(0.469184 -0.050375 0)
(0.552403 -0.0859381 0)
(0.680075 -0.12669 0)
(0.862772 -0.13913 0)
(1.03302 -0.103632 0)
(1.15113 -0.0312918 0)
(1.19655 0.00169195 0)
(1.23162 -0.0404984 0)
(1.34836 -0.117306 0)
(1.60699 -0.306122 0)
(1.81787 -0.467992 0)
(1.31875 -0.234592 0)
(0.152509 0.179817 0)
(0.0123972 -0.0296877 0)
(0.0375471 -0.0305355 0)
(0.0637747 -0.0322722 0)
(0.0918381 -0.0350036 0)
(0.122786 -0.0388865 0)
(0.156943 -0.0443057 0)
(0.198812 -0.0512018 0)
(0.23959 -0.0609812 0)
(0.308371 -0.0727043 0)
(0.355364 -0.0927587 0)
(0.463868 -0.0935458 0)
(0.543099 -0.151444 0)
(0.679197 -0.19233 0)
(0.853994 -0.192227 0)
(1.00182 -0.149177 0)
(1.0856 -0.115458 0)
(1.10811 -0.159785 0)
(1.18125 -0.293455 0)
(1.39835 -0.403821 0)
(1.40562 -0.283236 0)
(0.93374 0.0644472 0)
(0.36736 0.286277 0)
(0.129379 0.288818 0)
(0.012159 -0.0412966 0)
(0.0368192 -0.0424685 0)
(0.0625152 -0.0448676 0)
(0.0899732 -0.0486333 0)
(0.120163 -0.0539864 0)
(0.153493 -0.0614505 0)
(0.193944 -0.0709747 0)
(0.233912 -0.0845947 0)
(0.300157 -0.10076 0)
(0.344089 -0.127871 0)
(0.455235 -0.134491 0)
(0.526912 -0.20281 0)
(0.668508 -0.265909 0)
(0.826422 -0.270444 0)
(0.942012 -0.222777 0)
(0.988921 -0.217326 0)
(0.985873 -0.274977 0)
(1.01283 -0.389524 0)
(1.03837 -0.292967 0)
(0.574343 0.308161 0)
(0.456906 0.363294 0)
(0.335918 0.378081 0)
(0.122162 0.430151 0)
(0.0118461 -0.0526473 0)
(0.0358634 -0.0541292 0)
(0.0608642 -0.0571609 0)
(0.0875309 -0.0619038 0)
(0.116731 -0.0686415 0)
(0.148961 -0.0780204 0)
(0.187572 -0.090085 0)
(0.226421 -0.107212 0)
(0.289098 -0.128179 0)
(0.329591 -0.159855 0)
(0.439312 -0.175261 0)
(0.509228 -0.266292 0)
(0.64638 -0.327934 0)
(0.78504 -0.319618 0)
(0.845246 -0.313076 0)
(0.83975 -0.356165 0)
(0.787433 -0.486158 0)
(0.786866 -0.491884 0)
(0.561138 0.251759 0)
(0.489835 0.381436 0)
(0.450788 0.40901 0)
(0.35272 0.450925 0)
(0.147594 0.511256 0)
(0.0114619 -0.0636839 0)
(0.03469 -0.0654577 0)
(0.0588424 -0.0690863 0)
(0.0845454 -0.0747363 0)
(0.112545 -0.0827591 0)
(0.143403 -0.0939195 0)
(0.179828 -0.108394 0)
(0.217131 -0.128863 0)
(0.275449 -0.153843 0)
(0.311742 -0.190864 0)
(0.419839 -0.217606 0)
(0.482952 -0.320035 0)
(0.611007 -0.384691 0)
(0.707184 -0.39258 0)
(0.722785 -0.430588 0)
(0.658228 -0.500102 0)
(0.578447 -0.53482 0)
(0.526969 -0.00994374 0)
(0.462206 0.358326 0)
(0.475106 0.399493 0)
(0.461975 0.436877 0)
(0.404276 0.529316 0)
(0.159611 0.690442 0)
(0.0110071 -0.0741909 0)
(0.0333007 -0.0762364 0)
(0.0564537 -0.080429 0)
(0.0810194 -0.0869267 0)
(0.107623 -0.0961792 0)
(0.13686 -0.10902 0)
(0.170811 -0.125696 0)
(0.206047 -0.14916 0)
(0.259345 -0.177376 0)
(0.291036 -0.219109 0)
(0.395506 -0.256198 0)
(0.447458 -0.365713 0)
(0.553181 -0.437042 0)
(0.608521 -0.479898 0)
(0.58453 -0.52749 0)
(0.478579 -0.587423 0)
(0.450411 -0.415077 0)
(0.405309 0.28985 0)
(0.434914 0.355269 0)
(0.479322 0.390869 0)
(0.501408 0.452494 0)
(0.468526 0.55277 0)
(0.231299 0.780064 0)
(0.0104645 -0.0841231 0)
(0.0316405 -0.0864494 0)
(0.0536058 -0.0912153 0)
(0.0768188 -0.0984962 0)
(0.101876 -0.108739 0)
(0.129349 -0.122908 0)
(0.160642 -0.141162 0)
(0.193403 -0.166695 0)
(0.241285 -0.19694 0)
(0.268608 -0.242325 0)
(0.368862 -0.287142 0)
(0.399312 -0.407966 0)
(0.472901 -0.49946 0)
(0.493512 -0.568577 0)
(0.416511 -0.615615 0)
(0.352342 -0.598992 0)
(0.338577 0.0293557 0)
(0.352441 0.298742 0)
(0.433203 0.332702 0)
(0.502098 0.372149 0)
(0.543205 0.447359 0)
(0.592194 0.632954 0)
(0.318587 1.08219 0)
(-0.0851768 0.0266469 0)
(-0.158373 0.00926165 0)
(-0.154117 -0.00776702 0)
(-0.108794 -0.0143993 0)
(-0.0159876 -0.0208855 0)
(0.147141 -0.0412686 0)
(0.370697 -0.0457595 0)
(0.551147 -0.0251548 0)
(0.614716 -0.00301223 0)
(0.597575 0.00991735 0)
(0.526838 0.0161197 0)
(0.447538 0.0165877 0)
(0.371473 0.0152073 0)
(0.301799 0.0137494 0)
(0.238674 0.0125404 0)
(0.180671 0.011619 0)
(0.126437 0.0109618 0)
(0.0747995 0.0105329 0)
(0.0246816 0.0104106 0)
(-0.0940844 0.0806619 0)
(-0.177325 0.0272184 0)
(-0.162789 -0.0275871 0)
(-0.110329 -0.046792 0)
(-0.0164634 -0.0647819 0)
(0.153926 -0.127178 0)
(0.398091 -0.144124 0)
(0.599777 -0.0816044 0)
(0.653454 -0.00182128 0)
(0.711892 -0.0136286 0)
(0.562319 0.0436549 0)
(0.463189 0.05161 0)
(0.383703 0.0471584 0)
(0.311734 0.0426358 0)
(0.246603 0.0389214 0)
(0.18673 0.0360936 0)
(0.130708 0.0340754 0)
(0.0773259 0.0327801 0)
(0.0254397 0.0319679 0)
(-0.108097 0.152542 0)
(-0.214889 0.0460038 0)
(-0.179832 -0.0540764 0)
(-0.10458 -0.0822958 0)
(0.00302109 -0.110593 0)
(0.195906 -0.215609 0)
(0.488199 -0.263067 0)
(0.918929 -0.279676 0)
(1.39618 -0.41125 0)
(1.14596 -0.229469 0)
(0.57694 0.0781927 0)
(0.462857 0.0876683 0)
(0.381869 0.0792717 0)
(0.310025 0.0714489 0)
(0.245239 0.0651909 0)
(0.18572 0.0604601 0)
(0.130017 0.0570913 0)
(0.0769276 0.0549392 0)
(0.0253082 0.0536201 0)
(-0.144609 0.197798 0)
(-0.275711 0.0663026 0)
(-0.157581 -0.0943575 0)
(-0.00350803 -0.142831 0)
(0.189401 -0.184577 0)
(0.547443 -0.362562 0)
(1.21064 -0.620906 0)
(1.89728 -0.797363 0)
(1.74661 -0.569005 0)
(0.76083 0.0721888 0)
(0.554706 0.134703 0)
(0.457768 0.125037 0)
(0.377434 0.111436 0)
(0.306435 0.10013 0)
(0.242469 0.0913113 0)
(0.183683 0.0846953 0)
(0.128627 0.0799959 0)
(0.0761233 0.077 0)
(0.0250469 0.0751502 0)
(-0.166095 0.412454 0)
(-0.26104 0.0776775 0)
(0.528382 -0.3487 0)
(0.814756 -0.417745 0)
(1.13211 -0.47417 0)
(1.61755 -0.736653 0)
(2.07292 -0.939209 0)
(2.09101 -0.819581 0)
(1.11146 -0.0443862 0)
(0.675626 0.187952 0)
(0.544011 0.182077 0)
(0.450227 0.161702 0)
(0.371189 0.143101 0)
(0.301531 0.128363 0)
(0.238731 0.117032 0)
(0.180949 0.108581 0)
(0.126767 0.102591 0)
(0.0750446 0.0987768 0)
(0.0246948 0.0964101 0)
(-0.199875 0.130481 0)
(0.685209 -0.326337 0)
(0.971603 -0.531648 0)
(1.10176 -0.589066 0)
(1.41259 -0.705793 0)
(1.92306 -0.914018 0)
(2.29202 -1.01366 0)
(1.68188 -0.378527 0)
(0.833342 0.257355 0)
(0.649528 0.25814 0)
(0.530789 0.226918 0)
(0.440089 0.197596 0)
(0.363218 0.174166 0)
(0.295381 0.156077 0)
(0.234085 0.142307 0)
(0.177563 0.132082 0)
(0.124465 0.124849 0)
(0.0737108 0.120245 0)
(0.02426 0.117377 0)
(-0.0240678 0.895249 0)
(0.94652 -0.434161 0)
(0.980331 -0.517368 0)
(1.08126 -0.57935 0)
(1.36381 -0.693247 0)
(1.84744 -0.885142 0)
(1.98116 -0.781659 0)
(1.13733 0.155829 0)
(0.764473 0.363174 0)
(0.620527 0.31647 0)
(0.513435 0.268315 0)
(0.42746 0.231638 0)
(0.353593 0.203797 0)
(0.288048 0.182626 0)
(0.228576 0.166614 0)
(0.173559 0.154758 0)
(0.121747 0.146378 0)
(0.0721343 0.141046 0)
(0.0237438 0.137711 0)
(1.09547 -0.248384 0)
(1.07031 -0.389456 0)
(1.10863 -0.519203 0)
(1.17184 -0.575731 0)
(1.35414 -0.660664 0)
(1.66592 -0.784927 0)
(1.74844 -0.627168 0)
(0.895979 0.385924 0)
(0.704601 0.444288 0)
(0.586821 0.368192 0)
(0.492347 0.308489 0)
(0.412432 0.265429 0)
(0.342342 0.233368 0)
(0.279554 0.209185 0)
(0.222223 0.190964 0)
(0.16895 0.177496 0)
(0.11862 0.167982 0)
(0.0703216 0.16193 0)
(0.0231517 0.158129 0)
(0.00940849 -0.101138 0)
(0.0284431 -0.103671 0)
(0.0482687 -0.108818 0)
(0.0692294 -0.1163 0)
(0.0918493 -0.126626 0)
(0.116426 -0.141486 0)
(0.143602 -0.160703 0)
(0.172025 -0.188342 0)
(0.211436 -0.222155 0)
(0.232988 -0.276824 0)
(0.316455 -0.344946 0)
(0.308234 -0.499306 0)
(0.32963 -0.615723 0)
(0.264328 -0.666939 0)
(0.188409 -0.665405 0)
(0.181305 -0.307116 0)
(0.262343 0.193793 0)
(0.355414 0.244067 0)
(0.436148 0.277435 0)
(0.565074 0.293092 0)
(0.629387 0.415825 0)
(0.894659 0.47819 0)
(1.16591 0.963815 0)
(0.00829078 -0.114157 0)
(0.0250236 -0.116744 0)
(0.0426246 -0.122261 0)
(0.0607121 -0.129726 0)
(0.0789461 -0.14134 0)
(0.0980259 -0.159171 0)
(0.1198 -0.183032 0)
(0.14104 -0.222853 0)
(0.165603 -0.275077 0)
(0.182737 -0.359107 0)
(0.20505 -0.467651 0)
(0.150621 -0.665372 0)
(0.121136 -0.746 0)
(0.0876504 -0.754364 0)
(0.0747765 -0.516002 0)
(0.203133 0.0338225 0)
(0.285074 0.107884 0)
(0.385658 0.142717 0)
(0.478828 0.182557 0)
(0.598896 0.184108 0)
(0.715975 0.289655 0)
(0.880345 0.233671 0)
(1.15924 0.394279 0)
(0.00721589 -0.154314 0)
(0.021478 -0.160364 0)
(0.0366909 -0.175852 0)
(0.0512764 -0.196656 0)
(0.0674402 -0.223681 0)
(0.0781126 -0.261574 0)
(0.0907042 -0.301301 0)
(0.0986169 -0.35915 0)
(0.103065 -0.423991 0)
(0.109887 -0.512525 0)
(0.108065 -0.607483 0)
(0.103597 -0.806107 0)
(0.0679256 -0.837797 0)
(0.0659976 -0.781577 0)
(0.193469 -0.248784 0)
(0.274118 -0.0449756 0)
(0.339051 0.0129862 0)
(0.424388 0.0478514 0)
(0.508754 0.0826364 0)
(0.616366 0.0745944 0)
(0.735092 0.131799 0)
(0.846201 0.0688048 0)
(1.05553 0.0856497 0)
(0.00541939 -0.306232 0)
(0.0121303 -0.311471 0)
(0.0188324 -0.321128 0)
(0.0265658 -0.332853 0)
(0.0426888 -0.344958 0)
(0.0565911 -0.376979 0)
(0.0738544 -0.412767 0)
(0.096814 -0.460749 0)
(0.112935 -0.529139 0)
(0.137792 -0.608285 0)
(0.151859 -0.714777 0)
(0.13428 -0.868899 0)
(0.101267 -0.879954 0)
(0.218877 -0.502673 0)
(0.305489 -0.186332 0)
(0.338385 -0.0912493 0)
(0.382537 -0.0521178 0)
(0.452249 -0.0305388 0)
(0.522556 -0.0107769 0)
(0.626219 -0.0260533 0)
(0.726109 -0.00526129 0)
(0.842527 -0.0409218 0)
(1.00206 -0.0564047 0)
(0.0327248 -0.189511 0)
(0.0700478 -0.185792 0)
(0.116647 -0.197495 0)
(0.158767 -0.213427 0)
(0.206443 -0.231316 0)
(0.241738 -0.269447 0)
(0.283241 -0.306473 0)
(0.318531 -0.353054 0)
(0.352264 -0.400823 0)
(0.380121 -0.457428 0)
(0.393577 -0.510894 0)
(0.372822 -0.567652 0)
(0.380285 -0.531791 0)
(0.351667 -0.349896 0)
(0.338141 -0.180034 0)
(0.363986 -0.116489 0)
(0.401387 -0.0998996 0)
(0.46111 -0.0951462 0)
(0.524594 -0.0913178 0)
(0.619609 -0.115443 0)
(0.704539 -0.115733 0)
(0.809357 -0.150683 0)
(0.941673 -0.205094 0)
(0.0190097 -0.227159 0)
(0.0580362 -0.22684 0)
(0.0981452 -0.240395 0)
(0.135293 -0.257185 0)
(0.177702 -0.278151 0)
(0.217109 -0.304913 0)
(0.255178 -0.334596 0)
(0.287275 -0.37007 0)
(0.314101 -0.408456 0)
(0.333793 -0.452728 0)
(0.326336 -0.485957 0)
(0.341042 -0.52496 0)
(0.361306 -0.491758 0)
(0.341932 -0.327785 0)
(0.331316 -0.18336 0)
(0.360408 -0.145799 0)
(0.400018 -0.146513 0)
(0.454382 -0.155227 0)
(0.513561 -0.165384 0)
(0.598711 -0.197662 0)
(0.67119 -0.211024 0)
(0.768979 -0.258366 0)
(0.885437 -0.320758 0)
(0.0176027 -0.256344 0)
(0.052972 -0.260574 0)
(0.0879374 -0.26913 0)
(0.122766 -0.281889 0)
(0.155232 -0.295615 0)
(0.187365 -0.317563 0)
(0.216334 -0.341714 0)
(0.243311 -0.373046 0)
(0.263875 -0.407037 0)
(0.285664 -0.442547 0)
(0.29455 -0.481034 0)
(0.314386 -0.528445 0)
(0.34131 -0.490883 0)
(0.32307 -0.331749 0)
(0.319796 -0.203768 0)
(0.344361 -0.180234 0)
(0.387296 -0.192625 0)
(0.437156 -0.211364 0)
(0.491575 -0.232498 0)
(0.56755 -0.271082 0)
(0.630568 -0.295426 0)
(0.722417 -0.352644 0)
(0.821137 -0.417275 0)
(0.015579 -0.291665 0)
(0.0466642 -0.295762 0)
(0.0773638 -0.303776 0)
(0.107244 -0.315811 0)
(0.136832 -0.332847 0)
(0.16507 -0.352942 0)
(0.191844 -0.378383 0)
(0.216135 -0.405965 0)
(0.2367 -0.437199 0)
(0.256399 -0.470945 0)
(0.262198 -0.499863 0)
(0.287842 -0.536856 0)
(0.316652 -0.490843 0)
(0.294439 -0.331052 0)
(0.295418 -0.222348 0)
(0.322015 -0.211974 0)
(0.36486 -0.236047 0)
(0.410868 -0.263043 0)
(0.460844 -0.292966 0)
(0.52801 -0.336621 0)
(0.583657 -0.37011 0)
(0.666655 -0.435176 0)
(0.750338 -0.503551 0)
(0.0136432 -0.319893 0)
(0.0408348 -0.323901 0)
(0.0676788 -0.331413 0)
(0.0940683 -0.34259 0)
(0.119481 -0.357138 0)
(0.143807 -0.37571 0)
(0.166447 -0.397359 0)
(0.187234 -0.422662 0)
(0.205077 -0.450329 0)
(0.223457 -0.479173 0)
(0.230951 -0.50823 0)
(0.259223 -0.547693 0)
(0.289115 -0.491813 0)
(0.260523 -0.332492 0)
(0.26632 -0.244167 0)
(0.295614 -0.24629 0)
(0.336156 -0.277687 0)
(0.37812 -0.310537 0)
(0.423309 -0.347072 0)
(0.482249 -0.394798 0)
(0.530581 -0.435984 0)
(0.605089 -0.507215 0)
(0.67434 -0.57856 0)
(0.0118263 -0.345856 0)
(0.0353827 -0.349635 0)
(0.0585948 -0.356642 0)
(0.0812344 -0.367158 0)
(0.103134 -0.381289 0)
(0.124003 -0.398662 0)
(0.143617 -0.419419 0)
(0.161823 -0.442822 0)
(0.177967 -0.468747 0)
(0.194942 -0.496404 0)
(0.202624 -0.523899 0)
(0.231144 -0.560445 0)
(0.259711 -0.491273 0)
(0.223385 -0.33294 0)
(0.235063 -0.265719 0)
(0.265907 -0.279733 0)
(0.302498 -0.315955 0)
(0.340209 -0.353136 0)
(0.3804 -0.39472 0)
(0.431301 -0.445689 0)
(0.472709 -0.493428 0)
(0.538391 -0.56924 0)
(0.594647 -0.644621 0)
(0.0101183 -0.367725 0)
(0.0302612 -0.371284 0)
(0.0500621 -0.377837 0)
(0.0693274 -0.387714 0)
(0.0878969 -0.400865 0)
(0.105621 -0.417194 0)
(0.122303 -0.43643 0)
(0.137876 -0.45842 0)
(0.152049 -0.482787 0)
(0.166931 -0.508968 0)
(0.174165 -0.536376 0)
(0.20189 -0.572534 0)
(0.227527 -0.487812 0)
(0.184153 -0.334752 0)
(0.202083 -0.287275 0)
(0.233804 -0.312029 0)
(0.265258 -0.350464 0)
(0.2985 -0.390628 0)
(0.333384 -0.435843 0)
(0.376322 -0.489295 0)
(0.410733 -0.542564 0)
(0.467688 -0.622447 0)
(0.515623 -0.700409 0)
(0.00849484 -0.385855 0)
(0.0253976 -0.389292 0)
(0.0419892 -0.395591 0)
(0.058036 -0.405076 0)
(0.0734629 -0.417652 0)
(0.0881989 -0.433159 0)
(0.102107 -0.451483 0)
(0.115136 -0.472439 0)
(0.127165 -0.495886 0)
(0.139699 -0.52145 0)
(0.146178 -0.548971 0)
(0.171937 -0.583887 0)
(0.19352 -0.48102 0)
(0.143622 -0.336852 0)
(0.169381 -0.308399 0)
(0.199265 -0.341792 0)
(0.225618 -0.380764 0)
(0.25415 -0.422828 0)
(0.283363 -0.470458 0)
(0.318309 -0.525591 0)
(0.344919 -0.583744 0)
(0.39348 -0.666844 0)
(0.437469 -0.745341 0)
(0.00668896 -0.402019 0)
(0.0200456 -0.40536 0)
(0.0335277 -0.41111 0)
(0.0469163 -0.419872 0)
(0.0595976 -0.431865 0)
(0.071568 -0.446655 0)
(0.0827948 -0.464139 0)
(0.0932395 -0.484273 0)
(0.102908 -0.506988 0)
(0.112665 -0.532087 0)
(0.118066 -0.560057 0)
(0.140529 -0.593858 0)
(0.157599 -0.471355 0)
(0.102312 -0.339468 0)
(0.137458 -0.330919 0)
(0.162714 -0.36829 0)
(0.184794 -0.40715 0)
(0.208241 -0.449931 0)
(0.231386 -0.498574 0)
(0.258094 -0.554159 0)
(0.27548 -0.616289 0)
(0.317748 -0.699313 0)
(0.349329 -0.772787 0)
(0.00510008 -0.415108 0)
(0.015322 -0.418327 0)
(0.0255684 -0.42401 0)
(0.0359249 -0.432248 0)
(0.0461961 -0.443117 0)
(0.055561 -0.45691 0)
(0.0641635 -0.473373 0)
(0.0720027 -0.492449 0)
(0.0790918 -0.514099 0)
(0.0856295 -0.538397 0)
(0.089855 -0.566482 0)
(0.106383 -0.598987 0)
(0.119331 -0.458617 0)
(0.0633019 -0.343932 0)
(0.105638 -0.353748 0)
(0.125745 -0.390821 0)
(0.143995 -0.428054 0)
(0.162147 -0.469414 0)
(0.179074 -0.516553 0)
(0.197045 -0.570571 0)
(0.205348 -0.635832 0)
(0.24565 -0.714214 0)
(0.237767 -0.798644 0)
(0.00414032 -0.418134 0)
(0.0123197 -0.421122 0)
(0.0199608 -0.426625 0)
(0.027012 -0.434763 0)
(0.0339588 -0.445162 0)
(0.0407469 -0.457911 0)
(0.0467994 -0.47334 0)
(0.0521306 -0.491418 0)
(0.0565588 -0.512192 0)
(0.0594188 -0.536042 0)
(0.0618304 -0.564233 0)
(0.0641454 -0.596659 0)
(0.0725864 -0.437475 0)
(0.0318754 -0.347578 0)
(0.074551 -0.3699 0)
(0.0910232 -0.402694 0)
(0.105778 -0.436803 0)
(0.119005 -0.476448 0)
(0.129674 -0.523349 0)
(0.137161 -0.580232 0)
(0.137535 -0.65379 0)
(0.159564 -0.738222 0)
(0.0938692 -0.868539 0)
(0.00311942 -0.426597 0)
(0.00924863 -0.429655 0)
(0.0149769 -0.435412 0)
(0.0201561 -0.444183 0)
(0.0243494 -0.455981 0)
(0.0279453 -0.471023 0)
(0.03109 -0.489235 0)
(0.0335642 -0.510516 0)
(0.0350055 -0.534968 0)
(0.0341675 -0.562452 0)
(0.0331407 -0.592576 0)
(0.0116966 -0.623286 0)
(0.0069465 -0.419726 0)
(0.013687 -0.363334 0)
(0.0470705 -0.389811 0)
(0.0613769 -0.422096 0)
(0.070961 -0.461864 0)
(0.0772202 -0.511987 0)
(0.0781611 -0.572161 0)
(0.0713277 -0.641638 0)
(0.0588683 -0.719738 0)
(0.0325007 -0.802129 0)
(0.00786594 -0.918882 0)
(0.00153444 -0.523116 0)
(0.00423969 -0.527002 0)
(0.00676467 -0.533847 0)
(0.00874341 -0.543856 0)
(0.0101838 -0.556882 0)
(0.0108359 -0.572584 0)
(0.0105055 -0.590687 0)
(0.00905945 -0.611021 0)
(0.0072585 -0.633188 0)
(0.00439732 -0.656554 0)
(0.00114344 -0.679486 0)
(-0.018462 -0.69453 0)
(-0.0236451 -0.501791 0)
(0.0083324 -0.485607 0)
(0.0212859 -0.509367 0)
(0.0248366 -0.541851 0)
(0.0213547 -0.581834 0)
(0.0147335 -0.628727 0)
(0.00581342 -0.683308 0)
(-0.00299096 -0.748322 0)
(-0.00911188 -0.818049 0)
(-0.028353 -0.899187 0)
(-0.0303015 -0.921669 0)
(-0.000625212 -0.728983 0)
(-0.0026588 -0.733568 0)
(-0.00454751 -0.741604 0)
(-0.00665107 -0.753465 0)
(-0.00897106 -0.768911 0)
(-0.0115125 -0.787737 0)
(-0.0139708 -0.809617 0)
(-0.0154151 -0.833959 0)
(-0.0180992 -0.858748 0)
(-0.0226995 -0.880992 0)
(-0.0256719 -0.889765 0)
(-0.0384401 -0.849922 0)
(-0.0211112 -0.702635 0)
(-0.00589786 -0.702513 0)
(-0.0127308 -0.722271 0)
(-0.0222086 -0.754621 0)
(-0.0334023 -0.789843 0)
(-0.0467409 -0.813383 0)
(-0.0651191 -0.804209 0)
(-0.075596 -0.674657 0)
(-0.0919608 -0.536396 0)
(-0.184719 -0.480323 0)
(-0.731676 -0.11276 0)
(-0.00301784 -0.147637 0)
(-0.013862 -0.145619 0)
(-0.0231973 -0.144513 0)
(-0.0346111 -0.145214 0)
(-0.0476716 -0.150258 0)
(-0.0633206 -0.163399 0)
(-0.0816703 -0.188536 0)
(-0.102763 -0.228316 0)
(-0.124532 -0.282885 0)
(-0.147748 -0.350353 0)
(-0.14865 -0.402426 0)
(-0.126495 -0.468129 0)
(-0.111055 -0.232314 0)
(-0.168876 -0.130133 0)
(-0.211728 -0.0996591 0)
(-0.256069 -0.120771 0)
(-0.300004 -0.211201 0)
(-0.344608 -0.370929 0)
(-0.372506 -0.58293 0)
(-0.38185 -0.748632 0)
(-0.429179 -0.740263 0)
(-0.678763 -0.393078 0)
(-0.912318 0.225147 0)
(-0.00450716 -0.68525 0)
(-0.0171712 -0.685478 0)
(-0.0260402 -0.685262 0)
(-0.0374834 -0.684549 0)
(-0.049763 -0.682555 0)
(-0.0642683 -0.679262 0)
(-0.0818961 -0.674487 0)
(-0.10452 -0.66779 0)
(-0.133333 -0.65979 0)
(-0.171827 -0.651974 0)
(-0.224565 -0.640747 0)
(-0.302965 -0.624115 0)
(-0.335989 -0.614527 0)
(-0.338335 -0.619975 0)
(-0.334135 -0.611933 0)
(-0.33694 -0.596733 0)
(-0.354921 -0.578892 0)
(-0.392543 -0.560693 0)
(-0.451944 -0.553928 0)
(-0.570131 -0.525913 0)
(-0.746774 -0.380223 0)
(-0.904187 -0.0267256 0)
(-0.894152 0.226845 0)
(-0.00620452 -0.328204 0)
(-0.0172314 -0.332818 0)
(-0.0281866 -0.335881 0)
(-0.0409338 -0.341011 0)
(-0.0557311 -0.347685 0)
(-0.0730772 -0.356379 0)
(-0.0937522 -0.3666 0)
(-0.117884 -0.377192 0)
(-0.146182 -0.38679 0)
(-0.179859 -0.393044 0)
(-0.221313 -0.392689 0)
(-0.259717 -0.382044 0)
(-0.285024 -0.348643 0)
(-0.301389 -0.321271 0)
(-0.325239 -0.306616 0)
(-0.352387 -0.304 0)
(-0.391957 -0.309136 0)
(-0.444209 -0.320645 0)
(-0.519872 -0.337626 0)
(-0.637041 -0.34083 0)
(-0.76203 -0.273481 0)
(-0.795189 -0.089615 0)
(-0.787928 0.127625 0)
(-0.00650482 -0.389539 0)
(-0.0198178 -0.394183 0)
(-0.0334024 -0.396259 0)
(-0.0478796 -0.399368 0)
(-0.0636656 -0.4032 0)
(-0.0812644 -0.407521 0)
(-0.101277 -0.412007 0)
(-0.124257 -0.415956 0)
(-0.150533 -0.418128 0)
(-0.180149 -0.417242 0)
(-0.212509 -0.411702 0)
(-0.245981 -0.398089 0)
(-0.276215 -0.379228 0)
(-0.302178 -0.367856 0)
(-0.326195 -0.356048 0)
(-0.352893 -0.345083 0)
(-0.384317 -0.333575 0)
(-0.417097 -0.320202 0)
(-0.462234 -0.300956 0)
(-0.542857 -0.257431 0)
(-0.64254 -0.158504 0)
(-0.692516 -0.0295063 0)
(-0.653656 0.0618284 0)
(-0.00662114 -0.390751 0)
(-0.0200275 -0.395 0)
(-0.0338785 -0.395728 0)
(-0.0486177 -0.396887 0)
(-0.06464 -0.398116 0)
(-0.0822616 -0.399242 0)
(-0.101865 -0.399813 0)
(-0.12375 -0.399292 0)
(-0.148088 -0.397233 0)
(-0.174848 -0.39327 0)
(-0.20325 -0.38673 0)
(-0.231204 -0.376905 0)
(-0.257813 -0.363248 0)
(-0.281889 -0.345694 0)
(-0.307468 -0.327929 0)
(-0.335699 -0.310609 0)
(-0.369351 -0.293616 0)
(-0.410242 -0.273601 0)
(-0.46153 -0.249316 0)
(-0.510148 -0.219214 0)
(-0.538668 -0.167969 0)
(-0.555102 -0.0693844 0)
(-0.551339 0.0408404 0)
(-0.00677657 -0.365477 0)
(-0.0208196 -0.369347 0)
(-0.0352042 -0.369539 0)
(-0.0503133 -0.369801 0)
(-0.0663855 -0.369955 0)
(-0.0836581 -0.369738 0)
(-0.102342 -0.368898 0)
(-0.122555 -0.367019 0)
(-0.144282 -0.363602 0)
(-0.167371 -0.358123 0)
(-0.191353 -0.350018 0)
(-0.215659 -0.339061 0)
(-0.240147 -0.326158 0)
(-0.265595 -0.312944 0)
(-0.291055 -0.297677 0)
(-0.317213 -0.280364 0)
(-0.34388 -0.259538 0)
(-0.372372 -0.234521 0)
(-0.403021 -0.202195 0)
(-0.439269 -0.156398 0)
(-0.474343 -0.094427 0)
(-0.490725 -0.0323687 0)
(-0.48769 0.0221545 0)
(-0.00685034 -0.355993 0)
(-0.0208496 -0.359626 0)
(-0.0351869 -0.359473 0)
(-0.0500901 -0.359208 0)
(-0.0657689 -0.358645 0)
(-0.0824324 -0.357586 0)
(-0.100241 -0.355754 0)
(-0.11929 -0.352824 0)
(-0.139584 -0.348409 0)
(-0.160935 -0.342082 0)
(-0.182948 -0.333505 0)
(-0.205252 -0.322591 0)
(-0.227682 -0.309361 0)
(-0.250301 -0.293851 0)
(-0.2735 -0.276658 0)
(-0.297503 -0.257432 0)
(-0.322691 -0.235775 0)
(-0.348949 -0.210526 0)
(-0.375731 -0.180409 0)
(-0.399763 -0.143631 0)
(-0.41656 -0.0978446 0)
(-0.424847 -0.0423379 0)
(-0.42661 0.0156078 0)
(-0.00674017 -0.340496 0)
(-0.0205663 -0.34373 0)
(-0.0346506 -0.343107 0)
(-0.0492036 -0.342142 0)
(-0.0643762 -0.340665 0)
(-0.080312 -0.338513 0)
(-0.097114 -0.335476 0)
(-0.114828 -0.3313 0)
(-0.133421 -0.325711 0)
(-0.152764 -0.318444 0)
(-0.172654 -0.309295 0)
(-0.192918 -0.29823 0)
(-0.213462 -0.285294 0)
(-0.234207 -0.27041 0)
(-0.255132 -0.253341 0)
(-0.276256 -0.23381 0)
(-0.297482 -0.211289 0)
(-0.318586 -0.185154 0)
(-0.338905 -0.154408 0)
(-0.357178 -0.118212 0)
(-0.371084 -0.0770658 0)
(-0.378311 -0.0334678 0)
(-0.37918 0.0101733 0)
(-0.00657585 -0.327712 0)
(-0.0200224 -0.330675 0)
(-0.033677 -0.32975 0)
(-0.047706 -0.328331 0)
(-0.062221 -0.326277 0)
(-0.0773255 -0.323448 0)
(-0.0930889 -0.319668 0)
(-0.109534 -0.314738 0)
(-0.126625 -0.308446 0)
(-0.144266 -0.300586 0)
(-0.162319 -0.291011 0)
(-0.180661 -0.279628 0)
(-0.199204 -0.266359 0)
(-0.21787 -0.251132 0)
(-0.236569 -0.23384 0)
(-0.255186 -0.214256 0)
(-0.273524 -0.192084 0)
(-0.291206 -0.166911 0)
(-0.307559 -0.138312 0)
(-0.321467 -0.10599 0)
(-0.331418 -0.0701067 0)
(-0.336456 -0.0317554 0)
(-0.337589 0.00715226 0)
(-0.00632354 -0.314444 0)
(-0.0192447 -0.31714 0)
(-0.0323259 -0.315946 0)
(-0.0457014 -0.314136 0)
(-0.0594525 -0.311583 0)
(-0.0736536 -0.308178 0)
(-0.0883495 -0.303782 0)
(-0.103549 -0.298241 0)
(-0.11922 -0.291398 0)
(-0.13529 -0.283103 0)
(-0.151663 -0.273237 0)
(-0.16824 -0.261707 0)
(-0.184918 -0.248425 0)
(-0.201585 -0.233285 0)
(-0.218112 -0.216154 0)
(-0.234325 -0.196873 0)
(-0.249979 -0.175236 0)
(-0.264695 -0.151033 0)
(-0.27793 -0.124091 0)
(-0.288936 -0.0944271 0)
(-0.296724 -0.0624315 0)
(-0.300609 -0.0289929 0)
(-0.301482 0.0048415 0)
(-0.0060161 -0.302014 0)
(-0.0182948 -0.304488 0)
(-0.0306941 -0.303095 0)
(-0.0433216 -0.30099 0)
(-0.0562348 -0.29807 0)
(-0.0694857 -0.294244 0)
(-0.0831027 -0.289404 0)
(-0.0970863 -0.28343 0)
(-0.111406 -0.276199 0)
(-0.126005 -0.267596 0)
(-0.140805 -0.25752 0)
(-0.155714 -0.245883 0)
(-0.170631 -0.232598 0)
(-0.185433 -0.217578 0)
(-0.199973 -0.200728 0)
(-0.21406 -0.181939 0)
(-0.227442 -0.161102 0)
(-0.239782 -0.138127 0)
(-0.250644 -0.112994 0)
(-0.2595 -0.0858166 0)
(-0.265694 -0.0569362 0)
(-0.268767 -0.0270065 0)
(-0.269484 0.00319606 0)
(-0.00566167 -0.290179 0)
(-0.0172074 -0.29246 0)
(-0.0288419 -0.290912 0)
(-0.0406505 -0.288582 0)
(-0.0526724 -0.285382 0)
(-0.0649436 -0.281241 0)
(-0.0774806 -0.276075 0)
(-0.090278 -0.26979 0)
(-0.103307 -0.262292 0)
(-0.116519 -0.253489 0)
(-0.129843 -0.2433 0)
(-0.143195 -0.231649 0)
(-0.156473 -0.218464 0)
(-0.169557 -0.203676 0)
(-0.182294 -0.187219 0)
(-0.194502 -0.169031 0)
(-0.205949 -0.149066 0)
(-0.216348 -0.127314 0)
(-0.225363 -0.103831 0)
(-0.232616 -0.0787778 0)
(-0.23766 -0.0524599 0)
(-0.240154 -0.0253714 0)
(-0.240733 0.00192135 0)
(-0.00527262 -0.279114 0)
(-0.0160168 -0.28123 0)
(-0.0268245 -0.279568 0)
(-0.0377627 -0.277069 0)
(-0.0488571 -0.273664 0)
(-0.0601311 -0.269296 0)
(-0.0715928 -0.263898 0)
(-0.0832326 -0.257399 0)
(-0.0950227 -0.249726 0)
(-0.106917 -0.240808 0)
(-0.118853 -0.230579 0)
(-0.130752 -0.21898 0)
(-0.142516 -0.205956 0)
(-0.15403 -0.191461 0)
(-0.165152 -0.175455 0)
(-0.175713 -0.157913 0)
(-0.185512 -0.138833 0)
(-0.194315 -0.118249 0)
(-0.201859 -0.0962558 0)
(-0.207873 -0.0730228 0)
(-0.212045 -0.048814 0)
(-0.214114 -0.0240152 0)
(-0.214585 0.000934363 0)
(-0.00485736 -0.268859 0)
(-0.014749 -0.270834 0)
(-0.0246845 -0.269088 0)
(-0.034716 -0.266467 0)
(-0.0448589 -0.262913 0)
(-0.0551273 -0.258384 0)
(-0.0655231 -0.252828 0)
(-0.0760336 -0.24619 0)
(-0.0866315 -0.238415 0)
(-0.0972739 -0.229448 0)
(-0.107903 -0.21924 0)
(-0.118446 -0.207747 0)
(-0.128814 -0.194932 0)
(-0.138899 -0.180767 0)
(-0.148575 -0.165238 0)
(-0.157692 -0.148343 0)
(-0.166081 -0.130111 0)
(-0.173551 -0.110602 0)
(-0.179902 -0.0899253 0)
(-0.184932 -0.0682454 0)
(-0.188422 -0.0457903 0)
(-0.190169 -0.022867 0)
(-0.19056 0.000179498 0)
(-0.00442314 -0.259465 0)
(-0.0134252 -0.26132 0)
(-0.0224559 -0.259514 0)
(-0.0315559 -0.256806 0)
(-0.0407327 -0.253149 0)
(-0.0499937 -0.248511 0)
(-0.059336 -0.242852 0)
(-0.0687451 -0.236132 0)
(-0.0781943 -0.228309 0)
(-0.0876438 -0.219343 0)
(-0.0970408 -0.2092 0)
(-0.106319 -0.197849 0)
(-0.115398 -0.185271 0)
(-0.124183 -0.171452 0)
(-0.132561 -0.156396 0)
(-0.140406 -0.140124 0)
(-0.147576 -0.122678 0)
(-0.15392 -0.104135 0)
(-0.159281 -0.0846067 0)
(-0.16351 -0.0642483 0)
(-0.166448 -0.0432575 0)
(-0.167932 -0.021885 0)
(-0.168276 -0.000411079 0)
(-0.00397529 -0.250963 0)
(-0.0120614 -0.252717 0)
(-0.0201651 -0.250871 0)
(-0.0283175 -0.248102 0)
(-0.0365207 -0.244376 0)
(-0.044777 -0.239667 0)
(-0.0530803 -0.233948 0)
(-0.0614153 -0.227188 0)
(-0.0697562 -0.219357 0)
(-0.0780665 -0.210429 0)
(-0.0862987 -0.200379 0)
(-0.0943938 -0.189193 0)
(-0.102281 -0.176861 0)
(-0.109876 -0.163386 0)
(-0.117085 -0.148784 0)
(-0.123799 -0.133088 0)
(-0.129905 -0.116354 0)
(-0.135281 -0.0986635 0)
(-0.139806 -0.0801271 0)
(-0.143368 -0.0608886 0)
(-0.145851 -0.0411217 0)
(-0.147127 -0.0210376 0)
(-0.147433 -0.000874274 0)
(-0.00351813 -0.243377 0)
(-0.0106702 -0.245046 0)
(-0.0178319 -0.243173 0)
(-0.0250272 -0.240365 0)
(-0.0322542 -0.236594 0)
(-0.0395118 -0.231845 0)
(-0.0467918 -0.226095 0)
(-0.0540787 -0.219325 0)
(-0.0613484 -0.211515 0)
(-0.068568 -0.202646 0)
(-0.0756955 -0.192708 0)
(-0.0826791 -0.181694 0)
(-0.0894577 -0.169606 0)
(-0.09596 -0.156458 0)
(-0.102106 -0.142276 0)
(-0.107808 -0.127102 0)
(-0.112972 -0.110998 0)
(-0.117503 -0.0940477 0)
(-0.121307 -0.0763581 0)
(-0.1243 -0.0580619 0)
(-0.126398 -0.0393136 0)
(-0.127502 -0.0202944 0)
(-0.127779 -0.00120613 0)
(-0.0030543 -0.236725 0)
(-0.00926015 -0.238323 0)
(-0.0154708 -0.236433 0)
(-0.0217043 -0.233599 0)
(-0.0279564 -0.229803 0)
(-0.0342233 -0.225032 0)
(-0.0404958 -0.219274 0)
(-0.0467589 -0.212514 0)
(-0.0529908 -0.204741 0)
(-0.0591626 -0.195946 0)
(-0.0652377 -0.186124 0)
(-0.0711721 -0.17528 0)
(-0.0769138 -0.163423 0)
(-0.0824038 -0.150575 0)
(-0.0875759 -0.136771 0)
(-0.0923587 -0.122056 0)
(-0.096678 -0.106499 0)
(-0.100459 -0.09018 0)
(-0.103631 -0.0732037 0)
(-0.106128 -0.0556919 0)
(-0.107892 -0.0377839 0)
(-0.108846 -0.0196388 0)
(-0.109107 -0.00143246 0)
(-0.00258454 -0.231018 0)
(-0.00783593 -0.232562 0)
(-0.0130912 -0.23066 0)
(-0.0183621 -0.22781 0)
(-0.0236428 -0.224 0)
(-0.028928 -0.219222 0)
(-0.0342083 -0.213469 0)
(-0.0394698 -0.206731 0)
(-0.0446934 -0.199004 0)
(-0.0498544 -0.190285 0)
(-0.0549221 -0.180577 0)
(-0.0598596 -0.169891 0)
(-0.0646246 -0.158243 0)
(-0.0691686 -0.145661 0)
(-0.0734384 -0.132185 0)
(-0.0773778 -0.117865 0)
(-0.0809285 -0.102769 0)
(-0.0840329 -0.0869791 0)
(-0.0866373 -0.0705923 0)
(-0.0886939 -0.0537224 0)
(-0.0901598 -0.0364969 0)
(-0.0909819 -0.019058 0)
(-0.091233 -0.00156243 0)
(-0.00210729 -0.226254 0)
(-0.00639842 -0.227758 0)
(-0.0106975 -0.225848 0)
(-0.0150067 -0.222988 0)
(-0.0193207 -0.219173 0)
(-0.0236331 -0.214398 0)
(-0.0279347 -0.208657 0)
(-0.0322136 -0.201948 0)
(-0.0364541 -0.194269 0)
(-0.0406357 -0.185624 0)
(-0.0447336 -0.176021 0)
(-0.0487183 -0.165475 0)
(-0.0525556 -0.154009 0)
(-0.0562076 -0.141654 0)
(-0.0596333 -0.128453 0)
(-0.0627887 -0.114461 0)
(-0.0656296 -0.0997451 0)
(-0.0681129 -0.0843843 0)
(-0.0701987 -0.0684718 0)
(-0.0718533 -0.0521138 0)
(-0.0730482 -0.0354279 0)
(-0.073747 -0.0185436 0)
(-0.0739972 -0.00160393 0)
(-0.00161708 -0.222412 0)
(-0.00494016 -0.223839 0)
(-0.00828623 -0.221926 0)
(-0.0116329 -0.219064 0)
(-0.0149797 -0.21525 0)
(-0.0183218 -0.210485 0)
(-0.0216517 -0.204764 0)
(-0.0249608 -0.198086 0)
(-0.0282371 -0.190456 0)
(-0.031465 -0.18188 0)
(-0.0346252 -0.172371 0)
(-0.0376944 -0.161948 0)
(-0.0406467 -0.150637 0)
(-0.043453 -0.138473 0)
(-0.0460823 -0.1255 0)
(-0.0485028 -0.111774 0)
(-0.0506819 -0.0973616 0)
(-0.0525878 -0.0823409 0)
(-0.0541925 -0.0667991 0)
(-0.0554738 -0.0508357 0)
(-0.0564143 -0.0345601 0)