/*--------------------------------*- C++ -*----------------------------------*\
| =========                 |                                                 |
| \\      /  F ield         | OpenFOAM: The Open Source CFD Toolbox           |
|  \\    /   O peration     | Version:  2.4.0                                 |
|   \\  /    A nd           | Web:      www.OpenFOAM.org                      |
|    \\/     M anipulation  |                                                 |
\*---------------------------------------------------------------------------*/
FoamFile
{
    version     2.0;
    format      ascii;
    class       volVectorField;
    location    "0.1";
    object      U.oil;
}
// * * * * * * * * * * * * * * * * * * * * * * * * * * * * * * * * * * * * * //

dimensions      [0 1 -1 0 0 0 0];

internalField   nonuniform List<vector> 
2268
(
(0.0126353 -0.00597317 0)
(0.0382732 -0.00614391 0)
(0.0650329 -0.00649583 0)
(0.0937036 -0.00705019 0)
(0.125411 -0.00783879 0)
(0.160407 -0.00893536 0)
(0.203582 -0.0103586 0)
(0.245622 -0.0121818 0)
(0.315523 -0.0150996 0)
(0.366841 -0.0178474 0)
(0.473358 -0.0184567 0)
(0.551876 -0.0331234 0)
(0.686897 -0.0210156 0)
(0.932307 0.0318164 0)
(1.19198 0.116531 0)
(1.30121 0.119306 0)
(1.33073 0.0971608 0)
(1.3537 -0.0198493 0)
(1.39742 -0.191737 0)
(1.25187 -0.115211 0)
(0.74055 0.0875352 0)
(0.410084 0.0858049 0)
(0.136446 0.0628438 0)
(0.0125584 -0.0178858 0)
(0.0380398 -0.0183991 0)
(0.0646281 -0.0194506 0)
(0.0931024 -0.021106 0)
(0.124564 -0.02346 0)
(0.159283 -0.0267432 0)
(0.202052 -0.0309184 0)
(0.243611 -0.0369287 0)
(0.313288 -0.0428834 0)
(0.363552 -0.0596731 0)
(0.469189 -0.0503744 0)
(0.558439 -0.0858715 0)
(0.716527 -0.0825895 0)
(0.964839 -0.00934699 0)
(1.16743 0.0598563 0)
(1.28804 0.118095 0)
(1.34226 0.209828 0)
(1.36827 0.195897 0)
(1.19223 0.243493 0)
(0.775309 0.29065 0)
(0.54127 0.264756 0)
(0.359447 0.201674 0)
(0.127233 0.190254 0)
(0.0123977 -0.029684 0)
(0.0375487 -0.0305319 0)
(0.0637774 -0.0322686 0)
(0.0918419 -0.035 0)
(0.122791 -0.0388832 0)
(0.156948 -0.0443027 0)
(0.198817 -0.0511993 0)
(0.239595 -0.060979 0)
(0.308376 -0.0727025 0)
(0.355368 -0.0927573 0)
(0.463895 -0.0935439 0)
(0.556931 -0.151125 0)
(0.744649 -0.0955643 0)
(0.982753 -0.0213449 0)
(1.13134 0.0194597 0)
(1.23275 0.0887759 0)
(1.28301 0.0693758 0)
(1.25543 0.0323034 0)
(0.873004 0.112919 0)
(0.594173 0.283718 0)
(0.470498 0.327458 0)
(0.335731 0.305159 0)
(0.128411 0.289905 0)
(0.0121595 -0.0412911 0)
(0.0368207 -0.0424631 0)
(0.0625178 -0.0448623 0)
(0.0899769 -0.0486282 0)
(0.120167 -0.0539816 0)
(0.153498 -0.0614462 0)
(0.193949 -0.0709711 0)
(0.233917 -0.0845915 0)
(0.300162 -0.100757 0)
(0.344094 -0.127868 0)
(0.455342 -0.134489 0)
(0.553055 -0.201993 0)
(0.772438 -0.102817 0)
(0.95569 -0.0961308 0)
(1.09348 -0.0388641 0)
(1.15572 0.040399 0)
(1.21575 0.0706416 0)
(0.980329 0.1428 0)
(0.627318 0.287056 0)
(0.518315 0.36082 0)
(0.448361 0.375359 0)
(0.334311 0.382216 0)
(0.121802 0.430803 0)
(0.0118466 -0.0526403 0)
(0.0358649 -0.0541221 0)
(0.0608667 -0.057154 0)
(0.0875344 -0.0618971 0)
(0.116736 -0.0686354 0)
(0.148966 -0.0780149 0)
(0.187577 -0.0900804 0)
(0.226425 -0.107208 0)
(0.289103 -0.128176 0)
(0.329595 -0.159853 0)
(0.43954 -0.175258 0)
(0.540329 -0.264874 0)
(0.757785 -0.155068 0)
(0.928414 -0.148174 0)
(1.01661 -0.0795528 0)
(1.08761 -0.0453677 0)
(1.02125 0.0315705 0)
(0.667836 0.206854 0)
(0.518593 0.353054 0)
(0.48731 0.389799 0)
(0.450065 0.412796 0)
(0.352259 0.452829 0)
(0.147442 0.511598 0)
(0.0114624 -0.0636756 0)
(0.0346915 -0.0654496 0)
(0.0588449 -0.0690783 0)
(0.0845487 -0.0747288 0)
(0.112549 -0.0827522 0)
(0.143408 -0.0939135 0)
(0.179832 -0.108389 0)
(0.217135 -0.128859 0)
(0.275453 -0.153839 0)
(0.311746 -0.190861 0)
(0.420158 -0.217603 0)
(0.517943 -0.318315 0)
(0.729522 -0.216991 0)
(0.877697 -0.202176 0)
(0.941617 -0.167041 0)
(0.992882 -0.0616531 0)
(0.705915 0.0935179 0)
(0.491148 0.28832 0)
(0.459842 0.372081 0)
(0.473921 0.403169 0)
(0.461806 0.438769 0)
(0.404237 0.530236 0)
(0.15954 0.69074 0)
(0.0110075 -0.0741815 0)
(0.033302 -0.0762271 0)
(0.056456 -0.0804201 0)
(0.0810224 -0.0869183 0)
(0.107626 -0.0961716 0)
(0.136864 -0.109013 0)
(0.170815 -0.12569 0)
(0.206051 -0.149156 0)
(0.259349 -0.177372 0)
(0.29104 -0.219106 0)
(0.395778 -0.256195 0)
(0.484239 -0.353496 0)
(0.69468 -0.275051 0)
(0.798675 -0.263831 0)
(0.914877 -0.217744 0)
(0.759316 -0.0886467 0)
(0.463154 0.167221 0)
(0.401968 0.314404 0)
(0.434011 0.360445 0)
(0.479234 0.393369 0)
(0.501551 0.453843 0)
(0.468622 0.55335 0)
(0.231251 0.780339 0)
(0.010465 -0.0841134 0)
(0.0316417 -0.0864398 0)
(0.0536078 -0.0912061 0)
(0.0768214 -0.0984876 0)
(0.101879 -0.108732 0)
(0.129353 -0.122902 0)
(0.160645 -0.141156 0)
(0.193407 -0.16669 0)
(0.241288 -0.196936 0)
(0.268611 -0.242323 0)
(0.375513 -0.286193 0)
(0.447799 -0.342006 0)
(0.632394 -0.329423 0)
(0.745926 -0.346416 0)
(0.80201 -0.24646 0)
(0.48493 -0.010063 0)
(0.334733 0.222155 0)
(0.351438 0.303768 0)
(0.433171 0.335222 0)
(0.502416 0.373707 0)
(0.54345 0.448272 0)
(0.592533 0.633586 0)
(0.318554 1.08262 0)
(-0.0851791 0.026607 0)
(-0.158335 0.00889599 0)
(-0.153691 -0.00967683 0)
(-0.107881 -0.0205328 0)
(-0.0116412 -0.0381246 0)
(0.157346 -0.0651294 0)
(0.402913 -0.0825219 0)
(0.608651 -0.0665513 0)
(0.61553 -0.00603042 0)
(0.599623 0.00386602 0)
(0.642619 -0.0403936 0)
(0.447852 0.0152692 0)
(0.371473 0.0151485 0)
(0.301799 0.0137482 0)
(0.238674 0.0125403 0)
(0.180671 0.011619 0)
(0.126437 0.0109618 0)
(0.0747995 0.0105329 0)
(0.0246816 0.0104106 0)
(-0.0941288 0.0800397 0)
(-0.176229 0.0238241 0)
(-0.155345 -0.0370395 0)
(-0.10013 -0.0769604 0)
(0.0379578 -0.160824 0)
(0.237543 -0.222845 0)
(0.73642 -0.366142 0)
(1.58059 -0.675847 0)
(0.92939 -0.204451 0)
(2.6665 -1.18038 0)
(1.9803 -0.761568 0)
(0.699122 -0.0646528 0)
(0.387958 0.0459034 0)
(0.311782 0.0426222 0)
(0.246603 0.038921 0)
(0.18673 0.0360936 0)
(0.130708 0.0340754 0)
(0.0773259 0.0327801 0)
(0.0254397 0.0319679 0)
(-0.108442 0.147047 0)
(-0.201974 0.023539 0)
(-0.105687 -0.105932 0)
(-0.0427515 -0.185607 0)
(0.179697 -0.312701 0)
(0.463861 -0.398179 0)
(1.33095 -0.711537 0)
(2.38343 -1.1659 0)
(3.10892 -1.4807 0)
(3.14115 -1.46903 0)
(2.17389 -0.873554 0)
(0.705961 -0.0544542 0)
(0.391201 0.074933 0)
(0.310237 0.0714249 0)
(0.245246 0.0651906 0)
(0.18572 0.0604601 0)
(0.130017 0.0570913 0)
(0.0769276 0.0549392 0)
(0.0253082 0.0536201 0)
(-0.139386 0.165142 0)
(-0.127372 -0.0645001 0)
(0.409475 -0.354258 0)
(0.455035 -0.419544 0)
(0.728365 -0.550811 0)
(1.17754 -0.666297 0)
(1.86363 -0.931716 0)
(2.62694 -1.27261 0)
(3.09307 -1.47983 0)
(2.71779 -1.21449 0)
(1.1963 -0.28403 0)
(0.524971 0.0791726 0)
(0.379758 0.110071 0)
(0.306544 0.100099 0)
(0.242473 0.0913106 0)
(0.183683 0.0846953 0)
(0.128627 0.0799959 0)
(0.0761233 0.077 0)
(0.0250469 0.0751502 0)
(0.320678 -0.116846 0)
(0.719229 -0.459686 0)
(1.06772 -0.592823 0)
(1.25268 -0.704802 0)
(1.51537 -0.824643 0)
(1.84155 -0.929314 0)
(2.25843 -1.09356 0)
(2.63822 -1.26153 0)
(2.62772 -1.2368 0)
(1.33744 -0.360305 0)
(0.644102 0.0784868 0)
(0.458446 0.152305 0)
(0.371823 0.142679 0)
(0.301574 0.128345 0)
(0.238733 0.117031 0)
(0.180949 0.108581 0)
(0.126767 0.102591 0)
(0.0750446 0.0987768 0)
(0.0246948 0.0964101 0)
(0.608319 -0.352399 0)
(0.856817 -0.431767 0)
(0.98343 -0.535746 0)
(1.10367 -0.604434 0)
(1.41325 -0.742862 0)
(1.93663 -0.954644 0)
(2.39437 -1.14622 0)
(2.46741 -1.16659 0)
(1.91853 -0.658537 0)
(0.856448 0.029258 0)
(0.556554 0.18756 0)
(0.442733 0.194501 0)
(0.363488 0.174005 0)
(0.2954 0.156069 0)
(0.234085 0.142307 0)
(0.177563 0.132082 0)
(0.124465 0.124849 0)
(0.0737108 0.120245 0)
(0.02426 0.117377 0)
(0.68583 -0.204431 0)
(0.948801 -0.435347 0)
(0.980401 -0.516627 0)
(1.0812 -0.579045 0)
(1.36409 -0.694571 0)
(1.84903 -0.896547 0)
(2.14421 -1.01474 0)
(2.46269 -1.05875 0)
(1.45059 -0.325697 0)
(0.75119 0.161988 0)
(0.528359 0.249463 0)
(0.428858 0.230414 0)
(0.353722 0.203727 0)
(0.288057 0.182623 0)
(0.228577 0.166614 0)
(0.173559 0.154758 0)
(0.121747 0.146378 0)
(0.0721343 0.141046 0)
(0.0237438 0.137711 0)
(1.09631 -0.246866 0)
(1.07039 -0.388849 0)
(1.10849 -0.519092 0)
(1.17178 -0.575568 0)
(1.35415 -0.660779 0)
(1.66877 -0.794571 0)
(2.06448 -0.960756 0)
(2.11868 -0.868181 0)
(1.28088 -0.0882924 0)
(0.664098 0.288285 0)
(0.498947 0.30111 0)
(0.413083 0.264924 0)
(0.342402 0.233338 0)
(0.279558 0.209183 0)
(0.222223 0.190964 0)
(0.16895 0.177496 0)
(0.11862 0.167982 0)
(0.0703216 0.16193 0)
(0.0231517 0.158129 0)
(0.00940884 -0.101129 0)
(0.028444 -0.103662 0)
(0.0482702 -0.108809 0)
(0.0692315 -0.116292 0)
(0.0918517 -0.126619 0)
(0.116429 -0.14148 0)
(0.143605 -0.160695 0)
(0.172029 -0.188323 0)
(0.211472 -0.222009 0)
(0.233722 -0.275858 0)
(0.343719 -0.336221 0)
(0.418763 -0.329181 0)
(0.504806 -0.435386 0)
(0.593515 -0.379318 0)
(0.38022 -0.1783 0)
(0.219078 0.0900883 0)
(0.260443 0.204784 0)
(0.35555 0.245527 0)
(0.436284 0.278474 0)
(0.565369 0.293607 0)
(0.629578 0.416157 0)
(0.894932 0.478255 0)
(1.16628 0.964012 0)
(0.00829224 -0.114016 0)
(0.0250292 -0.116565 0)
(0.0426394 -0.121971 0)
(0.0607491 -0.129196 0)
(0.0790337 -0.140334 0)
(0.098206 -0.157474 0)
(0.12019 -0.180081 0)
(0.141861 -0.217922 0)
(0.167415 -0.26669 0)
(0.188982 -0.345316 0)
(0.241142 -0.436635 0)
(0.29584 -0.438081 0)
(0.404439 -0.464106 0)
(0.31348 -0.349348 0)
(0.152885 -0.0934538 0)
(0.204909 0.0451869 0)
(0.28511 0.108892 0)
(0.385709 0.143181 0)
(0.478893 0.182836 0)
(0.598955 0.184254 0)
(0.716032 0.289735 0)
(0.880394 0.233703 0)
(1.15929 0.394285 0)
(0.00732269 -0.144266 0)
(0.0218392 -0.149826 0)
(0.0374317 -0.16423 0)
(0.0525895 -0.183107 0)
(0.0694337 -0.207184 0)
(0.0808581 -0.241243 0)
(0.0946047 -0.274822 0)
(0.104422 -0.32413 0)
(0.113322 -0.374247 0)
(0.132053 -0.438859 0)
(0.163796 -0.489507 0)
(0.335085 -0.399739 0)
(0.376918 -0.476969 0)
(0.219116 -0.315504 0)
(0.22389 -0.130028 0)
(0.274279 -0.0437354 0)
(0.339165 0.0132269 0)
(0.424479 0.0480178 0)
(0.508821 0.0827406 0)
(0.616418 0.0746553 0)
(0.735136 0.131837 0)
(0.846241 0.0688298 0)
(1.05557 0.0857044 0)
(0.00707259 -0.237393 0)
(0.0155752 -0.241109 0)
(0.0245934 -0.246369 0)
(0.0367546 -0.249332 0)
(0.0579868 -0.2474 0)
(0.0799733 -0.265467 0)
(0.11173 -0.278655 0)
(0.15521 -0.302729 0)
(0.204757 -0.335592 0)
(0.267229 -0.381121 0)
(0.33338 -0.455892 0)
(0.386586 -0.536861 0)
(0.378149 -0.50771 0)
(0.319941 -0.299405 0)
(0.310835 -0.155233 0)
(0.338353 -0.0908711 0)
(0.382544 -0.0520147 0)
(0.452262 -0.0304678 0)
(0.522574 -0.0107289 0)
(0.626241 -0.0260175 0)
(0.726134 -0.0052333 0)
(0.842552 -0.0408909 0)
(1.00209 -0.0563796 0)
(0.0232782 -0.1601 0)
(0.0731687 -0.173588 0)
(0.121719 -0.175775 0)
(0.165272 -0.197278 0)
(0.214485 -0.206805 0)
(0.252589 -0.244447 0)
(0.295871 -0.279022 0)
(0.332355 -0.327179 0)
(0.36563 -0.376348 0)
(0.392194 -0.436696 0)
(0.407751 -0.4863 0)
(0.401843 -0.516101 0)
(0.419076 -0.474022 0)
(0.360445 -0.283057 0)
(0.338529 -0.154084 0)
(0.363972 -0.115903 0)
(0.401389 -0.0998723 0)
(0.461119 -0.0951196 0)
(0.524609 -0.0912921 0)
(0.619629 -0.115417 0)
(0.704562 -0.115709 0)
(0.809384 -0.15066 0)
(0.941714 -0.205081 0)
(0.0190093 -0.224343 0)
(0.0580362 -0.226372 0)
(0.0981451 -0.237987 0)
(0.135293 -0.255199 0)
(0.177703 -0.275184 0)
(0.217111 -0.301757 0)
(0.255181 -0.331259 0)
(0.287279 -0.366738 0)
(0.314109 -0.405179 0)
(0.333809 -0.449539 0)
(0.329883 -0.482808 0)
(0.362099 -0.489641 0)
(0.39687 -0.444403 0)
(0.350122 -0.267559 0)
(0.331681 -0.160972 0)
(0.360396 -0.145365 0)
(0.40002 -0.146491 0)
(0.45439 -0.155205 0)
(0.513575 -0.165362 0)
(0.598731 -0.197639 0)
(0.671213 -0.211002 0)
(0.769005 -0.258346 0)
(0.885474 -0.320741 0)
(0.0176027 -0.256344 0)
(0.052972 -0.260574 0)
(0.0879374 -0.26913 0)
(0.122766 -0.281888 0)
(0.155232 -0.295613 0)
(0.187365 -0.31756 0)
(0.216334 -0.341708 0)
(0.243311 -0.37304 0)
(0.263875 -0.407029 0)
(0.285669 -0.442538 0)
(0.2978 -0.481012 0)
(0.334354 -0.497208 0)
(0.377085 -0.445012 0)
(0.331195 -0.275891 0)
(0.320858 -0.18531 0)
(0.34436 -0.180012 0)
(0.387299 -0.192606 0)
(0.437165 -0.211345 0)
(0.491589 -0.232479 0)
(0.567569 -0.271063 0)
(0.63059 -0.295407 0)
(0.722442 -0.352626 0)
(0.821167 -0.417251 0)
(0.015579 -0.291665 0)
(0.0466642 -0.295762 0)
(0.0773638 -0.303776 0)
(0.107244 -0.315811 0)
(0.136832 -0.332847 0)
(0.16507 -0.352942 0)
(0.191844 -0.378383 0)
(0.216135 -0.405965 0)
(0.2367 -0.437199 0)
(0.256403 -0.470945 0)
(0.26524 -0.499851 0)
(0.30705 -0.504996 0)
(0.350066 -0.443817 0)
(0.3009 -0.279186 0)
(0.296409 -0.208948 0)
(0.322017 -0.211898 0)
(0.364863 -0.236031 0)
(0.410877 -0.263026 0)
(0.460858 -0.29295 0)
(0.528029 -0.336605 0)
(0.583679 -0.370095 0)
(0.666679 -0.435161 0)
(0.750367 -0.503533 0)
(0.0136432 -0.319893 0)
(0.0408348 -0.323901 0)
(0.0676788 -0.331413 0)
(0.0940683 -0.34259 0)
(0.119481 -0.357138 0)
(0.143807 -0.37571 0)
(0.166447 -0.397359 0)
(0.187234 -0.422662 0)
(0.205077 -0.450329 0)
(0.22346 -0.479173 0)
(0.233715 -0.508221 0)
(0.27761 -0.516219 0)
(0.319667 -0.443771 0)
(0.264825 -0.285939 0)
(0.267038 -0.235547 0)
(0.295615 -0.246266 0)
(0.33616 -0.277674 0)
(0.378129 -0.310524 0)
(0.423323 -0.347059 0)
(0.482267 -0.394786 0)
(0.530602 -0.435972 0)
(0.605112 -0.507205 0)
(0.674364 -0.578551 0)
(0.0118263 -0.345856 0)
(0.0353827 -0.349635 0)
(0.0585948 -0.356642 0)
(0.0812344 -0.367158 0)
(0.103134 -0.381289 0)
(0.124003 -0.398662 0)
(0.143617 -0.419419 0)
(0.161823 -0.442822 0)
(0.177967 -0.468747 0)
(0.194944 -0.496404 0)
(0.205136 -0.523893 0)
(0.248642 -0.528977 0)
(0.286702 -0.44195 0)
(0.225621 -0.292864 0)
(0.235493 -0.261008 0)
(0.265907 -0.279721 0)
(0.302502 -0.315944 0)
(0.340217 -0.353124 0)
(0.380414 -0.394709 0)
(0.431318 -0.445679 0)
(0.472728 -0.493419 0)
(0.538412 -0.569233 0)
(0.594668 -0.644619 0)
(0.0101183 -0.367725 0)
(0.0302612 -0.371284 0)
(0.0500621 -0.377837 0)
(0.0693274 -0.387714 0)
(0.0878969 -0.400865 0)
(0.105621 -0.417194 0)
(0.122303 -0.43643 0)
(0.137876 -0.45842 0)
(0.152049 -0.482787 0)
(0.166932 -0.508968 0)
(0.176414 -0.536371 0)
(0.218338 -0.540844 0)
(0.250188 -0.436843 0)
(0.184695 -0.301931 0)
(0.202277 -0.285255 0)
(0.233806 -0.312019 0)
(0.265262 -0.350453 0)
(0.298508 -0.390617 0)
(0.333397 -0.435832 0)
(0.376338 -0.489285 0)
(0.410751 -0.542557 0)
(0.467706 -0.622442 0)
(0.515645 -0.700407 0)
(0.00849484 -0.385855 0)
(0.0253976 -0.389292 0)
(0.0419892 -0.395591 0)
(0.058036 -0.405076 0)
(0.0734629 -0.417652 0)
(0.0881989 -0.433159 0)
(0.102107 -0.451483 0)
(0.115136 -0.472439 0)
(0.127165 -0.495886 0)
(0.139699 -0.52145 0)
(0.14816 -0.548969 0)
(0.187015 -0.551564 0)
(0.211517 -0.42862 0)
(0.143044 -0.312424 0)
(0.169431 -0.307921 0)
(0.199268 -0.341781 0)
(0.225623 -0.380752 0)
(0.254158 -0.422815 0)
(0.283375 -0.470446 0)
(0.318324 -0.525579 0)
(0.344935 -0.583734 0)
(0.393497 -0.666836 0)
(0.437484 -0.745332 0)
(0.00668896 -0.402019 0)
(0.0200456 -0.40536 0)
(0.0335277 -0.41111 0)
(0.0469163 -0.419872 0)
(0.0595976 -0.431865 0)
(0.071568 -0.446655 0)
(0.0827948 -0.464139 0)
(0.0932395 -0.484273 0)
(0.102908 -0.506988 0)
(0.112666 -0.532087 0)
(0.119751 -0.560056 0)
(0.15394 -0.561437 0)
(0.171063 -0.419189 0)
(0.101313 -0.32387 0)
(0.137466 -0.330858 0)
(0.162719 -0.368273 0)
(0.1848 -0.407133 0)
(0.20825 -0.449913 0)
(0.231397 -0.498556 0)
(0.258108 -0.554143 0)
(0.275494 -0.616275 0)
(0.317763 -0.699301 0)
(0.349346 -0.772779 0)
(0.00510008 -0.415108 0)
(0.015322 -0.418327 0)
(0.0255684 -0.42401 0)
(0.0359249 -0.432248 0)
(0.0461961 -0.443117 0)
(0.055561 -0.45691 0)
(0.0641635 -0.473373 0)
(0.0720027 -0.492449 0)
(0.0790918 -0.514099 0)
(0.0856298 -0.538397 0)
(0.0912507 -0.566482 0)
(0.11641 -0.56903 0)
(0.128214 -0.410072 0)
(0.0625898 -0.336446 0)
(0.105643 -0.353722 0)
(0.125751 -0.390796 0)
(0.144001 -0.428029 0)
(0.162155 -0.469389 0)
(0.179085 -0.516529 0)
(0.197057 -0.57055 0)
(0.20536 -0.635813 0)
(0.245661 -0.714201 0)
(0.237765 -0.798648 0)
(0.00414032 -0.418134 0)
(0.0123197 -0.421122 0)
(0.0199608 -0.426625 0)
(0.027012 -0.434763 0)
(0.0339588 -0.445162 0)
(0.0407469 -0.457911 0)
(0.0467994 -0.47334 0)
(0.0521306 -0.491418 0)
(0.0565588 -0.512192 0)
(0.0594197 -0.536042 0)
(0.0632281 -0.564204 0)
(0.0578303 -0.576129 0)
(0.0759823 -0.398095 0)
(0.0316987 -0.345441 0)
(0.0745545 -0.369868 0)
(0.0910279 -0.402662 0)
(0.105784 -0.436772 0)
(0.119012 -0.47642 0)
(0.129682 -0.523326 0)
(0.137167 -0.580223 0)
(0.137527 -0.653811 0)
(0.159503 -0.738318 0)
(0.0930156 -0.869272 0)
(0.00311942 -0.426597 0)
(0.00924863 -0.429655 0)
(0.0149769 -0.435412 0)
(0.0201561 -0.444183 0)
(0.0243494 -0.455981 0)
(0.0279453 -0.471023 0)
(0.03109 -0.489235 0)
(0.0335642 -0.510516 0)
(0.0350055 -0.534968 0)
(0.0341953 -0.562452 0)
(0.0340537 -0.593457 0)
(0.00940195 -0.575798 0)
(0.00636408 -0.397026 0)
(0.0136811 -0.363253 0)
(0.0470715 -0.389821 0)
(0.0613737 -0.422135 0)
(0.0709437 -0.461965 0)
(0.0771652 -0.512226 0)
(0.0780285 -0.572699 0)
(0.0710794 -0.64277 0)
(0.0584737 -0.721765 0)
(0.0311882 -0.805588 0)
(0.000965323 -0.925857 0)
(0.00153444 -0.523116 0)
(0.00423969 -0.527002 0)
(0.00676467 -0.533847 0)
(0.00874341 -0.543856 0)
(0.0101838 -0.556882 0)
(0.0108359 -0.572584 0)
(0.0105055 -0.590687 0)
(0.00905945 -0.611021 0)
(0.0072585 -0.633188 0)
(0.00447105 -0.656567 0)
(-0.00067374 -0.695913 0)
(-0.016255 -0.620969 0)
(-0.0232017 -0.496728 0)
(0.00834955 -0.488019 0)
(0.0212788 -0.51228 0)
(0.0248118 -0.545848 0)
(0.0211865 -0.587571 0)
(0.0140109 -0.637046 0)
(0.00363487 -0.695466 0)
(-0.00846365 -0.766335 0)
(-0.0215808 -0.84542 0)
(-0.0567923 -0.949132 0)
(-0.0543386 -1.12728 0)
(-0.000625212 -0.728983 0)
(-0.0026588 -0.733568 0)
(-0.00454751 -0.741604 0)
(-0.00665107 -0.753465 0)
(-0.00897106 -0.768911 0)
(-0.0115125 -0.787737 0)
(-0.0139708 -0.809617 0)
(-0.0154153 -0.833958 0)
(-0.0181027 -0.858738 0)
(-0.0230352 -0.880085 0)
(-0.0200893 -0.774442 0)
(-0.0120001 -0.697468 0)
(-0.0145617 -0.733994 0)
(-0.00473714 -0.735713 0)
(-0.0141114 -0.764192 0)
(-0.0265933 -0.818378 0)
(-0.0424432 -0.901222 0)
(-0.0654495 -1.03118 0)
(-0.101663 -1.26155 0)
(-0.129499 -1.54439 0)
(-0.128029 -1.82949 0)
(-0.095896 -1.97566 0)
(-0.153964 -1.65431 0)
(-0.00301784 -0.147637 0)
(-0.013862 -0.145619 0)
(-0.0231973 -0.144513 0)
(-0.0346111 -0.145214 0)
(-0.0476716 -0.150258 0)
(-0.0633206 -0.163399 0)
(-0.0816701 -0.188539 0)
(-0.102759 -0.228355 0)
(-0.124467 -0.283228 0)
(-0.140927 -0.355908 0)
(-0.0495842 -0.574224 0)
(-0.00831466 -0.789888 0)
(-0.0117611 -0.969652 0)
(-0.00872815 -0.977164 0)
(-0.0104598 -1.03522 0)
(-0.0153605 -1.13202 0)
(-0.0274055 -1.25255 0)
(-0.057511 -1.37595 0)
(-0.129794 -1.45382 0)
(-0.298767 -1.29874 0)
(-0.47775 -0.902731 0)
(-0.81042 -0.350757 0)
(-0.844803 0.0303652 0)
(-0.00450716 -0.68525 0)
(-0.0171712 -0.685478 0)
(-0.0260402 -0.685262 0)
(-0.0374834 -0.684549 0)
(-0.049763 -0.682555 0)
(-0.0642684 -0.679262 0)
(-0.0818967 -0.674489 0)
(-0.104529 -0.667835 0)
(-0.133414 -0.660413 0)
(-0.171906 -0.658031 0)
(-0.22212 -0.66926 0)
(-0.30668 -0.639635 0)
(-0.335347 -0.620068 0)
(-0.336966 -0.625399 0)
(-0.333191 -0.616932 0)
(-0.336465 -0.601184 0)
(-0.354777 -0.582781 0)
(-0.392886 -0.563663 0)
(-0.454692 -0.553282 0)
(-0.578126 -0.517406 0)
(-0.748367 -0.363445 0)
(-0.884216 -0.0212567 0)
(-0.888414 0.1877 0)
(-0.00620452 -0.328204 0)
(-0.0172314 -0.332818 0)
(-0.0281866 -0.335881 0)
(-0.0409338 -0.341011 0)
(-0.0557311 -0.347685 0)
(-0.0730772 -0.356379 0)
(-0.0937522 -0.366601 0)
(-0.117884 -0.377204 0)
(-0.146182 -0.386924 0)
(-0.179859 -0.393999 0)
(-0.221313 -0.394841 0)
(-0.259717 -0.382931 0)
(-0.285024 -0.348805 0)
(-0.301389 -0.321271 0)
(-0.325239 -0.306617 0)
(-0.352387 -0.304001 0)
(-0.39196 -0.309145 0)
(-0.444218 -0.320694 0)
(-0.520243 -0.338039 0)
(-0.639393 -0.342054 0)
(-0.765194 -0.273164 0)
(-0.798416 -0.0857122 0)
(-0.785207 0.122006 0)
(-0.00650482 -0.389539 0)
(-0.0198178 -0.394183 0)
(-0.0334024 -0.396259 0)
(-0.0478796 -0.399368 0)
(-0.0636656 -0.4032 0)
(-0.0812644 -0.407521 0)
(-0.101277 -0.412007 0)
(-0.124257 -0.415956 0)
(-0.150533 -0.418128 0)
(-0.180149 -0.417242 0)
(-0.212509 -0.411702 0)
(-0.245981 -0.398089 0)
(-0.276215 -0.379228 0)
(-0.302178 -0.367856 0)
(-0.326195 -0.356048 0)
(-0.352893 -0.345083 0)
(-0.384317 -0.333576 0)
(-0.417097 -0.320204 0)
(-0.462273 -0.301085 0)
(-0.543096 -0.258218 0)
(-0.642985 -0.16034 0)
(-0.692806 -0.032287 0)
(-0.655309 0.0581898 0)
(-0.00662114 -0.390751 0)
(-0.0200275 -0.395 0)
(-0.0338785 -0.395728 0)
(-0.0486177 -0.396887 0)
(-0.06464 -0.398116 0)
(-0.0822616 -0.399242 0)
(-0.101865 -0.399813 0)
(-0.12375 -0.399292 0)
(-0.148088 -0.397233 0)
(-0.174848 -0.39327 0)
(-0.20325 -0.38673 0)
(-0.231204 -0.376905 0)
(-0.257813 -0.363248 0)
(-0.281889 -0.345694 0)
(-0.307468 -0.327929 0)
(-0.335699 -0.310609 0)
(-0.369351 -0.293616 0)
(-0.410243 -0.273602 0)
(-0.461532 -0.24934 0)
(-0.510154 -0.21953 0)
(-0.538612 -0.168861 0)
(-0.555078 -0.0706149 0)
(-0.551556 0.0390577 0)
(-0.00677657 -0.365477 0)
(-0.0208196 -0.369347 0)
(-0.0352042 -0.369539 0)
(-0.0503133 -0.369801 0)
(-0.0663855 -0.369955 0)
(-0.0836581 -0.369738 0)
(-0.102342 -0.368898 0)
(-0.122555 -0.367019 0)
(-0.144282 -0.363602 0)
(-0.167371 -0.358123 0)
(-0.191353 -0.350018 0)
(-0.215659 -0.339061 0)
(-0.240147 -0.326158 0)
(-0.265595 -0.312944 0)
(-0.291055 -0.297677 0)
(-0.317213 -0.280364 0)
(-0.34388 -0.259538 0)
(-0.372372 -0.234521 0)
(-0.403021 -0.202195 0)
(-0.439269 -0.156421 0)
(-0.474343 -0.0945721 0)
(-0.490717 -0.0326709 0)
(-0.487698 0.0217009 0)
(-0.00685034 -0.355993 0)
(-0.0208496 -0.359626 0)
(-0.0351869 -0.359473 0)
(-0.0500901 -0.359208 0)
(-0.0657689 -0.358645 0)
(-0.0824324 -0.357586 0)
(-0.100241 -0.355754 0)
(-0.11929 -0.352824 0)
(-0.139584 -0.348409 0)
(-0.160935 -0.342082 0)
(-0.182948 -0.333505 0)
(-0.205252 -0.322591 0)
(-0.227682 -0.309361 0)
(-0.250301 -0.293851 0)
(-0.2735 -0.276658 0)
(-0.297503 -0.257432 0)
(-0.322691 -0.235775 0)
(-0.348949 -0.210526 0)
(-0.375731 -0.180409 0)
(-0.399763 -0.143631 0)
(-0.41656 -0.0978529 0)
(-0.424847 -0.0423753 0)
(-0.42661 0.0155506 0)
(-0.00674017 -0.340496 0)
(-0.0205663 -0.34373 0)
(-0.0346506 -0.343107 0)
(-0.0492036 -0.342142 0)
(-0.0643762 -0.340665 0)
(-0.080312 -0.338513 0)
(-0.097114 -0.335476 0)
(-0.114828 -0.3313 0)
(-0.133421 -0.325711 0)
(-0.152764 -0.318444 0)
(-0.172654 -0.309295 0)
(-0.192918 -0.29823 0)
(-0.213462 -0.285294 0)
(-0.234207 -0.27041 0)
(-0.255132 -0.253341 0)
(-0.276256 -0.23381 0)
(-0.297482 -0.211289 0)
(-0.318586 -0.185154 0)
(-0.338905 -0.154408 0)
(-0.357178 -0.118212 0)
(-0.371084 -0.077066 0)
(-0.378311 -0.0334697 0)
(-0.37918 0.0101687 0)
(-0.00657585 -0.327712 0)
(-0.0200224 -0.330675 0)
(-0.033677 -0.32975 0)
(-0.047706 -0.328331 0)
(-0.062221 -0.326277 0)
(-0.0773255 -0.323448 0)
(-0.0930889 -0.319668 0)
(-0.109534 -0.314738 0)
(-0.126625 -0.308446 0)
(-0.144266 -0.300586 0)
(-0.162319 -0.291011 0)
(-0.180661 -0.279628 0)
(-0.199204 -0.266359 0)
(-0.21787 -0.251132 0)
(-0.236569 -0.23384 0)
(-0.255186 -0.214256 0)
(-0.273524 -0.192084 0)
(-0.291206 -0.166911 0)
(-0.307559 -0.138312 0)
(-0.321467 -0.105991 0)
(-0.331418 -0.0701068 0)
(-0.336456 -0.0317555 0)
(-0.337589 0.007152 0)
(-0.00632354 -0.314444 0)
(-0.0192447 -0.31714 0)
(-0.0323259 -0.315946 0)
(-0.0457014 -0.314136 0)
(-0.0594525 -0.311583 0)
(-0.0736536 -0.308178 0)
(-0.0883495 -0.303782 0)
(-0.103549 -0.298241 0)
(-0.11922 -0.291398 0)
(-0.13529 -0.283103 0)
(-0.151663 -0.273237 0)
(-0.16824 -0.261707 0)
(-0.184918 -0.248425 0)
(-0.201585 -0.233285 0)
(-0.218112 -0.216154 0)
(-0.234325 -0.196873 0)
(-0.249979 -0.175236 0)
(-0.264695 -0.151033 0)
(-0.27793 -0.124091 0)
(-0.288936 -0.0944271 0)
(-0.296724 -0.0624315 0)
(-0.300609 -0.0289929 0)
(-0.301482 0.00484149 0)
(-0.0060161 -0.302014 0)
(-0.0182948 -0.304488 0)
(-0.0306941 -0.303095 0)
(-0.0433216 -0.30099 0)
(-0.0562348 -0.29807 0)
(-0.0694857 -0.294244 0)
(-0.0831027 -0.289404 0)
(-0.0970863 -0.28343 0)
(-0.111406 -0.276199 0)
(-0.126005 -0.267596 0)
(-0.140805 -0.25752 0)
(-0.155714 -0.245883 0)
(-0.170631 -0.232598 0)
(-0.185433 -0.217578 0)
(-0.199973 -0.200728 0)
(-0.21406 -0.181939 0)
(-0.227442 -0.161102 0)
(-0.239782 -0.138127 0)
(-0.250644 -0.112994 0)
(-0.2595 -0.0858166 0)
(-0.265694 -0.0569362 0)
(-0.268767 -0.0270065 0)
(-0.269484 0.00319606 0)
(-0.00566167 -0.290179 0)
(-0.0172074 -0.29246 0)
(-0.0288419 -0.290912 0)
(-0.0406505 -0.288582 0)
(-0.0526724 -0.285382 0)
(-0.0649436 -0.281241 0)
(-0.0774806 -0.276075 0)
(-0.090278 -0.26979 0)
(-0.103307 -0.262292 0)
(-0.116519 -0.253489 0)
(-0.129843 -0.2433 0)
(-0.143195 -0.231649 0)
(-0.156473 -0.218464 0)
(-0.169557 -0.203676 0)
(-0.182294 -0.187219 0)
(-0.194502 -0.169031 0)
(-0.205949 -0.149066 0)
(-0.216348 -0.127314 0)
(-0.225363 -0.103831 0)
(-0.232616 -0.0787778 0)
(-0.23766 -0.0524599 0)
(-0.240154 -0.0253714 0)
(-0.240733 0.00192135 0)
(-0.00527262 -0.279114 0)
(-0.0160168 -0.28123 0)
(-0.0268245 -0.279568 0)
(-0.0377627 -0.277069 0)
(-0.0488571 -0.273664 0)
(-0.0601311 -0.269296 0)
(-0.0715928 -0.263898 0)
(-0.0832326 -0.257399 0)
(-0.0950227 -0.249726 0)
(-0.106917 -0.240808 0)
(-0.118853 -0.230579 0)
(-0.130752 -0.21898 0)
(-0.142516 -0.205956 0)
(-0.15403 -0.191461 0)
(-0.165152 -0.175455 0)
(-0.175713 -0.157913 0)
(-0.185512 -0.138833 0)
(-0.194315 -0.118249 0)
(-0.201859 -0.0962558 0)
(-0.207873 -0.0730228 0)
(-0.212045 -0.048814 0)
(-0.214114 -0.0240152 0)
(-0.214585 0.000934363 0)
(-0.00485736 -0.268859 0)
(-0.014749 -0.270834 0)
(-0.0246845 -0.269088 0)
(-0.034716 -0.266467 0)
(-0.0448589 -0.262913 0)
(-0.0551273 -0.258384 0)
(-0.0655231 -0.252828 0)
(-0.0760336 -0.24619 0)
(-0.0866315 -0.238415 0)
(-0.0972739 -0.229448 0)
(-0.107903 -0.21924 0)
(-0.118446 -0.207747 0)
(-0.128814 -0.194932 0)
(-0.138899 -0.180767 0)
(-0.148575 -0.165238 0)
(-0.157692 -0.148343 0)
(-0.166081 -0.130111 0)
(-0.173551 -0.110602 0)
(-0.179902 -0.0899253 0)
(-0.184932 -0.0682454 0)
(-0.188422 -0.0457903 0)
(-0.190169 -0.022867 0)
(-0.19056 0.000179498 0)
(-0.00442314 -0.259465 0)
(-0.0134252 -0.26132 0)
(-0.0224559 -0.259514 0)
(-0.0315559 -0.256806 0)
(-0.0407327 -0.253149 0)
(-0.0499937 -0.248511 0)
(-0.059336 -0.242852 0)
(-0.0687451 -0.236132 0)
(-0.0781943 -0.228309 0)
(-0.0876438 -0.219343 0)
(-0.0970408 -0.2092 0)
(-0.106319 -0.197849 0)
(-0.115398 -0.185271 0)
(-0.124183 -0.171452 0)
(-0.132561 -0.156396 0)
(-0.140406 -0.140124 0)
(-0.147576 -0.122678 0)
(-0.15392 -0.104135 0)
(-0.159281 -0.0846067 0)
(-0.16351 -0.0642483 0)
(-0.166448 -0.0432575 0)
(-0.167932 -0.021885 0)
(-0.168276 -0.000411079 0)
(-0.00397529 -0.250963 0)
(-0.0120614 -0.252717 0)
(-0.0201651 -0.250871 0)
(-0.0283175 -0.248102 0)
(-0.0365207 -0.244376 0)
(-0.044777 -0.239667 0)
(-0.0530803 -0.233948 0)
(-0.0614153 -0.227188 0)
(-0.0697562 -0.219357 0)
(-0.0780665 -0.210429 0)
(-0.0862987 -0.200379 0)
(-0.0943938 -0.189193 0)
(-0.102281 -0.176861 0)
(-0.109876 -0.163386 0)
(-0.117085 -0.148784 0)
(-0.123799 -0.133088 0)
(-0.129905 -0.116354 0)
(-0.135281 -0.0986635 0)
(-0.139806 -0.0801271 0)
(-0.143368 -0.0608886 0)
(-0.145851 -0.0411217 0)
(-0.147127 -0.0210376 0)
(-0.147433 -0.000874274 0)
(-0.00351813 -0.243377 0)
(-0.0106702 -0.245046 0)
(-0.0178319 -0.243173 0)
(-0.0250272 -0.240365 0)
(-0.0322542 -0.236594 0)
(-0.0395118 -0.231845 0)
(-0.0467918 -0.226095 0)
(-0.0540787 -0.219325 0)
(-0.0613484 -0.211515 0)
(-0.068568 -0.202646 0)
(-0.0756955 -0.192708 0)
(-0.0826791 -0.181694 0)
(-0.0894577 -0.169606 0)
(-0.09596 -0.156458 0)
(-0.102106 -0.142276 0)
(-0.107808 -0.127102 0)
(-0.112972 -0.110998 0)
(-0.117503 -0.0940477 0)
(-0.121307 -0.0763581 0)
(-0.1243 -0.0580619 0)
(-0.126398 -0.0393136 0)
(-0.127502 -0.0202944 0)
(-0.127779 -0.00120613 0)
(-0.0030543 -0.236725 0)
(-0.00926015 -0.238323 0)
(-0.0154708 -0.236433 0)
(-0.0217043 -0.233599 0)
(-0.0279564 -0.229803 0)
(-0.0342233 -0.225032 0)
(-0.0404958 -0.219274 0)
(-0.0467589 -0.212514 0)
(-0.0529908 -0.204741 0)
(-0.0591626 -0.195946 0)
(-0.0652377 -0.186124 0)
(-0.0711721 -0.17528 0)
(-0.0769138 -0.163423 0)
(-0.0824038 -0.150575 0)
(-0.0875759 -0.136771 0)
(-0.0923587 -0.122056 0)
(-0.096678 -0.106499 0)
(-0.100459 -0.09018 0)
(-0.103631 -0.0732037 0)
(-0.106128 -0.0556919 0)
(-0.107892 -0.0377839 0)
(-0.108846 -0.0196388 0)
(-0.109107 -0.00143246 0)
(-0.00258454 -0.231018 0)
(-0.00783593 -0.232562 0)
(-0.0130912 -0.23066 0)
(-0.0183621 -0.22781 0)
(-0.0236428 -0.224 0)
(-0.028928 -0.219222 0)
(-0.0342083 -0.213469 0)
(-0.0394698 -0.206731 0)
(-0.0446934 -0.199004 0)
(-0.0498544 -0.190285 0)
(-0.0549221 -0.180577 0)
(-0.0598596 -0.169891 0)
(-0.0646246 -0.158243 0)
(-0.0691686 -0.145661 0)
(-0.0734384 -0.132185 0)
(-0.0773778 -0.117865 0)
(-0.0809285 -0.102769 0)
(-0.0840329 -0.0869791 0)
(-0.0866373 -0.0705923 0)
(-0.0886939 -0.0537224 0)
(-0.0901598 -0.0364969 0)
(-0.0909819 -0.019058 0)
(-0.091233 -0.00156243 0)
(-0.00210729 -0.226254 0)
(-0.00639842 -0.227758 0)
(-0.0106975 -0.225848 0)
(-0.0150067 -0.222988 0)
(-0.0193207 -0.219173 0)
(-0.0236331 -0.214398 0)
(-0.0279347 -0.208657 0)
(-0.0322136 -0.201948 0)
(-0.0364541 -0.194269 0)
(-0.0406357 -0.185624 0)
(-0.0447336 -0.176021 0)
(-0.0487183 -0.165475 0)
(-0.0525556 -0.154009 0)
(-0.0562076 -0.141654 0)
(-0.0596333 -0.128453 0)
(-0.0627887 -0.114461 0)
(-0.0656296 -0.0997451 0)
(-0.0681129 -0.0843843 0)
(-0.0701987 -0.0684718 0)
(-0.0718533 -0.0521138 0)
(-0.0730482 -0.0354279 0)
(-0.073747 -0.0185436 0)
(-0.0739972 -0.00160393 0)
(-0.00161708 -0.222412 0)
(-0.00494016 -0.223839 0)
(-0.00828623 -0.221926 0)
(-0.0116329 -0.219064 0)
(-0.0149797 -0.21525 0)
(-0.0183218 -0.210485 0)
(-0.0216517 -0.204764 0)
(-0.0249608 -0.198086 0)
(-0.0282371 -0.190456 0)
(-0.031465 -0.18188 0)
(-0.0346252 -0.172371 0)
(-0.0376944 -0.161948 0)
(-0.0406467 -0.150637 0)
(-0.043453 -0.138473 0)
(-0.0460823 -0.1255 0)
(-0.0485028 -0.111774 0)
(-0.0506819 -0.0973616 0)
(-0.0525878 -0.0823409 0)
(-0.0541925 -0.0667991 0)
(-0.0554738 -0.0508357 0)
(-0.0564143 -0.0345601 0)
(-0.0569958 -0.0180903 0)
(-0.0572476 -0.00155561 0)