/*--------------------------------*- C++ -*----------------------------------*\
| =========                 |                                                 |
| \\      /  F ield         | OpenFOAM: The Open Source CFD Toolbox           |
|  \\    /   O peration     | Version:  2.4.0                                 |
|   \\  /    A nd           | Web:      www.OpenFOAM.org                      |
|    \\/     M anipulation  |                                                 |
\*---------------------------------------------------------------------------*/
FoamFile
{
    version     2.0;
    format      ascii;
    class       volScalarField;
    location    "0.45";
    object      alpha.oil;
}
// * * * * * * * * * * * * * * * * * * * * * * * * * * * * * * * * * * * * * //

dimensions      [0 0 0 0 0 0 0];

internalField   nonuniform List<scalar> 
559
(
1.78179e-05
2.05651e-05
1.98051e-05
2.10013e-05
2.31045e-05
2.74849e-05
2.91719e-05
2.86541e-05
0.999345
0.999339
0.999334
0.998664
0.995049
0.986912
0.971819
0.951519
0.929209
0.903704
0.86488
0.803149
0.755671
0.754366
0.753072
0.751776
0.750539
0.749293
0.747893
0.99935
0.999801
0.999935
0.999938
0.999962
0.999962
0.999962
0.999905
0.999696
0.999498
0.999521
0.994834
0.958054
0.884004
0.84298
0.80522
0.752261
0.747852
0.746663
0.999639
0.999954
0.999981
0.999979
0.999828
0.998614
0.998052
0.958561
0.922151
0.900124
0.939589
0.974832
0.9705
0.942231
0.939373
0.946911
0.952151
0.829038
0.745413
0.999822
0.999974
0.999981
0.999964
0.994135
0.880166
0.415616
0.20026
0.177213
0.138311
0.217778
0.461265
0.846967
0.931868
0.938563
0.952128
0.976744
0.961505
0.744159
0.999557
0.999701
0.999915
0.999964
0.963107
0.418816
0.0348713
0.00118033
0.000981639
0.000897912
0.000891119
0.00835991
0.252001
0.795999
0.92799
0.950466
0.97679
0.993671
0.796363
0.994752
0.995466
0.997793
0.999027
0.955985
0.754
0.314669
0.0417646
0.00111097
0.000896181
0.000890512
0.00776175
0.133792
0.628036
0.911574
0.952176
0.979074
0.997049
0.854222
0.970254
0.971871
0.981634
0.9874
0.984516
0.968068
0.844811
0.444517
0.0758581
0.00260683
0.00162863
0.0852151
0.560588
0.842581
0.920481
0.957142
0.983061
0.99784
0.907885
0.878419
0.899076
0.925137
0.938473
0.945821
0.949232
0.930684
0.808332
0.397434
0.0624752
0.0387843
0.265144
0.753286
0.892782
0.922205
0.961995
0.98734
0.99795
0.953579
4.19735e-05
0.00149974
0.00917118
0.00806701
0.0115761
0.175761
0.752554
0.96348
0.0012052
0.0127901
0.0484732
0.188091
0.00150344
0.00372749
0.0156307
0.0443806
0.0091086
0.00968806
0.0128853
0.0148773
0.0100855
0.0117266
0.0137694
0.0165897
0.0118158
0.0124265
0.0142205
0.0167582
0.146609
0.150099
0.166495
0.187252
0.69143
0.697288
0.721889
0.746117
0.962666
0.951472
0.925925
0.893001
0.402641
0.341222
0.23432
0.142928
0.000218855
0.000155018
5.58962e-05
1.00306e-05
1.34756e-07
1.22485e-07
1.02423e-07
9.59603e-08
1.1919e-07
1.35836e-07
6.32215e-08
8.96028e-08
4.61453e-08
2.44628e-08
2.08761e-08
2.91133e-08
1.58572e-08
1.27555e-08
1.48524e-08
3.01321e-08
4.66065e-09
6.39071e-09
9.73796e-09
1.7394e-08
3.3033e-09
3.19674e-09
3.98487e-09
5.06252e-09
1.83384e-09
1.5312e-09
1.56533e-09
1.67585e-09
0.458115
0.657198
0.76097
0.806096
0.842295
0.876765
0.885679
0.859462
0.712201
0.459138
0.462409
0.646973
0.83295
0.893894
0.890823
0.772738
0.924372
0.995524
0.983875
0.103466
0.270661
0.442291
0.588457
0.672981
0.749363
0.799622
0.81591
0.812519
0.793146
0.791542
0.814204
0.849156
0.883001
0.772095
0.767528
0.889608
0.996388
0.997462
0.0251367
0.0710022
0.167587
0.281684
0.391443
0.511086
0.59796
0.641498
0.660119
0.675966
0.714751
0.76788
0.827564
0.841868
0.787147
0.804766
0.967527
0.998867
0.998894
0.0220278
0.0347173
0.0588569
0.0911529
0.132731
0.208677
0.284061
0.348026
0.416192
0.510983
0.641666
0.732986
0.821283
0.806947
0.91686
0.952907
0.993631
0.996588
0.986733
0.0266777
0.063738
0.0963831
0.100481
0.100379
0.111996
0.145615
0.204931
0.313628
0.468354
0.644432
0.69828
0.751422
0.899316
0.99395
0.996692
0.984796
0.951039
0.943611
0.260011
0.396519
0.46377
0.449264
0.368875
0.246308
0.211726
0.240056
0.390716
0.523218
0.512477
0.259395
0.471207
0.957558
0.998246
0.997998
0.975667
0.957053
0.968003
0.777707
0.776938
0.775092
0.752979
0.663708
0.521302
0.474196
0.506372
0.555265
0.53165
0.186028
0.0146785
0.170316
0.878067
0.998294
0.998195
0.990606
0.991713
0.996078
0.778997
0.488961
0.403729
0.547792
0.656838
0.657702
0.657633
0.657702
0.555711
0.158765
0.00879333
0.000120362
0.021097
0.342447
0.890269
0.998921
0.999425
0.99969
0.999943
0.0447193
0.00449655
0.00382219
0.038775
0.219186
0.466956
0.527391
0.380549
0.0790457
0.00231452
7.08494e-06
2.42445e-06
0.000610613
0.0220064
0.271978
0.889005
0.999756
0.999988
0.999996
2.27762e-06
2.78562e-07
3.66588e-07
4.04968e-06
0.000753417
0.0156158
0.0196042
0.00642128
0.00015421
3.23722e-06
3.02134e-06
2.40317e-06
4.0209e-06
0.000180658
0.0151441
0.331803
0.962721
0.99999
0.999996
1.30131e-07
1.08668e-07
1.24509e-07
1.80808e-07
4.59495e-07
1.05767e-06
2.42163e-06
4.52688e-06
3.27222e-06
2.26038e-06
2.44873e-06
2.56478e-06
1.67925e-06
1.67556e-06
0.000182043
0.0345018
0.545258
0.999583
0.999986
7.44728e-08
7.96819e-08
2.86693e-07
7.53881e-07
1.38135e-06
1.63691e-06
1.78258e-06
1.69522e-06
1.40633e-06
1.47665e-06
1.78905e-06
2.28243e-06
1.67585e-06
1.67552e-06
1.98211e-06
0.0005957
0.0937528
0.918131
0.999863
5.60909e-08
1.64376e-07
4.70722e-07
7.45902e-07
8.11088e-07
6.89292e-07
6.79569e-07
7.38392e-07
7.9058e-07
9.76166e-07
1.35584e-06
1.85891e-06
1.85829e-06
1.68466e-06
1.89901e-06
2.71323e-06
0.00125814
0.527719
0.995194
6.34428e-08
1.53274e-07
3.11586e-07
3.77478e-07
2.87219e-07
2.33515e-07
2.74355e-07
3.31443e-07
4.17154e-07
6.19566e-07
1.00148e-06
1.52227e-06
1.89821e-06
1.69223e-06
1.94339e-06
2.53884e-06
3.53757e-06
0.148547
0.934176
2.52137e-08
3.51844e-08
6.57066e-08
8.5178e-08
8.25189e-08
7.81125e-08
9.77044e-08
1.33809e-07
2.05346e-07
3.6738e-07
6.88629e-07
1.1846e-06
1.6892e-06
1.68938e-06
2.0897e-06
2.58391e-06
3.24725e-06
0.0654257
0.871523
6.1983e-09
1.07741e-08
1.58787e-08
2.14284e-08
2.51673e-08
2.93758e-08
3.79446e-08
5.60118e-08
9.80628e-08
2.00965e-07
4.30574e-07
8.46369e-07
1.37203e-06
1.65477e-06
2.20262e-06
2.61606e-06
3.16693e-06
0.0847481
0.881343
2.0045e-09
2.76754e-09
4.59289e-09
6.34481e-09
8.40994e-09
1.0281e-08
1.39864e-08
2.31256e-08
4.66742e-08
1.06862e-07
2.4875e-07
5.40416e-07
1.00558e-06
1.48049e-06
2.0748e-06
2.55613e-06
3.08665e-06
0.254309
0.916741
)
;

boundaryField
{
    leftWall
    {
        type            zeroGradient;
    }
    rightWall
    {
        type            zeroGradient;
    }
    lowerWall
    {
        type            zeroGradient;
    }
    atmosphere
    {
        type            inletOutlet;
        inletValue      nonuniform 0();
        value           nonuniform 0();
    }
    defaultFaces
    {
        type            empty;
    }
    procBoundary1to0
    {
        type            processor;
        value           nonuniform List<scalar> 
26
(
1.16375e-06
1.20832e-06
1.10867e-06
1.26722e-06
1.60171e-06
2.29193e-06
3.40498e-06
5.27921e-06
0.000130529
0.00326446
0.0091234
0.00549566
0.0119734
0.234151
0.855317
0.962599
0.413529
0.413529
0.000216568
1.62389e-07
1.23732e-07
1.03015e-07
4.89601e-08
1.66211e-08
6.51941e-09
2.07811e-09
)
;
    }
    procBoundary1to3
    {
        type            processor;
        value           nonuniform List<scalar> 
23
(
7.57441e-10
7.16982e-10
5.72774e-10
5.60513e-10
5.7149e-10
8.34216e-10
1.26146e-09
1.8335e-09
2.53458e-09
3.48155e-09
5.32301e-09
1.00975e-08
2.33561e-08
5.80726e-08
1.41098e-07
3.22076e-07
6.56871e-07
1.1406e-06
1.73002e-06
2.38086e-06
3.0031e-06
0.606805
0.964373
)
;
    }
}


// ************************************************************************* //
