/*--------------------------------*- C++ -*----------------------------------*\
| =========                 |                                                 |
| \\      /  F ield         | OpenFOAM: The Open Source CFD Toolbox           |
|  \\    /   O peration     | Version:  2.4.0                                 |
|   \\  /    A nd           | Web:      www.OpenFOAM.org                      |
|    \\/     M anipulation  |                                                 |
\*---------------------------------------------------------------------------*/
FoamFile
{
    version     2.0;
    format      ascii;
    class       volScalarField;
    location    "0.45";
    object      alpha.water;
}
// * * * * * * * * * * * * * * * * * * * * * * * * * * * * * * * * * * * * * //

dimensions      [0 0 0 0 0 0 0];

internalField   nonuniform List<scalar> 
559
(
1.28027e-10
3.67919e-10
3.39811e-09
1.6145e-08
6.97379e-08
1.73639e-07
2.22762e-06
6.75988e-06
6.00721e-09
1.01824e-07
4.09939e-07
7.15124e-07
9.26691e-07
1.13017e-06
1.35754e-06
1.62207e-06
1.99599e-06
3.02258e-06
9.79501e-06
5.30001e-05
0.000133278
0.000175647
0.000183493
0.000152444
0.000104519
5.11291e-05
1.40373e-05
6.92211e-09
1.04809e-07
3.41477e-07
4.64199e-07
4.8873e-07
4.86221e-07
4.86234e-07
4.86221e-07
4.8698e-07
7.60278e-07
9.0804e-06
0.00014615
0.000642553
0.00108294
0.00124969
0.0011094
0.000710113
0.000219905
2.10761e-05
5.8592e-09
1.03053e-07
4.13056e-07
6.50108e-07
7.41287e-07
7.44327e-07
7.45656e-07
6.17866e-07
5.10839e-07
9.52341e-07
1.60241e-05
0.000176671
0.00106169
0.00274826
0.00368298
0.00341181
0.00227929
0.000665615
3.94832e-05
4.45238e-09
9.71074e-08
4.2212e-07
5.89138e-07
3.97715e-07
3.80216e-07
3.30813e-07
1.34731e-07
4.81506e-08
1.35163e-07
8.00194e-06
0.000117366
0.00124341
0.00491751
0.00662661
0.00564967
0.00335895
0.00097543
5.11086e-05
5.21364e-09
9.64211e-08
3.86824e-07
4.70291e-07
3.42343e-07
1.36131e-07
6.3538e-09
8.60654e-10
8.43378e-10
1.59223e-09
8.70961e-07
2.59561e-05
0.000975531
0.00770235
0.0110274
0.00971896
0.00538086
0.00109644
5.45141e-05
7.60773e-09
8.50338e-08
3.26304e-07
2.94166e-07
5.7498e-07
1.80663e-06
4.86622e-07
1.16067e-07
5.87143e-09
4.4862e-09
1.00663e-06
0.000139479
0.00305687
0.0124058
0.0160718
0.0139043
0.00711231
0.00118271
7.62358e-05
4.26827e-09
3.42179e-08
1.27694e-07
1.37127e-07
5.14186e-07
3.77804e-06
4.68079e-06
7.33793e-07
7.86479e-09
4.67886e-10
1.6025e-07
0.000480239
0.009802
0.0213623
0.0223288
0.0171443
0.00770605
0.00110744
9.74293e-05
8.71463e-13
6.11251e-13
3.80843e-13
2.37205e-13
-1.11053e-11
-6.26171e-10
6.60948e-06
1.49522e-06
9.0456e-11
1.31285e-12
1.57593e-12
0.00206153
0.0200983
0.0305018
0.0300245
0.0188952
0.00699425
0.00112589
0.000115903
0.000378966
0.0409766
0.47693
0.934708
0.985426
0.824142
0.246601
0.0042615
0.00173726
0.00369947
0.00389775
0.00331385
0.00184918
0.00264059
0.00477929
0.0103158
0.259808
0.16636
0.134943
0.137638
0.886375
0.850962
0.813397
0.764575
0.9838
0.981835
0.97821
0.97288
0.853171
0.849532
0.832943
0.81187
0.307534
0.300781
0.273927
0.246467
0.00482524
0.00457946
0.00411038
0.00414891
4.01063e-05
3.85872e-05
3.725e-05
3.58156e-05
3.18179e-08
3.26326e-08
2.72129e-08
1.93227e-08
9.58751e-13
7.56213e-13
1.49068e-12
2.84187e-12
3.21107e-13
2.92116e-13
4.05838e-13
1.12271e-12
1.01915e-13
1.63491e-13
4.85842e-13
2.14152e-12
7.25916e-14
1.51736e-13
3.90269e-13
1.05777e-12
9.34967e-15
1.63378e-14
3.53389e-14
8.08097e-14
1.17384e-15
1.32765e-15
1.73516e-15
2.51503e-15
2.9147e-16
3.20586e-16
3.59591e-16
3.98812e-16
0.00338539
0.00278829
0.00159254
0.00176642
0.00184166
0.00123998
0.00086424
0.00108114
0.00157192
0.00247642
0.00624556
0.0231476
0.0472612
0.0495371
0.0383707
0.0125057
0.00394379
0.000587009
7.31206e-05
0.0335422
0.0571451
0.0586784
0.0614133
0.0579804
0.0395031
0.0256624
0.0260897
0.0310043
0.0468231
0.0631656
0.0926095
0.0938011
0.0734841
0.0289362
0.0100945
0.00111492
0.000131298
1.19145e-05
0.184972
0.278149
0.344856
0.355804
0.329295
0.261152
0.206984
0.19447
0.19408
0.203601
0.20047
0.179689
0.134831
0.0692532
0.0178412
0.00320149
0.000129268
1.28742e-05
1.80175e-06
0.763196
0.787655
0.794739
0.78374
0.737324
0.652298
0.576333
0.518341
0.469902
0.402952
0.302601
0.223384
0.145302
0.0621752
0.00443912
0.000169873
6.65905e-06
5.6938e-07
3.03666e-07
0.955719
0.913584
0.879198
0.870522
0.858895
0.823754
0.772618
0.713624
0.610559
0.472915
0.314178
0.214388
0.0711495
0.0150233
0.000386563
1.61702e-06
1.14665e-06
1.00743e-08
3.56532e-09
0.738197
0.599823
0.532239
0.546514
0.622559
0.728634
0.745688
0.711075
0.569245
0.433949
0.300677
0.0773038
0.00619284
0.000665992
1.32133e-05
1.47599e-08
9.35555e-08
5.74767e-10
1.79778e-10
0.199263
0.149439
0.147051
0.200215
0.31945
0.466379
0.507618
0.474948
0.402448
0.251067
0.059641
0.00378945
8.8615e-05
4.03081e-06
2.52681e-07
9.45075e-10
1.97644e-09
4.81725e-10
2.45281e-10
0.00341196
0.00249084
0.00595539
0.0383641
0.148958
0.261391
0.275757
0.251376
0.147441
0.0324163
0.00158239
3.05935e-05
2.87916e-07
3.48151e-09
3.80595e-10
5.9358e-10
6.60593e-10
5.74827e-10
3.46577e-10
1.98854e-05
4.00529e-06
1.71017e-05
0.00188753
0.0204732
0.0504358
0.0535621
0.0351343
0.00737991
0.000233759
1.1262e-06
8.25395e-08
1.51199e-09
7.05577e-10
1.2866e-10
3.61379e-10
5.65513e-10
5.94757e-10
3.66688e-10
1.13841e-08
1.54026e-08
3.59319e-08
1.05922e-06
0.000100527
0.000616713
0.000830174
0.000276272
2.94779e-06
1.10141e-07
2.0896e-07
5.30993e-08
1.25709e-09
1.12679e-09
1.10292e-10
1.47285e-10
4.61978e-10
5.52731e-10
3.62198e-10
5.29206e-10
2.34757e-09
5.00875e-09
2.3693e-08
1.26232e-07
5.18575e-07
1.11616e-06
5.51431e-07
1.26129e-07
1.23581e-08
3.00439e-08
4.41745e-08
2.00383e-09
2.58337e-09
2.10235e-10
6.8769e-11
2.43594e-10
4.32958e-10
3.46701e-10
1.56964e-10
1.47675e-10
4.29413e-09
2.95389e-08
5.16165e-08
7.20891e-08
1.15853e-07
9.27411e-08
6.86841e-09
1.95544e-09
4.22968e-09
1.55305e-08
4.89168e-09
3.14111e-09
8.99556e-10
5.55833e-11
4.50255e-11
2.7897e-10
3.16843e-10
1.04102e-11
6.30236e-11
4.70069e-10
1.56112e-09
3.87263e-09
3.88784e-09
6.36913e-09
4.81157e-09
7.35556e-10
4.83789e-10
1.42422e-09
5.09973e-09
6.79117e-09
3.9646e-09
1.16687e-09
1.29048e-10
7.54475e-12
1.4379e-10
2.72428e-10
2.67306e-12
8.78836e-12
2.95675e-11
5.8614e-11
1.62634e-10
4.43878e-10
6.4555e-10
5.54513e-10
1.32252e-10
1.36087e-10
4.89884e-10
1.89596e-09
5.08615e-09
2.92564e-09
1.13915e-09
1.6236e-10
6.43595e-12
6.59144e-11
2.31058e-10
1.7969e-13
5.87566e-13
1.60214e-12
3.86381e-12
9.28008e-12
2.19156e-11
4.25734e-11
5.09485e-11
2.56292e-11
3.1734e-11
1.37018e-10
6.37201e-10
2.26515e-09
1.89003e-09
7.82992e-10
8.54102e-11
4.02956e-12
6.43034e-11
2.02741e-10
4.2098e-15
1.27375e-14
4.59231e-14
1.68261e-13
5.6752e-13
1.614e-12
3.53817e-12
5.24866e-12
4.68265e-12
5.85113e-12
2.88081e-11
1.61559e-10
6.78952e-10
9.94481e-10
2.18649e-10
1.60129e-11
2.81555e-12
6.22904e-11
1.80479e-10
4.4756e-16
6.50302e-16
1.54803e-15
5.7551e-15
2.30807e-14
8.20728e-14
2.33235e-13
4.71646e-13
6.27158e-13
9.13198e-13
4.58229e-12
2.99418e-11
1.51756e-10
3.58741e-10
6.36182e-11
5.35739e-12
2.13362e-12
5.46222e-11
1.59225e-10
)
;

boundaryField
{
    leftWall
    {
        type            zeroGradient;
    }
    rightWall
    {
        type            zeroGradient;
    }
    lowerWall
    {
        type            zeroGradient;
    }
    atmosphere
    {
        type            inletOutlet;
        inletValue      nonuniform 0();
        value           nonuniform 0();
    }
    defaultFaces
    {
        type            empty;
    }
    procBoundary1to0
    {
        type            processor;
        value           nonuniform List<scalar> 
26
(
5.00574e-10
9.54663e-10
5.29622e-09
4.4945e-08
2.08694e-07
8.74172e-07
4.01328e-06
4.71894e-05
0.00819478
0.204913
0.788282
0.982085
0.98618
0.765822
0.143646
0.00252521
3.01163e-05
3.01163e-05
1.26872e-08
1.41261e-12
4.0402e-13
9.94695e-14
5.75236e-14
1.28503e-14
2.20102e-15
3.4936e-16
)
;
    }
    procBoundary1to3
    {
        type            processor;
        value           nonuniform List<scalar> 
23
(
7.3545e-17
8.38256e-17
9.34052e-17
1.00604e-16
1.06123e-16
1.15425e-16
1.3638e-16
2.77758e-16
1.05252e-15
4.43696e-15
1.57345e-14
4.1443e-14
7.64731e-14
1.25351e-13
5.5843e-13
4.06644e-12
2.48771e-11
8.357e-11
1.32939e-11
2.04992e-12
1.50783e-12
3.42407e-11
1.32438e-10
)
;
    }
}


// ************************************************************************* //
