/*--------------------------------*- C++ -*----------------------------------*\
| =========                 |                                                 |
| \\      /  F ield         | OpenFOAM: The Open Source CFD Toolbox           |
|  \\    /   O peration     | Version:  2.4.0                                 |
|   \\  /    A nd           | Web:      www.OpenFOAM.org                      |
|    \\/     M anipulation  |                                                 |
\*---------------------------------------------------------------------------*/
FoamFile
{
    version     2.0;
    format      ascii;
    class       volScalarField;
    location    "0.45";
    object      alpha.mercury;
}
// * * * * * * * * * * * * * * * * * * * * * * * * * * * * * * * * * * * * * //

dimensions      [0 0 0 0 0 0 0];

internalField   nonuniform List<scalar> 
559
(
0.999982
0.999979
0.99998
0.999979
0.999977
0.999972
0.999968
0.999964
0.000635917
0.000652294
0.000665249
0.00133534
0.00494793
0.0130837
0.0281773
0.0484767
0.0707825
0.096288
0.135111
0.196798
0.244196
0.245458
0.246742
0.248065
0.249352
0.250642
0.251875
0.00063011
0.000188146
6.37155e-05
5.17002e-05
1.08675e-05
8.01601e-06
8.06184e-06
8.85342e-06
1.30059e-05
3.06072e-05
0.000165154
0.00480268
0.0412964
0.114912
0.15575
0.193604
0.247002
0.251913
0.253112
0.000347254
4.00181e-05
1.63499e-05
8.9363e-06
8.2452e-06
7.97238e-06
9.87104e-06
1.135e-05
1.04418e-05
1.05925e-05
5.13128e-05
0.00204743
0.0269018
0.0549184
0.056813
0.0496098
0.0455594
0.17029
0.254485
0.000175689
2.45187e-05
1.5434e-05
7.05973e-06
2.99572e-06
1.72263e-06
1.14791e-06
7.7119e-07
4.8999e-07
1.29889e-06
4.75597e-05
0.00147988
0.0282313
0.0545362
0.0543445
0.0422093
0.0198929
0.0375149
0.255782
0.000440834
0.000297931
8.22232e-05
1.84783e-05
9.10021e-05
7.54146e-05
1.35833e-05
3.54421e-07
2.52119e-07
4.92899e-07
0.000206389
0.0020264
0.0240499
0.0626785
0.0565508
0.0397724
0.0178251
0.00522813
0.203578
0.00523397
0.00453191
0.00220492
0.000959052
0.00242008
0.00310116
0.00179311
0.000348631
8.8009e-06
2.01279e-06
0.000393757
0.0186992
0.0660929
0.0713896
0.0568071
0.0338078
0.0138092
0.00176406
0.145697
0.029721
0.0281202
0.018364
0.0125246
0.0145529
0.0185404
0.0193098
0.0143073
0.00305762
8.16768e-05
0.000554893
0.0581547
0.104181
0.0872764
0.0523947
0.0256344
0.00922882
0.00104782
0.0920128
0.102191
0.0981573
0.0748351
0.0615025
0.0540839
0.0497225
0.0538255
0.0571993
0.0417529
0.0112844
0.0146197
0.0952108
0.103891
0.0672361
0.0444921
0.01782
0.00554624
0.000912824
0.0463003
0.999579
0.957524
0.513899
0.0572248
0.00299771
9.7319e-05
4.31381e-06
8.46291e-07
0.997057
0.981351
0.879191
0.541734
0.996647
0.993385
0.969005
0.882434
0.731083
0.823944
0.851814
0.846757
0.103539
0.137311
0.172834
0.218834
0.00438431
0.00573881
0.00756931
0.0103613
0.000220169
0.000367337
0.000552868
0.000851399
8.37544e-06
1.17536e-05
1.4451e-05
1.86345e-05
1.1337e-06
1.3807e-06
1.67813e-06
2.04998e-06
9.16898e-08
1.04935e-07
1.24014e-07
1.17979e-07
8.25535e-12
8.90078e-12
7.02041e-12
4.52181e-12
1.09232e-14
2.60508e-14
5.93861e-14
1.33757e-13
3.7831e-14
9.52252e-14
2.16563e-13
4.74459e-13
7.02664e-14
1.74115e-13
4.03208e-13
8.99084e-13
9.58915e-14
2.05849e-13
4.31923e-13
8.69271e-13
5.28445e-14
9.87426e-14
1.78117e-13
3.08526e-13
9.25399e-15
1.61977e-14
2.77186e-14
4.59296e-14
7.94674e-16
1.33689e-15
2.18286e-15
3.45074e-15
0.345162
0.283689
0.225484
0.190752
0.155673
0.121451
0.109158
0.112135
0.11944
0.116095
0.12822
0.125628
0.0917435
0.0489659
0.0345129
0.0104643
0.00309151
0.000401609
0.0155479
0.736287
0.543113
0.410319
0.331134
0.265528
0.21009
0.172933
0.154827
0.149992
0.149887
0.136624
0.0894683
0.0557029
0.0363247
0.0131421
0.00818114
0.0011274
0.000149303
0.00209279
0.782781
0.621227
0.44169
0.316134
0.260475
0.22378
0.194318
0.163852
0.145676
0.120345
0.0846886
0.0523396
0.0372347
0.0194708
0.00677151
0.00330244
0.000347051
0.000115169
0.00067045
0.214765
0.177535
0.14563
0.113864
0.115493
0.130436
0.138028
0.13355
0.113865
0.0860236
0.0556704
0.0417038
0.0220383
0.0137088
0.00190315
0.000213862
6.764e-05
7.39219e-05
0.000249313
0.0176024
0.0226735
0.0244131
0.0289878
0.0406424
0.0639138
0.0814757
0.0813287
0.0757709
0.0585263
0.0348622
0.0223237
0.00722417
0.00244498
0.000199182
4.60287e-05
5.75821e-05
4.46601e-05
3.88242e-05
0.00160018
0.00215623
0.00252152
0.00348996
0.00846079
0.0250485
0.0425771
0.0488453
0.0397568
0.0298401
0.0203399
0.00561526
0.000482822
6.82029e-05
2.16496e-05
4.12253e-05
5.28162e-05
4.05887e-05
2.16613e-05
2.81785e-05
4.63013e-05
0.000100318
0.000538021
0.00309266
0.0110599
0.0174418
0.0173526
0.0168668
0.0110502
0.00286924
0.000198443
5.7147e-06
1.62185e-06
1.19346e-05
2.98194e-05
4.05084e-05
3.77201e-05
1.54645e-05
2.19369e-06
3.06322e-06
9.52912e-06
0.00010213
0.00113466
0.00464706
0.00665617
0.00615621
0.00381499
0.00104433
7.55001e-05
1.30626e-06
1.8832e-08
1.60543e-07
3.52692e-06
1.24117e-05
2.06889e-05
2.36696e-05
6.82423e-06
9.08527e-08
6.03265e-08
1.65686e-07
4.89675e-06
8.35352e-05
0.00045252
0.000592776
0.000449083
0.000131866
6.14144e-06
1.08916e-07
8.06184e-09
7.9527e-09
9.0321e-09
2.74694e-07
3.08603e-06
8.18923e-06
9.74128e-06
3.68715e-06
9.45938e-12
3.34096e-10
2.35795e-09
2.71589e-08
6.04948e-07
4.03364e-06
5.36861e-06
2.76536e-06
4.4626e-07
1.53632e-07
7.79709e-08
1.46521e-08
8.0049e-09
7.95559e-09
1.03079e-08
4.07914e-07
3.13346e-06
5.8982e-06
2.82992e-06
3.87141e-12
2.90582e-11
8.95463e-11
5.58861e-10
3.66174e-09
1.70101e-08
2.45839e-08
2.40556e-08
2.9461e-08
7.46899e-08
8.96526e-08
6.85957e-08
8.14636e-09
8.38578e-09
7.83958e-09
1.79349e-08
4.00722e-07
1.36363e-06
1.50799e-06
2.07385e-12
6.29146e-12
8.53959e-11
6.95746e-10
2.44802e-09
6.00207e-09
1.30029e-08
2.43065e-08
4.09059e-08
4.97408e-08
5.86646e-08
6.53413e-08
8.00312e-09
8.07335e-09
7.84363e-09
7.83957e-09
9.6952e-09
9.6597e-08
5.02916e-07
2.16393e-12
8.20596e-12
3.10353e-11
1.1588e-10
3.59514e-10
2.59603e-09
9.3376e-09
1.36287e-08
1.69001e-08
2.24275e-08
3.38781e-08
5.02071e-08
2.73e-08
1.16304e-08
1.0628e-08
1.28151e-08
7.99482e-09
1.08255e-08
1.39405e-07
1.62434e-12
3.86208e-12
7.92273e-12
1.81444e-11
3.04219e-10
1.60116e-09
2.81639e-09
4.36812e-09
6.49327e-09
1.06159e-08
1.93462e-08
3.30127e-08
3.82756e-08
1.11609e-08
1.5095e-08
2.70793e-08
1.05011e-08
2.38947e-09
4.69018e-08
5.14475e-13
1.2003e-12
2.74078e-12
6.05656e-12
4.3441e-11
2.45343e-10
5.6395e-10
1.11488e-09
2.07031e-09
4.30297e-09
9.81437e-09
2.02446e-08
3.09503e-08
1.10961e-08
2.26887e-08
2.75459e-08
9.65019e-09
1.39428e-09
2.31301e-08
7.58973e-14
1.98453e-13
6.65567e-13
2.72344e-12
1.0892e-11
3.69497e-11
1.02788e-10
2.40869e-10
5.34571e-10
1.37375e-09
4.04227e-09
1.07096e-08
2.07133e-08
1.91226e-08
2.87722e-08
2.62025e-08
6.93437e-09
1.23772e-09
1.49888e-08
5.44427e-15
1.34898e-14
4.46638e-14
1.96168e-13
9.03345e-13
3.72512e-12
1.30071e-11
3.84194e-11
1.06732e-10
3.4046e-10
1.24537e-09
4.24991e-09
1.10514e-08
1.78174e-08
2.54599e-08
1.92919e-08
4.85368e-09
9.59523e-10
1.03972e-08
)
;

boundaryField
{
    leftWall
    {
        type            zeroGradient;
    }
    rightWall
    {
        type            zeroGradient;
    }
    lowerWall
    {
        type            zeroGradient;
    }
    atmosphere
    {
        type            inletOutlet;
        inletValue      nonuniform 0();
        value           nonuniform 0();
    }
    defaultFaces
    {
        type            empty;
    }
    procBoundary1to0
    {
        type            processor;
        value           nonuniform List<scalar> 
26
(
0.999999
0.999999
0.999999
0.999999
0.999998
0.999997
0.999992
0.999947
0.991675
0.791823
0.202594
0.0124188
0.00184647
2.73671e-05
7.91024e-07
2.02787e-07
5.74107e-08
5.74107e-08
4.06497e-12
4.94906e-15
1.31201e-14
2.04204e-14
3.0263e-14
1.79072e-14
3.42691e-15
3.15557e-16
)
;
    }
    procBoundary1to3
    {
        type            processor;
        value           nonuniform List<scalar> 
23
(
3.35469e-17
5.06698e-17
7.3674e-17
1.04919e-16
1.57657e-16
4.35847e-16
2.01144e-15
1.19352e-14
6.77008e-14
3.35243e-13
1.40587e-12
5.03312e-12
1.69507e-11
6.44322e-11
2.76118e-10
1.18059e-09
4.06242e-09
9.62296e-09
1.4416e-08
1.18229e-08
3.43073e-09
5.13845e-10
7.17001e-09
)
;
    }
}


// ************************************************************************* //
