/*--------------------------------*- C++ -*----------------------------------*\
| =========                 |                                                 |
| \\      /  F ield         | OpenFOAM: The Open Source CFD Toolbox           |
|  \\    /   O peration     | Version:  2.4.0                                 |
|   \\  /    A nd           | Web:      www.OpenFOAM.org                      |
|    \\/     M anipulation  |                                                 |
\*---------------------------------------------------------------------------*/
FoamFile
{
    version     2.0;
    format      ascii;
    class       surfaceScalarField;
    location    "0.45";
    object      phi;
}
// * * * * * * * * * * * * * * * * * * * * * * * * * * * * * * * * * * * * * //

dimensions      [0 3 -1 0 0 0 0];

internalField   nonuniform List<scalar> 
1061
(
5.27983e-06
1.15917e-05
2.09467e-05
2.80718e-05
3.46078e-05
3.95871e-05
4.62235e-05
5.50724e-05
-1.93553e-05
1.93553e-05
-3.80332e-05
1.8678e-05
-5.60336e-05
1.80004e-05
-6.86937e-05
1.26601e-05
-6.60363e-05
-2.65731e-06
-5.44406e-05
-1.15957e-05
-4.84582e-05
-5.98242e-06
-4.09636e-05
-7.4946e-06
-3.15299e-05
-9.43373e-06
-2.18711e-05
-9.65874e-06
-1.45486e-05
-7.32259e-06
-1.58421e-06
-1.29644e-05
1.60734e-05
-1.76576e-05
3.91781e-05
-2.31048e-05
6.29352e-05
-2.3757e-05
7.53218e-05
-1.23866e-05
6.8356e-05
6.96577e-06
3.79293e-05
3.04268e-05
3.79293e-05
-1.57583e-05
3.51135e-05
-3.05577e-05
3.34774e-05
-4.3529e-05
3.09717e-05
-5.35593e-05
2.26904e-05
-5.37411e-05
-2.47554e-06
-5.16896e-05
-1.36472e-05
-5.01593e-05
-7.51279e-06
-4.52703e-05
-1.23836e-05
-3.92626e-05
-1.54414e-05
-3.17391e-05
-1.71823e-05
-2.12399e-05
-1.78218e-05
1.88684e-08
-3.42231e-05
2.88111e-05
-4.64498e-05
6.36854e-05
-5.79791e-05
8.64277e-05
-4.64993e-05
9.13849e-05
-1.73438e-05
8.16527e-05
1.6698e-05
4.64496e-05
6.56298e-05
8.43789e-05
-7.98328e-06
4.30968e-05
-1.68462e-05
4.23403e-05
-2.64773e-05
4.06028e-05
-3.30704e-05
2.92835e-05
-2.5327e-05
-1.02189e-05
-1.98885e-05
-1.90857e-05
-2.91847e-05
1.78341e-06
-2.74519e-05
-1.41164e-05
-1.93155e-05
-2.35777e-05
-1.08383e-05
-2.56595e-05
-2.22751e-06
-2.64326e-05
1.4047e-05
-5.04976e-05
3.71319e-05
-6.95346e-05
6.46212e-05
-8.54684e-05
8.791e-05
-6.97882e-05
9.39458e-05
-2.33795e-05
7.43628e-05
3.62809e-05
4.13646e-05
9.8628e-05
0.000125743
1.13898e-06
4.19579e-05
-1.8673e-06
4.53466e-05
-7.15407e-06
4.58896e-05
4.22455e-07
2.1707e-05
1.57627e-05
-2.55591e-05
1.68692e-05
-2.01922e-05
1.84016e-05
2.51143e-07
2.33231e-05
-1.9038e-05
3.56628e-05
-3.59176e-05
4.21571e-05
-3.21539e-05
4.69114e-05
-3.11869e-05
5.11356e-05
-5.47218e-05
6.11404e-05
-7.95394e-05
7.58171e-05
-0.000100145
9.02839e-05
-8.4255e-05
9.97987e-05
-3.28943e-05
7.71695e-05
5.89101e-05
3.5899e-05
0.000139899
0.000161642
6.76797e-06
3.51899e-05
1.1378e-05
4.07366e-05
1.43118e-05
4.29558e-05
2.53949e-05
1.0624e-05
4.84343e-05
-4.85985e-05
9.48421e-05
-6.66e-05
0.000133914
-3.88209e-05
0.000131729
-1.68525e-05
0.000127378
-3.15671e-05
9.42814e-05
9.42811e-07
1.72159e-05
4.58785e-05
4.44246e-05
-8.19306e-05
7.42716e-05
-0.000109386
9.27674e-05
-0.000118641
9.9422e-05
-9.09096e-05
9.61602e-05
-2.96325e-05
7.53827e-05
7.96876e-05
3.53417e-05
0.00017994
0.000196984
1.34834e-05
2.17065e-05
2.67984e-05
2.74216e-05
4.0378e-05
2.93762e-05
5.4507e-05
-3.50498e-06
6.1571e-05
-5.56626e-05
6.49927e-05
-7.00217e-05
9.37788e-05
-6.7607e-05
0.000119322
-4.23961e-05
0.00010066
-1.29045e-05
7.71213e-05
2.44814e-05
4.9852e-05
7.31479e-05
9.63313e-05
-0.00012841
0.000106035
-0.00011909
0.000103137
-0.000115742
0.000104914
-9.26869e-05
9.72607e-05
-2.19791e-05
7.49257e-05
0.000102023
3.89714e-05
0.000215894
0.000235956
1.91235e-05
2.58299e-06
4.06999e-05
5.8452e-06
5.86066e-05
1.14695e-05
7.10445e-05
-1.59429e-05
7.2816e-05
-5.74341e-05
6.89161e-05
-6.61218e-05
7.01022e-05
-6.8793e-05
9.46328e-05
-6.69267e-05
0.000118784
-3.70561e-05
0.000132161
1.11051e-05
0.000164116
4.11921e-05
0.000118806
-8.30993e-05
0.000112747
-0.000113032
0.000112086
-0.000115081
0.000107943
-8.85441e-05
9.81683e-05
-1.22043e-05
7.11404e-05
0.000129051
3.92731e-05
0.000247761
0.000275229
2.50211e-05
-2.24381e-05
4.91002e-05
-1.8234e-05
6.90569e-05
-8.48711e-06
8.07686e-05
-2.76546e-05
7.94117e-05
-5.60773e-05
7.33163e-05
-6.00263e-05
6.81708e-05
-6.36476e-05
6.88135e-05
-6.75694e-05
8.28252e-05
-5.10679e-05
0.000107454
-1.35238e-05
0.000148323
3.22746e-07
0.000118854
-5.36296e-05
0.000115969
-0.000110147
0.000114146
-0.000113258
0.000110411
-8.4809e-05
9.69714e-05
1.23519e-06
7.50303e-05
0.000150992
4.54613e-05
0.00027733
0.00032069
3.65063e-05
5.09186e-05
2.35448e-05
4.12394e-05
1.90569e-05
5.20175e-05
2.42455e-05
0.000112575
1.01415e-05
0.000145846
-4.3615e-06
0.000126749
-1.76482e-05
8.01649e-05
3.92262e-05
3.88779e-05
1.20408e-05
3.11734e-05
7.70448e-06
3.43369e-05
-3.16346e-06
-7.25715e-06
4.1594e-05
4.69555e-05
6.32467e-06
5.45018e-05
1.5811e-07
5.68494e-05
-5.51103e-06
-8.6927e-06
5.8285e-05
5.65532e-05
1.78896e-06
5.95181e-05
-2.80676e-06
6.17301e-05
-7.72303e-06
-1.22812e-05
6.53186e-05
0.000109961
4.40272e-06
0.000106856
2.97668e-07
0.000105509
-6.3758e-06
-1.1885e-05
0.000105113
0.000151501
-1.25262e-06
0.000156203
-4.40401e-06
0.000160217
-1.03895e-05
-1.40612e-05
0.000162393
0.000132343
-6.84702e-06
0.000138321
-1.03824e-05
0.000143495
-1.55632e-05
-1.8603e-05
0.000148037
8.46015e-05
-1.12836e-05
9.03632e-05
-1.61442e-05
9.51685e-05
-2.03684e-05
-2.27109e-05
9.92763e-05
4.81633e-05
-2.02207e-05
5.54727e-05
-2.34536e-05
5.93952e-05
-2.42909e-05
-2.47857e-05
6.147e-05
3.95916e-05
-3.14114e-05
4.99916e-05
-3.38537e-05
5.6376e-05
-3.06753e-05
-2.33397e-05
5.49299e-05
7.47541e-05
-2.27622e-05
6.50736e-05
-2.41732e-05
5.81541e-05
-2.37557e-05
-2.60272e-05
6.08417e-05
0.000103716
-2.6098e-05
0.000106857
-2.73143e-05
0.000111444
-2.8343e-05
-3.12361e-05
0.000116653
2.2434e-05
-2.37455e-05
2.11037e-05
-2.5984e-05
2.02201e-05
-2.74595e-05
-3.0267e-05
1.92511e-05
7.7404e-06
-1.99779e-05
4.20826e-06
-2.24518e-05
7.55333e-07
-2.40066e-05
-2.60515e-05
-3.46019e-06
-1.4218e-05
-1.95045e-05
-1.5684e-05
-2.09858e-05
-1.76676e-05
-2.2023e-05
-2.30137e-05
-2.07055e-05
-2.47023e-05
-1.8226e-05
-2.62823e-05
-1.94057e-05
-2.80657e-05
-2.02396e-05
-2.10124e-05
-3.0067e-05
-2.52376e-05
-1.74165e-05
-2.66125e-05
-1.80308e-05
-2.85509e-05
-1.83013e-05
-1.88539e-05
-3.07094e-05
-2.65584e-05
-2.80192e-05
-2.97552e-05
-3.17408e-05
5.68924e-05
-3.77365e-05
8.35979e-05
-4.49394e-05
0.000116336
-4.12256e-05
0.000139983
-5.1301e-05
0.00014596
-6.20548e-05
0.000145004
-5.90703e-05
0.000139645
-5.82885e-05
0.000134825
-6.27488e-05
0.000142123
-5.83664e-05
0.000168908
-4.03082e-05
0.000215797
-4.65669e-05
0.000241596
-7.94281e-05
0.000247624
-0.000116176
0.000248522
-0.000114156
0.000231797
-6.80842e-05
0.000183071
4.99615e-05
0.000134046
0.000200017
8.71785e-05
0.000324198
0.000407868
6.14056e-05
-4.08572e-05
7.11401e-05
-5.46739e-05
8.83953e-05
-5.84808e-05
0.000102805
-6.57112e-05
0.000110927
-7.01762e-05
0.000119161
-6.73047e-05
0.000128771
-6.7898e-05
0.000135519
-6.94971e-05
0.000146307
-6.9154e-05
0.000175595
-6.95961e-05
0.00020749
-7.84624e-05
0.000228996
-0.000100934
0.000232963
-0.000120143
0.000222436
-0.000103629
0.000159675
-5.32253e-06
8.37006e-05
0.000125936
4.12395e-05
0.000242478
2.7656e-05
0.000337781
0.000435524
6.90657e-05
-4.46043e-05
7.47806e-05
-6.03888e-05
8.64021e-05
-7.01022e-05
9.62896e-05
-7.55987e-05
0.000103119
-7.70056e-05
0.000112164
-7.63498e-05
0.000126021
-8.17551e-05
0.000140676
-8.41521e-05
0.000158334
-8.68118e-05
0.000181177
-9.24391e-05
0.000202161
-9.9446e-05
0.000215456
-0.00011423
0.000206795
-0.000111482
0.000138707
-3.55404e-05
3.78406e-05
9.55441e-05
-2.07727e-05
0.000184549
-3.58683e-05
0.000257573
-2.63729e-05
0.000328286
0.000409152
0.000108732
-4.82236e-05
0.000115831
-6.74877e-05
0.000121019
-7.52896e-05
0.000123486
-7.80666e-05
0.000125297
-7.88167e-05
0.000132033
-8.30853e-05
0.000141001
-9.07231e-05
0.000152799
-9.59504e-05
0.000168004
-0.000102016
0.00018752
-0.000111955
0.000211248
-0.000123174
0.000219331
-0.000122313
0.000159897
-5.20479e-05
2.97608e-05
9.45954e-05
-4.47638e-05
0.000170069
-7.50936e-05
0.000214878
-7.74999e-05
0.00025998
-5.67379e-05
0.000307524
0.000352414
0.000164144
-4.99748e-05
0.000168845
-7.21886e-05
0.000176074
-8.25183e-05
0.00017859
-8.05831e-05
0.000178473
-7.86994e-05
0.000177998
-8.26104e-05
0.000177394
-9.01193e-05
0.000180675
-9.9231e-05
0.000189861
-0.000111202
0.000210112
-0.000132206
0.000228946
-0.000142007
0.000178885
-7.22521e-05
4.08225e-06
0.000122755
-9.1626e-05
0.000190304
-9.47504e-05
0.000173193
-0.000101114
0.000221242
-9.58153e-05
0.000254681
-6.86448e-05
0.000280354
0.000283769
0.000157242
-5.91796e-05
0.000167281
-8.22273e-05
0.000177215
-9.24529e-05
0.000183837
-8.72053e-05
0.00018754
-8.24019e-05
0.000189502
-8.45726e-05
0.000189734
-9.0351e-05
0.000191767
-0.000101264
0.000206253
-0.000125689
0.000222341
-0.000148295
0.000216177
-0.000135843
1.53483e-05
0.000128577
-0.000165184
0.000303287
-0.000144363
0.000169483
-0.00012671
0.00015554
-0.000109551
0.000204084
-9.27356e-05
0.000237866
-5.7278e-05
0.000244896
0.000226491
0.000111411
-7.13144e-05
0.000120257
-9.10732e-05
0.000136394
-0.00010859
0.000153852
-0.000104663
0.000168473
-9.70221e-05
0.000179339
-9.54387e-05
0.000186578
-9.759e-05
0.000197558
-0.000112244
0.000210835
-0.000138966
0.000222517
-0.000159977
0.000185595
-9.89213e-05
-2.18778e-05
0.000336049
-0.000165773
0.000447182
-0.000152975
0.000156686
-0.000137368
0.000139932
-0.000107064
0.00017378
-7.19805e-05
0.000202782
-3.72621e-05
0.000210178
0.000189229
6.26256e-05
-7.24699e-05
5.79669e-05
-8.64145e-05
6.6378e-05
-0.000117001
9.61462e-05
-0.000134431
0.000118044
-0.00011892
0.000141823
-0.000119218
0.00016659
-0.000122357
0.00018469
-0.000130344
0.000205181
-0.000159456
0.000163348
-0.000118144
5.10131e-05
1.34138e-05
-7.26106e-06
0.000394324
-0.000148928
0.000588848
-0.000151474
0.000159232
-0.000131792
0.00012025
-9.88812e-05
0.000140869
-5.98694e-05
0.00016377
-2.68219e-05
0.00017713
0.000162407
4.29556e-05
-6.04955e-05
1.14416e-05
-5.49005e-05
-5.57361e-06
-9.9986e-05
1.93991e-05
-0.000159404
7.42268e-05
-0.000173748
0.000114767
-0.000159758
0.000146567
-0.000154157
0.00016371
-0.000147487
8.06118e-05
-7.63582e-05
5.09094e-06
-4.26233e-05
-3.1878e-05
5.03828e-05
3.56675e-05
0.000326778
-7.56343e-05
0.00070015
-0.000155241
0.000238839
-0.000136078
0.000101087
-0.000100411
0.000105201
-6.70382e-05
0.000130398
-2.88456e-05
0.000138937
0.000133561
8.50452e-05
-8.46991e-05
0.000136929
-0.000106784
0.0001635
-0.000126558
0.000156414
-0.000152318
0.000125781
-0.000143115
9.01778e-05
-0.000124155
4.00927e-05
-0.000104072
-3.49473e-05
-7.24469e-05
-6.61162e-05
-4.51893e-05
-6.76935e-05
-4.10459e-05
-4.71683e-05
2.98577e-05
3.38112e-05
0.000245799
1.12948e-06
0.000732832
-0.000117163
0.000357131
-0.000135278
0.000119202
-0.000113839
8.37622e-05
-6.89571e-05
8.55157e-05
-3.00275e-05
0.000100008
0.000103534
0.000120252
-8.82976e-05
0.00011915
-0.000105682
0.000112685
-0.000120092
7.80348e-05
-0.000117667
3.23488e-05
-9.74288e-05
-2.61582e-05
-6.56475e-05
-7.79248e-05
-5.23055e-05
-9.28128e-05
-5.75588e-05
-8.51052e-05
-5.28968e-05
-7.94545e-05
-4.66967e-05
-5.60124e-05
6.41566e-06
1.37502e-05
0.000176036
6.2544e-05
0.000684038
-4.66321e-05
0.000466307
-0.000124148
0.000196719
-9.29837e-05
5.25974e-05
-6.84819e-05
6.10139e-05
-2.47858e-05
5.63119e-05
7.87479e-05
9.36877e-06
-7.84153e-05
-9.74725e-06
-8.65663e-05
-3.65231e-05
-9.33163e-05
-6.94555e-05
-8.47351e-05
-9.17326e-05
-7.51516e-05
-8.76676e-05
-6.97125e-05
-8.54059e-05
-5.45673e-05
-9.4177e-05
-4.87877e-05
-9.8331e-05
-4.87428e-05
-9.66661e-05
-4.83616e-05
-7.54204e-05
-1.483e-05
-2.14541e-05
0.00012207
8.54373e-05
0.000577146
4.16001e-05
0.000510145
-4.24094e-05
0.000280728
-6.33104e-05
7.34984e-05
-4.24015e-05
4.0105e-05
-1.45252e-05
2.84356e-05
6.42227e-05
-1.6695e-05
-6.51805e-05
-3.12347e-05
-7.20266e-05
-4.90905e-05
-7.54605e-05
-6.59097e-05
-6.79158e-05
-7.62417e-05
-6.48197e-05
-8.69476e-05
-5.90065e-05
-9.5301e-05
-4.62139e-05
-0.000100522
-4.35669e-05
-0.000107114
-4.21507e-05
-0.0001136
-4.18757e-05
-0.00010834
-2.00895e-05
-7.14068e-05
8.51362e-05
6.76742e-05
0.000438065
6.71922e-05
0.000510627
3.22262e-05
0.000315694
-2.37008e-07
0.000105962
-4.63182e-06
4.44998e-05
-1.00464e-05
3.38502e-05
5.41762e-05
-2.9301e-05
-5.65849e-05
-4.12523e-05
-6.00753e-05
-5.59068e-05
-6.0806e-05
-6.763e-05
-5.61926e-05
-7.92513e-05
-5.31984e-05
-8.85087e-05
-4.97491e-05
-9.31565e-05
-4.15661e-05
-0.000100566
-3.61578e-05
-0.000109698
-3.30188e-05
-0.000123103
-2.84704e-05
-0.000131061
-1.21314e-05
-0.000105386
5.9461e-05
2.9368e-05
0.000303312
6.83552e-05
0.000471639
7.34528e-05
0.000310597
3.99665e-05
0.000139448
7.23715e-06
7.72292e-05
1.23102e-06
3.98563e-05
5.54073e-05
-3.59511e-05
-5.07009e-05
-4.3537e-05
-5.24895e-05
-5.22906e-05
-5.20524e-05
-5.88827e-05
-4.96005e-05
-6.62931e-05
-4.5788e-05
-7.48664e-05
-4.11759e-05
-8.40549e-05
-3.23775e-05
-9.35911e-05
-2.66216e-05
-0.000106616
-1.99943e-05
-0.000122787
-1.22988e-05
-0.000136929
2.01021e-06
-0.000126216
4.8748e-05
-2.61279e-05
0.000203224
6.16896e-05
0.000383822
9.12673e-05
0.000281019
5.56575e-05
0.000175058
2.58996e-06
0.000130297
4.22759e-06
3.82187e-05
5.96349e-05
-3.63484e-05
-4.50619e-05
-4.25739e-05
-4.6264e-05
-4.98655e-05
-4.47608e-05
-5.80046e-05
-4.14613e-05
-6.66879e-05
-3.71047e-05
-7.48832e-05
-3.29805e-05
-8.15485e-05
-2.57123e-05
-8.95494e-05
-1.86207e-05
-9.93323e-05
-1.02114e-05
-0.000113569
1.93831e-06
-0.000129538
1.7979e-05
-0.000134369
5.35789e-05
-8.132e-05
0.000150174
2.51043e-05
0.000277398
7.43917e-05
0.000231732
5.6271e-05
0.000193178
6.47706e-06
0.000180091
2.37095e-06
4.23248e-05
6.20058e-05
-3.67406e-05
-4.25478e-05
-4.8384e-05
-5.39997e-05
-5.96009e-05
-6.5835e-05
-7.26575e-05
-8.03491e-05
-8.88847e-05
-9.91769e-05
-0.000109876
-0.000115415
-8.53752e-05
-6.51244e-06
4.20004e-05
4.41528e-05
6.55829e-06
3.47737e-06
)
;

boundaryField
{
    leftWall
    {
        type            calculated;
        value           nonuniform 0();
    }
    rightWall
    {
        type            calculated;
        value           uniform 0;
    }
    lowerWall
    {
        type            calculated;
        value           nonuniform List<scalar> 
40
(
2.7326e-22
0
0
0
0
0
0
0
0
-6.33306e-23
-1.32349e-22
-1.05879e-22
1.05879e-22
0
0
0
0
0
0
0
0
6.12165e-22
-3.9431e-22
5.0746e-22
6.56546e-22
5.78152e-22
5.33216e-22
-5.82441e-22
-5.05933e-22
-6.05246e-22
1.84721e-22
3.10265e-22
-2.1553e-22
9.43134e-23
1.33042e-22
-2.86951e-22
8.39621e-24
2.71374e-22
2.81646e-22
9.94685e-23
)
;
    }
    atmosphere
    {
        type            calculated;
        value           nonuniform 0();
    }
    defaultFaces
    {
        type            empty;
        value           nonuniform 0();
    }
    procBoundary1to0
    {
        type            processor;
        value           nonuniform List<scalar> 
26
(
-5.27983e-06
-6.31184e-06
-9.35503e-06
-7.12509e-06
-6.53605e-06
-4.97927e-06
-6.63641e-06
-8.84889e-06
-3.23526e-05
-2.82778e-05
-4.75296e-05
-0.000117763
-0.000131742
-0.000112246
-6.68782e-05
-1.83887e-05
-3.84857e-05
-2.84009e-05
-8.34032e-05
-0.00010038
-2.47863e-05
-1.1508e-05
1.37446e-05
2.34238e-05
2.4428e-05
2.56853e-05
)
;
    }
    procBoundary1to3
    {
        type            processor;
        value           nonuniform List<scalar> 
23
(
-1.65434e-05
-1.65701e-05
-1.65654e-05
-1.68683e-05
-4.00622e-05
-4.04568e-05
-3.89246e-05
-3.58457e-05
-3.15035e-05
-2.67465e-05
-1.88897e-05
-1.09291e-05
-1.67588e-06
1.22305e-05
2.86777e-05
5.91186e-05
0.000120134
0.000198535
0.000183219
0.000191026
0.000217685
4.54057e-05
6.54832e-05
)
;
    }
}


// ************************************************************************* //
