/*--------------------------------*- C++ -*----------------------------------*\
| =========                 |                                                 |
| \\      /  F ield         | OpenFOAM: The Open Source CFD Toolbox           |
|  \\    /   O peration     | Version:  2.4.0                                 |
|   \\  /    A nd           | Web:      www.OpenFOAM.org                      |
|    \\/     M anipulation  |                                                 |
\*---------------------------------------------------------------------------*/
FoamFile
{
    version     2.0;
    format      ascii;
    class       surfaceScalarField;
    location    "0.45";
    object      phi.mercury;
}
// * * * * * * * * * * * * * * * * * * * * * * * * * * * * * * * * * * * * * //

dimensions      [0 3 -1 0 0 0 0];

internalField   nonuniform List<scalar> 
1061
(
5.27978e-06
1.15916e-05
2.09466e-05
2.80717e-05
3.46078e-05
3.9587e-05
4.62234e-05
5.50722e-05
-5.06623e-05
-7.34886e-05
-6.73485e-05
-6.83597e-05
-6.83111e-05
-8.60346e-05
-6.17323e-05
-0.000119869
-5.47028e-05
-9.93899e-05
-4.68672e-05
-9.79608e-05
-4.0573e-05
-9.59278e-05
-3.31538e-05
-9.37096e-05
-2.34366e-05
-9.08892e-05
-1.1951e-05
-9.70606e-05
3.99618e-08
-0.000149238
1.45003e-05
-0.000174735
3.14559e-05
-0.000152653
4.88139e-05
-0.000132489
6.80409e-05
-0.000126071
8.09955e-05
-0.000108583
8.13224e-05
-7.94579e-05
6.13259e-05
-4.23658e-05
-3.22303e-05
-3.80857e-05
-4.99081e-05
-4.77775e-05
-8.1011e-06
-5.49819e-05
-1.55348e-07
-5.34989e-05
-1.93816e-05
-5.42115e-05
-1.21341e-05
-5.21899e-05
-2.10617e-05
-4.97525e-05
-2.58001e-05
-4.38408e-05
-3.6882e-05
-3.01808e-05
-4.00752e-05
1.05074e-05
-5.1942e-05
5.8891e-05
-0.00016282
7.06078e-05
-0.000261804
6.99364e-05
-0.000226877
8.11649e-05
-0.000210819
9.22194e-05
-0.000198431
9.73327e-05
-0.000173963
9.45873e-05
-0.000133111
6.75585e-05
-2.43805e-05
1.42891e-05
-1.67833e-05
-2.24969e-05
-2.33627e-05
2.30997e-05
-3.17266e-05
3.08625e-05
-3.4539e-05
1.97866e-05
-2.6101e-05
-2.16979e-05
-2.26556e-05
-3.25465e-05
-3.05525e-05
-5.62653e-05
-2.9042e-05
-5.86038e-05
-1.97709e-05
-5.4375e-05
1.17917e-05
-6.03657e-05
6.03816e-05
-0.000178076
8.01909e-05
-0.000271233
8.06003e-05
-0.000235041
8.87911e-05
-0.000237377
9.71974e-05
-0.000232364
0.000103039
-0.000214967
9.75938e-05
-0.000187592
6.648e-05
-7.26296e-05
4.71548e-05
-3.97558e-06
-3.77673e-05
-6.99803e-06
-2.14448e-05
-1.24129e-05
-2.8686e-06
-1.3269e-06
-5.62534e-06
1.73386e-05
-6.81318e-05
9.99613e-06
-8.27544e-05
9.59257e-06
-0.000148074
1.97502e-05
-0.000155899
2.73898e-05
-0.000198771
4.33994e-05
-8.17604e-05
7.38148e-05
-0.000217906
8.57119e-05
-0.000252691
8.85216e-05
-0.000237855
9.62454e-05
-0.000238202
9.89538e-05
-0.000233477
0.000101251
-0.000217234
0.000101336
-0.000188191
7.01252e-05
-0.000132434
7.76559e-05
1.98039e-05
-8.46992e-05
2.77889e-05
-8.17989e-05
3.01331e-05
-7.20783e-05
4.76008e-05
-8.21402e-05
6.90361e-05
-0.000107318
8.5076e-05
-0.000127691
8.61747e-05
-0.000165964
0.000162535
-0.00023756
0.000131092
-0.000345642
6.79362e-05
-0.000144254
7.17761e-05
-0.000227274
8.2116e-05
-0.000226489
9.18802e-05
-0.000233651
9.87511e-05
-0.000236541
9.99656e-05
-0.000233222
9.80514e-05
-0.000219389
9.77658e-05
-0.000180175
7.34161e-05
-0.000148876
0.000107498
2.265e-05
-8.86813e-05
3.32667e-05
-8.08959e-05
4.7679e-05
-8.2108e-05
5.76848e-05
-0.000108011
6.53893e-05
-0.000116568
6.68425e-05
-0.000129065
8.199e-05
-0.00014688
0.000116443
-0.000186885
0.000134496
-0.000256687
0.000102616
-0.000268152
7.98664e-05
-0.000269212
8.50572e-05
-0.000212682
9.41765e-05
-0.000221464
9.93743e-05
-0.000228341
9.96004e-05
-0.000231036
9.51553e-05
-0.000220475
9.04328e-05
-0.000179033
7.02827e-05
-0.000136645
0.000128075
2.2846e-05
-8.18016e-05
3.41835e-05
-7.57144e-05
4.91901e-05
-7.5586e-05
5.65708e-05
-8.97866e-05
5.96303e-05
-0.000111446
6.04344e-05
-0.000119707
6.45944e-05
-0.000128189
7.51303e-05
-0.000167737
0.000105696
-0.000211154
0.000122926
-0.000248608
0.000101909
-0.000245704
9.07963e-05
-0.000196638
9.55783e-05
-0.000209092
9.90677e-05
-0.000223137
9.88643e-05
-0.000227668
9.25742e-05
-0.000221545
8.25784e-05
-0.000177772
6.45238e-05
-0.000110579
0.000140334
2.39648e-05
-7.40602e-05
3.48861e-05
-7.37231e-05
4.67802e-05
-7.29715e-05
5.63437e-05
-8.95468e-05
5.9773e-05
-0.000109668
5.97927e-05
-0.000115253
6.0266e-05
-0.000123535
6.57084e-05
-0.000141968
7.40565e-05
-0.000158176
8.26147e-05
-0.000180175
8.98559e-05
-0.000184381
9.20286e-05
-0.000181951
9.67728e-05
-0.000206936
9.76668e-05
-0.000225436
9.71979e-05
-0.000227629
9.09732e-05
-0.000226434
8.1274e-05
-0.000185873
6.46592e-05
-9.58025e-05
0.000148516
3.63478e-05
5.08954e-05
1.68817e-05
4.12611e-05
-5.09924e-06
5.16531e-05
-2.17685e-05
8.87089e-05
-2.75703e-05
0.000115785
-1.26872e-05
0.000124495
-1.83268e-05
7.88496e-05
3.93526e-05
3.90136e-05
1.20285e-05
3.25396e-05
7.62764e-06
3.33387e-05
-4.26153e-06
-1.3586e-05
4.09812e-05
4.69483e-05
4.55663e-06
5.43999e-05
-9.75642e-07
5.69425e-05
-6.50739e-06
-1.02997e-05
5.90739e-05
5.62658e-05
-5.84136e-06
5.91665e-05
-8.94805e-06
6.15645e-05
-1.3129e-05
-1.72897e-05
6.52965e-05
9.11371e-05
-1.24104e-05
9.39085e-05
-1.42839e-05
9.58027e-05
-1.74262e-05
-2.04567e-05
9.71738e-05
0.000120166
-1.84575e-05
0.000123657
-2.19062e-05
0.000129852
-2.61101e-05
-2.69571e-05
0.000135164
0.000131108
-1.24447e-05
0.000132697
-1.69759e-05
0.000137794
-2.16184e-05
-2.38807e-05
0.000142203
8.41116e-05
-1.073e-05
8.83174e-05
-1.45706e-05
9.4792e-05
-1.87546e-05
-2.1155e-05
0.000101961
4.7855e-05
-2.58611e-05
5.46648e-05
-3.04296e-05
5.85208e-05
-3.4422e-05
-3.53371e-05
6.07123e-05
3.22572e-05
-7.01747e-05
3.44185e-05
-7.18431e-05
3.5462e-05
-7.14257e-05
-6.13151e-05
3.44838e-05
7.332e-05
-2.44795e-05
6.47586e-05
-2.53098e-05
5.83311e-05
-2.41871e-05
-2.60829e-05
6.09207e-05
0.000103774
-2.6123e-05
0.000106898
-2.73446e-05
0.000111471
-2.83752e-05
-3.12701e-05
0.00011667
2.24626e-05
-2.3769e-05
2.11296e-05
-2.60094e-05
2.02367e-05
-2.74878e-05
-3.0297e-05
1.92612e-05
7.75739e-06
-1.99975e-05
4.21974e-06
-2.24739e-05
7.6294e-07
-2.40296e-05
-2.60749e-05
-3.45166e-06
-1.42118e-05
-1.95206e-05
-1.56766e-05
-2.10025e-05
-1.76612e-05
-2.20407e-05
-2.30318e-05
-2.0697e-05
-2.46988e-05
-1.8239e-05
-2.62797e-05
-1.94196e-05
-2.80605e-05
-2.02534e-05
-2.10261e-05
-3.00581e-05
-2.52374e-05
-1.7427e-05
-2.66099e-05
-1.80414e-05
-2.85452e-05
-1.8312e-05
-1.88647e-05
-3.06998e-05
-2.65579e-05
-2.8017e-05
-2.97497e-05
-3.17326e-05
5.70798e-05
-5.89029e-05
7.53404e-05
-7.39563e-05
9.78541e-05
-7.83522e-05
0.000112311
-9.31924e-05
0.000121369
-0.000108674
0.000126644
-0.000115004
0.00013057
-0.000122372
0.000136849
-0.000133112
0.000146052
-0.00014139
0.000160867
-0.000147227
0.00018099
-0.000152391
0.000198699
-0.00018134
0.000209688
-0.000215709
0.000208598
-0.000230015
0.000200964
-0.00022973
0.000181334
-0.000223163
0.0001538
-0.000175456
0.000128944
3.97083e-05
0.000171385
6.17332e-05
-5.00458e-05
7.09537e-05
-7.33105e-05
8.57644e-05
-8.72752e-05
9.95297e-05
-0.000102005
0.000108261
-0.000111823
0.000117406
-0.000115182
0.000127979
-0.000123037
0.000136132
-0.000131666
0.000145895
-0.000135567
0.000165385
-0.000145331
0.000185633
-0.000169323
0.000197887
-0.000200113
0.000200763
-0.000222213
0.000196023
-0.000223875
0.000186538
-0.000220207
0.000166286
-0.000210724
0.000109792
-0.000129996
0.000107481
0.000189279
0.000191549
7.0164e-05
-5.82654e-05
7.71888e-05
-7.96464e-05
8.85567e-05
-9.81375e-05
9.86915e-05
-0.000113885
0.000106702
-0.000119411
0.000115734
-0.000122022
0.000127403
-0.000131652
0.000139645
-0.000139933
0.000155146
-0.000149686
0.000171935
-0.000167667
0.000185747
-0.00019118
0.000193611
-0.00021098
0.00019377
-0.00022174
0.00018515
-0.000214924
0.000180503
-0.000205829
0.000153783
-0.000151489
6.70815e-05
4.22613e-05
6.96818e-05
0.000262519
0.000238666
0.000105607
-6.21612e-05
0.000115082
-8.00304e-05
0.000122382
-9.49224e-05
0.00012728
-0.000111928
0.000130746
-0.000119066
0.000137063
-0.000125847
0.000144153
-0.000136099
0.000153059
-0.000144758
0.000164915
-0.000157243
0.000177066
-0.000176914
0.00018719
-0.000199189
0.000194678
-0.000211232
0.000189303
-0.000210241
0.000183355
-0.00021266
0.000138049
-0.000148337
3.14244e-05
6.28378e-05
-3.19951e-05
0.000198576
2.22672e-05
0.000274793
0.00029318
0.000139558
-7.54056e-05
0.000151965
-8.8819e-05
0.000173876
-9.47364e-05
0.000187489
-0.000111176
0.00018461
-0.000115717
0.000177742
-0.000120593
0.000174248
-0.000130575
0.000173404
-0.000139985
0.0001756
-0.000155574
0.000183894
-0.00017659
0.000190378
-0.000198974
0.000187958
-0.000208424
0.000193604
-0.000200368
0.000147225
-0.000123958
3.37993e-06
2.6777e-05
-7.32891e-05
0.00018367
-6.85551e-05
0.000217833
-2.76977e-05
0.000250352
0.000267446
0.000146636
-7.05103e-05
0.000165296
-9.28514e-05
0.000195697
-0.000110977
0.0002107
-0.000128243
0.000200203
-0.000125292
0.000185629
-0.000122557
0.000178788
-0.000129553
0.000176496
-0.000138692
0.000177345
-0.000158796
0.00018112
-0.0001795
0.000186935
-0.000191476
0.00018702
-0.000192111
0.000102811
-0.000102742
-6.32712e-05
4.11931e-05
-9.54123e-05
0.000136814
-8.48152e-05
0.000177165
-6.9299e-05
0.000204075
-4.22716e-05
0.000213314
0.000201692
0.000111433
-6.77691e-05
0.000151158
-9.96905e-05
0.000195469
-0.000148028
0.000217246
-0.000151028
0.000203465
-0.000141937
0.000186738
-0.000135119
0.000180533
-0.000138017
0.0001777
-0.000145521
0.000178761
-0.000167787
0.000174674
-0.000176689
0.000160956
-0.000168826
0.000107839
-0.000101808
-7.12439e-05
6.35147e-05
-0.000105057
0.000106965
-0.000110779
0.000114403
-8.49763e-05
0.000152308
-5.59912e-05
0.000173878
-2.98252e-05
0.000179272
0.00016618
5.31383e-05
-0.000101296
4.94237e-05
-0.000149114
0.000107439
-0.000217717
0.000173301
-0.000215326
0.000175744
-0.000183284
0.000168179
-0.000167758
0.000166246
-0.000168281
0.000167464
-0.000179433
0.000164494
-0.00019667
0.000153271
-0.000200849
0.00011081
-9.05867e-05
3.90971e-05
9.01801e-05
-0.000147319
0.000322912
-8.99756e-05
0.000100269
-0.000102545
7.08202e-05
-8.45861e-05
0.000109458
-5.09733e-05
0.000141865
-2.50975e-05
0.000154772
0.000153397
2.14944e-05
-0.000112399
9.17161e-06
-7.54357e-05
7.86307e-05
-0.000118362
0.000151458
-0.000195638
0.000152506
-0.000237373
0.000141551
-0.000196721
0.000138169
-0.000191441
0.000126438
-0.000207513
8.89796e-05
-0.000160617
2.5643e-05
-0.000128024
-2.42571e-05
2.98191e-05
1.37788e-05
0.000311734
-0.000124428
0.000638784
-0.000127193
0.000176306
-7.57446e-05
6.9209e-05
-7.98062e-05
7.10404e-05
-6.13442e-05
0.000114905
-2.96923e-05
0.000129411
0.000128492
8.52958e-05
-8.47742e-05
0.000137562
-0.000106856
0.000149237
-0.000126401
0.000140824
-0.000132193
0.000174134
-0.000130921
0.00014893
-0.000108958
0.000131433
-0.000115874
6.70184e-05
-0.000115604
-3.42458e-05
-6.11542e-05
-6.7417e-05
-3.35096e-05
-4.26079e-05
2.42119e-05
2.32139e-05
0.000201394
-2.98135e-06
0.000732201
-0.000115844
0.000351391
-6.4121e-05
8.90997e-05
-5.19759e-05
4.85338e-05
-5.99501e-05
5.97348e-05
-2.9594e-05
8.86806e-05
9.89929e-05
0.000120275
-8.83861e-05
0.000119182
-0.000105794
0.000112584
-0.000120196
7.62278e-05
-0.000117786
2.53382e-05
-9.81893e-05
-3.09996e-05
-6.19721e-05
-7.94378e-05
-5.16286e-05
-9.67131e-05
-5.84779e-05
-8.26232e-05
-5.22102e-05
-8.31363e-05
-4.43251e-05
-6.34864e-05
6.30785e-06
-9.22385e-06
0.000162491
6.10238e-05
0.000694188
-4.35355e-05
0.000467579
-6.63481e-05
0.000194469
-3.48891e-05
3.57313e-05
-3.3123e-05
3.21466e-05
-2.4428e-05
5.01312e-05
7.47348e-05
9.37754e-06
-7.84858e-05
-9.75817e-06
-8.66353e-05
-3.67399e-05
-9.34006e-05
-7.00307e-05
-8.49844e-05
-9.17419e-05
-7.55817e-05
-8.67804e-05
-7.0663e-05
-8.56069e-05
-5.57142e-05
-9.54071e-05
-4.89802e-05
-0.000101145
-4.71e-05
-0.000101012
-4.49376e-05
-8.46157e-05
-9.91582e-06
-4.14726e-05
0.000127968
8.58936e-05
0.000542403
4.05479e-05
0.000508998
-3.81632e-05
0.000282844
-2.15011e-05
7.4585e-05
-6.40332e-06
2.42694e-05
-1.31981e-05
2.30584e-05
6.27901e-05
-1.66863e-05
-6.52354e-05
-3.12193e-05
-7.20805e-05
-4.90729e-05
-7.55146e-05
-6.58992e-05
-6.79778e-05
-7.63829e-05
-6.4892e-05
-8.65878e-05
-5.90895e-05
-9.57717e-05
-4.57963e-05
-0.000101327
-4.34486e-05
-0.000108312
-4.16759e-05
-0.000115065
-4.09584e-05
-0.000109808
-1.59683e-05
-7.25192e-05
9.41598e-05
5.60043e-05
0.000425151
6.61592e-05
0.000510788
3.34702e-05
0.000318107
4.45222e-06
0.00010912
6.67338e-06
4.41961e-05
1.1604e-06
2.8238e-05
5.30701e-05
-2.92899e-05
-5.66269e-05
-4.12305e-05
-6.01153e-05
-5.58738e-05
-6.08474e-05
-6.76245e-05
-5.62361e-05
-7.93521e-05
-5.32602e-05
-8.86045e-05
-4.98678e-05
-9.32725e-05
-4.17336e-05
-0.000100825
-3.63039e-05
-0.000110051
-3.33498e-05
-0.000123157
-2.85357e-05
-0.000129575
-1.0428e-05
-9.70003e-05
6.45185e-05
1.59804e-05
0.000304574
6.78248e-05
0.000477094
7.50139e-05
0.000312079
4.60594e-05
0.000144286
1.61455e-05
7.81713e-05
1.03765e-05
3.90262e-05
5.49086e-05
-3.59382e-05
-5.07328e-05
-4.35164e-05
-5.25224e-05
-5.22585e-05
-5.20859e-05
-5.88481e-05
-4.96411e-05
-6.6273e-05
-4.58404e-05
-7.48677e-05
-4.1272e-05
-8.40823e-05
-3.25013e-05
-9.36747e-05
-2.67885e-05
-0.000106857
-2.02065e-05
-0.000122719
-1.26112e-05
-0.000135299
2.23394e-06
-0.000119861
5.15e-05
-3.55978e-05
0.000208799
6.38079e-05
0.00037669
9.02906e-05
0.000280998
6.11641e-05
0.000177624
1.52359e-05
0.000129775
1.2639e-05
4.64213e-05
5.97723e-05
-3.63364e-05
-4.50883e-05
-4.2554e-05
-4.62905e-05
-4.984e-05
-4.47926e-05
-5.79728e-05
-4.14962e-05
-6.66565e-05
-3.71495e-05
-7.48541e-05
-3.30327e-05
-8.15272e-05
-2.57774e-05
-8.95473e-05
-1.87026e-05
-9.94036e-05
-1.03218e-05
-0.000113708
1.7722e-06
-0.000128691
1.78023e-05
-0.000128953
5.39739e-05
-7.81732e-05
0.000152064
2.5826e-05
0.000276808
7.18057e-05
0.000230285
5.7808e-05
0.000191353
1.56903e-05
0.000178977
1.04796e-05
4.85127e-05
6.24783e-05
-3.67285e-05
-4.25318e-05
-4.83607e-05
-5.39737e-05
-5.9571e-05
-6.58065e-05
-7.26302e-05
-8.03272e-05
-8.88824e-05
-9.92153e-05
-0.000109849
-0.000112384
-8.05382e-05
-6.22342e-06
3.99203e-05
4.65574e-05
1.1068e-05
8.61221e-06
)
;

boundaryField
{
    leftWall
    {
        type            fixedValue;
        value           nonuniform 0();
    }
    rightWall
    {
        type            fixedValue;
        value           uniform 0;
    }
    lowerWall
    {
        type            fixedValue;
        value           uniform 0;
    }
    atmosphere
    {
        type            calculated;
        value           nonuniform 0();
    }
    defaultFaces
    {
        type            empty;
        value           nonuniform 0();
    }
    procBoundary1to0
    {
        type            processor;
        value           nonuniform List<scalar> 
26
(
-5.27983e-06
-6.31184e-06
-9.35504e-06
-7.1251e-06
-6.53606e-06
-4.97927e-06
-6.63642e-06
-8.84889e-06
-3.23636e-05
-2.93081e-05
-4.5449e-05
-8.21959e-05
-0.000102104
-9.89799e-05
-6.1991e-05
-1.9748e-05
-5.10446e-05
-2.65054e-05
-8.09535e-05
-0.000100442
-2.48275e-05
-1.15283e-05
1.37344e-05
2.34206e-05
2.44274e-05
2.56852e-05
)
;
    }
    procBoundary1to3
    {
        type            processor;
        value           nonuniform List<scalar> 
23
(
-1.65528e-05
-1.65793e-05
-1.65746e-05
-1.68778e-05
-4.00854e-05
-4.04834e-05
-3.89521e-05
-3.58801e-05
-3.15416e-05
-2.67926e-05
-1.89413e-05
-1.09891e-05
-1.74439e-06
1.21449e-05
2.85779e-05
5.90707e-05
0.000120119
0.000197982
0.000181384
0.000188926
0.000216425
4.42019e-05
6.57078e-05
)
;
    }
}


// ************************************************************************* //
