/*--------------------------------*- C++ -*----------------------------------*\
| =========                 |                                                 |
| \\      /  F ield         | OpenFOAM: The Open Source CFD Toolbox           |
|  \\    /   O peration     | Version:  2.4.0                                 |
|   \\  /    A nd           | Web:      www.OpenFOAM.org                      |
|    \\/     M anipulation  |                                                 |
\*---------------------------------------------------------------------------*/
FoamFile
{
    version     2.0;
    format      ascii;
    class       surfaceScalarField;
    location    "0.45";
    object      phi.oil;
}
// * * * * * * * * * * * * * * * * * * * * * * * * * * * * * * * * * * * * * //

dimensions      [0 3 -1 0 0 0 0];

internalField   nonuniform List<scalar> 
1061
(
8.28853e-06
1.45788e-05
2.40348e-05
3.13746e-05
3.81883e-05
4.3325e-05
4.99384e-05
5.88788e-05
-1.9335e-05
1.94142e-05
-3.80139e-05
1.87146e-05
-5.60212e-05
1.80383e-05
-6.87155e-05
1.27521e-05
-6.61394e-05
-2.41661e-06
-5.46001e-05
-1.10262e-05
-4.87725e-05
-4.69618e-06
-4.14588e-05
-5.35114e-06
-3.22676e-05
-6.44137e-06
-2.31691e-05
-5.23237e-06
-1.74518e-05
2.98436e-06
-6.13579e-06
5.18836e-06
1.10832e-05
4.85445e-06
3.60301e-05
9.83164e-07
6.12553e-05
2.07239e-06
7.34425e-05
1.49276e-05
6.40324e-05
3.553e-05
3.00745e-05
5.48691e-05
6.16403e-05
-1.57491e-05
3.51551e-05
-3.05555e-05
3.34821e-05
-4.35283e-05
3.09729e-05
-5.35593e-05
2.26916e-05
-5.37411e-05
-2.47642e-06
-5.16896e-05
-1.36509e-05
-5.01593e-05
-7.55494e-06
-4.52705e-05
-1.36921e-05
-3.92632e-05
-1.78111e-05
-3.1744e-05
-1.99919e-05
-2.14459e-05
-1.9177e-05
-1.66153e-06
-3.34303e-05
2.53052e-05
-3.99264e-05
6.09352e-05
-4.36636e-05
8.51954e-05
-2.82841e-05
8.97009e-05
4.49904e-06
7.73498e-05
4.24845e-05
3.93135e-05
8.97556e-05
0.00010823
-7.98158e-06
4.3114e-05
-1.6846e-05
4.23409e-05
-2.64772e-05
4.06029e-05
-3.30706e-05
2.92835e-05
-2.53274e-05
-1.04372e-05
-1.99172e-05
-2.59709e-05
-2.93445e-05
-5.36725e-05
-2.75244e-05
-6.54469e-05
-1.93822e-05
-5.93604e-05
-1.08956e-05
-6.29393e-05
-1.92408e-06
-5.65141e-05
1.35179e-05
-7.67041e-05
3.5228e-05
-7.28501e-05
6.31524e-05
-7.6815e-05
8.73685e-05
-5.98998e-05
9.34829e-05
-1.38295e-05
7.15528e-05
4.40824e-05
3.45861e-05
0.000118575
0.00015267
1.13949e-06
4.19824e-05
-1.8672e-06
4.53574e-05
-7.15405e-06
4.58919e-05
3.79421e-07
2.17073e-05
1.52122e-05
-2.68953e-05
1.01049e-05
-6.30208e-05
1.05055e-05
-8.46299e-05
2.07573e-05
-0.000101787
2.40487e-05
-0.000106497
3.62583e-05
-0.000167589
5.44547e-05
-0.000189001
5.87432e-05
-0.000164986
6.21224e-05
-0.000136076
7.46584e-05
-0.000100617
8.98036e-05
-7.52493e-05
9.97583e-05
-2.46521e-05
7.64483e-05
6.39668e-05
3.00104e-05
0.000145958
0.00018669
6.76315e-06
3.55312e-05
1.13749e-05
4.10333e-05
1.4311e-05
4.30875e-05
2.49717e-05
1.06693e-05
3.96863e-05
-4.98316e-05
5.91932e-05
-8.17815e-05
7.46961e-05
-0.000103645
8.94534e-05
-0.000138317
8.95753e-05
-0.000159602
0.000110952
-0.000240297
0.000131407
-0.000264313
0.000114754
-0.000202047
9.50988e-05
-0.000167328
9.4246e-05
-0.000130687
9.93708e-05
-8.32042e-05
9.61031e-05
-2.18265e-05
7.50985e-05
8.43123e-05
3.08977e-05
0.000181203
0.000215924
1.34384e-05
2.36712e-05
2.67765e-05
2.92196e-05
4.03664e-05
3.05347e-05
5.38316e-05
-2.79454e-06
6.02214e-05
-5.53723e-05
6.69384e-05
-7.50812e-05
8.38019e-05
-9.23465e-05
9.96714e-05
-0.000113565
9.93989e-05
-0.000139589
9.68991e-05
-0.00017144
0.000104732
-0.000186723
0.000110471
-0.000156402
0.000111348
-0.000160439
0.000106351
-0.000127821
0.00010524
-8.53488e-05
9.73102e-05
-1.50537e-05
7.47737e-05
0.000105858
3.64751e-05
0.000216491
0.000250515
1.90126e-05
8.17918e-06
4.08549e-05
1.13836e-05
5.87543e-05
1.57254e-05
7.12375e-05
-1.31025e-05
7.29883e-05
-5.5505e-05
6.93933e-05
-6.461e-05
7.25653e-05
-7.31851e-05
8.80845e-05
-9.07389e-05
0.000108293
-0.000112759
0.000124996
-0.000141968
0.000124154
-0.000157133
0.000113255
-0.00013715
0.000112844
-0.000123335
0.000113106
-0.000108773
0.00010834
-8.08206e-05
9.82679e-05
-6.46287e-06
7.10418e-05
0.000131971
3.80373e-05
0.000248208
0.00028526
2.5109e-05
-1.11189e-05
5.04419e-05
-7.94577e-06
7.06869e-05
6.2176e-07
8.22676e-05
-2.05354e-05
8.04931e-05
-5.10011e-05
7.40901e-05
-5.56969e-05
6.94365e-05
-5.98965e-05
7.3084e-05
-7.15598e-05
8.41659e-05
-9.02426e-05
9.6533e-05
-0.000114658
0.000113559
-0.000119964
0.000112687
-0.000101813
0.000116762
-0.000109054
0.000115148
-0.000105882
0.000110868
-7.91762e-05
9.70403e-05
-7.88998e-06
7.49802e-05
0.000149375
4.49956e-05
0.000277563
0.00032723
4.05887e-05
6.0806e-05
4.73996e-05
3.76429e-05
3.05097e-05
5.50922e-05
2.85639e-05
0.000119065
1.32402e-05
0.000150891
-2.33247e-07
0.000126768
-1.69297e-05
7.89399e-05
3.92623e-05
2.72005e-05
1.544e-05
1.80087e-05
1.35527e-05
3.19429e-05
5.02813e-06
-2.2268e-06
3.92215e-05
4.84236e-05
1.9009e-05
5.87462e-05
1.2194e-05
5.53615e-05
4.3825e-06
1.66367e-07
5.47305e-05
5.79829e-05
7.54659e-06
6.07464e-05
2.70243e-06
6.12023e-05
-3.96663e-06
-1.01725e-05
6.35694e-05
0.000116301
6.1641e-06
0.000111959
1.88482e-06
0.000108874
-5.5955e-06
-1.19044e-05
0.000106141
0.000155989
-8.55386e-08
0.000161571
-3.63285e-06
0.000163922
-1.07192e-05
-1.46876e-05
0.000163444
0.000131484
-4.91981e-06
0.000136878
-8.76841e-06
0.000140657
-1.42866e-05
-1.73603e-05
0.000144889
8.33681e-05
-1.07411e-05
8.97385e-05
-1.57971e-05
9.4516e-05
-2.03762e-05
-2.32708e-05
9.82324e-05
4.81184e-05
-3.36132e-05
5.51842e-05
-4.01513e-05
5.89572e-05
-4.66218e-05
-5.10434e-05
6.1171e-05
3.15209e-05
-8.12076e-05
3.26916e-05
-8.32756e-05
3.25383e-05
-8.48812e-05
-7.35411e-05
3.05127e-05
5.72179e-05
-4.9656e-05
5.79933e-05
-4.80197e-05
6.31432e-05
-4.49196e-05
-3.44679e-05
7.13946e-05
0.000103767
-2.7002e-05
0.00010666
-2.77712e-05
0.000111178
-2.92477e-05
-3.18164e-05
0.00011633
2.25219e-05
-2.32717e-05
2.11722e-05
-2.51528e-05
2.02987e-05
-2.71442e-05
-2.99082e-05
1.93107e-05
7.75465e-06
-2.01499e-05
4.19995e-06
-2.25527e-05
7.20525e-07
-2.40906e-05
-2.61396e-05
-3.56768e-06
-1.42149e-05
-1.95421e-05
-1.56843e-05
-2.1022e-05
-1.76906e-05
-2.2063e-05
-2.30738e-05
-2.07712e-05
-2.47029e-05
-1.82462e-05
-2.62859e-05
-1.94296e-05
-2.80763e-05
-2.02712e-05
-2.10607e-05
-3.00815e-05
-2.52388e-05
-1.74311e-05
-2.66121e-05
-1.80454e-05
-2.85489e-05
-1.83168e-05
-1.88706e-05
-3.07047e-05
-2.65584e-05
-2.80177e-05
-2.97507e-05
-3.17342e-05
5.64611e-05
-1.89712e-05
8.6056e-05
-2.57263e-05
0.000121083
-2.43987e-05
0.000145841
-3.61211e-05
0.000149963
-4.92412e-05
0.000147454
-4.76921e-05
0.000140979
-4.77566e-05
0.000136961
-5.32958e-05
0.000145926
-5.61513e-05
0.000169679
-5.98266e-05
0.000211459
-5.7307e-05
0.000241429
-7.57417e-05
0.000250068
-0.000107943
0.000250083
-0.000107812
0.00023156
-8.12447e-05
0.000188467
2.1098e-05
0.000136075
0.000188415
8.69285e-05
0.000323822
0.000409978
5.96695e-05
-1.86772e-05
7.06074e-05
-3.44474e-05
8.95736e-05
-4.07036e-05
0.000104206
-4.94794e-05
0.000111742
-5.4029e-05
0.000119553
-5.16489e-05
0.000128866
-5.33643e-05
0.000135265
-5.61333e-05
0.000146047
-5.63509e-05
0.000176964
-5.64376e-05
0.000210322
-6.58915e-05
0.000231762
-9.07458e-05
0.000234826
-0.00011194
0.000218641
-0.00010077
0.000156621
-1.83615e-05
8.93702e-05
0.000106796
4.40277e-05
0.000236975
2.76864e-05
0.000337618
0.000435847
6.36132e-05
-4.41945e-05
6.8165e-05
-6.4126e-05
8.15138e-05
-7.18424e-05
9.25715e-05
-7.41288e-05
9.96988e-05
-7.18229e-05
0.000109726
-6.64821e-05
0.000124512
-6.94127e-05
0.000139861
-7.0697e-05
0.000158076
-7.39121e-05
0.000181742
-7.93604e-05
0.00020308
-8.75316e-05
0.000216474
-0.000103909
0.000206246
-0.000103378
0.000129456
-3.76477e-05
3.07005e-05
8.90608e-05
-1.53769e-05
0.000178273
-3.52369e-05
0.000256869
-2.63602e-05
0.000328242
0.000408855
0.000104277
-4.96896e-05
0.000110748
-6.7151e-05
0.000114864
-7.11655e-05
0.00011691
-7.0447e-05
0.000118488
-6.9668e-05
0.000125472
-7.30977e-05
0.000136663
-8.01854e-05
0.000150338
-8.41364e-05
0.000166297
-8.85564e-05
0.000187854
-9.86391e-05
0.00021257
-0.000112803
0.000220145
-0.000114735
0.000155761
-5.244e-05
2.49457e-05
9.36153e-05
-4.59031e-05
0.000167097
-7.35342e-05
0.000213709
-7.72491e-05
0.000259686
-5.61272e-05
0.000307016
0.000350852
0.000160646
-5.27363e-05
0.00016272
-7.61039e-05
0.000174875
-8.62278e-05
0.000177514
-7.62107e-05
0.000178448
-6.98779e-05
0.000178408
-7.17497e-05
0.000178075
-7.81489e-05
0.000180924
-8.68254e-05
0.00019145
-9.93443e-05
0.000212308
-0.000125041
0.000230927
-0.000148712
0.000177099
-0.000168687
3.3057e-06
7.58094e-05
-9.24147e-05
0.000185973
-9.46674e-05
0.000172984
-0.00010059
0.000221111
-9.38521e-05
0.000253792
-6.53257e-05
0.000278078
0.000280813
0.000150008
-5.72426e-05
0.000159768
-8.44107e-05
0.000170362
-9.48533e-05
0.000178005
-8.71892e-05
0.000183999
-7.87299e-05
0.000189892
-7.77738e-05
0.000192111
-8.12117e-05
0.000193341
-9.27707e-05
0.000210141
-0.000122527
0.000223212
-0.000159665
0.00020878
-0.000201783
3.41485e-05
-0.000175659
-0.000138948
0.000167031
-0.000143726
0.000161992
-0.000126626
0.000155477
-0.000108795
0.000203999
-9.08195e-05
0.000237024
-5.55152e-05
0.000243322
0.000225092
0.000108848
-7.73578e-05
0.000116952
-0.000114833
0.000133623
-0.000134074
0.00014983
-0.000119114
0.00016308
-0.000103797
0.000175147
-9.62411e-05
0.000185551
-9.70589e-05
0.000199312
-0.000114167
0.000207251
-0.000153313
0.000201005
-0.000196013
0.000183192
-0.00019853
1.56305e-05
-0.000153929
-0.000140073
0.000151919
-0.00014766
0.000121057
-0.000137302
0.000134269
-0.000106766
0.00017372
-7.15571e-05
0.000202509
-3.70603e-05
0.000209916
0.0001891
5.69118e-05
-0.000150135
5.54223e-05
-0.000222476
7.1538e-05
-0.00026049
9.57075e-05
-0.000204632
0.000117496
-0.000151968
0.000139708
-0.000135937
0.000164459
-0.000136157
0.000179393
-0.00015878
0.000173507
-0.000194335
0.000141241
-0.000196597
0.000112542
-0.00011043
-2.46784e-05
7.01271e-05
-0.000152928
0.000146564
-0.000130212
0.000100059
-0.000126835
8.78389e-05
-9.88563e-05
0.000135088
-5.98594e-05
0.000163758
-2.68207e-05
0.000177127
0.000162407
1.01783e-05
-0.000137617
-7.73005e-06
-0.00014501
6.7141e-06
-0.000179286
4.97823e-05
-0.000512981
9.02864e-05
-0.000330104
0.000119273
-0.00023015
0.000134107
-0.000235926
0.000122173
-0.000235747
5.46259e-05
-0.000208498
-4.30555e-06
-9.97225e-05
-1.65673e-05
1.75194e-05
-7.71266e-05
0.000278784
-0.000166799
0.000185212
-0.000134732
0.00010398
-9.91129e-05
7.16572e-05
-9.63044e-05
7.97804e-05
-6.70373e-05
0.000129259
-2.88455e-05
0.000138937
0.000133561
7.007e-05
-6.97743e-05
0.000133601
-0.000107539
0.000191457
-0.000125627
0.000219288
-0.000431278
0.000174266
-0.000230302
0.000125069
-0.000153901
8.56744e-05
-0.000194425
1.92717e-05
-0.000182795
-3.79556e-05
-0.000122696
-6.94631e-05
-3.61538e-05
-4.41122e-05
2.60404e-05
-3.82808e-05
0.000220679
-0.000129332
0.00061226
-0.00011396
0.00015063
-6.8433e-05
4.96103e-05
-6.20192e-05
4.79333e-05
-6.81817e-05
6.61809e-05
-3.00275e-05
0.000100006
0.000103534
0.000119843
-9.06305e-05
0.000118192
-0.000106831
0.000109023
-0.000118037
6.82982e-05
-0.000107262
2.78792e-05
-8.6193e-05
-2.34223e-06
-8.29992e-05
-4.12096e-05
-9.65829e-05
-8.02053e-05
-8.85773e-05
-8.76449e-05
-5.17042e-05
-8.4265e-05
-4.38529e-05
-6.3677e-05
6.95949e-06
-7.40147e-06
0.000169578
3.97409e-05
0.000670099
-3.08917e-05
0.000457154
-2.86235e-05
8.03841e-05
-3.31248e-05
2.27377e-05
-3.6063e-05
3.09347e-05
-2.4785e-05
5.24204e-05
7.87471e-05
9.19847e-06
-7.84352e-05
-1.19547e-05
-8.67934e-05
-3.98733e-05
-9.23401e-05
-7.26587e-05
-8.52514e-05
-9.33897e-05
-7.62175e-05
-9.12983e-05
-7.22184e-05
-9.00999e-05
-5.61099e-05
-9.73606e-05
-4.75041e-05
-0.000102145
-4.72652e-05
-0.000101279
-4.57981e-05
-8.28151e-05
-9.64408e-06
-1.84169e-05
0.000134438
7.69134e-05
0.000586503
3.48969e-05
0.00051421
-5.08173e-06
0.000275154
-4.97198e-06
3.75648e-05
-2.72292e-06
1.60844e-05
-1.28599e-05
2.27048e-05
6.41204e-05
-1.73037e-05
-6.54526e-05
-3.2607e-05
-7.27285e-05
-5.08343e-05
-7.65299e-05
-6.76662e-05
-6.81478e-05
-7.70092e-05
-6.35091e-05
-8.79989e-05
-5.7341e-05
-9.67176e-05
-4.5043e-05
-0.000102113
-4.31963e-05
-0.000109102
-4.14194e-05
-0.000116092
-4.02722e-05
-0.00011044
-1.41694e-05
-5.83211e-05
9.74874e-05
6.02922e-05
0.000446104
6.15951e-05
0.000516481
3.69367e-05
0.000329728
1.31033e-05
0.000114261
9.36101e-06
2.20592e-05
2.36736e-06
2.77385e-05
5.32317e-05
-2.96351e-05
-5.67816e-05
-4.1921e-05
-6.02787e-05
-5.66733e-05
-6.06879e-05
-6.78629e-05
-5.53411e-05
-7.94379e-05
-5.2867e-05
-8.89838e-05
-4.97776e-05
-9.36229e-05
-4.16496e-05
-0.000101182
-3.61593e-05
-0.000110316
-3.31893e-05
-0.000123442
-2.78692e-05
-0.000129685
-8.39531e-06
-9.32342e-05
6.83166e-05
2.43389e-05
0.000312195
6.89292e-05
0.000487392
7.59784e-05
0.00032768
4.32164e-05
0.000155319
1.52575e-05
7.06474e-05
1.14206e-05
3.88629e-05
5.49525e-05
-3.60032e-05
-5.08626e-05
-4.36554e-05
-5.26992e-05
-5.24029e-05
-5.24088e-05
-5.89588e-05
-5.00874e-05
-6.63377e-05
-4.62544e-05
-7.49831e-05
-4.15521e-05
-8.42135e-05
-3.26902e-05
-9.3814e-05
-2.69439e-05
-0.000106768
-2.02881e-05
-0.000122128
-1.24175e-05
-0.000134505
3.58369e-06
-0.000117311
5.49451e-05
-2.099e-05
0.000214219
6.47427e-05
0.000395987
8.78716e-05
0.000288202
5.46912e-05
0.000183881
1.64816e-05
0.000115394
1.3544e-05
4.85037e-05
5.97847e-05
-3.63537e-05
-4.51047e-05
-4.25796e-05
-4.63157e-05
-4.9875e-05
-4.4822e-05
-5.80093e-05
-4.15198e-05
-6.66936e-05
-3.71796e-05
-7.48965e-05
-3.30712e-05
-8.15785e-05
-2.58362e-05
-8.96168e-05
-1.87903e-05
-9.93776e-05
-1.04359e-05
-0.000112783
1.65988e-06
-0.000126839
1.81116e-05
-0.000125256
5.57428e-05
-7.00893e-05
0.000155227
2.59739e-05
0.000279552
6.91126e-05
0.00022943
5.27951e-05
0.00019176
1.46635e-05
0.000141924
1.12337e-05
4.9469e-05
6.24935e-05
-3.67319e-05
-4.2539e-05
-4.83688e-05
-5.39837e-05
-5.95801e-05
-6.58214e-05
-7.26535e-05
-8.03668e-05
-8.89018e-05
-9.86851e-05
-0.000107907
-0.000108197
-7.61964e-05
-7.76078e-06
4.00371e-05
4.14089e-05
1.0292e-05
8.98051e-06
)
;

boundaryField
{
    leftWall
    {
        type            fixedValue;
        value           nonuniform 0();
    }
    rightWall
    {
        type            fixedValue;
        value           uniform 0;
    }
    lowerWall
    {
        type            fixedValue;
        value           uniform 0;
    }
    atmosphere
    {
        type            calculated;
        value           nonuniform 0();
    }
    defaultFaces
    {
        type            empty;
        value           nonuniform 0();
    }
    procBoundary1to0
    {
        type            processor;
        value           nonuniform List<scalar> 
26
(
-5.05744e-06
-6.02421e-06
-9.05636e-06
-6.85155e-06
-6.3149e-06
-4.77187e-06
-6.43655e-06
-8.67883e-06
-3.20788e-05
-2.08107e-05
-5.19463e-05
-0.000122951
-0.00013736
-0.000114312
-6.59228e-05
-1.84696e-05
-6.51641e-05
-2.62318e-05
-5.70506e-05
-0.000100707
-2.48585e-05
-1.16018e-05
1.37343e-05
2.34152e-05
2.4428e-05
2.56859e-05
)
;
    }
    procBoundary1to3
    {
        type            processor;
        value           nonuniform List<scalar> 
23
(
-1.65557e-05
-1.65819e-05
-1.65774e-05
-1.68807e-05
-4.00945e-05
-4.04958e-05
-3.89736e-05
-3.59111e-05
-3.15784e-05
-2.68314e-05
-1.89815e-05
-1.10407e-05
-1.81908e-06
1.20059e-05
2.84108e-05
5.89884e-05
0.000120142
0.000196197
0.000178623
0.000187534
0.00014076
4.40825e-05
6.57151e-05
)
;
    }
}


// ************************************************************************* //
