/*--------------------------------*- C++ -*----------------------------------*\
| =========                 |                                                 |
| \\      /  F ield         | OpenFOAM: The Open Source CFD Toolbox           |
|  \\    /   O peration     | Version:  2.4.0                                 |
|   \\  /    A nd           | Web:      www.OpenFOAM.org                      |
|    \\/     M anipulation  |                                                 |
\*---------------------------------------------------------------------------*/
FoamFile
{
    version     2.0;
    format      ascii;
    class       surfaceScalarField;
    location    "0.45";
    object      phi.air;
}
// * * * * * * * * * * * * * * * * * * * * * * * * * * * * * * * * * * * * * //

dimensions      [0 3 -1 0 0 0 0];

internalField   nonuniform List<scalar> 
1061
(
5.27992e-06
1.15922e-05
2.09473e-05
2.80727e-05
3.4609e-05
3.95883e-05
4.62251e-05
5.50748e-05
-2.16918e-05
1.41854e-05
-4.02871e-05
1.35466e-05
-5.73974e-05
1.14651e-05
-6.71901e-05
4.03639e-07
-6.24516e-05
-1.95922e-05
-5.1317e-05
-3.61211e-05
-4.46222e-05
-3.52749e-05
-3.66345e-05
-3.5766e-05
-2.64917e-05
-2.68131e-05
-1.52698e-05
-2.14888e-05
-4.64019e-06
-6.37937e-05
9.43042e-06
-7.58566e-05
2.64709e-05
-8.88523e-05
4.5628e-05
-9.35358e-05
6.64641e-05
-8.6535e-05
7.9224e-05
-6.94347e-05
7.72278e-05
-4.6032e-05
4.60349e-05
-1.85e-05
2.31102e-05
-1.63944e-05
3.3017e-05
-2.93465e-05
3.63462e-05
-4.2142e-05
3.14565e-05
-5.1864e-05
2.66327e-05
-5.26639e-05
7.59054e-06
-5.08326e-05
-8.28098e-06
-4.91073e-05
3.54276e-05
-4.37819e-05
4.93565e-05
-3.81277e-05
4.28551e-05
-2.97219e-05
3.6025e-05
-1.29492e-06
2.60304e-05
2.69475e-05
-3.35051e-05
5.14147e-05
-0.000124294
7.4706e-05
-0.000155864
9.00925e-05
-0.000128817
9.48615e-05
-0.000106784
8.98026e-05
-6.99588e-05
5.47529e-05
5.91533e-06
5.39172e-05
-7.40785e-06
4.22853e-05
-1.58713e-05
4.35903e-05
-2.47325e-05
4.14127e-05
-3.02503e-05
3.37534e-05
-2.46717e-05
6.19453e-05
-2.57866e-06
8.76347e-05
-2.197e-05
0.000135493
-2.63072e-05
5.65988e-05
-1.86312e-05
2.01014e-05
-1.01891e-05
1.46016e-05
-1.08043e-05
1.49094e-05
-2.31723e-05
1.81243e-05
4.84271e-05
5.3061e-05
7.84522e-05
-4.94365e-06
9.24751e-05
-0.0001542
9.86025e-05
-0.000124342
8.80244e-05
-7.23383e-05
5.648e-05
-3.72878e-07
7.64794e-05
1.31581e-06
3.74675e-05
-1.25068e-06
4.31632e-05
-4.50023e-06
4.62237e-05
1.4978e-05
2.28797e-05
2.39698e-05
3.58252e-05
2.93157e-05
5.91839e-05
2.1915e-05
2.493e-05
2.392e-05
-9.76988e-06
3.78383e-05
-2.90139e-05
4.34348e-05
-2.20216e-05
4.29972e-05
-1.17844e-05
3.44934e-05
-2.03347e-05
3.00911e-05
3.94365e-06
5.63692e-05
2.26072e-05
9.36118e-05
-3.66468e-05
0.000100401
-0.000114448
8.83938e-05
-4.05828e-05
5.57499e-05
2.23899e-05
0.000104823
7.68589e-06
1.08909e-05
1.24574e-05
1.71696e-05
1.58992e-05
2.75936e-05
4.78811e-05
8.15023e-06
6.79921e-05
-1.65313e-05
0.000105302
-4.4756e-05
0.000135001
-2.49377e-05
0.000131774
-1.41472e-05
0.000127413
-3.14315e-05
9.42689e-05
1.15959e-06
1.66229e-05
4.62373e-05
3.31332e-05
-7.94052e-05
4.67531e-05
-8.70481e-05
6.78162e-05
-3.87807e-05
8.741e-05
4.17126e-05
9.65611e-05
-0.000116753
8.30568e-05
-2.16974e-05
5.52871e-05
0.000102234
0.000139294
1.58246e-05
-3.16495e-05
2.82763e-05
-1.72481e-05
4.17605e-05
-6.45057e-06
8.59737e-05
-2.6199e-05
6.96073e-05
-4.45914e-05
6.2738e-05
-3.10377e-05
9.59602e-05
-3.05581e-05
0.000119753
-1.78968e-05
0.000100661
-7.43647e-06
7.70984e-05
2.48373e-05
4.93207e-05
7.36384e-05
9.57539e-05
-0.000123419
0.00010374
-7.7254e-05
8.76967e-05
-6.64635e-06
9.15186e-05
3.50866e-05
9.52688e-05
-0.000129949
7.96718e-05
8.29391e-08
5.49043e-05
0.00015903
0.000171536
2.13021e-05
4.30516e-05
3.79081e-05
-1.68043e-05
5.68961e-05
-4.00141e-05
8.20332e-05
-5.21261e-05
7.97746e-05
-7.33076e-05
6.52687e-05
-1.35054e-05
6.56844e-05
1.14284e-05
9.71943e-05
-1.21021e-05
0.000119234
-7.61327e-06
0.000132178
1.78188e-05
0.000167985
4.7553e-05
0.000125848
-5.86316e-05
0.000120978
-3.61404e-05
0.000110374
-4.41238e-08
9.42955e-05
-7.86188e-06
9.48253e-05
-4.58385e-05
7.42172e-05
2.55821e-05
5.14079e-05
0.000179658
0.000194378
2.75167e-05
-1.09498e-05
5.31635e-05
-3.82432e-06
5.53474e-05
-1.11228e-05
6.80055e-05
-5.99712e-05
6.9899e-05
-8.84687e-05
7.00106e-05
-6.33416e-05
5.93427e-05
7.10136e-06
6.18487e-05
2.07208e-05
8.27229e-05
1.02137e-05
0.000108388
2.12925e-05
0.000159164
3.97223e-05
0.000134381
1.19488e-05
0.000130618
-8.50225e-06
0.000112129
-2.43938e-06
0.000100821
4.84334e-05
8.2058e-05
0.000199636
7.37557e-05
0.000323221
5.67362e-05
0.000409144
0.000242026
3.65806e-05
5.09644e-05
2.14043e-05
4.12262e-05
8.43323e-06
5.18524e-05
8.53501e-06
0.000102132
7.63783e-06
0.000142038
1.41948e-05
0.000126743
3.71906e-05
7.9424e-05
3.84582e-05
1.56481e-05
1.20313e-05
7.67288e-06
1.44202e-05
4.03058e-05
1.51097e-05
1.65253e-05
4.5465e-05
4.85304e-05
5.86632e-06
6.24137e-05
6.80079e-06
5.5924e-05
1.14448e-05
7.05732e-06
5.37023e-05
5.63999e-05
-1.43469e-06
6.01792e-05
-6.79215e-06
6.08691e-05
-1.03642e-05
-1.27013e-05
6.16096e-05
0.000101309
-2.15021e-06
0.000100562
-5.40637e-06
0.000100261
-1.09511e-05
-1.58529e-05
0.00010041
0.000147046
-2.61296e-06
0.000150975
-5.91088e-06
0.000154724
-1.18836e-05
-1.5541e-05
0.000156821
0.000132431
1.51199e-06
0.000138494
7.29524e-07
0.000144187
-2.27905e-06
-5.67373e-06
0.000149598
8.1224e-05
1.44046e-05
0.000103213
9.56042e-06
0.000117626
4.72473e-06
1.61294e-06
0.000119057
4.98693e-05
8.87596e-06
6.07889e-05
7.33071e-06
6.42886e-05
6.78641e-06
3.63524e-06
6.35226e-05
4.43716e-05
-1.88503e-05
5.69827e-05
-2.36812e-05
6.19187e-05
-2.34792e-05
-1.94751e-05
5.80606e-05
7.47574e-05
-2.27592e-05
6.50744e-05
-2.41714e-05
5.8154e-05
-2.37551e-05
-2.60272e-05
6.08416e-05
0.000103716
-2.6098e-05
0.000106857
-2.73143e-05
0.000111444
-2.8343e-05
-3.12361e-05
0.000116653
2.2434e-05
-2.37456e-05
2.11037e-05
-2.5984e-05
2.02201e-05
-2.74595e-05
-3.0267e-05
1.92511e-05
7.74041e-06
-1.99779e-05
4.20826e-06
-2.24518e-05
7.55333e-07
-2.40066e-05
-2.60515e-05
-3.46019e-06
-1.4218e-05
-1.95045e-05
-1.5684e-05
-2.09858e-05
-1.76677e-05
-2.2023e-05
-2.30137e-05
-2.07055e-05
-2.47023e-05
-1.82261e-05
-2.62823e-05
-1.94058e-05
-2.80657e-05
-2.02396e-05
-2.10124e-05
-3.0067e-05
-2.52376e-05
-1.74165e-05
-2.66126e-05
-1.80308e-05
-2.85509e-05
-1.83013e-05
-1.88539e-05
-3.07094e-05
-2.65585e-05
-2.80192e-05
-2.97552e-05
-3.17409e-05
5.83919e-05
1.17703e-06
9.47555e-05
-1.01146e-05
0.000137917
-5.87667e-06
0.000131283
-1.32829e-05
0.000129168
-3.33108e-05
0.000132229
-6.86991e-05
0.000129868
-9.88971e-06
0.000115072
3.31824e-05
0.000132973
5.26426e-05
0.000170476
8.60592e-05
0.000238416
5.92559e-05
0.000283163
6.76499e-06
0.000284048
-2.59178e-05
0.000267186
-1.98144e-05
0.000239263
8.36401e-05
0.000148893
0.000175558
7.81658e-05
0.000331842
4.41358e-05
0.000468035
0.000406632
6.23152e-05
9.02723e-06
7.24154e-05
4.64808e-06
9.31097e-05
8.59557e-06
0.000106173
1.02048e-05
0.000110053
9.01744e-06
0.000116377
-1.56368e-05
0.000126739
-5.61058e-05
0.000134369
-4.59075e-05
0.000145709
-1.2801e-05
0.000183497
-1.65885e-05
0.000226452
-2.52432e-05
0.000245639
-8.82947e-05
0.000258066
-0.000151238
0.000262317
-1.86409e-05
0.000167261
7.26982e-05
5.04673e-05
0.000214653
-7.21162e-06
0.000320498
-3.61997e-05
0.000424158
0.00046969
6.11847e-05
-4.15161e-05
6.55747e-05
-5.52468e-05
7.92113e-05
-5.64828e-05
8.97939e-05
-4.3006e-05
9.53543e-05
-1.96074e-05
0.000106467
8.4754e-06
0.000125642
-6.7143e-05
0.000139742
-0.000116872
0.000155917
-0.000128859
0.000174391
-0.000142386
0.00019019
-0.000163339
0.000202042
-0.000123021
0.000219717
-3.59545e-05
0.000178543
6.59614e-05
5.95518e-05
0.00015709
-6.821e-05
0.000238133
-7.50373e-05
0.000296206
-9.63847e-05
0.000351306
0.000464445
0.000105411
-5.53923e-05
0.000106373
-7.34921e-05
9.35931e-05
-7.47761e-05
0.000102423
-3.02017e-05
0.000110555
-2.64376e-05
0.000120495
-3.47063e-05
0.000138908
-7.97504e-05
0.000152984
-0.000115985
0.000166544
-0.000129102
0.000180954
-0.000144229
0.00019488
-4.817e-05
0.000208668
7.61775e-07
0.000161072
7.42624e-05
3.06434e-05
0.00017908
-3.3495e-05
0.000253716
-0.000133061
0.000261627
-0.000129961
0.000287391
-0.000132329
0.00032651
0.000396109
0.00015812
-5.28119e-05
0.000164881
-5.1945e-05
0.000175347
-5.48933e-05
0.0001817
-7.28187e-05
0.000179547
-8.80857e-05
0.000175637
-9.61863e-05
0.000174822
-0.000106344
0.000177103
-0.000115649
0.000181755
-0.000124592
0.000207205
-4.49041e-05
0.000249658
1.23655e-06
0.000154654
0.000111107
-3.91304e-05
0.000237037
-9.6947e-05
0.000276476
-0.000118954
0.000240278
-0.000157665
0.000271752
-0.000155178
0.000298988
-0.000128414
0.000327662
0.000347735
0.000162997
-2.75761e-05
0.000164824
-3.25257e-05
0.000168656
-2.19678e-05
0.000183931
-7.39076e-06
0.000191067
-8.33342e-06
0.00018744
-5.68843e-05
0.000184096
-8.65939e-05
0.000184787
-8.52404e-05
0.000216206
-5.49469e-05
0.000258676
-4.30501e-05
0.000222971
-6.00245e-05
-1.01605e-05
0.000196584
-0.000234577
0.000369909
-0.000174558
0.000253946
-0.000172624
0.0001923
-0.000166494
0.000249728
-0.000147882
0.000287158
-0.000102604
0.000304908
0.000303066
0.000140903
-1.23546e-05
0.000132062
-2.23663e-05
0.000126127
-4.56366e-05
0.000135073
-4.58444e-05
0.000155621
-2.28253e-05
0.000178061
-2.26418e-05
0.000189101
-2.68285e-05
0.000214128
-4.56028e-05
0.000251563
-6.20283e-05
0.000244473
-0.000127964
0.000185913
-8.45859e-05
-2.60873e-05
0.00034066
-0.000194101
0.000478453
-0.000233658
0.000212473
-0.000175521
0.000235911
-0.000160486
0.000216138
-0.000119725
0.000257649
-7.02756e-05
0.000271436
0.000254288
7.27016e-05
-1.77416e-05
6.00776e-05
-4.158e-05
6.10145e-05
-7.90717e-05
9.2675e-05
-0.000100848
0.000101351
-8.078e-05
0.000129679
-7.46921e-05
0.000177684
-7.56054e-05
0.000207584
-7.09302e-05
0.000229953
-0.000136392
0.000165455
-0.000109864
5.06695e-05
1.40498e-05
-7.0753e-06
0.000394349
-0.000148039
0.0005937
-0.000185632
0.000172417
-0.000216312
0.000165216
-0.000129641
0.000238256
-8.40023e-05
0.000195419
-3.36894e-05
0.000198612
0.000167551
4.37826e-05
-5.87311e-05
1.1521e-05
-5.46973e-05
-5.94648e-06
-9.98327e-05
1.39262e-05
-0.00015226
6.36074e-05
-0.000153226
0.00010838
-0.000135005
0.00015901
-0.000120556
0.000177947
-0.000124356
8.18558e-05
-7.06685e-05
5.10342e-06
-4.25517e-05
-3.1878e-05
5.03828e-05
3.5702e-05
0.000326778
-7.45915e-05
0.000700307
-0.000158775
0.000240351
-0.000187229
0.00010602
-0.00017014
0.000145029
-7.3683e-05
0.000189961
-2.90961e-05
0.000139483
0.000134597
8.50452e-05
-8.46991e-05
0.000136929
-0.000106784
0.0001635
-0.000126558
0.000156389
-0.000152317
0.000125366
-0.000143081
8.95181e-05
-0.000123922
3.94681e-05
-0.000103172
-3.51295e-05
-7.20846e-05
-6.61183e-05
-4.5183e-05
-6.76933e-05
-4.10458e-05
-4.71682e-05
2.98576e-05
3.38114e-05
0.000245798
1.14153e-06
0.000732831
-0.000117187
0.00035715
-0.000149307
0.00011974
-0.000208926
9.17954e-05
-0.000109773
0.000144774
-3.0272e-05
0.000109042
0.000105865
0.000120252
-8.82976e-05
0.00011915
-0.000105682
0.000112685
-0.000120092
7.80348e-05
-0.000117667
3.23488e-05
-9.74287e-05
-2.61582e-05
-6.56474e-05
-7.79247e-05
-5.23053e-05
-9.28126e-05
-5.75586e-05
-8.51049e-05
-5.28967e-05
-7.94542e-05
-4.66965e-05
-5.60122e-05
6.41563e-06
1.37502e-05
0.000176036
6.25439e-05
0.000684037
-4.66335e-05
0.000466307
-0.000125834
0.000196729
-0.000117418
5.31306e-05
-0.000178513
7.51364e-05
-2.82591e-05
0.000147001
8.79926e-05
9.36877e-06
-7.84153e-05
-9.74724e-06
-8.65663e-05
-3.65231e-05
-9.33162e-05
-6.94554e-05
-8.4735e-05
-9.17325e-05
-7.51515e-05
-8.76674e-05
-6.97123e-05
-8.54056e-05
-5.45672e-05
-9.41767e-05
-4.87875e-05
-9.83306e-05
-4.87427e-05
-9.66657e-05
-4.83614e-05
-7.54201e-05
-1.48299e-05
-2.1454e-05
0.000122069
8.54372e-05
0.000577145
4.16e-05
0.000510144
-4.24205e-05
0.000280728
-6.61985e-05
7.3509e-05
-8.30342e-05
4.13029e-05
-5.34738e-05
4.33877e-05
0.00010544
-1.6695e-05
-6.51805e-05
-3.12347e-05
-7.20266e-05
-4.90904e-05
-7.54605e-05
-6.59097e-05
-6.79157e-05
-7.62415e-05
-6.48196e-05
-8.69474e-05
-5.90064e-05
-9.53008e-05
-4.62138e-05
-0.000100522
-4.35668e-05
-0.000107114
-4.21506e-05
-0.0001136
-4.18755e-05
-0.00010834
-2.00894e-05
-7.14067e-05
8.51359e-05
6.76741e-05
0.000438064
6.71921e-05
0.000510626
3.22261e-05
0.000315694
-2.45423e-07
0.000105961
-9.66358e-06
4.45139e-05
-4.96722e-05
3.69724e-05
7.99754e-05
-2.9301e-05
-5.6585e-05
-4.12523e-05
-6.00753e-05
-5.59067e-05
-6.0806e-05
-6.76299e-05
-5.61925e-05
-7.92511e-05
-5.31983e-05
-8.85085e-05
-4.9749e-05
-9.31562e-05
-4.1566e-05
-0.000100565
-3.61577e-05
-0.000109697
-3.30187e-05
-0.000123102
-2.84703e-05
-0.000131061
-1.21314e-05
-0.000105385
5.94608e-05
2.9368e-05
0.000303311
6.83551e-05
0.000471639
7.34526e-05
0.000310596
3.99664e-05
0.000139447
6.59362e-06
7.7229e-05
-1.07964e-05
3.99752e-05
5.96324e-05
-3.59511e-05
-5.07009e-05
-4.35369e-05
-5.24895e-05
-5.22906e-05
-5.20524e-05
-5.88827e-05
-4.96004e-05
-6.6293e-05
-4.5788e-05
-7.48662e-05
-4.11758e-05
-8.40547e-05
-3.23775e-05
-9.35909e-05
-2.66216e-05
-0.000106615
-1.99943e-05
-0.000122787
-1.22988e-05
-0.000136928
2.0102e-06
-0.000126215
4.87479e-05
-2.61278e-05
0.000203223
6.16895e-05
0.000383821
9.12671e-05
0.000281018
5.56574e-05
0.000175057
2.12012e-06
0.000130296
-3.98371e-06
3.73836e-05
5.85711e-05
-3.63484e-05
-4.50619e-05
-4.25739e-05
-4.6264e-05
-4.98655e-05
-4.47608e-05
-5.80046e-05
-4.14613e-05
-6.66878e-05
-3.71047e-05
-7.48831e-05
-3.29805e-05
-8.15484e-05
-2.57122e-05
-8.95492e-05
-1.86207e-05
-9.93321e-05
-1.02114e-05
-0.000113569
1.93831e-06
-0.000129538
1.7979e-05
-0.000134369
5.35788e-05
-8.13198e-05
0.000150174
2.51043e-05
0.000277397
7.43915e-05
0.000231731
5.62708e-05
0.000193178
6.11479e-06
0.00018009
-5.91043e-06
4.08663e-05
5.76619e-05
-3.67406e-05
-4.25478e-05
-4.8384e-05
-5.39997e-05
-5.96009e-05
-6.58349e-05
-7.26574e-05
-8.0349e-05
-8.88846e-05
-9.91767e-05
-0.000109875
-0.000115415
-8.5375e-05
-6.51242e-06
4.20002e-05
4.41526e-05
6.01434e-06
-4.29684e-06
)
;

boundaryField
{
    leftWall
    {
        type            fixedValue;
        value           nonuniform 0();
    }
    rightWall
    {
        type            fixedValue;
        value           uniform 0;
    }
    lowerWall
    {
        type            fixedValue;
        value           uniform 0;
    }
    atmosphere
    {
        type            calculated;
        value           nonuniform 0();
    }
    defaultFaces
    {
        type            empty;
        value           nonuniform 0();
    }
    procBoundary1to0
    {
        type            processor;
        value           nonuniform List<scalar> 
26
(
-5.27994e-06
-6.31194e-06
-9.35518e-06
-7.1253e-06
-6.53634e-06
-4.97965e-06
-6.63688e-06
-8.84985e-06
-3.23427e-05
-2.85061e-05
-4.64842e-05
-0.000105648
-0.000128731
-0.000111875
-7.33244e-05
-1.6269e-05
2.09954e-05
-2.98843e-05
-8.3409e-05
-0.00010038
-2.47864e-05
-1.15081e-05
1.37446e-05
2.34238e-05
2.4428e-05
2.56853e-05
)
;
    }
    procBoundary1to3
    {
        type            processor;
        value           nonuniform List<scalar> 
23
(
-1.65434e-05
-1.65701e-05
-1.65654e-05
-1.68683e-05
-4.00622e-05
-4.04569e-05
-3.89246e-05
-3.58457e-05
-3.15035e-05
-2.67465e-05
-1.88897e-05
-1.09291e-05
-1.67587e-06
1.22305e-05
2.86776e-05
5.91185e-05
0.000120134
0.000198534
0.000183218
0.000191025
0.000217685
4.6406e-05
6.18113e-05
)
;
    }
}


// ************************************************************************* //
