/*--------------------------------*- C++ -*----------------------------------*\
| =========                 |                                                 |
| \\      /  F ield         | OpenFOAM: The Open Source CFD Toolbox           |
|  \\    /   O peration     | Version:  2.4.0                                 |
|   \\  /    A nd           | Web:      www.OpenFOAM.org                      |
|    \\/     M anipulation  |                                                 |
\*---------------------------------------------------------------------------*/
FoamFile
{
    version     2.0;
    format      ascii;
    class       volScalarField;
    location    "0.45";
    object      rho;
}
// * * * * * * * * * * * * * * * * * * * * * * * * * * * * * * * * * * * * * //

dimensions      [1 -3 0 0 0 0 0];

internalField   nonuniform List<scalar> 
559
(
13528.8
13528.7
13528.7
13528.7
13528.7
13528.6
13528.6
13528.5
508.276
508.495
508.667
517.399
564.466
670.467
867.121
1131.6
1422.22
1754.54
2260.36
3064.11
3681.7
3698.16
3714.89
3732.11
3748.85
3765.63
3781.58
508.2
502.446
500.83
500.669
500.129
500.09
500.091
500.073
500.025
500.164
502.004
562.539
1038.37
1997.73
2529.89
3022.99
3718.53
3782.27
3797.7
504.518
500.518
500.212
500.111
500.026
499.417
499.162
479.476
461.295
450.306
470.565
515.315
850.268
1216.86
1241.99
1148.04
1094.73
2719.04
3815.68
502.288
500.319
500.2
500.078
497.114
440.226
208.408
100.94
89.4362
70.0351
110.323
251.308
806.792
1208.68
1211.14
1052.76
760.862
989.267
3832.61
505.743
503.882
501.07
500.232
482.822
211.009
18.5846
1.59379
1.49325
1.45473
4.23757
32.6106
453.071
1253.81
1240.1
1023.03
734.931
568.663
3152.45
568.187
559.046
528.727
512.489
510.776
419.201
182.278
26.5569
1.67344
1.47443
6.77211
257.975
964.921
1292.54
1240.42
947.379
683.474
523.573
2398.33
887.222
866.374
739.264
663.145
689.146
734.884
683.788
416.364
80.2167
3.40573
9.31945
830.719
1699.89
1623.46
1191.42
842.523
624.093
514.204
1698.88
1821.76
1777.51
1475.01
1301.3
1204.61
1147.31
1193.57
1178.15
764.153
184.831
218.129
1423.38
1802.41
1386.54
1093.06
740.981
575.7
512.45
1103.3
13523.7
12996.1
7434.06
1712.94
1031.77
913.339
622.937
486.045
13491.5
13286.8
11922.8
7426.75
13486.2
13444
13122.3
11971
10155.2
11318.3
11665.6
11600.9
2292.2
2714.51
3158.55
3733.47
1049.02
1065.69
1087.73
1121.44
929.454
929.551
923.67
917.014
653.363
649.586
635.072
619.785
486.206
480.378
467.166
450.78
201.959
171.31
117.964
72.3583
1.10924
1.07739
1.02792
1.00502
1.00007
1.00006
1.00005
1.00005
1.00006
1.00007
1.00003
1.00004
1.00002
1.00001
1.00001
1.00001
1.00001
1.00001
1.00001
1.00001
1
1
1
1.00001
1
1
1
1
1
1
1
1
4902.34
4169.47
3432.66
2985.5
2529.09
2082.73
1920.51
1947.92
1973.74
1803.11
1972.54
2046.46
1704.96
1158.95
950.744
540.65
508.024
503.786
702.359
10046.6
7540.38
5831.12
4835.58
3986.8
3256.49
2765.09
2528.7
2466.51
2471.22
2307.33
1710.13
1271.99
1006.43
592.969
504.756
461.279
500.349
527.057
10787.8
8718.26
6404.32
4773.67
4049
3544.22
3134.9
2731.97
2495
2169.73
1703.6
1271.73
1052.36
753.678
503.214
450.452
488.62
501.006
508.52
3679.77
3206.89
2794.39
2369.79
2366.21
2521.31
2585.75
2499.15
2218.47
1822.26
1376.6
1154.09
854.111
651.232
488.694
479.564
497.744
499.298
496.753
1207.2
1252.2
1257.67
1312.94
1458.94
1744.44
1947.71
1916.38
1792.48
1498.89
1108.05
865.61
544.766
497.843
500.062
498.974
493.194
476.173
472.387
889.851
827.256
798.238
818.363
921.462
1190.67
1427.58
1491.93
1302.47
1099.28
832.26
283.628
248.85
480.409
499.431
499.559
488.572
479.118
484.327
588.52
538.608
536.032
584.03
693.158
876.66
980.687
962.898
908.297
666.597
192.224
14.7948
86.1534
439.181
499.31
499.503
495.86
496.375
498.252
393.158
247.521
208.539
314.055
492.921
653.188
694.684
663.599
477.203
126.735
7.99005
1.1083
11.528
171.883
445.292
499.629
499.993
500.165
500.064
23.336
3.2486
2.9266
22.3006
131.957
290.518
325.696
232.069
49.6002
2.47155
1.00614
1.0014
1.30481
11.9813
136.721
444.655
499.989
500.126
500.048
1.00115
1.00016
1.00025
1.00345
1.48457
9.46296
11.6845
4.51762
1.08594
1.00381
1.00277
1.00145
1.00212
1.09026
8.55704
166.575
481.44
500.075
500.036
1.00007
1.00006
1.00007
1.00012
1.00041
1.00128
1.00266
1.00314
1.00216
1.00215
1.00247
1.00225
1.00095
1.00095
1.09095
18.2166
273.089
499.81
500.014
1.00004
1.00004
1.00015
1.00042
1.00078
1.00097
1.00118
1.00127
1.00127
1.00142
1.00169
1.00204
1.00095
1.00095
1.0011
1.29736
47.7828
459.149
499.938
1.00003
1.00008
1.00024
1.00038
1.00041
1.00038
1.00047
1.00056
1.00063
1.00079
1.00114
1.00161
1.00131
1.001
1.00109
1.00153
1.62792
264.332
497.604
1.00003
1.00008
1.00016
1.00019
1.00015
1.00014
1.00018
1.00023
1.0003
1.00046
1.00077
1.00121
1.00147
1.001
1.00118
1.00164
1.00191
75.1251
467.155
1.00001
1.00002
1.00003
1.00004
1.00004
1.00004
1.00006
1.00008
1.00013
1.00024
1.00048
1.00087
1.00127
1.001
1.00135
1.00167
1.00175
33.6474
435.89
1
1
1.00001
1.00001
1.00001
1.00002
1.00002
1.00003
1.00006
1.00012
1.00027
1.00057
1.00097
1.00109
1.00149
1.00166
1.00168
43.2893
440.791
1
1
1
1
1
1.00001
1.00001
1.00001
1.00003
1.00006
1.00014
1.00033
1.00065
1.00098
1.00138
1.00154
1.00161
127.9
458.454
)
;

boundaryField
{
    leftWall
    {
        type            calculated;
        value           nonuniform 0();
    }
    rightWall
    {
        type            calculated;
        value           nonuniform List<scalar> 
25
(
3781.58
3797.7
3815.68
3832.61
3152.45
2398.33
1698.88
1103.3
702.359
527.057
508.52
496.753
472.387
484.327
498.252
500.064
500.048
500.036
500.014
499.938
497.604
467.155
435.89
440.791
458.454
)
;
    }
    lowerWall
    {
        type            calculated;
        value           nonuniform List<scalar> 
40
(
13528.8
13528.8
13528.7
13528.7
13528.7
13528.7
13528.6
13528.6
13528.5
13491.5
13286.8
11922.8
7426.75
508.276
508.2
504.518
502.288
505.743
568.187
887.222
1821.76
508.276
508.495
508.667
517.399
564.466
670.467
867.121
1131.6
1422.22
1754.54
2260.36
3064.11
3681.7
3698.16
3714.89
3732.11
3748.85
3765.63
3781.58
)
;
    }
    atmosphere
    {
        type            calculated;
        value           nonuniform 0();
    }
    defaultFaces
    {
        type            empty;
    }
    procBoundary1to0
    {
        type            processor;
        value           nonuniform List<scalar> 
26
(
13529
13529
13529
13529
13529
13529
13528.9
13528.3
13424.6
10919.1
3533.74
1152.85
1017.15
883.268
571.316
483.862
207.382
207.382
1.10808
1.00008
1.00006
1.00005
1.00002
1.00001
1
1
)
;
    }
    procBoundary1to3
    {
        type            processor;
        value           nonuniform List<scalar> 
23
(
0.999999
0.999999
0.999999
0.999999
0.999999
0.999999
1
1
1
1
1
1.00001
1.00001
1.00003
1.00008
1.00018
1.00038
1.0007
1.00106
1.00135
1.00155
303.796
482.222
)
;
    }
}


// ************************************************************************* //
