/*--------------------------------*- C++ -*----------------------------------*\
| =========                 |                                                 |
| \\      /  F ield         | OpenFOAM: The Open Source CFD Toolbox           |
|  \\    /   O peration     | Version:  2.4.0                                 |
|   \\  /    A nd           | Web:      www.OpenFOAM.org                      |
|    \\/     M anipulation  |                                                 |
\*---------------------------------------------------------------------------*/
FoamFile
{
    version     2.0;
    format      ascii;
    class       volVectorField;
    location    "0.45";
    object      U;
}
// * * * * * * * * * * * * * * * * * * * * * * * * * * * * * * * * * * * * * //

dimensions      [0 1 -1 0 0 0 0];

internalField   nonuniform List<vector> 
559
(
(0.00838741 0.0108369 0)
(0.00984644 0.0424033 0)
(0.0600737 0.0903318 0)
(0.0353958 0.131033 0)
(0.0495251 0.164552 0)
(0.0271181 0.21053 0)
(0.0412008 0.224008 0)
(0.0554038 0.284899 0)
(-0.108431 0.091009 0)
(-0.317649 0.070801 0)
(-0.607586 0.0214075 0)
(-0.745968 -0.0302882 0)
(-0.787978 -0.108049 0)
(-0.681373 -0.206557 0)
(-0.568986 -0.268724 0)
(-0.512818 -0.325193 0)
(-0.419774 -0.367813 0)
(-0.301228 -0.381943 0)
(-0.228801 -0.358378 0)
(-0.0901437 -0.344746 0)
(0.0950178 -0.305537 0)
(0.299568 -0.232304 0)
(0.551688 -0.211279 0)
(0.800968 -0.148974 0)
(0.838623 -0.0855865 0)
(0.635398 -0.149023 0)
(0.446917 -0.123326 0)
(-0.0838028 0.116865 0)
(-0.262476 0.110424 0)
(-0.485328 0.131045 0)
(-0.579321 0.130251 0)
(-0.603819 0.0681841 0)
(-0.59379 0.0554188 0)
(-0.576064 0.185859 0)
(-0.558303 0.215809 0)
(-0.504724 0.22876 0)
(-0.404417 0.249259 0)
(-0.372854 0.309798 0)
(-0.183387 0.268908 0)
(0.178658 0.0962217 0)
(0.558917 -0.117785 0)
(0.876178 -0.168754 0)
(0.996386 -0.142505 0)
(1.01763 -0.0282895 0)
(0.775768 0.298607 0)
(0.52038 0.351222 0)
(-0.0351076 0.189893 0)
(-0.127577 0.193252 0)
(-0.294696 0.176314 0)
(-0.392202 0.101598 0)
(-0.301719 -0.0791591 0)
(-0.210652 -0.134652 0)
(-0.306042 -0.272882 0)
(-0.329038 -0.329118 0)
(-0.303797 -0.34805 0)
(-0.15849 -0.373238 0)
(-0.118274 -0.423878 0)
(0.0472167 -0.466012 0)
(0.318742 -0.362096 0)
(0.596934 -0.27956 0)
(0.856007 -0.163133 0)
(1.05412 0.0597706 0)
(0.92502 0.285879 0)
(0.629918 0.342093 0)
(0.542442 0.51829 0)
(0.0189236 0.220428 0)
(0.0129896 0.211389 0)
(-0.067995 0.197941 0)
(-0.14552 0.14564 0)
(0.165438 -0.0453381 0)
(0.206254 -0.13617 0)
(0.122496 -0.00454456 0)
(0.270168 -0.0380076 0)
(0.333765 0.039876 0)
(0.418558 0.020251 0)
(0.441066 -0.0230134 0)
(0.536458 -0.131442 0)
(0.67108 -0.430423 0)
(0.807681 -0.483445 0)
(0.892076 -0.395566 0)
(1.09342 -0.213692 0)
(1.09638 0.234089 0)
(0.433605 0.646364 0)
(0.538345 0.628235 0)
(0.041312 0.192865 0)
(0.130801 0.213657 0)
(0.107918 0.226722 0)
(0.170148 0.0852653 0)
(0.434877 -0.233555 0)
(0.622158 -0.140995 0)
(0.953006 0.325624 0)
(1.51817 -0.223374 0)
(1.5898 -0.0921829 0)
(1.53472 0.143897 0)
(0.393761 0.519989 0)
(-0.251387 0.309273 0)
(0.679506 -0.393217 0)
(1.02317 -0.546188 0)
(1.08639 -0.434891 0)
(1.08476 -0.153077 0)
(1.15066 0.342284 0)
(0.369196 0.884447 0)
(0.509883 0.838389 0)
(0.0985312 0.15202 0)
(0.237388 0.185626 0)
(0.330861 0.200071 0)
(0.516359 0.0284412 0)
(0.733241 -0.204242 0)
(0.684742 -0.269501 0)
(0.703069 -0.16684 0)
(1.01713 0.193743 0)
(1.32587 -0.0467705 0)
(1.14056 -0.160293 0)
(0.390654 -0.108893 0)
(0.802888 -0.508423 0)
(1.11053 -0.514691 0)
(1.19652 -0.528631 0)
(1.2014 -0.465711 0)
(1.11865 -0.120098 0)
(1.17115 0.42029 0)
(0.454027 0.994397 0)
(0.518309 1.03992 0)
(0.113077 0.0952868 0)
(0.355091 0.112996 0)
(0.516977 0.116091 0)
(0.737398 -0.0530322 0)
(0.894048 -0.287273 0)
(0.815247 -0.347352 0)
(0.749916 -0.349671 0)
(0.800147 -0.269519 0)
(1.02926 0.216707 0)
(1.42445 0.335784 0)
(1.71481 0.695121 0)
(1.25449 -0.411267 0)
(1.26657 -0.562387 0)
(1.28965 -0.596854 0)
(1.27362 -0.447808 0)
(1.14182 -0.0757996 0)
(1.18443 0.5453 0)
(0.501388 1.09298 0)
(0.481025 1.25633 0)
(0.167351 -0.04791 0)
(0.437078 -0.0276779 0)
(0.636654 0.0290044 0)
(0.873973 -0.0755685 0)
(0.963896 -0.249966 0)
(0.897243 -0.288013 0)
(0.79816 -0.308041 0)
(0.761975 -0.311375 0)
(0.760837 -0.187321 0)
(0.948695 0.262464 0)
(1.50585 0.285507 0)
(1.34987 -0.292037 0)
(1.31853 -0.548758 0)
(1.31989 -0.552445 0)
(1.29933 -0.42555 0)
(1.14 -0.0603474 0)
(1.1837 0.638798 0)
(0.582898 1.24609 0)
(0.523222 1.4901 0)
(0.209336 0.269878 0)
(0.19218 0.163889 0)
(0.273284 0.0749771 0)
(0.633861 0.210443 0)
(0.728484 0.105944 0)
(0.635707 0.00964802 0)
(0.412515 -0.0478222 0)
(0.17346 -0.165319 0)
(0.259543 0.208117 0)
(0.20253 0.154364 0)
(0.129158 -0.0648926 0)
(0.214337 -0.184186 0)
(0.239026 0.114012 0)
(0.254521 0.053048 0)
(0.309593 -0.018646 0)
(0.32034 -0.051637 0)
(0.297815 -0.00508764 0)
(0.304656 -0.0646248 0)
(0.326387 -0.130652 0)
(0.344182 -0.167796 0)
(0.602918 0.113664 0)
(0.578224 0.0384344 0)
(0.570766 -0.0370539 0)
(0.559188 -0.120665 0)
(0.787652 0.0272937 0)
(0.813997 -0.0075043 0)
(0.841338 -0.0727843 0)
(0.884209 -0.110356 0)
(0.698207 -0.0577786 0)
(0.713835 -0.0921183 0)
(0.743243 -0.151994 0)
(0.785191 -0.198951 0)
(0.459529 -0.097924 0)
(0.457373 -0.149447 0)
(0.485786 -0.21161 0)
(0.537564 -0.231513 0)
(0.24116 -0.191393 0)
(0.269719 -0.258044 0)
(0.310141 -0.295953 0)
(0.33868 -0.320172 0)
(0.181794 -0.376163 0)
(0.245809 -0.417669 0)
(0.277202 -0.422333 0)
(0.295201 -0.34366 0)
(0.420169 0.512966 0)
(0.380549 0.430751 0)
(0.331726 0.349968 0)
(0.318135 0.211779 0)
(0.553675 -0.736892 0)
(0.567589 -0.719774 0)
(0.582747 -0.694394 0)
(0.612068 -0.682318 0)
(0.126272 -0.0845153 0)
(0.114002 -0.111618 0)
(0.112786 -0.137708 0)
(0.111498 -0.188696 0)
(0.0495133 -0.312382 0)
(0.031006 -0.343358 0)
(0.0144651 -0.362293 0)
(-0.00573347 -0.387514 0)
(-0.0716786 -0.222023 0)
(-0.0805141 -0.243774 0)
(-0.0865388 -0.253473 0)
(-0.104678 -0.266606 0)
(-0.128032 -0.210241 0)
(-0.136925 -0.22757 0)
(-0.143504 -0.244843 0)
(-0.157985 -0.258884 0)
(-0.132131 -0.198867 0)
(-0.139074 -0.207605 0)
(-0.145796 -0.21057 0)
(-0.160563 -0.21619 0)
(-0.138309 -0.200377 0)
(-0.147354 -0.203832 0)
(-0.153628 -0.205608 0)
(-0.166592 -0.210655 0)
(0.277404 -0.19802 0)
(0.351009 -0.201634 0)
(0.509208 -0.159706 0)
(0.686087 -0.213487 0)
(0.793629 -0.269488 0)
(0.80771 -0.259617 0)
(0.773137 -0.271025 0)
(0.735161 -0.304198 0)
(0.737213 -0.267133 0)
(0.813558 -0.127365 0)
(1.01711 -0.160288 0)
(1.22631 -0.377348 0)
(1.32679 -0.565193 0)
(1.34414 -0.546244 0)
(1.30678 -0.41377 0)
(1.07255 0.101797 0)
(1.0125 0.83472 0)
(0.483831 1.45402 0)
(0.547654 1.80759 0)
(0.328231 -0.179576 0)
(0.351321 -0.248004 0)
(0.414814 -0.27101 0)
(0.503988 -0.329116 0)
(0.575241 -0.358037 0)
(0.624129 -0.330989 0)
(0.671025 -0.312099 0)
(0.7152 -0.325279 0)
(0.754874 -0.336872 0)
(0.8382 -0.351436 0)
(0.999164 -0.382294 0)
(1.18323 -0.446242 0)
(1.26005 -0.561227 0)
(1.24647 -0.557881 0)
(1.07292 -0.267609 0)
(0.583685 0.429324 0)
(0.403682 1.19524 0)
(0.0164314 1.70436 0)
(0.347472 2.14348 0)
(0.375094 -0.263605 0)
(0.39401 -0.350103 0)
(0.426211 -0.369605 0)
(0.483156 -0.376298 0)
(0.535172 -0.384922 0)
(0.578113 -0.370762 0)
(0.636721 -0.388704 0)
(0.712711 -0.393518 0)
(0.795747 -0.382771 0)
(0.886109 -0.374942 0)
(1.01276 -0.393594 0)
(1.13394 -0.499575 0)
(1.16191 -0.547479 0)
(1.07613 -0.369945 0)
(0.355394 0.273456 0)
(-0.00633645 0.8717 0)
(-0.119159 1.28654 0)
(-0.287753 1.71758 0)
(0.0889003 2.16231 0)
(0.581034 -0.20636 0)
(0.615774 -0.279319 0)
(0.634706 -0.3374 0)
(0.657839 -0.373894 0)
(0.665971 -0.385008 0)
(0.686001 -0.40277 0)
(0.730161 -0.444294 0)
(0.788094 -0.462847 0)
(0.846951 -0.472631 0)
(0.933556 -0.499514 0)
(1.06718 -0.549741 0)
(1.15951 -0.599803 0)
(1.14209 -0.502404 0)
(0.599361 0.0296237 0)
(-0.276424 0.708405 0)
(-0.287745 1.0008 0)
(-0.4329 1.282 0)
(-0.399871 1.56503 0)
(-0.134204 1.91742 0)
(0.874734 -0.207213 0)
(0.894872 -0.323382 0)
(0.938056 -0.361802 0)
(0.962287 -0.370546 0)
(0.961384 -0.374453 0)
(0.95598 -0.403643 0)
(0.956968 -0.445998 0)
(0.959627 -0.475961 0)
(0.98535 -0.515423 0)
(1.07059 -0.587003 0)
(1.16718 -0.679049 0)
(1.17384 -0.636955 0)
(0.599758 -0.0307667 0)
(-0.532982 0.866305 0)
(-0.544443 0.856183 0)
(-0.481865 1.06983 0)
(-0.559039 1.24512 0)
(-0.479292 1.43117 0)
(-0.190806 1.53447 0)
(0.819612 -0.275303 0)
(0.87885 -0.36928 0)
(0.936395 -0.416785 0)
(0.980068 -0.402728 0)
(1.00317 -0.384788 0)
(1.01682 -0.393842 0)
(1.02134 -0.425993 0)
(1.02816 -0.481598 0)
(1.07411 -0.556382 0)
(1.12943 -0.70343 0)
(1.14224 -0.71044 0)
(0.984101 -0.0716351 0)
(-0.92598 1.22818 0)
(-0.802587 0.885744 0)
(-0.74013 0.819379 0)
(-0.612652 1.06165 0)
(-0.556845 1.21788 0)
(-0.43191 1.28209 0)
(-0.145763 1.20477 0)
(0.552384 -0.316075 0)
(0.61129 -0.455494 0)
(0.691043 -0.523967 0)
(0.806033 -0.487333 0)
(0.889015 -0.446117 0)
(0.948045 -0.439549 0)
(0.987054 -0.452986 0)
(1.03841 -0.498764 0)
(1.07328 -0.6446 0)
(1.0985 -0.726214 0)
(1.06559 -0.501168 0)
(0.548142 1.91369 0)
(-1.10232 1.48288 0)
(-0.8329 0.737545 0)
(-0.769398 0.705467 0)
(-0.667935 0.943531 0)
(-0.480756 1.10698 0)
(-0.292901 1.08718 0)
(-0.0899859 0.987087 0)
(0.331271 -0.402957 0)
(0.321084 -0.447049 0)
(0.312052 -0.485414 0)
(0.454111 -0.512214 0)
(0.592704 -0.526907 0)
(0.713442 -0.517463 0)
(0.834062 -0.515823 0)
(0.927528 -0.587229 0)
(0.988458 -0.693696 0)
(1.00244 -0.613934 0)
(0.499858 -0.0562948 0)
(0.418897 2.02891 0)
(-0.665633 2.6938 0)
(-0.785956 0.712724 0)
(-0.706291 0.556751 0)
(-0.614957 0.705925 0)
(-0.414549 0.850281 0)
(-0.249281 0.931402 0)
(-0.0314219 0.853868 0)
(0.300927 -0.0317552 0)
(0.17839 0.491299 0)
(-0.0735044 0.256933 0)
(0.0236913 -0.282007 0)
(0.278851 -0.532003 0)
(0.540979 -0.591148 0)
(0.702876 -0.609755 0)
(0.794247 -0.674586 0)
(0.771944 -0.455999 0)
(0.317504 -0.174918 0)
(-0.300938 0.269926 0)
(0.202719 1.95289 0)
(-0.0807499 3.56239 0)
(-0.655023 1.0002 0)
(-0.773073 0.606307 0)
(-0.548501 0.582039 0)
(-0.427247 0.717629 0)
(-0.301933 0.779587 0)
(-0.0106481 0.729048 0)
(0.357062 -0.177874 0)
(0.620508 -0.617621 0)
(0.821042 -0.710173 0)
(0.873457 -0.552952 0)
(0.701692 -0.202845 0)
(0.617365 -0.2734 0)
(0.377358 -0.1756 0)
(0.0492128 0.0302061 0)
(-0.368857 -0.0367155 0)
(-0.405492 -0.139534 0)
(-0.28415 0.202627 0)
(-0.123099 1.41225 0)
(0.327721 3.68529 0)
(-0.348085 1.46372 0)
(-0.933607 0.547846 0)
(-0.680539 0.493763 0)
(-0.370882 0.489268 0)
(-0.299798 0.596656 0)
(-0.0494456 0.578761 0)
(0.618578 -0.695652 0)
(0.678345 -0.686966 0)
(0.626314 -0.723741 0)
(0.51609 -0.775662 0)
(0.349695 -0.740615 0)
(0.0210514 -0.41175 0)
(-0.32338 -0.322609 0)
(-0.506511 -0.410832 0)
(-0.475878 -0.285217 0)
(-0.454166 -0.228528 0)
(-0.334691 0.0818752 0)
(-0.365468 0.996091 0)
(0.500335 3.52266 0)
(0.0726686 2.05901 0)
(-0.592608 0.637805 0)
(-0.788357 0.380386 0)
(-0.412383 0.337207 0)
(-0.15711 0.349815 0)
(-0.0999851 0.434566 0)
(0.0830644 -0.278098 0)
(0.0259239 -0.388621 0)
(-0.134972 -0.507477 0)
(-0.286605 -0.48236 0)
(-0.448699 -0.405338 0)
(-0.493198 -0.430046 0)
(-0.465576 -0.345615 0)
(-0.4808 -0.264545 0)
(-0.519681 -0.254573 0)
(-0.526354 -0.232468 0)
(-0.482099 -0.0344379 0)
(-0.510692 0.766895 0)
(0.406871 3.13583 0)
(0.395147 2.42525 0)
(-0.0616893 1.25719 0)
(-0.340218 0.257568 0)
(-0.469376 0.290023 0)
(-0.0339228 0.173694 0)
(-0.094794 0.338352 0)
(-0.0471145 -0.393695 0)
(-0.126127 -0.391156 0)
(-0.23139 -0.372121 0)
(-0.319505 -0.332034 0)
(-0.372679 -0.311856 0)
(-0.437112 -0.264358 0)
(-0.490535 -0.204708 0)
(-0.532878 -0.225288 0)
(-0.549908 -0.221014 0)
(-0.594908 -0.228559 0)
(-0.633462 -0.0913249 0)
(-0.673384 0.509119 0)
(0.0985655 2.48342 0)
(0.52261 2.49119 0)
(0.170975 1.55924 0)
(0.148025 0.481339 0)
(-0.122014 0.190571 0)
(-0.00441178 0.134804 0)
(-0.0427181 0.278752 0)
(-0.133036 -0.279619 0)
(-0.190517 -0.309204 0)
(-0.26926 -0.328062 0)
(-0.332924 -0.291822 0)
(-0.39201 -0.275511 0)
(-0.454938 -0.262318 0)
(-0.490186 -0.215988 0)
(-0.51414 -0.184419 0)
(-0.561229 -0.187284 0)
(-0.624342 -0.170296 0)
(-0.70904 -0.0865369 0)
(-0.786095 0.332458 0)
(-0.252847 1.7782 0)
(0.50468 2.45506 0)
(0.26447 1.58817 0)
(0.430244 0.632661 0)
(0.0889955 0.28944 0)
(-0.0415795 0.143209 0)
(-0.00632168 0.269899 0)
(-0.177369 -0.273232 0)
(-0.217746 -0.284007 0)
(-0.261669 -0.28882 0)
(-0.297169 -0.285245 0)
(-0.332274 -0.268558 0)
(-0.377366 -0.240107 0)
(-0.429004 -0.186385 0)
(-0.478093 -0.157387 0)
(-0.533266 -0.124223 0)
(-0.615943 -0.0970357 0)
(-0.7062 -0.027366 0)
(-0.823353 0.247227 0)
(-0.51237 1.20227 0)
(0.287827 2.1899 0)
(0.36458 1.45286 0)
(0.515848 0.756833 0)
(0.122757 0.479707 0)
(-0.0986003 0.181755 0)
(0.0202655 0.287454 0)
(-0.181841 -0.219807 0)
(-0.21416 -0.225471 0)
(-0.248855 -0.216449 0)
(-0.287448 -0.196509 0)
(-0.33551 -0.17817 0)
(-0.381905 -0.161835 0)
(-0.420311 -0.132668 0)
(-0.457125 -0.105489 0)
(-0.504068 -0.0711366 0)
(-0.572753 -0.0217555 0)
(-0.648021 0.0492118 0)
(-0.783727 0.233768 0)
(-0.63375 0.802379 0)
(-0.113106 1.52556 0)
(0.344169 1.19871 0)
(0.408313 0.887267 0)
(0.172631 0.748092 0)
(-0.108203 0.216854 0)
(0.0292013 0.301982 0)
(-0.186661 -0.214245 0)
(-0.212897 -0.220157 0)
(-0.245836 -0.215969 0)
(-0.273984 -0.204472 0)
(-0.306235 -0.181142 0)
(-0.333202 -0.156063 0)
(-0.374044 -0.112988 0)
(-0.411103 -0.0717425 0)
(-0.453171 -0.0253296 0)
(-0.508267 0.0366985 0)
(-0.552303 0.115047 0)
(-0.646201 0.268259 0)
(-0.567188 0.614287 0)
(-0.240501 1.08652 0)
(0.129974 0.984068 0)
(0.332301 0.947789 0)
(0.0811072 0.941786 0)
(-0.0151778 0.218677 0)
(0.0222627 0.311556 0)
)
;

boundaryField
{
    leftWall
    {
        type            calculated;
        value           nonuniform 0();
    }
    rightWall
    {
        type            calculated;
        value           uniform (0 0 0);
    }
    lowerWall
    {
        type            calculated;
        value           uniform (0 0 0);
    }
    atmosphere
    {
        type            calculated;
        value           nonuniform 0();
    }
    defaultFaces
    {
        type            empty;
    }
    procBoundary1to0
    {
        type            processor;
        value           nonuniform List<vector> 
26
(
(0.106468 0.0227303 0)
(0.128207 0.0653569 0)
(0.149406 0.104786 0)
(0.122331 0.132917 0)
(0.0936051 0.156594 0)
(0.0783924 0.202619 0)
(0.0985664 0.21467 0)
(0.134426 0.262123 0)
(0.148342 0.246603 0)
(0.130251 0.159883 0)
(0.287096 0.24194 0)
(0.631898 0.290333 0)
(0.657644 0.148906 0)
(0.548667 0.0243369 0)
(0.31792 -0.0157894 0)
(0.0360266 -0.190077 0)
(0.11103 -0.342229 0)
(0.11103 -0.342229 0)
(0.470953 0.580756 0)
(0.523571 -0.753051 0)
(0.158031 -0.0647334 0)
(0.0898723 -0.284413 0)
(-0.0723035 -0.190682 0)
(-0.118 -0.194829 0)
(-0.126788 -0.191297 0)
(-0.135204 -0.198444 0)
)
;
    }
    procBoundary1to3
    {
        type            processor;
        value           nonuniform List<vector> 
23
(
(-0.145297 -0.17774 0)
(-0.151912 -0.176031 0)
(-0.157428 -0.174547 0)
(-0.165216 -0.178119 0)
(-0.180184 -0.178454 0)
(-0.199814 -0.178129 0)
(-0.22369 -0.167843 0)
(-0.257164 -0.149055 0)
(-0.287215 -0.129334 0)
(-0.31345 -0.108061 0)
(-0.345979 -0.074812 0)
(-0.373718 -0.0374447 0)
(-0.400665 0.00796472 0)
(-0.438916 0.0746269 0)
(-0.451827 0.150764 0)
(-0.502207 0.283167 0)
(-0.414622 0.518862 0)
(-0.22209 0.80782 0)
(-0.0251251 0.77081 0)
(0.332591 0.930241 0)
(-0.127829 1.13314 0)
(0.053301 0.193538 0)
(0.0116371 0.333697 0)
)
;
    }
}


// ************************************************************************* //
