/*--------------------------------*- C++ -*----------------------------------*\
| =========                 |                                                 |
| \\      /  F ield         | OpenFOAM: The Open Source CFD Toolbox           |
|  \\    /   O peration     | Version:  2.4.0                                 |
|   \\  /    A nd           | Web:      www.OpenFOAM.org                      |
|    \\/     M anipulation  |                                                 |
\*---------------------------------------------------------------------------*/
FoamFile
{
    version     2.0;
    format      ascii;
    class       volVectorField;
    location    "0.45";
    object      U.air;
}
// * * * * * * * * * * * * * * * * * * * * * * * * * * * * * * * * * * * * * //

dimensions      [0 1 -1 0 0 0 0];

internalField   nonuniform List<vector> 
559
(
(0.00838803 0.010837 0)
(0.00984703 0.0424049 0)
(0.0600746 0.0903347 0)
(0.035397 0.131037 0)
(0.0495268 0.164557 0)
(0.0271203 0.210536 0)
(0.0412035 0.224014 0)
(0.0554095 0.28491 0)
(-0.135306 0.063483 0)
(-0.350952 0.0284607 0)
(-0.625137 -0.038951 0)
(-0.748645 -0.135055 0)
(-0.762112 -0.290691 0)
(-0.645456 -0.433047 0)
(-0.531197 -0.515355 0)
(-0.461877 -0.556733 0)
(-0.367374 -0.561452 0)
(-0.232165 -0.533653 0)
(-0.129517 -0.49088 0)
(0.0294684 -0.463453 0)
(0.2165 -0.492173 0)
(0.39246 -0.433692 0)
(0.607304 -0.421524 0)
(0.83928 -0.358069 0)
(0.908497 -0.281175 0)
(0.747595 -0.319395 0)
(0.548431 -0.204277 0)
(-0.101495 0.098274 0)
(-0.265347 0.107792 0)
(-0.468329 0.131221 0)
(-0.56203 0.140834 0)
(-0.588044 0.0975004 0)
(-0.582488 0.0698259 0)
(-0.565077 0.292011 0)
(-0.544119 0.378102 0)
(-0.490232 0.41655 0)
(-0.390744 0.455733 0)
(-0.333958 0.428232 0)
(0.133573 -0.121473 0)
(0.434971 -0.356354 0)
(0.736247 -0.584196 0)
(0.948429 -0.537498 0)
(1.03306 -0.481875 0)
(1.07546 -0.30162 0)
(0.879015 0.0500564 0)
(0.611393 0.228013 0)
(-0.0426794 0.182439 0)
(-0.117122 0.205764 0)
(-0.279195 0.179787 0)
(-0.366656 0.122376 0)
(-0.284192 0.117068 0)
(-0.106635 0.154755 0)
(-0.165441 0.258735 0)
(-0.28215 0.0477901 0)
(-0.293424 -0.0802244 0)
(-0.151176 -0.129076 0)
(-0.16372 -0.201261 0)
(-0.229113 -0.24296 0)
(0.326658 -0.457799 0)
(0.745333 -0.517201 0)
(0.958414 -0.6141 0)
(1.09319 -0.466707 0)
(1.06045 -0.324161 0)
(0.821525 0.00620658 0)
(0.653442 0.323794 0)
(0.0170478 0.219795 0)
(0.018017 0.215 0)
(-0.0493764 0.201644 0)
(-0.0502973 0.159353 0)
(0.296785 0.281402 0)
(0.339762 0.318894 0)
(0.185429 0.193718 0)
(0.285279 0.0196463 0)
(0.348766 0.0889146 0)
(0.440998 0.054393 0)
(0.414857 0.00706892 0)
(0.428668 0.0658784 0)
(0.389984 0.142108 0)
(0.542285 0.0254826 0)
(0.892287 -0.556514 0)
(1.09526 -0.674507 0)
(1.12725 -0.235837 0)
(0.724638 0.0297315 0)
(0.646552 0.393604 0)
(0.0505799 0.15761 0)
(0.143372 0.18596 0)
(0.122834 0.222016 0)
(0.306938 0.0883691 0)
(0.690975 -0.0088618 0)
(0.688439 0.0308397 0)
(0.962784 0.355502 0)
(1.51879 -0.222824 0)
(1.59032 -0.0914855 0)
(1.5352 0.145285 0)
(0.39267 0.522275 0)
(-0.26822 0.325037 0)
(0.525661 -0.218059 0)
(0.687437 -0.0375455 0)
(0.893708 -0.0785501 0)
(1.03026 -0.447905 0)
(1.14105 -0.148285 0)
(0.546628 0.456563 0)
(0.611684 0.567451 0)
(0.125263 0.0101788 0)
(0.262678 0.050469 0)
(0.359799 0.100599 0)
(0.713378 0.00173497 0)
(0.971301 -0.0984329 0)
(0.70049 -0.0922137 0)
(0.678274 -0.0450095 0)
(1.01671 0.228764 0)
(1.32598 -0.0459811 0)
(1.14064 -0.159635 0)
(0.389765 -0.107804 0)
(0.797827 -0.496106 0)
(1.0941 -0.423847 0)
(1.14183 -0.132424 0)
(1.0463 0.218126 0)
(1.04741 -0.691517 0)
(1.135 -0.0641632 0)
(0.558176 0.695302 0)
(0.600535 0.74822 0)
(0.169692 -0.0192936 0)
(0.347699 -0.0545709 0)
(0.506155 -0.0704536 0)
(0.81232 -0.195124 0)
(0.96602 -0.35669 0)
(0.83783 -0.107546 0)
(0.704115 -0.0519177 0)
(0.776247 -0.111121 0)
(1.02594 0.286966 0)
(1.42472 0.338885 0)
(1.71535 0.699025 0)
(1.27589 -0.341947 0)
(1.37297 -0.233833 0)
(1.35696 -0.00432613 0)
(1.17556 -0.0173162 0)
(1.07159 -0.393175 0)
(1.13274 0.0909844 0)
(0.564073 0.867 0)
(0.573572 0.924132 0)
(0.2083 0.155914 0)
(0.468181 -0.0328516 0)
(0.60122 -0.111526 0)
(0.740966 -0.238332 0)
(0.842453 -0.366643 0)
(0.780543 -0.256833 0)
(0.74094 0.0608233 0)
(0.676677 0.0509151 0)
(0.699343 0.00902252 0)
(0.946693 0.326674 0)
(1.52759 0.33622 0)
(1.45413 -0.10117 0)
(1.54741 -0.0885539 0)
(1.4197 0.0018287 0)
(1.21034 -0.034793 0)
(1.03583 0.0768491 0)
(1.03535 0.460083 0)
(0.677786 1.02432 0)
(0.626451 1.06622 0)
(0.209533 0.269906 0)
(0.192072 0.164184 0)
(0.269036 0.0388935 0)
(0.567789 0.106649 0)
(0.711932 0.0737728 0)
(0.634953 0.0565606 0)
(0.426966 0.139427 0)
(0.165564 0.189013 0)
(0.197221 0.208166 0)
(0.0746174 0.348486 0)
(0.0858606 0.0856422 0)
(0.236601 -0.0688215 0)
(0.24332 0.114158 0)
(0.28031 0.134718 0)
(0.327954 0.189777 0)
(0.304895 0.195431 0)
(0.296535 -0.0187991 0)
(0.306153 -0.0359153 0)
(0.325819 -0.0310439 0)
(0.331855 -0.0604057 0)
(0.549574 0.0266712 0)
(0.540661 -0.0267427 0)
(0.541509 -0.0779127 0)
(0.533408 -0.146383 0)
(0.766875 -0.00213523 0)
(0.789367 -0.03836 0)
(0.812872 -0.102101 0)
(0.853551 -0.136904 0)
(0.698503 -0.014092 0)
(0.714709 -0.036263 0)
(0.746079 -0.0879958 0)
(0.791785 -0.139963 0)
(0.449044 0.0846423 0)
(0.483433 0.0590265 0)
(0.580594 0.0140774 0)
(0.650889 -0.011952 0)
(0.243684 0.173036 0)
(0.288872 0.12592 0)
(0.337764 0.100118 0)
(0.35786 0.0666336 0)
(0.200274 -0.224272 0)
(0.279632 -0.280278 0)
(0.309512 -0.312372 0)
(0.314776 -0.261933 0)
(0.420194 0.513334 0)
(0.38056 0.430993 0)
(0.331726 0.350046 0)
(0.318134 0.211788 0)
(0.553675 -0.736892 0)
(0.56759 -0.719775 0)
(0.582747 -0.694395 0)
(0.612068 -0.682318 0)
(0.126272 -0.0845154 0)
(0.114002 -0.111618 0)
(0.112786 -0.137708 0)
(0.111498 -0.188696 0)
(0.0495134 -0.312382 0)
(0.031006 -0.343358 0)
(0.0144651 -0.362293 0)
(-0.00573347 -0.387514 0)
(-0.0716786 -0.222023 0)
(-0.0805141 -0.243774 0)
(-0.0865388 -0.253473 0)
(-0.104678 -0.266606 0)
(-0.128032 -0.210241 0)
(-0.136926 -0.22757 0)
(-0.143504 -0.244843 0)
(-0.157985 -0.258885 0)
(-0.132131 -0.198867 0)
(-0.139074 -0.207606 0)
(-0.145796 -0.210571 0)
(-0.160563 -0.21619 0)
(-0.138309 -0.200377 0)
(-0.147354 -0.203832 0)
(-0.153629 -0.205609 0)
(-0.166592 -0.210655 0)
(0.295175 -0.0461187 0)
(0.387707 -0.0370576 0)
(0.606512 -0.023784 0)
(0.716078 -0.189304 0)
(0.723379 -0.287933 0)
(0.716492 -0.300713 0)
(0.710424 -0.0319367 0)
(0.654355 0.129114 0)
(0.657216 0.164413 0)
(0.797101 0.229372 0)
(1.07552 0.224134 0)
(1.40076 0.0860397 0)
(1.56348 -0.0528328 0)
(1.47102 -0.0529872 0)
(1.37821 0.317752 0)
(1.00393 0.823647 0)
(0.770114 1.56918 0)
(0.206301 2.15498 0)
(0.528293 1.62085 0)
(0.318144 0.0525759 0)
(0.355736 -0.0084353 0)
(0.430574 -0.00709725 0)
(0.526882 -0.0261028 0)
(0.583318 -0.0709745 0)
(0.612265 -0.220421 0)
(0.656717 -0.174046 0)
(0.705468 -0.07541 0)
(0.749424 0.0974507 0)
(0.859269 0.20298 0)
(1.08387 0.130935 0)
(1.26341 -0.204672 0)
(1.31659 -0.555206 0)
(1.42342 -0.174267 0)
(1.18998 0.258347 0)
(0.518793 0.94572 0)
(0.187464 1.68976 0)
(-0.299036 2.25914 0)
(0.288018 2.25146 0)
(0.342293 -0.104489 0)
(0.346076 -0.155614 0)
(0.382745 -0.140629 0)
(0.447813 -0.0976508 0)
(0.497906 -0.053212 0)
(0.542833 -0.0467878 0)
(0.623591 -0.317228 0)
(0.710375 -0.433145 0)
(0.785937 -0.403559 0)
(0.873382 -0.443933 0)
(0.966903 -0.508624 0)
(1.05346 -0.5565 0)
(1.13248 -0.59668 0)
(1.23517 0.0859574 0)
(0.513739 0.609636 0)
(-0.0643563 1.21391 0)
(-0.35996 1.57352 0)
(-0.592082 1.98351 0)
(-0.0614275 2.41107 0)
(0.554623 -0.213384 0)
(0.581361 -0.287423 0)
(0.537261 -0.317379 0)
(0.529588 -0.128825 0)
(0.569869 -0.0830257 0)
(0.617007 -0.0611962 0)
(0.700827 -0.377336 0)
(0.78269 -0.56823 0)
(0.845711 -0.612646 0)
(0.921639 -0.666311 0)
(1.00064 -0.595596 0)
(1.05412 -0.42752 0)
(1.12872 -0.0106206 0)
(0.601702 0.47412 0)
(-0.239366 1.06434 0)
(-0.407741 1.25583 0)
(-0.733058 1.44318 0)
(-0.744822 1.67315 0)
(-0.340251 2.18073 0)
(0.842543 -0.227958 0)
(0.862416 -0.28115 0)
(0.922763 -0.273958 0)
(0.972064 -0.239091 0)
(0.979997 -0.292489 0)
(0.949295 -0.345328 0)
(0.940325 -0.453769 0)
(0.943092 -0.555305 0)
(0.958432 -0.604501 0)
(1.00757 -0.529629 0)
(1.20357 -0.129719 0)
(1.16462 0.261529 0)
(0.426102 0.580881 0)
(-0.669977 1.28076 0)
(-0.621092 1.22571 0)
(-0.700821 1.30961 0)
(-0.873107 1.4187 0)
(-0.7978 1.58728 0)
(-0.351847 1.7886 0)
(0.840802 -0.212127 0)
(0.889304 -0.191796 0)
(0.906 -0.172792 0)
(0.95884 -0.191161 0)
(1.01618 -0.238028 0)
(1.01406 -0.370624 0)
(0.999047 -0.449858 0)
(0.987925 -0.491067 0)
(1.04879 -0.476362 0)
(1.25837 -0.216133 0)
(1.26207 -0.129438 0)
(0.938053 0.336143 0)
(-1.13598 1.61571 0)
(-1.1265 1.31282 0)
(-0.944624 1.07342 0)
(-0.889769 1.29467 0)
(-0.857808 1.44347 0)
(-0.700043 1.54205 0)
(-0.267603 1.54589 0)
(0.684799 -0.0867516 0)
(0.719161 -0.142217 0)
(0.695192 -0.181421 0)
(0.730802 -0.135547 0)
(0.812476 -0.0774327 0)
(0.926367 -0.207343 0)
(0.989966 -0.298068 0)
(1.07087 -0.318049 0)
(1.24201 -0.269654 0)
(1.27472 -0.374758 0)
(1.08877 -0.351064 0)
(0.54061 1.96802 0)
(-1.16457 1.64112 0)
(-1.14739 1.1127 0)
(-1.10174 1.03921 0)
(-0.913824 1.15767 0)
(-0.750963 1.36272 0)
(-0.509414 1.39025 0)
(-0.178628 1.34085 0)
(0.369032 -0.0698088 0)
(0.348653 -0.229543 0)
(0.3057 -0.29891 0)
(0.431508 -0.274697 0)
(0.543648 -0.239506 0)
(0.635559 -0.219049 0)
(0.832395 -0.215472 0)
(1.02749 -0.258157 0)
(1.11273 -0.442983 0)
(1.04385 -0.542525 0)
(0.497915 -0.0478297 0)
(0.418869 2.02925 0)
(-0.662473 2.73657 0)
(-0.826783 0.811493 0)
(-1.04107 0.927007 0)
(-0.938388 1.05986 0)
(-0.561826 1.0632 0)
(-0.331478 1.1362 0)
(-0.0493567 1.02633 0)
(0.309362 0.012661 0)
(0.179255 0.500031 0)
(-0.0735302 0.264542 0)
(0.0179007 -0.240169 0)
(0.238171 -0.435353 0)
(0.487157 -0.41521 0)
(0.720785 -0.388293 0)
(0.855967 -0.523891 0)
(0.794227 -0.408724 0)
(0.318192 -0.17301 0)
(-0.300938 0.269928 0)
(0.202719 1.95289 0)
(-0.0802397 3.56396 0)
(-0.653377 1.01078 0)
(-0.85515 0.670666 0)
(-0.904594 0.943688 0)
(-0.642836 0.941709 0)
(-0.320448 0.833327 0)
(-0.0113276 0.744128 0)
(0.357062 -0.177874 0)
(0.620508 -0.617621 0)
(0.821042 -0.710173 0)
(0.873453 -0.552937 0)
(0.701355 -0.201139 0)
(0.614949 -0.254856 0)
(0.373115 -0.149181 0)
(0.0473018 0.0391932 0)
(-0.368891 -0.0365577 0)
(-0.405491 -0.139534 0)
(-0.284149 0.202626 0)
(-0.123098 1.41224 0)
(0.327723 3.68529 0)
(-0.348007 1.46386 0)
(-0.941856 0.55093 0)
(-0.844654 0.569779 0)
(-0.838693 0.822826 0)
(-0.411057 0.620415 0)
(-0.0500653 0.587027 0)
(0.618578 -0.695652 0)
(0.678345 -0.686966 0)
(0.626314 -0.723741 0)
(0.51609 -0.775661 0)
(0.349695 -0.740614 0)
(0.0210514 -0.41175 0)
(-0.32338 -0.322608 0)
(-0.50651 -0.41083 0)
(-0.475876 -0.285216 0)
(-0.454164 -0.228528 0)
(-0.334689 0.0818749 0)
(-0.365467 0.996088 0)
(0.500335 3.52266 0)
(0.0726687 2.05901 0)
(-0.592678 0.637877 0)
(-0.810813 0.388152 0)
(-0.66597 0.478118 0)
(-0.536388 0.602311 0)
(-0.107673 0.463046 0)
(0.0830644 -0.278098 0)
(0.0259239 -0.388622 0)
(-0.134972 -0.507477 0)
(-0.286605 -0.482359 0)
(-0.448699 -0.405337 0)
(-0.493197 -0.430045 0)
(-0.465575 -0.345614 0)
(-0.480799 -0.264544 0)
(-0.519679 -0.254572 0)
(-0.526352 -0.232467 0)
(-0.482097 -0.0344378 0)
(-0.51069 0.766893 0)
(0.40687 3.13583 0)
(0.395146 2.42524 0)
(-0.0616892 1.25719 0)
(-0.3404 0.257659 0)
(-0.515631 0.310191 0)
(-0.248405 0.437681 0)
(-0.202459 0.461762 0)
(-0.0471145 -0.393695 0)
(-0.126127 -0.391156 0)
(-0.23139 -0.372121 0)
(-0.319505 -0.332034 0)
(-0.372678 -0.311856 0)
(-0.437111 -0.264357 0)
(-0.490534 -0.204707 0)
(-0.532877 -0.225287 0)
(-0.549906 -0.221014 0)
(-0.594906 -0.228559 0)
(-0.633459 -0.0913246 0)
(-0.673382 0.509117 0)
(0.0985653 2.48342 0)
(0.522609 2.49118 0)
(0.170974 1.55923 0)
(0.148024 0.481338 0)
(-0.122195 0.1907 0)
(-0.096148 0.167944 0)
(-0.184548 0.45166 0)
(-0.133036 -0.279619 0)
(-0.190517 -0.309204 0)
(-0.26926 -0.328062 0)
(-0.332924 -0.291822 0)
(-0.39201 -0.275511 0)
(-0.454937 -0.262317 0)
(-0.490185 -0.215987 0)
(-0.514139 -0.184418 0)
(-0.561228 -0.187284 0)
(-0.62434 -0.170295 0)
(-0.709038 -0.0865367 0)
(-0.786093 0.332457 0)
(-0.252847 1.77819 0)
(0.504679 2.45506 0)
(0.264469 1.58817 0)
(0.430243 0.63266 0)
(0.0889952 0.289439 0)
(-0.0699336 0.142237 0)
(-0.0652276 0.347919 0)
(-0.177369 -0.273232 0)
(-0.217746 -0.284007 0)
(-0.261669 -0.28882 0)
(-0.297168 -0.285244 0)
(-0.332274 -0.268558 0)
(-0.377366 -0.240107 0)
(-0.429003 -0.186385 0)
(-0.478091 -0.157386 0)
(-0.533265 -0.124223 0)
(-0.615941 -0.0970354 0)
(-0.706198 -0.0273659 0)
(-0.82335 0.247226 0)
(-0.512369 1.20227 0)
(0.287826 2.1899 0)
(0.364579 1.45285 0)
(0.515847 0.75683 0)
(0.122757 0.479706 0)
(-0.113515 0.178835 0)
(-0.00506249 0.297446 0)
(-0.181841 -0.219807 0)
(-0.21416 -0.225471 0)
(-0.248855 -0.216449 0)
(-0.287448 -0.196509 0)
(-0.335509 -0.17817 0)
(-0.381904 -0.161835 0)
(-0.420311 -0.132667 0)
(-0.457124 -0.105488 0)
(-0.504067 -0.0711364 0)
(-0.572751 -0.0217554 0)
(-0.648019 0.0492117 0)
(-0.783725 0.233767 0)
(-0.633749 0.802376 0)
(-0.113106 1.52555 0)
(0.344168 1.19871 0)
(0.408311 0.887264 0)
(0.172631 0.74809 0)
(-0.125842 0.214242 0)
(-0.000393142 0.287404 0)
(-0.186661 -0.214246 0)
(-0.212897 -0.220158 0)
(-0.245836 -0.215969 0)
(-0.273984 -0.204472 0)
(-0.306235 -0.181142 0)
(-0.333202 -0.156063 0)
(-0.374044 -0.112988 0)
(-0.411103 -0.0717424 0)
(-0.453171 -0.0253296 0)
(-0.508266 0.0366984 0)
(-0.552302 0.115047 0)
(-0.646199 0.268259 0)
(-0.567187 0.614286 0)
(-0.240501 1.08652 0)
(0.129973 0.984065 0)
(0.3323 0.947786 0)
(0.0811069 0.941783 0)
(-0.0447627 0.214393 0)
(-0.0233219 0.28939 0)
)
;

boundaryField
{
    leftWall
    {
        type            fixedValue;
        value           nonuniform 0();
    }
    rightWall
    {
        type            fixedValue;
        value           uniform (0 0 0);
    }
    lowerWall
    {
        type            fixedValue;
        value           uniform (0 0 0);
    }
    atmosphere
    {
        type            fluxCorrectedVelocity;
        value           nonuniform 0();
    }
    defaultFaces
    {
        type            empty;
    }
    procBoundary1to0
    {
        type            processor;
        value           nonuniform List<vector> 
26
(
(0.10647 0.0227307 0)
(0.128208 0.0653581 0)
(0.149408 0.104788 0)
(0.122334 0.13292 0)
(0.0936089 0.156597 0)
(0.0783972 0.202622 0)
(0.0985714 0.214671 0)
(0.134436 0.262125 0)
(0.148213 0.247723 0)
(0.133127 0.148971 0)
(0.268348 0.138218 0)
(0.575361 0.212789 0)
(0.643728 0.124439 0)
(0.547733 0.0830623 0)
(0.346878 0.200244 0)
(0.0314516 0.194249 0)
(0.108167 -0.189168 0)
(0.108167 -0.189168 0)
(0.470989 0.581139 0)
(0.523571 -0.753051 0)
(0.158031 -0.0647334 0)
(0.0898724 -0.284413 0)
(-0.0723036 -0.190682 0)
(-0.118 -0.194829 0)
(-0.126788 -0.191297 0)
(-0.135205 -0.198445 0)
)
;
    }
    procBoundary1to3
    {
        type            processor;
        value           nonuniform List<vector> 
23
(
(-0.145298 -0.17774 0)
(-0.151912 -0.176031 0)
(-0.157428 -0.174547 0)
(-0.165217 -0.178119 0)
(-0.180184 -0.178454 0)
(-0.199814 -0.178129 0)
(-0.22369 -0.167843 0)
(-0.257164 -0.149055 0)
(-0.287216 -0.129334 0)
(-0.31345 -0.108061 0)
(-0.345978 -0.0748119 0)
(-0.373718 -0.0374447 0)
(-0.400664 0.00796471 0)
(-0.438916 0.0746268 0)
(-0.451826 0.150763 0)
(-0.502207 0.283167 0)
(-0.414621 0.518861 0)
(-0.222089 0.807818 0)
(-0.025125 0.770808 0)
(0.33259 0.930238 0)
(-0.127829 1.13314 0)
(0.012108 0.196034 0)
(-0.0281679 0.325682 0)
)
;
    }
}


// ************************************************************************* //
