/*--------------------------------*- C++ -*----------------------------------*\
| =========                 |                                                 |
| \\      /  F ield         | OpenFOAM: The Open Source CFD Toolbox           |
|  \\    /   O peration     | Version:  2.4.0                                 |
|   \\  /    A nd           | Web:      www.OpenFOAM.org                      |
|    \\/     M anipulation  |                                                 |
\*---------------------------------------------------------------------------*/
FoamFile
{
    version     2.0;
    format      ascii;
    class       volVectorField;
    location    "0.45";
    object      U.mercury;
}
// * * * * * * * * * * * * * * * * * * * * * * * * * * * * * * * * * * * * * //

dimensions      [0 1 -1 0 0 0 0];

internalField   nonuniform List<vector> 
559
(
(0.00838742 0.0108366 0)
(0.00984645 0.042403 0)
(0.0600737 0.0903315 0)
(0.0353959 0.131033 0)
(0.0495251 0.164552 0)
(0.0271182 0.21053 0)
(0.0412009 0.224007 0)
(0.0554038 0.284899 0)
(-0.426815 -0.386062 0)
(-0.73837 -0.483558 0)
(-0.833797 -0.658817 0)
(-0.77102 -0.82483 0)
(-0.686955 -0.857479 0)
(-0.582098 -0.852815 0)
(-0.485285 -0.826145 0)
(-0.41446 -0.794846 0)
(-0.330628 -0.770128 0)
(-0.195739 -0.724855 0)
(-0.0818016 -0.644469 0)
(0.0856419 -0.608046 0)
(0.271757 -0.580368 0)
(0.439858 -0.536179 0)
(0.633984 -0.532228 0)
(0.855232 -0.479608 0)
(0.944862 -0.39327 0)
(0.868884 -0.393772 0)
(0.641277 -0.361791 0)
(-0.353318 -0.313854 0)
(-0.561654 -0.160447 0)
(-0.634692 -0.107071 0)
(-0.68001 -0.216288 0)
(-0.629198 0.00726385 0)
(-0.600514 0.00771148 0)
(-0.576242 0.10198 0)
(-0.549217 0.105516 0)
(-0.49057 0.0883351 0)
(-0.25562 -0.054674 0)
(0.424049 -0.780718 0)
(0.851964 -1.1691 0)
(0.781778 -0.997583 0)
(0.83636 -0.857242 0)
(0.993954 -0.801818 0)
(1.05488 -0.682655 0)
(1.11613 -0.463397 0)
(0.992232 -0.0683703 0)
(0.684822 0.00294572 0)
(-0.200333 -0.181918 0)
(-0.234356 0.102924 0)
(-0.379385 0.116487 0)
(-0.424184 0.0525688 0)
(-0.313498 -0.12798 0)
(-0.232886 -0.183984 0)
(-0.327132 -0.329234 0)
(-0.351 -0.394936 0)
(-0.321989 -0.414183 0)
(-0.14425 -0.447908 0)
(0.38732 -0.845498 0)
(0.949774 -1.34119 0)
(0.890806 -1.14093 0)
(0.963437 -1.11888 0)
(1.05372 -1.08304 0)
(1.13667 -1.00416 0)
(1.18192 -0.867034 0)
(0.945811 -0.175878 0)
(0.70717 0.154705 0)
(-0.064764 -0.0231849 0)
(-0.0348135 0.136242 0)
(-0.148709 0.164158 0)
(-0.186915 0.116225 0)
(0.202551 -0.109493 0)
(0.203068 -0.242002 0)
(0.0346158 -0.291234 0)
(0.193577 -0.251583 0)
(0.269818 -0.175826 0)
(0.378152 -0.153829 0)
(0.776565 -0.919046 0)
(0.980832 -1.29935 0)
(0.958166 -1.14209 0)
(1.07004 -1.15102 0)
(1.11258 -1.1295 0)
(1.12209 -1.05697 0)
(1.17525 -0.929728 0)
(1.01554 -0.579823 0)
(0.693712 0.261708 0)
(0.165766 -0.342102 0)
(0.303759 -0.307637 0)
(0.331981 -0.188715 0)
(0.386948 -0.166304 0)
(0.739084 -0.605447 0)
(0.860112 -0.770738 0)
(1.21944 -1.05187 0)
(1.6388 -1.06206 0)
(2.19587 -1.42091 0)
(1.25044 -0.251218 0)
(0.786167 -1.04514 0)
(0.851269 -1.14595 0)
(0.977127 -1.16437 0)
(1.1041 -1.16499 0)
(1.1424 -1.1331 0)
(1.12139 -1.05681 0)
(1.13304 -0.879011 0)
(1.03215 -0.702795 0)
(0.662695 0.429258 0)
(0.202783 -0.424233 0)
(0.338922 -0.392523 0)
(0.47469 -0.387699 0)
(0.715799 -0.494251 0)
(0.770803 -0.638063 0)
(0.799506 -0.713398 0)
(0.946349 -0.871664 0)
(1.29879 -1.2374 0)
(2.10017 -1.87471 0)
(1.52406 -1.15749 0)
(0.920646 -1.16113 0)
(0.886271 -1.04523 0)
(1.02359 -1.09145 0)
(1.11961 -1.12739 0)
(1.1498 -1.13397 0)
(1.11784 -1.06983 0)
(1.09184 -0.863571 0)
(1.03866 -0.676169 0)
(0.650979 0.570157 0)
(0.205046 -0.394797 0)
(0.337405 -0.366643 0)
(0.461987 -0.361639 0)
(0.660815 -0.469533 0)
(0.727545 -0.583367 0)
(0.720083 -0.623515 0)
(0.758637 -0.691151 0)
(0.850717 -0.828096 0)
(1.10014 -1.09647 0)
(1.56011 -1.49905 0)
(1.26637 -1.45641 0)
(0.993041 -0.991403 0)
(1.06499 -1.03319 0)
(1.11977 -1.08744 0)
(1.14263 -1.11452 0)
(1.10851 -1.06897 0)
(1.0527 -0.853074 0)
(0.953544 -0.584357 0)
(0.642613 0.676067 0)
(0.223139 -0.365744 0)
(0.340479 -0.356465 0)
(0.464487 -0.338652 0)
(0.623049 -0.422161 0)
(0.707328 -0.528037 0)
(0.709319 -0.574237 0)
(0.711037 -0.621921 0)
(0.737389 -0.692773 0)
(0.808979 -0.784445 0)
(0.889523 -0.884889 0)
(0.968425 -0.920733 0)
(1.01426 -0.901435 0)
(1.08435 -1.00153 0)
(1.12115 -1.08425 0)
(1.1094 -1.10163 0)
(1.09463 -1.09091 0)
(1.03752 -0.877684 0)
(0.932343 -0.531198 0)
(0.689515 0.725873 0)
(0.209319 0.26985 0)
(0.193467 0.15908 0)
(0.264774 0.00319668 0)
(0.469588 -0.0474546 0)
(0.582594 -0.177706 0)
(0.638746 -0.103375 0)
(0.415086 -0.0701015 0)
(0.173654 -0.183604 0)
(0.25951 0.207775 0)
(0.203968 0.152104 0)
(0.134485 -0.080764 0)
(0.206487 -0.255952 0)
(0.239045 0.113714 0)
(0.254433 0.0523578 0)
(0.309161 -0.023238 0)
(0.322109 -0.0755192 0)
(0.294569 -0.0368958 0)
(0.303048 -0.0834048 0)
(0.324942 -0.14523 0)
(0.343521 -0.18287 0)
(0.485517 -0.0775854 0)
(0.497828 -0.101809 0)
(0.513318 -0.138761 0)
(0.514244 -0.204162 0)
(0.631154 -0.194349 0)
(0.650833 -0.211915 0)
(0.673669 -0.245194 0)
(0.724247 -0.24788 0)
(0.710815 -0.221673 0)
(0.706444 -0.285984 0)
(0.71913 -0.344174 0)
(0.76344 -0.361194 0)
(0.464569 -0.122405 0)
(0.455675 -0.178597 0)
(0.476216 -0.24744 0)
(0.552479 -0.273378 0)
(0.240618 -0.212547 0)
(0.266951 -0.286547 0)
(0.305612 -0.338747 0)
(0.334761 -0.376179 0)
(0.156722 -0.58459 0)
(0.186288 -0.660735 0)
(0.183278 -0.743883 0)
(0.193692 -0.770064 0)
(0.409664 0.353531 0)
(0.375577 0.315817 0)
(0.331842 0.302698 0)
(0.319035 0.205276 0)
(0.553984 -0.737159 0)
(0.567856 -0.720039 0)
(0.582925 -0.694689 0)
(0.612199 -0.682689 0)
(0.126458 -0.084792 0)
(0.114148 -0.111945 0)
(0.1129 -0.138071 0)
(0.111572 -0.189071 0)
(0.0496129 -0.312623 0)
(0.0310824 -0.343627 0)
(0.0145167 -0.362584 0)
(-0.00568912 -0.387816 0)
(-0.0716342 -0.22223 0)
(-0.0804778 -0.244 0)
(-0.0865015 -0.253709 0)
(-0.104638 -0.266845 0)
(-0.128014 -0.210406 0)
(-0.136909 -0.227744 0)
(-0.143483 -0.245023 0)
(-0.157948 -0.259067 0)
(-0.132128 -0.199001 0)
(-0.139067 -0.207744 0)
(-0.145774 -0.21071 0)
(-0.160522 -0.216329 0)
(-0.138307 -0.200491 0)
(-0.147347 -0.203946 0)
(-0.153608 -0.205722 0)
(-0.166556 -0.210771 0)
(0.280132 -0.339058 0)
(0.333436 -0.36595 0)
(0.444197 -0.356506 0)
(0.565575 -0.424955 0)
(0.646855 -0.503556 0)
(0.685086 -0.544923 0)
(0.695748 -0.585149 0)
(0.715423 -0.639651 0)
(0.749355 -0.682205 0)
(0.805903 -0.720845 0)
(0.900295 -0.744686 0)
(1.01699 -0.854232 0)
(1.10386 -1.01892 0)
(1.13476 -1.11359 0)
(1.0881 -1.10967 0)
(1.0502 -1.10806 0)
(0.974146 -0.871663 0)
(0.773507 -0.220199 0)
(0.770445 0.822287 0)
(0.331058 -0.235909 0)
(0.350364 -0.351568 0)
(0.407213 -0.414745 0)
(0.489799 -0.491404 0)
(0.560273 -0.545931 0)
(0.610279 -0.5589 0)
(0.662707 -0.584245 0)
(0.712396 -0.627719 0)
(0.754267 -0.659884 0)
(0.813205 -0.688882 0)
(0.931343 -0.757689 0)
(1.02485 -0.914617 0)
(1.08118 -1.06608 0)
(1.06687 -1.10135 0)
(1.01762 -1.09186 0)
(0.959459 -0.998659 0)
(0.847252 -0.699497 0)
(0.301174 0.70523 0)
(0.808896 0.976601 0)
(0.376109 -0.288321 0)
(0.401142 -0.404009 0)
(0.43918 -0.47454 0)
(0.497385 -0.534737 0)
(0.553314 -0.567347 0)
(0.599029 -0.577282 0)
(0.651299 -0.624897 0)
(0.715056 -0.670903 0)
(0.783845 -0.68925 0)
(0.867664 -0.753031 0)
(0.949083 -0.882915 0)
(1.01668 -1.01479 0)
(1.05079 -1.07674 0)
(1.02632 -1.06362 0)
(0.936379 -0.988054 0)
(0.904786 -0.886004 0)
(0.672369 -0.37867 0)
(0.0544118 1.21621 0)
(0.654854 1.09303 0)
(0.54477 -0.279132 0)
(0.604462 -0.379569 0)
(0.633561 -0.488313 0)
(0.676271 -0.580415 0)
(0.69173 -0.604787 0)
(0.715864 -0.623823 0)
(0.753564 -0.67306 0)
(0.79705 -0.705667 0)
(0.84358 -0.759063 0)
(0.910084 -0.850864 0)
(0.974689 -0.953518 0)
(1.01225 -1.03223 0)
(1.04693 -1.06039 0)
(0.985513 -1.00153 0)
(0.850606 -0.854267 0)
(0.515833 -0.276967 0)
(-0.155394 0.854149 0)
(-0.190054 1.38449 0)
(0.444211 1.53562 0)
(0.737528 -0.303796 0)
(0.767678 -0.368299 0)
(0.870367 -0.398379 0)
(0.995534 -0.481606 0)
(1.01486 -0.537202 0)
(0.964849 -0.592451 0)
(0.944515 -0.646188 0)
(0.929564 -0.69041 0)
(0.928995 -0.750981 0)
(0.950581 -0.854256 0)
(1.00243 -0.970948 0)
(1.00003 -0.992549 0)
(1.00583 -0.989369 0)
(0.916907 -0.913418 0)
(0.40061 -0.313993 0)
(-0.378427 0.867727 0)
(-0.401385 1.06962 0)
(-0.344512 1.29973 0)
(0.0852097 1.51499 0)
(0.765715 -0.419155 0)
(0.812391 -0.479907 0)
(0.968059 -0.508421 0)
(1.1308 -0.582831 0)
(1.12751 -0.575083 0)
(1.01551 -0.572103 0)
(0.976793 -0.615792 0)
(0.945231 -0.661935 0)
(0.949523 -0.750815 0)
(0.941947 -0.844861 0)
(0.969926 -0.924839 0)
(1.01022 -0.974729 0)
(0.864737 -0.828491 0)
(-0.0536209 0.0707885 0)
(-0.611861 0.677295 0)
(-0.520389 0.926253 0)
(-0.416634 1.05576 0)
(-0.32794 1.1352 0)
(-0.0960907 1.08732 0)
(0.560767 -0.386536 0)
(0.660041 -0.557423 0)
(1.00265 -0.685773 0)
(1.18552 -0.672827 0)
(1.16169 -0.641779 0)
(1.01987 -0.613911 0)
(0.985495 -0.634531 0)
(0.953384 -0.674021 0)
(0.948629 -0.777547 0)
(0.95006 -0.866358 0)
(0.901963 -0.892542 0)
(0.835359 -0.884253 0)
(-0.21306 0.233672 0)
(-0.767025 0.653105 0)
(-0.701589 0.650375 0)
(-0.573885 0.844418 0)
(-0.386851 0.968586 0)
(-0.227286 0.946179 0)
(-0.0728121 0.901455 0)
(0.315124 -0.512049 0)
(0.272841 -0.705174 0)
(0.32516 -0.921471 0)
(0.941385 -0.834452 0)
(0.970394 -0.738271 0)
(0.920328 -0.693919 0)
(0.886714 -0.698596 0)
(0.89388 -0.727966 0)
(0.889814 -0.828275 0)
(0.865772 -0.820851 0)
(0.78208 -0.753097 0)
(0.530712 0.304024 0)
(-0.763576 1.2838 0)
(-0.713191 0.536242 0)
(-0.646903 0.509749 0)
(-0.553418 0.656877 0)
(-0.363419 0.782516 0)
(-0.214869 0.838694 0)
(-0.0269894 0.81404 0)
(0.163721 -0.760067 0)
(0.0920852 -0.389784 0)
(0.029815 -0.842307 0)
(0.773452 -1.32263 0)
(0.880716 -1.07676 0)
(0.771411 -0.930403 0)
(0.746815 -0.927619 0)
(0.730929 -1.00176 0)
(0.625213 -1.07523 0)
(0.344376 -1.15442 0)
(-0.206055 0.10311 0)
(0.187905 1.91721 0)
(-0.284602 2.928 0)
(-0.704657 0.676977 0)
(-0.575587 0.450201 0)
(-0.482005 0.518173 0)
(-0.385293 0.665319 0)
(-0.28072 0.735162 0)
(-0.00626328 0.701988 0)
(0.357177 -0.179477 0)
(0.620959 -0.618632 0)
(0.822775 -0.710368 0)
(0.933284 -0.670639 0)
(1.07624 -1.20787 0)
(0.824048 -1.07942 0)
(0.77355 -1.06443 0)
(0.631567 -1.10519 0)
(0.00462302 -0.48041 0)
(-0.410676 -0.137846 0)
(-0.278684 0.16822 0)
(-0.157019 1.37878 0)
(0.313189 3.67003 0)
(-0.37249 1.39946 0)
(-0.593195 0.418696 0)
(-0.373223 0.350724 0)
(-0.331764 0.452456 0)
(-0.273356 0.564683 0)
(-0.046015 0.556901 0)
(0.618671 -0.696118 0)
(0.67851 -0.687551 0)
(0.62652 -0.724481 0)
(0.51632 -0.778022 0)
(0.344083 -0.735374 0)
(0.012147 -0.364671 0)
(-0.333516 -0.286759 0)
(-0.522886 -0.392817 0)
(-0.500714 -0.280856 0)
(-0.476436 -0.217416 0)
(-0.37895 0.0650465 0)
(-0.40137 0.909125 0)
(0.487202 3.52979 0)
(0.0708247 2.0634 0)
(-0.556642 0.614548 0)
(-0.32218 0.217227 0)
(-0.211338 0.226264 0)
(-0.151644 0.342858 0)
(-0.0974793 0.423478 0)
(0.0831197 -0.278473 0)
(0.0260002 -0.388994 0)
(-0.134892 -0.507878 0)
(-0.287082 -0.482778 0)
(-0.449711 -0.407347 0)
(-0.494047 -0.435038 0)
(-0.4693 -0.353766 0)
(-0.489935 -0.268538 0)
(-0.535406 -0.250271 0)
(-0.546953 -0.223485 0)
(-0.520845 -0.0183263 0)
(-0.527455 0.732496 0)
(0.418882 3.20718 0)
(0.390587 2.43018 0)
(-0.0615699 1.25889 0)
(-0.294956 0.241884 0)
(-0.0950678 0.125463 0)
(-0.0161134 0.149972 0)
(-0.0929249 0.334061 0)
(-0.0470659 -0.393998 0)
(-0.126047 -0.391452 0)
(-0.231242 -0.37242 0)
(-0.319316 -0.332402 0)
(-0.372523 -0.312441 0)
(-0.437584 -0.26511 0)
(-0.492814 -0.205978 0)
(-0.536914 -0.226051 0)
(-0.555623 -0.220497 0)
(-0.604331 -0.223236 0)
(-0.648154 -0.0709667 0)
(-0.658836 0.553807 0)
(0.082189 2.43932 0)
(0.511805 2.49395 0)
(0.171195 1.57201 0)
(0.159939 0.490089 0)
(-0.0938958 0.176277 0)
(0.0722824 0.106968 0)
(-0.0419059 0.276781 0)
(-0.132983 -0.279854 0)
(-0.190427 -0.309429 0)
(-0.269104 -0.328288 0)
(-0.332718 -0.292065 0)
(-0.391869 -0.275813 0)
(-0.455129 -0.262807 0)
(-0.490689 -0.217013 0)
(-0.515023 -0.185444 0)
(-0.562866 -0.187601 0)
(-0.627689 -0.167736 0)
(-0.713167 -0.0720813 0)
(-0.7729 0.36409 0)
(-0.25557 1.75872 0)
(0.497845 2.46162 0)
(0.26687 1.60845 0)
(0.442913 0.65267 0)
(0.0961948 0.295427 0)
(0.0984232 0.147997 0)
(-0.0023352 0.264372 0)
(-0.17731 -0.273412 0)
(-0.217657 -0.284184 0)
(-0.261527 -0.289002 0)
(-0.296978 -0.285451 0)
(-0.332072 -0.268834 0)
(-0.377193 -0.240584 0)
(-0.42889 -0.187006 0)
(-0.478083 -0.158081 0)
(-0.533522 -0.124817 0)
(-0.616867 -0.0965856 0)
(-0.707867 -0.0208774 0)
(-0.815065 0.268088 0)
(-0.502627 1.21221 0)
(0.293891 2.21161 0)
(0.368941 1.4696 0)
(0.514731 0.776142 0)
(0.128767 0.484805 0)
(0.0683871 0.21444 0)
(0.0238645 0.285994 0)
(-0.181783 -0.219948 0)
(-0.214074 -0.225615 0)
(-0.248733 -0.216606 0)
(-0.287293 -0.196689 0)
(-0.335331 -0.178393 0)
(-0.381722 -0.162125 0)
(-0.420137 -0.133034 0)
(-0.456971 -0.105931 0)
(-0.503971 -0.0716306 0)
(-0.572836 -0.0221104 0)
(-0.648628 0.0508374 0)
(-0.77824 0.243857 0)
(-0.618078 0.816265 0)
(-0.115499 1.52271 0)
(0.33496 1.19853 0)
(0.401703 0.892248 0)
(0.175283 0.747866 0)
(0.0460987 0.239715 0)
(0.0330378 0.303874 0)
(-0.186606 -0.214366 0)
(-0.212822 -0.220286 0)
(-0.24573 -0.216113 0)
(-0.273853 -0.204641 0)
(-0.306083 -0.181345 0)
(-0.333042 -0.156303 0)
(-0.373888 -0.113267 0)
(-0.410952 -0.072065 0)
(-0.453034 -0.0257026 0)
(-0.508164 0.0362839 0)
(-0.552359 0.11489 0)
(-0.644564 0.270274 0)
(-0.558775 0.61991 0)
(-0.237355 1.08213 0)
(0.123406 0.975739 0)
(0.328481 0.943775 0)
(0.0844467 0.938998 0)
(0.0626671 0.229974 0)
(0.0262455 0.313502 0)
)
;

boundaryField
{
    leftWall
    {
        type            fixedValue;
        value           nonuniform 0();
    }
    rightWall
    {
        type            fixedValue;
        value           uniform (0 0 0);
    }
    lowerWall
    {
        type            fixedValue;
        value           uniform (0 0 0);
    }
    atmosphere
    {
        type            fluxCorrectedVelocity;
        value           nonuniform 0();
    }
    defaultFaces
    {
        type            empty;
    }
    procBoundary1to0
    {
        type            processor;
        value           nonuniform List<vector> 
26
(
(0.106468 0.0227303 0)
(0.128207 0.0653569 0)
(0.149406 0.104786 0)
(0.122331 0.132917 0)
(0.0936051 0.156594 0)
(0.0783925 0.202619 0)
(0.0985664 0.21467 0)
(0.134427 0.262121 0)
(0.148502 0.245391 0)
(0.137532 0.132001 0)
(0.251226 0.0437003 0)
(0.395999 -0.0328822 0)
(0.498224 -0.130651 0)
(0.535396 -0.038542 0)
(0.322241 -0.0344029 0)
(0.0357274 -0.206159 0)
(0.114916 -0.543283 0)
(0.114916 -0.543283 0)
(0.455273 0.411 0)
(0.52386 -0.753268 0)
(0.158219 -0.0649176 0)
(0.0899739 -0.284593 0)
(-0.0722533 -0.190856 0)
(-0.117982 -0.194976 0)
(-0.126784 -0.191426 0)
(-0.135203 -0.198556 0)
)
;
    }
    procBoundary1to3
    {
        type            processor;
        value           nonuniform List<vector> 
23
(
(-0.145295 -0.177841 0)
(-0.151901 -0.176131 0)
(-0.157409 -0.174646 0)
(-0.165184 -0.178219 0)
(-0.18014 -0.178556 0)
(-0.199749 -0.17824 0)
(-0.223603 -0.167964 0)
(-0.257053 -0.149199 0)
(-0.287088 -0.129501 0)
(-0.313317 -0.108257 0)
(-0.345846 -0.0750325 0)
(-0.373591 -0.0376933 0)
(-0.400542 0.00768685 0)
(-0.438804 0.074308 0)
(-0.451763 0.150407 0)
(-0.501898 0.282931 0)
(-0.413146 0.519265 0)
(-0.221981 0.805811 0)
(-0.0258114 0.766935 0)
(0.329385 0.927084 0)
(-0.124478 1.12964 0)
(0.078481 0.192043 0)
(0.0130574 0.333985 0)
)
;
    }
}


// ************************************************************************* //
