/*--------------------------------*- C++ -*----------------------------------*\
| =========                 |                                                 |
| \\      /  F ield         | OpenFOAM: The Open Source CFD Toolbox           |
|  \\    /   O peration     | Version:  2.4.0                                 |
|   \\  /    A nd           | Web:      www.OpenFOAM.org                      |
|    \\/     M anipulation  |                                                 |
\*---------------------------------------------------------------------------*/
FoamFile
{
    version     2.0;
    format      ascii;
    class       volVectorField;
    location    "0.45";
    object      U.oil;
}
// * * * * * * * * * * * * * * * * * * * * * * * * * * * * * * * * * * * * * //

dimensions      [0 1 -1 0 0 0 0];

internalField   nonuniform List<vector> 
559
(
(0.00786297 0.0264973 0)
(0.00923689 0.0585985 0)
(0.0593846 0.106709 0)
(0.0347253 0.148252 0)
(0.0488902 0.183041 0)
(0.0265473 0.230251 0)
(0.0407535 0.244118 0)
(0.0550711 0.305076 0)
(-0.108228 0.0913131 0)
(-0.317374 0.0711632 0)
(-0.607435 0.0218604 0)
(-0.745933 -0.0292256 0)
(-0.788479 -0.104321 0)
(-0.682689 -0.197988 0)
(-0.571412 -0.252561 0)
(-0.517829 -0.301264 0)
(-0.426565 -0.337164 0)
(-0.312468 -0.345405 0)
(-0.251766 -0.313683 0)
(-0.133224 -0.280218 0)
(0.0378845 -0.2167 0)
(0.253897 -0.133392 0)
(0.524705 -0.106082 0)
(0.783052 -0.039839 0)
(0.803316 0.0166587 0)
(0.557283 -0.0671402 0)
(0.381427 -0.0429896 0)
(-0.0836325 0.117137 0)
(-0.262419 0.110475 0)
(-0.485318 0.13106 0)
(-0.579316 0.130269 0)
(-0.603818 0.0681839 0)
(-0.593789 0.0554187 0)
(-0.576064 0.185856 0)
(-0.558304 0.215796 0)
(-0.504728 0.228707 0)
(-0.404427 0.249171 0)
(-0.372998 0.309942 0)
(-0.188489 0.275988 0)
(0.152474 0.143729 0)
(0.5227 -0.0212341 0)
(0.854352 -0.0513979 0)
(0.982261 -0.0123319 0)
(0.985242 0.114744 0)
(0.702812 0.422285 0)
(0.464607 0.469323 0)
(-0.03505 0.190023 0)
(-0.127573 0.193255 0)
(-0.294695 0.176314 0)
(-0.392201 0.101598 0)
(-0.301721 -0.079191 0)
(-0.210795 -0.135051 0)
(-0.306315 -0.273914 0)
(-0.331063 -0.345407 0)
(-0.304672 -0.370657 0)
(-0.159301 -0.400326 0)
(-0.115382 -0.438151 0)
(0.0517942 -0.469395 0)
(0.302587 -0.339958 0)
(0.575142 -0.229788 0)
(0.843769 -0.106354 0)
(1.04963 0.116784 0)
(0.912465 0.342031 0)
(0.564894 0.448696 0)
(0.486189 0.642446 0)
(0.0189383 0.220471 0)
(0.0129908 0.21139 0)
(-0.0679938 0.197941 0)
(-0.145522 0.14564 0)
(0.164662 -0.0472659 0)
(0.188076 -0.198127 0)
(0.0340074 -0.283315 0)
(0.209819 -0.268248 0)
(0.264116 -0.187806 0)
(0.278745 -0.192454 0)
(0.535116 -0.130856 0)
(0.660494 -0.357354 0)
(0.702204 -0.48963 0)
(0.794165 -0.448185 0)
(0.878551 -0.351773 0)
(1.09198 -0.175138 0)
(1.09457 0.258877 0)
(0.410554 0.694747 0)
(0.484935 0.754236 0)
(0.041257 0.193101 0)
(0.130749 0.213812 0)
(0.1079 0.226756 0)
(0.170141 0.0852697 0)
(0.425059 -0.242106 0)
(0.530142 -0.379304 0)
(0.682164 -0.500813 0)
(0.991381 -0.687902 0)
(1.05497 -0.801323 0)
(0.993673 -1.40065 0)
(1.52447 -1.68145 0)
(1.47022 -1.19979 0)
(1.09104 -0.819524 0)
(1.07198 -0.580897 0)
(1.08291 -0.392428 0)
(1.08263 -0.113419 0)
(1.1508 0.366303 0)
(0.365297 0.893348 0)
(0.470812 0.942995 0)
(0.0979822 0.155054 0)
(0.236926 0.188259 0)
(0.330543 0.20137 0)
(0.516163 0.0289433 0)
(0.722785 -0.207747 0)
(0.679193 -0.324786 0)
(0.755535 -0.427466 0)
(1.02447 -0.597561 0)
(1.22335 -0.741863 0)
(1.04518 -0.891019 0)
(1.15196 -0.863842 0)
(1.23358 -0.74932 0)
(1.24983 -0.76064 0)
(1.22924 -0.637791 0)
(1.20624 -0.433469 0)
(1.11781 -0.08344 0)
(1.17205 0.440762 0)
(0.452582 0.997876 0)
(0.495673 1.12006 0)
(0.110259 0.110302 0)
(0.355602 0.126875 0)
(0.518005 0.125028 0)
(0.738362 -0.0477379 0)
(0.896439 -0.28283 0)
(0.816755 -0.345379 0)
(0.75708 -0.389754 0)
(0.827609 -0.44438 0)
(1.06668 -0.583467 0)
(1.31678 -0.793489 0)
(1.53366 -0.964889 0)
(1.21839 -0.709044 0)
(1.24227 -0.66239 0)
(1.30282 -0.57828 0)
(1.28088 -0.409181 0)
(1.14156 -0.0448413 0)
(1.18549 0.561243 0)
(0.500566 1.09519 0)
(0.464637 1.31518 0)
(0.159957 -0.0154343 0)
(0.447528 0.00823356 0)
(0.650581 0.0587488 0)
(0.890419 -0.05285 0)
(0.978578 -0.234053 0)
(0.907213 -0.273054 0)
(0.804149 -0.296024 0)
(0.777902 -0.344654 0)
(0.842547 -0.401648 0)
(0.989013 -0.482264 0)
(1.17787 -0.497565 0)
(1.22082 -0.529084 0)
(1.3136 -0.558377 0)
(1.33349 -0.515226 0)
(1.30834 -0.389626 0)
(1.13948 -0.0357024 0)
(1.1845 0.650339 0)
(0.582261 1.24822 0)
(0.515134 1.52726 0)
(0.239929 0.303354 0)
(0.162268 0.276795 0)
(0.285344 0.164541 0)
(0.666781 0.255553 0)
(0.757321 0.125046 0)
(0.641541 0.0330754 0)
(0.407935 -0.0327235 0)
(0.173785 -0.17678 0)
(0.268253 0.326302 0)
(0.132898 0.26407 0)
(0.0963622 0.00536981 0)
(0.205948 -0.14157 0)
(0.232742 0.204921 0)
(0.266844 0.15918 0)
(0.320007 0.0927833 0)
(0.30874 0.0516994 0)
(0.307203 0.0884125 0)
(0.311315 0.0267038 0)
(0.328445 -0.0466335 0)
(0.338428 -0.083312 0)
(0.639225 0.161282 0)
(0.608958 0.0811647 0)
(0.596034 0.000695146 0)
(0.571004 -0.0858732 0)
(0.813889 0.0336966 0)
(0.840382 -0.00697663 0)
(0.864531 -0.0845694 0)
(0.900148 -0.129527 0)
(0.696872 -0.0374446 0)
(0.707688 -0.076258 0)
(0.72656 -0.14981 0)
(0.765723 -0.198322 0)
(0.453645 -0.0795223 0)
(0.451814 -0.133467 0)
(0.482176 -0.197336 0)
(0.534304 -0.220543 0)
(0.241148 -0.203219 0)
(0.268998 -0.275263 0)
(0.308223 -0.325304 0)
(0.336608 -0.364046 0)
(0.154381 -0.601474 0)
(0.180519 -0.68288 0)
(0.171642 -0.781583 0)
(0.177843 -0.833607 0)
(0.306317 -1.16604 0)
(0.308259 -1.12594 0)
(0.322849 -1.04009 0)
(0.418319 -0.658279 0)
(0.554721 -0.735323 0)
(0.567299 -0.719772 0)
(0.581447 -0.694498 0)
(0.610626 -0.687811 0)
(0.126642 -0.0886593 0)
(0.114749 -0.114926 0)
(0.113235 -0.139506 0)
(0.111906 -0.190767 0)
(0.0494432 -0.313353 0)
(0.0309566 -0.344334 0)
(0.014392 -0.363032 0)
(-0.00589596 -0.388496 0)
(-0.0716564 -0.222693 0)
(-0.0805095 -0.244318 0)
(-0.0865431 -0.254045 0)
(-0.104742 -0.267433 0)
(-0.128027 -0.210539 0)
(-0.136928 -0.22788 0)
(-0.143516 -0.24521 0)
(-0.158013 -0.259407 0)
(-0.132136 -0.199062 0)
(-0.139075 -0.207811 0)
(-0.145785 -0.210798 0)
(-0.160539 -0.216462 0)
(-0.13831 -0.200527 0)
(-0.147351 -0.203978 0)
(-0.153612 -0.205757 0)
(-0.166561 -0.210811 0)
(0.267896 -0.156058 0)
(0.355433 -0.144845 0)
(0.527013 -0.103416 0)
(0.71471 -0.163358 0)
(0.82097 -0.226077 0)
(0.824848 -0.219918 0)
(0.783011 -0.233346 0)
(0.740299 -0.274043 0)
(0.75383 -0.298172 0)
(0.830451 -0.303524 0)
(0.998865 -0.329771 0)
(1.21257 -0.426997 0)
(1.34394 -0.529107 0)
(1.35549 -0.513623 0)
(1.31283 -0.408363 0)
(1.08874 -0.0635177 0)
(1.03037 0.788499 0)
(0.484564 1.45245 0)
(0.544137 1.82328 0)
(0.321694 -0.0874431 0)
(0.35054 -0.167289 0)
(0.417765 -0.196822 0)
(0.510845 -0.252846 0)
(0.581268 -0.289225 0)
(0.627868 -0.268491 0)
(0.672339 -0.253585 0)
(0.71477 -0.268843 0)
(0.753714 -0.280899 0)
(0.841016 -0.295205 0)
(1.00836 -0.324222 0)
(1.19919 -0.392723 0)
(1.27316 -0.520309 0)
(1.25403 -0.530027 0)
(1.04334 -0.367246 0)
(0.593592 0.309648 0)
(0.429093 1.13833 0)
(0.0174252 1.70267 0)
(0.346529 2.14588 0)
(0.360652 -0.172894 0)
(0.37161 -0.263639 0)
(0.405197 -0.289191 0)
(0.466506 -0.304085 0)
(0.520763 -0.313681 0)
(0.564272 -0.299977 0)
(0.625483 -0.320938 0)
(0.705956 -0.327696 0)
(0.793791 -0.317173 0)
(0.885309 -0.306033 0)
(1.01666 -0.3269 0)
(1.14221 -0.447487 0)
(1.16558 -0.50666 0)
(1.06043 -0.373081 0)
(0.303227 0.216573 0)
(0.00164219 0.801276 0)
(-0.111502 1.27767 0)
(-0.287486 1.71737 0)
(0.0885856 2.16292 0)
(0.56542 -0.170701 0)
(0.586529 -0.232109 0)
(0.605992 -0.271752 0)
(0.626551 -0.297768 0)
(0.629487 -0.307653 0)
(0.648314 -0.325772 0)
(0.700271 -0.368006 0)
(0.771519 -0.386773 0)
(0.838368 -0.39614 0)
(0.928123 -0.424278 0)
(1.07526 -0.487477 0)
(1.16775 -0.543915 0)
(1.14324 -0.463836 0)
(0.572205 0.0151564 0)
(-0.284613 0.684641 0)
(-0.282079 0.988621 0)
(-0.431016 1.281 0)
(-0.39873 1.56468 0)
(-0.131631 1.91404 0)
(0.867219 -0.232149 0)
(0.877573 -0.34487 0)
(0.920669 -0.361876 0)
(0.949054 -0.339611 0)
(0.957547 -0.325354 0)
(0.954983 -0.337194 0)
(0.959862 -0.372521 0)
(0.966359 -0.400814 0)
(0.991099 -0.441862 0)
(1.0881 -0.526137 0)
(1.18339 -0.641612 0)
(1.18254 -0.653992 0)
(0.598873 -0.102105 0)
(-0.536334 0.845068 0)
(-0.544304 0.854475 0)
(-0.481153 1.06905 0)
(-0.554217 1.24246 0)
(-0.462915 1.42314 0)
(-0.1812 1.5193 0)
(0.782899 -0.282492 0)
(0.840787 -0.384308 0)
(0.898224 -0.42505 0)
(0.946345 -0.397615 0)
(0.982829 -0.363368 0)
(1.01518 -0.35909 0)
(1.02927 -0.380308 0)
(1.04972 -0.434419 0)
(1.09259 -0.518332 0)
(1.1639 -0.69737 0)
(1.13106 -0.817593 0)
(1.0521 -0.834973 0)
(-0.717787 0.825114 0)
(-0.788787 0.867406 0)
(-0.739779 0.818944 0)
(-0.61211 1.0612 0)
(-0.549362 1.21227 0)
(-0.419892 1.27044 0)
(-0.141739 1.1935 0)
(0.54408 -0.315301 0)
(0.593949 -0.47994 0)
(0.67495 -0.54883 0)
(0.79047 -0.497513 0)
(0.86526 -0.439325 0)
(0.922476 -0.421909 0)
(0.971771 -0.432606 0)
(1.04613 -0.484468 0)
(1.08211 -0.65205 0)
(1.05487 -0.820299 0)
(0.986453 -0.967797 0)
(0.926033 -0.947491 0)
(-0.799694 0.712884 0)
(-0.78923 0.68545 0)
(-0.768834 0.704901 0)
(-0.6675 0.943152 0)
(-0.478208 1.10457 0)
(-0.291102 1.08466 0)
(-0.0896384 0.985699 0)
(0.320988 -0.494901 0)
(0.292654 -0.670063 0)
(0.32149 -0.747689 0)
(0.465494 -0.671553 0)
(0.59289 -0.592842 0)
(0.702302 -0.541005 0)
(0.821737 -0.532859 0)
(0.913801 -0.620275 0)
(0.938053 -0.800963 0)
(0.817182 -0.928695 0)
(0.656667 -0.868956 0)
(0.585416 -0.304343 0)
(-0.81219 0.709281 0)
(-0.707558 0.523069 0)
(-0.665028 0.511116 0)
(-0.614611 0.705546 0)
(-0.414467 0.850163 0)
(-0.249258 0.931345 0)
(-0.0314209 0.853859 0)
(0.120784 -0.980168 0)
(-0.0129749 -1.44071 0)
(-0.0699111 -1.71329 0)
(0.145447 -1.25322 0)
(0.399736 -0.833628 0)
(0.586289 -0.755212 0)
(0.686977 -0.767605 0)
(0.710097 -0.883715 0)
(0.542516 -0.953544 0)
(0.0492233 -0.916984 0)
(-0.143414 -0.00557762 0)
(0.120862 1.6068 0)
(-0.915524 0.994631 0)
(-0.728138 0.530244 0)
(-0.553367 0.43403 0)
(-0.504042 0.536886 0)
(-0.427196 0.717576 0)
(-0.301933 0.779587 0)
(-0.0106481 0.729047 0)
(0.401278 -0.361608 0)
(0.609311 -0.618182 0)
(0.800596 -0.72068 0)
(1.54809 -3.87649 0)
(1.10436 -2.28687 0)
(0.764265 -1.40763 0)
(0.575428 -1.45983 0)
(0.339605 -1.31163 0)
(-0.143788 -1.05236 0)
(-0.406192 -0.141337 0)
(-0.28384 0.167289 0)
(-0.171557 1.27124 0)
(-0.268459 2.67107 0)
(-0.773316 0.690354 0)
(-0.396976 0.347178 0)
(-0.350033 0.340676 0)
(-0.352767 0.476352 0)
(-0.299798 0.596655 0)
(-0.0494456 0.57876 0)
(0.61756 -0.701876 0)
(0.676322 -0.691207 0)
(0.616906 -0.726643 0)
(0.495733 -0.763286 0)
(0.293124 -0.677171 0)
(0.0665469 -0.461508 0)
(-0.0838838 -0.656485 0)
(-0.344529 -0.682838 0)
(-0.501447 -0.301649 0)
(-0.485151 -0.214636 0)
(-0.376406 0.0737943 0)
(-0.399652 0.912461 0)
(0.375198 3.34015 0)
(-0.0346881 1.90042 0)
(-0.203294 0.233342 0)
(-0.159891 0.163041 0)
(-0.20089 0.219687 0)
(-0.156951 0.349709 0)
(-0.0999849 0.434566 0)
(0.0828092 -0.280022 0)
(0.0244077 -0.390623 0)
(-0.141078 -0.51132 0)
(-0.302161 -0.488448 0)
(-0.462436 -0.427091 0)
(-0.507331 -0.46058 0)
(-0.489617 -0.361988 0)
(-0.504144 -0.267232 0)
(-0.539625 -0.249397 0)
(-0.549592 -0.223011 0)
(-0.523794 -0.0197022 0)
(-0.504257 0.78625 0)
(0.395427 3.18537 0)
(0.347547 2.44598 0)
(-0.0439717 1.1315 0)
(-0.0340908 0.103033 0)
(-0.0222364 0.0950646 0)
(-0.0147973 0.150154 0)
(-0.0947791 0.338335 0)
(-0.0476166 -0.394991 0)
(-0.127932 -0.393729 0)
(-0.23747 -0.37771 0)
(-0.328917 -0.336642 0)
(-0.380502 -0.314943 0)
(-0.442678 -0.268318 0)
(-0.4971 -0.20822 0)
(-0.540906 -0.22648 0)
(-0.559329 -0.218694 0)
(-0.608954 -0.21925 0)
(-0.652402 -0.0635563 0)
(-0.651888 0.565621 0)
(0.110903 2.52848 0)
(0.482983 2.52249 0)
(0.170265 1.60565 0)
(0.194666 0.476634 0)
(0.0222074 0.0875604 0)
(0.0776878 0.105144 0)
(-0.042033 0.277917 0)
(-0.133347 -0.280972 0)
(-0.191747 -0.311809 0)
(-0.272135 -0.332457 0)
(-0.336586 -0.295863 0)
(-0.39482 -0.278312 0)
(-0.457148 -0.264454 0)
(-0.49257 -0.217724 0)
(-0.516904 -0.18539 0)
(-0.565062 -0.186483 0)
(-0.630666 -0.163881 0)
(-0.715149 -0.0620422 0)
(-0.765889 0.384317 0)
(-0.245344 1.79987 0)
(0.482574 2.50245 0)
(0.272387 1.66538 0)
(0.462037 0.702445 0)
(0.0954656 0.243086 0)
(0.120944 0.148778 0)
(-0.00217098 0.264401 0)
(-0.177438 -0.273984 0)
(-0.217953 -0.285197 0)
(-0.262045 -0.290727 0)
(-0.297635 -0.287374 0)
(-0.332642 -0.270241 0)
(-0.377669 -0.24143 0)
(-0.429412 -0.187585 0)
(-0.478715 -0.158331 0)
(-0.53447 -0.12436 0)
(-0.618199 -0.0940137 0)
(-0.708432 -0.0124925 0)
(-0.807124 0.285465 0)
(-0.483145 1.24034 0)
(0.303402 2.26204 0)
(0.363907 1.5244 0)
(0.511814 0.817405 0)
(0.126616 0.447446 0)
(0.114454 0.223463 0)
(0.0239993 0.285981 0)
(-0.181805 -0.220119 0)
(-0.21413 -0.225864 0)
(-0.248824 -0.216996 0)
(-0.287423 -0.197152 0)
(-0.335472 -0.17882 0)
(-0.381869 -0.162467 0)
(-0.420287 -0.133352 0)
(-0.457139 -0.106189 0)
(-0.504206 -0.0716323 0)
(-0.572972 -0.0211129 0)
(-0.647775 0.0555665 0)
(-0.768586 0.256366 0)
(-0.593636 0.839876 0)
(-0.0933765 1.56146 0)
(0.321346 1.21143 0)
(0.391241 0.907825 0)
(0.15138 0.653053 0)
(0.0823019 0.245064 0)
(0.0331857 0.303945 0)
(-0.186617 -0.214418 0)
(-0.212833 -0.22036 0)
(-0.245751 -0.21622 0)
(-0.273881 -0.204777 0)
(-0.306115 -0.181495 0)
(-0.333073 -0.156457 0)
(-0.373918 -0.113432 0)
(-0.410977 -0.0722509 0)
(-0.453038 -0.0258923 0)
(-0.507869 0.0362808 0)
(-0.550966 0.116179 0)
(-0.636701 0.274715 0)
(-0.541072 0.625789 0)
(-0.232008 1.08006 0)
(0.107858 0.96232 0)
(0.314307 0.933276 0)
(0.0832445 0.689882 0)
(0.0715725 0.231235 0)
(0.0264028 0.313569 0)
)
;

boundaryField
{
    leftWall
    {
        type            fixedValue;
        value           nonuniform 0();
    }
    rightWall
    {
        type            fixedValue;
        value           uniform (0 0 0);
    }
    lowerWall
    {
        type            fixedValue;
        value           uniform (0 0 0);
    }
    atmosphere
    {
        type            fluxCorrectedVelocity;
        value           nonuniform 0();
    }
    defaultFaces
    {
        type            empty;
    }
    procBoundary1to0
    {
        type            processor;
        value           nonuniform List<vector> 
26
(
(0.105802 0.0251407 0)
(0.127467 0.0677571 0)
(0.148596 0.107152 0)
(0.121492 0.135488 0)
(0.0927368 0.159636 0)
(0.0774774 0.206419 0)
(0.0971835 0.219115 0)
(0.13274 0.275696 0)
(0.134274 0.307259 0)
(0.100223 0.271362 0)
(0.305387 0.332022 0)
(0.654772 0.34044 0)
(0.68153 0.186946 0)
(0.553123 0.0609383 0)
(0.313562 -0.00520289 0)
(0.0362234 -0.203737 0)
(0.115088 -0.559274 0)
(0.115088 -0.559274 0)
(0.305024 -1.18773 0)
(0.527856 -0.757693 0)
(0.158108 -0.0698818 0)
(0.0897277 -0.285543 0)
(-0.0723287 -0.192133 0)
(-0.118014 -0.19538 0)
(-0.126796 -0.191572 0)
(-0.135207 -0.198612 0)
)
;
    }
    procBoundary1to3
    {
        type            processor;
        value           nonuniform List<vector> 
23
(
(-0.145296 -0.177857 0)
(-0.151903 -0.176145 0)
(-0.157411 -0.174659 0)
(-0.165186 -0.178232 0)
(-0.180142 -0.178572 0)
(-0.199751 -0.17826 0)
(-0.223607 -0.167994 0)
(-0.257058 -0.149239 0)
(-0.287094 -0.129551 0)
(-0.313324 -0.108315 0)
(-0.345851 -0.0751061 0)
(-0.37359 -0.0378011 0)
(-0.4005 0.00750922 0)
(-0.438485 0.0739862 0)
(-0.450712 0.149985 0)
(-0.497361 0.28231 0)
(-0.403193 0.515927 0)
(-0.220716 0.790137 0)
(-0.0360069 0.745029 0)
(0.314953 0.908494 0)
(-0.00610212 0.657531 0)
(0.079993 0.19192 0)
(0.0131077 0.333992 0)
)
;
    }
}


// ************************************************************************* //
