/*--------------------------------*- C++ -*----------------------------------*\
| =========                 |                                                 |
| \\      /  F ield         | OpenFOAM: The Open Source CFD Toolbox           |
|  \\    /   O peration     | Version:  2.4.0                                 |
|   \\  /    A nd           | Web:      www.OpenFOAM.org                      |
|    \\/     M anipulation  |                                                 |
\*---------------------------------------------------------------------------*/
FoamFile
{
    version     2.0;
    format      ascii;
    class       volVectorField;
    location    "0.45";
    object      U.water;
}
// * * * * * * * * * * * * * * * * * * * * * * * * * * * * * * * * * * * * * //

dimensions      [0 1 -1 0 0 0 0];

internalField   nonuniform List<vector> 
559
(
(0.00838799 0.0108375 0)
(0.00984695 0.0424076 0)
(0.060074 0.0903502 0)
(0.0353926 0.131109 0)
(0.0495093 0.164771 0)
(0.0270754 0.211851 0)
(0.0411088 0.227193 0)
(0.0551526 0.308468 0)
(-0.127216 0.0628197 0)
(-0.344656 0.0351415 0)
(-0.622428 -0.0232855 0)
(-0.748558 -0.112696 0)
(-0.767451 -0.260009 0)
(-0.651504 -0.400813 0)
(-0.536533 -0.484781 0)
(-0.468807 -0.535366 0)
(-0.376477 -0.563256 0)
(-0.246945 -0.558428 0)
(-0.148964 -0.51337 0)
(0.0133432 -0.483773 0)
(0.205851 -0.44923 0)
(0.39676 -0.384715 0)
(0.623632 -0.368858 0)
(0.842659 -0.314231 0)
(0.91025 -0.242325 0)
(0.780177 -0.281637 0)
(0.562295 -0.267133 0)
(-0.0989202 0.0926357 0)
(-0.268894 0.104532 0)
(-0.486537 0.129216 0)
(-0.580162 0.1276 0)
(-0.6039 0.0678746 0)
(-0.593784 0.0551978 0)
(-0.576104 0.185438 0)
(-0.558337 0.21524 0)
(-0.504726 0.228086 0)
(-0.40324 0.246814 0)
(-0.34202 0.261237 0)
(0.0467129 -0.0906049 0)
(0.453186 -0.434332 0)
(0.681817 -0.466633 0)
(0.91832 -0.425673 0)
(1.03757 -0.340385 0)
(1.06141 -0.195015 0)
(0.900643 0.103305 0)
(0.613282 0.137864 0)
(-0.0406732 0.177248 0)
(-0.127796 0.192934 0)
(-0.294989 0.17604 0)
(-0.392487 0.101141 0)
(-0.301798 -0.079558 0)
(-0.210994 -0.135444 0)
(-0.30656 -0.274207 0)
(-0.331046 -0.344569 0)
(-0.304793 -0.369463 0)
(-0.159521 -0.399059 0)
(-0.101279 -0.439762 0)
(0.21811 -0.624026 0)
(0.57893 -0.725177 0)
(0.738407 -0.562341 0)
(0.923492 -0.438429 0)
(1.10039 -0.282778 0)
(1.03327 -0.1234 0)
(0.797392 0.0853426 0)
(0.624079 0.293289 0)
(0.0176702 0.216595 0)
(0.0130128 0.211207 0)
(-0.0683159 0.197706 0)
(-0.145855 0.145356 0)
(0.164724 -0.0473603 0)
(0.18895 -0.19437 0)
(0.0403605 -0.261895 0)
(0.216705 -0.241484 0)
(0.272707 -0.1593 0)
(0.298946 -0.161725 0)
(0.514638 -0.150247 0)
(0.762938 -0.592263 0)
(0.884516 -0.835361 0)
(0.927722 -0.65986 0)
(0.999208 -0.567794 0)
(1.12254 -0.4096 0)
(1.15478 -0.080827 0)
(0.772243 0.1156 0)
(0.614401 0.401825 0)
(0.047175 0.167657 0)
(0.137171 0.194605 0)
(0.110434 0.221639 0)
(0.170337 0.0847257 0)
(0.430221 -0.246997 0)
(0.544003 -0.369002 0)
(0.760248 -0.29969 0)
(1.40463 -0.325406 0)
(1.47798 -0.243928 0)
(1.40774 -0.212617 0)
(0.661148 -0.347613 0)
(0.959243 -1.08622 0)
(1.04858 -1.06762 0)
(1.1441 -0.74761 0)
(1.16928 -0.570957 0)
(1.14301 -0.331761 0)
(1.18281 0.0282943 0)
(0.740289 0.387879 0)
(0.590525 0.59305 0)
(0.119475 0.0362427 0)
(0.256554 0.0768086 0)
(0.349914 0.122341 0)
(0.532536 -0.0138506 0)
(0.7294 -0.264034 0)
(0.69928 -0.389153 0)
(0.795365 -0.512478 0)
(1.11001 -0.617803 0)
(1.38965 -0.352289 0)
(1.12611 -0.306138 0)
(0.682931 -0.682976 0)
(0.960164 -1.08546 0)
(1.17763 -0.966608 0)
(1.25331 -0.760152 0)
(1.2593 -0.593983 0)
(1.17847 -0.316561 0)
(1.20008 0.0951123 0)
(0.798847 0.553221 0)
(0.595207 0.768785 0)
(0.149088 -0.0966478 0)
(0.348385 -0.0708884 0)
(0.498848 -0.0422456 0)
(0.71611 -0.169658 0)
(0.847273 -0.370878 0)
(0.78608 -0.432922 0)
(0.756433 -0.491661 0)
(0.836318 -0.595172 0)
(1.08061 -0.770831 0)
(1.44331 -0.419142 0)
(1.4602 -0.6132 0)
(1.14894 -0.899532 0)
(1.26595 -0.747138 0)
(1.31048 -0.678153 0)
(1.30274 -0.568179 0)
(1.20631 -0.317642 0)
(1.20655 0.186406 0)
(0.813154 0.6874 0)
(0.576336 0.940987 0)
(0.196216 -0.214727 0)
(0.38666 -0.197898 0)
(0.550925 -0.15445 0)
(0.754365 -0.242074 0)
(0.848158 -0.376556 0)
(0.814114 -0.415473 0)
(0.755642 -0.450353 0)
(0.757568 -0.517234 0)
(0.822595 -0.615256 0)
(0.919827 -0.702712 0)
(1.048 -0.76095 0)
(1.19765 -0.689877 0)
(1.31592 -0.657854 0)
(1.3287 -0.641836 0)
(1.31369 -0.569741 0)
(1.21622 -0.352525 0)
(1.18904 0.215074 0)
(0.862388 0.799924 0)
(0.620574 1.11945 0)
(0.251514 0.340253 0)
(0.163195 0.272133 0)
(0.282221 0.150599 0)
(0.643634 0.225843 0)
(0.728589 0.106583 0)
(0.634463 0.00466512 0)
(0.426444 -0.0945371 0)
(0.159734 -0.256175 0)
(0.272604 0.322215 0)
(0.136448 0.261227 0)
(0.0958139 -0.00184487 0)
(0.180684 -0.161325 0)
(0.234088 0.200454 0)
(0.267907 0.155263 0)
(0.322509 0.0863448 0)
(0.313027 0.0409544 0)
(0.30662 0.0811406 0)
(0.312232 0.0230688 0)
(0.335314 -0.0469134 0)
(0.348936 -0.0847622 0)
(0.616219 0.135462 0)
(0.590773 0.0604753 0)
(0.582546 -0.0160817 0)
(0.571796 -0.0975213 0)
(0.788034 0.0282045 0)
(0.814617 -0.0063162 0)
(0.842298 -0.0712789 0)
(0.885638 -0.108561 0)
(0.698433 -0.0612305 0)
(0.714924 -0.0948369 0)
(0.746594 -0.152304 0)
(0.789703 -0.198928 0)
(0.472794 -0.139906 0)
(0.470095 -0.187822 0)
(0.49386 -0.252659 0)
(0.544029 -0.271307 0)
(0.226502 -0.287216 0)
(0.235791 -0.365177 0)
(0.272017 -0.42582 0)
(0.30924 -0.465461 0)
(0.161414 -0.582541 0)
(0.189988 -0.652884 0)
(0.193878 -0.728096 0)
(0.204231 -0.778683 0)
(0.410208 0.348763 0)
(0.376618 0.311684 0)
(0.333225 0.299989 0)
(0.320055 0.204341 0)
(0.553984 -0.73734 0)
(0.567856 -0.720239 0)
(0.582925 -0.694882 0)
(0.6122 -0.682849 0)
(0.126458 -0.084792 0)
(0.114148 -0.111944 0)
(0.1129 -0.138071 0)
(0.111572 -0.189071 0)
(0.0496129 -0.312623 0)
(0.0310825 -0.343627 0)
(0.0145168 -0.362584 0)
(-0.00568897 -0.387816 0)
(-0.0716342 -0.22223 0)
(-0.0804777 -0.244 0)
(-0.0865014 -0.253709 0)
(-0.104638 -0.266844 0)
(-0.128014 -0.210406 0)
(-0.136909 -0.227744 0)
(-0.143483 -0.245023 0)
(-0.157947 -0.259067 0)
(-0.132128 -0.199001 0)
(-0.139067 -0.207744 0)
(-0.145774 -0.21071 0)
(-0.160522 -0.216329 0)
(-0.138307 -0.200491 0)
(-0.147347 -0.203946 0)
(-0.153608 -0.205722 0)
(-0.166556 -0.210771 0)
(0.270809 -0.171529 0)
(0.354582 -0.193286 0)
(0.475581 -0.212687 0)
(0.614098 -0.27234 0)
(0.702007 -0.336623 0)
(0.739608 -0.367354 0)
(0.738645 -0.397963 0)
(0.737485 -0.433344 0)
(0.772226 -0.454513 0)
(0.845699 -0.476958 0)
(0.996197 -0.427588 0)
(1.20688 -0.490374 0)
(1.31679 -0.624436 0)
(1.32676 -0.649777 0)
(1.29518 -0.605318 0)
(1.21136 -0.463068 0)
(1.06736 0.231344 0)
(0.690293 1.07775 0)
(0.629775 1.45333 0)
(0.324435 -0.104144 0)
(0.354133 -0.187171 0)
(0.421885 -0.224103 0)
(0.507705 -0.278611 0)
(0.573313 -0.313632 0)
(0.627149 -0.307391 0)
(0.687049 -0.310998 0)
(0.746404 -0.325805 0)
(0.78931 -0.331905 0)
(0.865908 -0.343864 0)
(1.01897 -0.368479 0)
(1.19264 -0.473978 0)
(1.24677 -0.631927 0)
(1.22711 -0.66147 0)
(1.13562 -0.612321 0)
(0.90273 -0.271421 0)
(0.653044 0.547683 0)
(0.157474 1.60324 0)
(0.424707 1.96467 0)
(0.374027 -0.177456 0)
(0.388905 -0.272492 0)
(0.425593 -0.304739 0)
(0.488301 -0.329014 0)
(0.540073 -0.344233 0)
(0.587813 -0.337266 0)
(0.65554 -0.362985 0)
(0.733013 -0.376895 0)
(0.811331 -0.375825 0)
(0.899669 -0.380208 0)
(1.02574 -0.424616 0)
(1.13282 -0.57206 0)
(1.17015 -0.651723 0)
(1.12162 -0.593718 0)
(0.765764 -0.285101 0)
(0.46854 0.213637 0)
(0.0552062 1.08593 0)
(-0.266476 1.71939 0)
(0.13545 2.08461 0)
(0.59169 -0.186911 0)
(0.619616 -0.258803 0)
(0.637137 -0.314628 0)
(0.660639 -0.356259 0)
(0.670387 -0.370427 0)
(0.692994 -0.387697 0)
(0.739368 -0.427289 0)
(0.796915 -0.451345 0)
(0.855369 -0.470959 0)
(0.945455 -0.519894 0)
(1.06708 -0.607478 0)
(1.16087 -0.703941 0)
(1.15106 -0.674271 0)
(0.862251 -0.392916 0)
(0.290705 0.128493 0)
(-0.0878897 0.805391 0)
(-0.421322 1.28131 0)
(-0.397962 1.56705 0)
(-0.11204 1.90517 0)
(0.877471 -0.204738 0)
(0.899236 -0.320768 0)
(0.941841 -0.360779 0)
(0.962707 -0.370419 0)
(0.9593 -0.372498 0)
(0.955429 -0.398052 0)
(0.957742 -0.438733 0)
(0.961122 -0.473087 0)
(0.989392 -0.52397 0)
(1.06814 -0.614233 0)
(1.15146 -0.734863 0)
(1.16639 -0.816887 0)
(0.983298 -0.643212 0)
(0.190581 0.131402 0)
(-0.301631 0.623359 0)
(-0.477295 1.06807 0)
(-0.553188 1.23991 0)
(-0.463876 1.42282 0)
(-0.181365 1.52043 0)
(0.832655 -0.272475 0)
(0.904224 -0.359391 0)
(0.969589 -0.409822 0)
(1.00686 -0.406064 0)
(1.01354 -0.394919 0)
(1.01742 -0.399463 0)
(1.02163 -0.428127 0)
(1.02658 -0.485137 0)
(1.07015 -0.568958 0)
(1.09691 -0.715602 0)
(1.10661 -0.835047 0)
(1.1458 -0.913931 0)
(0.798704 -0.616155 0)
(-0.434188 0.588161 0)
(-0.72732 0.803399 0)
(-0.612302 1.06044 0)
(-0.549188 1.21143 0)
(-0.420475 1.27048 0)
(-0.14201 1.19388 0)
(0.569509 -0.345559 0)
(0.648322 -0.482612 0)
(0.773464 -0.573939 0)
(0.880925 -0.529844 0)
(0.939024 -0.474204 0)
(0.974981 -0.455758 0)
(1.00138 -0.466013 0)
(1.0332 -0.508108 0)
(1.05566 -0.652431 0)
(1.05266 -0.809508 0)
(1.02824 -0.918142 0)
(1.01974 -0.926314 0)
(-0.0520421 0.123696 0)
(-0.781863 0.691776 0)
(-0.770485 0.705875 0)
(-0.667125 0.94274 0)
(-0.477914 1.10412 0)
(-0.291065 1.08424 0)
(-0.0896445 0.985476 0)
(0.270854 -0.656576 0)
(0.273676 -1.07564 0)
(0.301814 -1.19103 0)
(0.534055 -0.797717 0)
(0.652593 -0.607063 0)
(0.760515 -0.542153 0)
(0.862545 -0.536085 0)
(0.930559 -0.608287 0)
(0.934004 -0.784196 0)
(0.882342 -0.845072 0)
(0.829561 -0.800727 0)
(0.677071 0.00428835 0)
(-0.757742 1.28528 0)
(-0.713903 0.537467 0)
(-0.667617 0.5139 0)
(-0.614486 0.705385 0)
(-0.414203 0.849916 0)
(-0.249117 0.931049 0)
(-0.0313972 0.853607 0)
(0.186129 -0.864724 0)
(0.242122 -0.844662 0)
(0.622818 -2.59267 0)
(0.463577 -1.59148 0)
(0.492829 -0.889611 0)
(0.633933 -0.751067 0)
(0.719014 -0.782156 0)
(0.680833 -0.90951 0)
(0.473812 -0.96709 0)
(0.0318204 -0.941688 0)
(-0.225006 0.143825 0)
(0.196132 1.90243 0)
(-0.28243 2.9398 0)
(-0.704574 0.676979 0)
(-0.573313 0.449539 0)
(-0.506869 0.539674 0)
(-0.427071 0.717407 0)
(-0.301806 0.779418 0)
(-0.010615 0.728876 0)
(0.357533 -0.17997 0)
(0.621142 -0.617966 0)
(0.829881 -0.713891 0)
(1.3744 -1.73799 0)
(1.02682 -1.53287 0)
(0.749701 -1.12888 0)
(0.703618 -1.01718 0)
(0.164374 -1.08274 0)
(-0.38064 -0.334367 0)
(-0.402957 -0.146034 0)
(-0.277911 0.192267 0)
(-0.132365 1.39528 0)
(0.326577 3.68408 0)
(-0.380225 1.40457 0)
(-0.59386 0.420141 0)
(-0.377239 0.353221 0)
(-0.354041 0.477221 0)
(-0.29972 0.596538 0)
(-0.0494156 0.578655 0)
(0.618683 -0.696258 0)
(0.678709 -0.687915 0)
(0.626095 -0.724634 0)
(0.514892 -0.776259 0)
(0.340408 -0.711873 0)
(0.0396206 -0.332011 0)
(-0.302976 -0.252455 0)
(-0.545128 -0.379661 0)
(-0.48714 -0.286197 0)
(-0.453796 -0.22992 0)
(-0.334648 0.0804642 0)
(-0.367662 0.989715 0)
(0.501082 3.52243 0)
(0.0723444 2.05761 0)
(-0.570269 0.612496 0)
(-0.322029 0.219012 0)
(-0.215011 0.227597 0)
(-0.156949 0.349684 0)
(-0.0999602 0.434499 0)
(0.083121 -0.278478 0)
(0.0259944 -0.389012 0)
(-0.13511 -0.507997 0)
(-0.287844 -0.483432 0)
(-0.450191 -0.408359 0)
(-0.494195 -0.436094 0)
(-0.467717 -0.35345 0)
(-0.483159 -0.267848 0)
(-0.519482 -0.256129 0)
(-0.525944 -0.233467 0)
(-0.481938 -0.0353255 0)
(-0.510651 0.765032 0)
(0.408373 3.13742 0)
(0.395303 2.42449 0)
(-0.0617016 1.25577 0)
(-0.304487 0.238738 0)
(-0.0948513 0.126777 0)
(-0.0159259 0.151575 0)
(-0.0947713 0.338303 0)
(-0.0470656 -0.393999 0)
(-0.126046 -0.391451 0)
(-0.231244 -0.372446 0)
(-0.31932 -0.332565 0)
(-0.372472 -0.312571 0)
(-0.436871 -0.265239 0)
(-0.490336 -0.205933 0)
(-0.532657 -0.226478 0)
(-0.54958 -0.221729 0)
(-0.594578 -0.229369 0)
(-0.6333 -0.0922021 0)
(-0.673086 0.508759 0)
(0.0992025 2.48333 0)
(0.522911 2.49073 0)
(0.171209 1.55874 0)
(0.147643 0.48068 0)
(-0.0991788 0.173837 0)
(0.07233 0.107139 0)
(-0.0420685 0.277951 0)
(-0.132983 -0.279853 0)
(-0.190426 -0.309428 0)
(-0.269102 -0.328287 0)
(-0.332712 -0.292063 0)
(-0.39176 -0.275805 0)
(-0.454677 -0.262669 0)
(-0.489923 -0.216432 0)
(-0.51387 -0.18492 0)
(-0.560954 -0.187832 0)
(-0.624085 -0.170942 0)
(-0.70889 -0.0873161 0)
(-0.786003 0.331919 0)
(-0.252285 1.7779 0)
(0.50511 2.45528 0)
(0.264324 1.58811 0)
(0.430005 0.632225 0)
(0.088798 0.289021 0)
(0.0984132 0.148023 0)
(-0.00234461 0.264646 0)
(-0.17731 -0.273412 0)
(-0.217657 -0.284183 0)
(-0.261526 -0.289 0)
(-0.296977 -0.285448 0)
(-0.33206 -0.268796 0)
(-0.377139 -0.240401 0)
(-0.428778 -0.186736 0)
(-0.477868 -0.157785 0)
(-0.533046 -0.124674 0)
(-0.61575 -0.097564 0)
(-0.706075 -0.0280149 0)
(-0.823388 0.246524 0)
(-0.512254 1.20209 0)
(0.28836 2.19105 0)
(0.364207 1.45282 0)
(0.515896 0.756401 0)
(0.122667 0.479329 0)
(0.0683783 0.214425 0)
(0.0238635 0.286046 0)
(-0.181783 -0.219948 0)
(-0.214074 -0.225615 0)
(-0.248733 -0.216605 0)
(-0.287293 -0.196688 0)
(-0.335328 -0.178388 0)
(-0.381715 -0.162096 0)
(-0.420122 -0.132973 0)
(-0.45694 -0.105831 0)
(-0.503888 -0.071519 0)
(-0.572597 -0.022186 0)
(-0.647928 0.0487015 0)
(-0.783799 0.233116 0)
(-0.634117 0.801731 0)
(-0.113004 1.52599 0)
(0.344299 1.19838 0)
(0.408519 0.886842 0)
(0.172629 0.74775 0)
(0.0460901 0.239687 0)
(0.0330366 0.303884 0)
(-0.186606 -0.214366 0)
(-0.212822 -0.220286 0)
(-0.24573 -0.216113 0)
(-0.273853 -0.204641 0)
(-0.306083 -0.181343 0)
(-0.333042 -0.156298 0)
(-0.373886 -0.113255 0)
(-0.410949 -0.0720394 0)
(-0.453023 -0.0256576 0)
(-0.508133 0.0363405 0)
(-0.5522 0.114658 0)
(-0.646186 0.267812 0)
(-0.567378 0.613773 0)
(-0.240743 1.08621 0)
(0.130236 0.983749 0)
(0.3323 0.947527 0)
(0.0811802 0.941351 0)
(0.062666 0.229959 0)
(0.0262433 0.313503 0)
)
;

boundaryField
{
    leftWall
    {
        type            fixedValue;
        value           nonuniform 0();
    }
    rightWall
    {
        type            fixedValue;
        value           uniform (0 0 0);
    }
    lowerWall
    {
        type            fixedValue;
        value           uniform (0 0 0);
    }
    atmosphere
    {
        type            fluxCorrectedVelocity;
        value           nonuniform 0();
    }
    defaultFaces
    {
        type            empty;
    }
    procBoundary1to0
    {
        type            processor;
        value           nonuniform List<vector> 
26
(
(0.10647 0.0227323 0)
(0.128207 0.0653633 0)
(0.149405 0.104826 0)
(0.122302 0.133123 0)
(0.0935205 0.157364 0)
(0.0776689 0.204713 0)
(0.0917139 0.222592 0)
(0.122659 0.307688 0)
(0.129122 0.392284 0)
(0.102595 0.265847 0)
(0.296103 0.291846 0)
(0.634753 0.29414 0)
(0.657652 0.148967 0)
(0.547304 0.0131482 0)
(0.343657 -0.0803838 0)
(0.0241761 -0.290692 0)
(0.119364 -0.544576 0)
(0.119364 -0.544576 0)
(0.455353 0.407273 0)
(0.52386 -0.75334 0)
(0.158219 -0.0649176 0)
(0.0899739 -0.284593 0)
(-0.0722533 -0.190856 0)
(-0.117982 -0.194976 0)
(-0.126784 -0.191426 0)
(-0.135203 -0.198556 0)
)
;
    }
    procBoundary1to3
    {
        type            processor;
        value           nonuniform List<vector> 
23
(
(-0.145295 -0.177841 0)
(-0.151901 -0.176131 0)
(-0.157409 -0.174646 0)
(-0.165184 -0.178219 0)
(-0.18014 -0.178556 0)
(-0.199749 -0.17824 0)
(-0.223603 -0.167964 0)
(-0.257053 -0.149199 0)
(-0.287088 -0.129501 0)
(-0.313317 -0.108257 0)
(-0.345846 -0.0750309 0)
(-0.37359 -0.0376888 0)
(-0.400541 0.0076978 0)
(-0.438802 0.0743369 0)
(-0.451727 0.150456 0)
(-0.502139 0.28284 0)
(-0.414632 0.518506 0)
(-0.22216 0.807528 0)
(-0.0251096 0.770513 0)
(0.332512 0.930048 0)
(-0.127663 1.13233 0)
(0.0784812 0.192043 0)
(0.013056 0.333986 0)
)
;
    }
}


// ************************************************************************* //
