/*--------------------------------*- C++ -*----------------------------------*\
| =========                 |                                                 |
| \\      /  F ield         | OpenFOAM: The Open Source CFD Toolbox           |
|  \\    /   O peration     | Version:  2.4.0                                 |
|   \\  /    A nd           | Web:      www.OpenFOAM.org                      |
|    \\/     M anipulation  |                                                 |
\*---------------------------------------------------------------------------*/
FoamFile
{
    version     2.0;
    format      ascii;
    class       volScalarField;
    location    "0.15";
    object      alpha.water;
}
// * * * * * * * * * * * * * * * * * * * * * * * * * * * * * * * * * * * * * //

dimensions      [0 0 0 0 0 0 0];

internalField   nonuniform List<scalar> 
575
(
2.51248e-19
2.09023e-19
1.61914e-19
1.61524e-19
3.96871e-20
3.19605e-20
2.72864e-20
2.74626e-20
5.18582e-21
4.27534e-21
3.62322e-21
3.57718e-21
5.17873e-22
4.3258e-22
3.57902e-22
3.77949e-22
3.6762e-23
3.29072e-23
2.9834e-23
3.55958e-23
1.96959e-24
1.98294e-24
2.07066e-24
2.80763e-24
9.1846e-26
1.06338e-25
1.2312e-25
1.80854e-25
3.72126e-27
4.82811e-27
6.16562e-27
9.5141e-27
1.22487e-28
1.8418e-28
2.55633e-28
4.16916e-28
3.31128e-30
5.7821e-30
8.84127e-30
1.54317e-29
7.33706e-32
1.50791e-31
2.57537e-31
4.88307e-31
1.35745e-33
3.30251e-33
6.39303e-33
1.33495e-32
2.1237e-35
6.15055e-35
1.36671e-34
3.18266e-34
2.84903e-37
9.85715e-37
2.5411e-36
6.67249e-36
3.3159e-39
1.37445e-38
4.14661e-38
1.23971e-37
3.38388e-41
1.68462e-40
5.98976e-40
2.05608e-39
3.05489e-43
1.83169e-42
7.72026e-42
3.06515e-41
2.45838e-45
1.78158e-44
8.94487e-44
4.13404e-43
1.77356e-47
1.56113e-46
9.37851e-46
5.07496e-45
1.15103e-49
1.23954e-48
8.95025e-48
5.70121e-47
6.7227e-52
8.95392e-51
7.81114e-50
5.88729e-49
3.51824e-54
5.89545e-53
6.25485e-52
5.60517e-51
1.63132e-56
3.53516e-55
4.60351e-54
4.92357e-53
6.49899e-59
1.92033e-57
3.1161e-56
3.98e-55
2.12036e-61
9.37573e-60
1.93354e-58
2.89611e-57
1.82868e-19
2.45607e-19
2.88762e-19
2.63677e-19
1.31052e-19
3.70298e-20
4.96058e-21
3.78311e-22
2.23161e-23
1.2219e-24
6.32874e-26
3.01042e-27
1.27363e-28
4.65083e-30
1.41887e-31
3.46367e-33
6.34132e-35
7.73052e-37
4.24324e-39
3.06913e-20
3.93687e-20
4.44086e-20
3.67763e-20
1.61356e-20
4.02182e-21
4.89207e-22
3.61466e-23
2.14991e-24
1.18583e-25
6.08426e-27
2.82809e-28
1.1586e-29
4.07371e-31
1.19242e-32
2.78666e-34
4.87837e-36
5.68292e-38
2.95047e-40
4.16477e-21
5.38882e-21
5.92469e-21
4.36822e-21
1.74244e-21
3.86385e-22
4.35905e-23
3.16159e-24
1.90004e-25
1.05211e-26
5.33849e-28
2.42612e-29
9.64224e-31
3.27246e-32
9.21513e-34
2.06735e-35
3.46978e-37
3.87142e-39
1.9046e-41
4.80372e-22
6.3307e-22
6.69412e-22
4.49198e-22
1.64831e-22
3.29788e-23
3.51755e-24
2.53075e-25
1.5382e-26
8.53138e-28
4.27859e-29
1.90302e-30
7.35169e-32
2.41408e-33
6.55612e-35
1.41543e-36
2.28284e-38
2.44444e-40
1.14205e-42
4.76029e-23
6.20374e-23
6.32805e-23
4.0502e-23
1.36235e-23
2.51387e-24
2.57442e-25
1.85345e-26
1.13962e-27
6.32342e-29
3.13517e-30
1.36662e-31
5.14219e-33
1.63748e-34
4.29885e-36
8.95186e-38
1.39033e-39
1.43166e-41
6.36144e-44
3.99963e-24
5.11074e-24
5.11521e-24
3.18358e-24
9.87814e-25
1.71677e-25
1.71132e-26
1.24168e-27
7.72395e-29
4.28621e-30
2.10265e-31
8.99696e-33
3.30409e-34
1.0226e-35
2.60094e-37
5.23535e-39
7.84569e-41
7.78334e-43
3.2926e-45
2.7382e-25
3.57614e-25
3.60001e-25
2.17233e-25
6.33174e-26
1.05265e-26
1.03494e-27
7.60871e-29
4.7898e-30
2.65917e-31
1.29228e-32
5.43752e-34
1.95306e-35
5.8875e-37
1.45384e-38
2.83437e-40
4.106e-42
3.93058e-44
1.58475e-46
1.53308e-26
2.15609e-26
2.20871e-26
1.2927e-26
3.60902e-27
5.81271e-28
5.70416e-29
4.26628e-30
2.71946e-31
1.5117e-32
7.28868e-34
3.02148e-35
1.06362e-36
3.1294e-38
7.51753e-40
1.42218e-41
1.99491e-43
1.84545e-45
7.09944e-48
7.18816e-28
1.12549e-27
1.18101e-27
6.75712e-28
1.83674e-28
2.90119e-29
2.87041e-30
2.1908e-31
1.41522e-32
7.88626e-34
3.77875e-35
1.54624e-36
5.34519e-38
1.53802e-39
3.60103e-41
6.6222e-43
9.00871e-45
8.06441e-47
2.96327e-49
2.8791e-29
5.10216e-29
5.52167e-29
3.12354e-29
8.37869e-30
1.3136e-30
1.32124e-31
1.03168e-32
6.76092e-34
3.78198e-35
1.80405e-36
7.30064e-38
2.48322e-39
7.00096e-41
1.60048e-42
2.86573e-44
3.78637e-46
3.28411e-48
1.15377e-50
9.97687e-31
2.01689e-30
2.26953e-30
1.28463e-30
3.44071e-31
5.41492e-32
5.57447e-33
4.46295e-34
2.97064e-35
1.67066e-36
7.9476e-38
3.18673e-39
1.0685e-40
2.95693e-42
6.61143e-44
1.15441e-45
1.48343e-47
1.24813e-49
4.19635e-52
3.01773e-32
6.99067e-32
8.25152e-32
4.72741e-32
1.27788e-32
2.03949e-33
2.16086e-34
1.77725e-35
1.20314e-36
6.8135e-38
3.23814e-39
1.28879e-40
4.26736e-42
1.16114e-43
2.54325e-45
4.33664e-47
5.42671e-49
4.43413e-51
1.42797e-53
8.02733e-34
2.13807e-33
2.67102e-33
1.56547e-33
4.31338e-34
7.04429e-35
7.71619e-36
6.53129e-37
4.50307e-38
2.57198e-39
1.22322e-40
4.84083e-42
1.5855e-43
4.24857e-45
9.12938e-47
1.52226e-48
1.85722e-50
1.47524e-52
4.5545e-55
1.89129e-35
5.80951e-35
7.74885e-35
4.6919e-35
1.32981e-35
2.23969e-36
2.54583e-37
2.22125e-38
1.5619e-39
9.01143e-41
4.29582e-42
1.69315e-43
5.49405e-45
1.45198e-46
3.06517e-48
5.00408e-50
5.95898e-52
4.6059e-54
1.36432e-56
3.97444e-37
1.41226e-36
2.02829e-36
1.28027e-36
3.76378e-37
6.58113e-38
7.78643e-39
7.01321e-40
5.03622e-41
2.93951e-42
1.4067e-43
5.53024e-45
1.78043e-46
4.64712e-48
9.64998e-50
1.54425e-51
1.79672e-53
1.35256e-55
3.84699e-58
7.50144e-39
3.09349e-38
4.82281e-38
3.19988e-38
9.83072e-39
1.79468e-39
2.21568e-40
2.06286e-41
1.51477e-42
8.95671e-44
4.30886e-45
1.69202e-46
5.41191e-48
1.39684e-49
2.85662e-51
4.48563e-53
5.10405e-55
3.7453e-57
1.02361e-59
1.28046e-40
6.15015e-40
1.0489e-39
7.37102e-40
2.38229e-40
4.56214e-41
5.88909e-42
5.67417e-43
4.26556e-44
2.55836e-45
1.23886e-46
4.86543e-48
1.54796e-49
3.95546e-51
7.97497e-53
1.22999e-54
1.36992e-56
9.80614e-59
2.57714e-61
1.99031e-42
1.11792e-41
2.1011e-41
1.57479e-41
5.38565e-42
1.08608e-42
1.46826e-43
1.4655e-44
1.12904e-45
6.87657e-47
3.35565e-48
1.31956e-49
4.18063e-51
1.05869e-52
2.10646e-54
3.1938e-56
3.48458e-58
2.43497e-60
6.15768e-63
2.83623e-44
1.87172e-43
3.90396e-43
3.14061e-43
1.14226e-43
2.43326e-44
3.44937e-45
3.56955e-46
2.82083e-47
1.74638e-48
8.59664e-50
3.38825e-51
1.07e-52
2.68786e-54
5.28229e-56
7.87956e-58
8.42762e-60
5.7527e-62
1.40074e-64
3.72978e-46
2.90835e-45
6.77668e-45
5.88508e-45
2.2861e-45
5.15679e-46
7.67256e-47
8.23731e-48
6.68196e-49
4.20847e-50
2.09156e-51
8.26971e-53
2.60534e-54
6.49739e-56
1.26218e-57
1.85369e-59
1.94482e-61
1.29757e-63
3.04396e-66
4.55493e-48
4.22613e-47
1.10699e-46
1.04313e-46
4.34324e-47
1.03933e-47
1.62402e-48
1.80968e-49
1.5077e-50
9.6666e-52
4.85386e-53
1.92662e-54
6.05973e-56
1.50136e-57
2.8849e-59
4.17398e-61
4.29819e-63
2.80452e-65
6.34208e-68
5.19586e-50
5.78755e-49
1.71435e-48
1.76086e-48
7.88065e-49
2.00315e-49
3.28825e-50
3.804e-51
3.25616e-52
2.12623e-53
1.07927e-54
4.30314e-56
1.35204e-57
3.32997e-59
6.33286e-61
9.03157e-63
9.13299e-65
5.83069e-67
1.27172e-69
5.56364e-52
7.52878e-51
2.53618e-50
2.85053e-50
1.37425e-50
3.71333e-51
6.40375e-52
7.69102e-53
6.76504e-54
4.50034e-55
2.31014e-56
9.25618e-58
2.90659e-59
7.11973e-61
1.34074e-62
1.88561e-64
1.87329e-66
1.17067e-68
2.46386e-71
5.6152e-54
9.37687e-53
3.61056e-52
4.45446e-52
2.31667e-52
6.65638e-53
1.20565e-53
1.50304e-54
1.35859e-55
9.20888e-57
4.78189e-58
1.92615e-59
6.04741e-61
1.4739e-62
2.74956e-64
3.81508e-66
3.72516e-68
2.27965e-70
4.63214e-73
5.30672e-56
1.12764e-54
4.9945e-54
6.78089e-54
3.8067e-54
1.16254e-54
2.20976e-55
2.85757e-56
2.653e-57
1.83183e-58
9.62123e-60
3.89606e-61
1.22314e-62
2.96662e-64
5.48353e-66
7.50816e-68
7.20746e-70
4.32015e-72
8.47846e-75
)
;

boundaryField
{
    leftWall
    {
        type            zeroGradient;
    }
    rightWall
    {
        type            zeroGradient;
    }
    lowerWall
    {
        type            zeroGradient;
    }
    atmosphere
    {
        type            inletOutlet;
        inletValue      uniform 0;
        value           nonuniform List<scalar> 
23
(
2.12036e-61
9.37573e-60
1.93354e-58
2.89611e-57
5.30672e-56
1.12764e-54
4.9945e-54
6.78089e-54
3.8067e-54
1.16254e-54
2.20976e-55
2.85757e-56
2.653e-57
1.83183e-58
9.62123e-60
3.89606e-61
1.22314e-62
2.96662e-64
5.48353e-66
7.50816e-68
7.20746e-70
4.32015e-72
8.47846e-75
)
;
    }
    defaultFaces
    {
        type            empty;
    }
    procBoundary3to1
    {
        type            processor;
        value           nonuniform List<scalar> 
23
(
1.42527e-18
1.32199e-18
8.20913e-19
7.94531e-19
8.81114e-19
1.28009e-18
1.62235e-18
1.61067e-18
9.29129e-19
3.00704e-19
4.53019e-20
3.62418e-21
2.12912e-22
1.15199e-23
6.00406e-25
2.92231e-26
1.27896e-27
4.86285e-29
1.55071e-30
3.96624e-32
7.61615e-34
9.74364e-36
5.66491e-38
)
;
    }
    procBoundary3to2
    {
        type            processor;
        value           nonuniform List<scalar> 
25
(
1.68e-19
3.31568e-20
4.58867e-21
4.13512e-22
2.36723e-23
1.03348e-24
3.76811e-26
1.10242e-27
2.95534e-29
6.66596e-31
1.2371e-32
1.91567e-34
2.50273e-36
2.79529e-38
2.69804e-40
2.27222e-42
1.68197e-44
1.10031e-46
6.37634e-49
3.26759e-51
1.46876e-53
5.6768e-56
1.80874e-58
4.21465e-61
5.12438e-64
)
;
    }
}


// ************************************************************************* //
