/*--------------------------------*- C++ -*----------------------------------*\
| =========                 |                                                 |
| \\      /  F ield         | OpenFOAM: The Open Source CFD Toolbox           |
|  \\    /   O peration     | Version:  2.4.0                                 |
|   \\  /    A nd           | Web:      www.OpenFOAM.org                      |
|    \\/     M anipulation  |                                                 |
\*---------------------------------------------------------------------------*/
FoamFile
{
    version     2.0;
    format      ascii;
    class       volScalarField;
    location    "0.15";
    object      alpha.mercury;
}
// * * * * * * * * * * * * * * * * * * * * * * * * * * * * * * * * * * * * * //

dimensions      [0 0 0 0 0 0 0];

internalField   nonuniform List<scalar> 
575
(
1.18736e-22
2.18782e-22
3.86367e-22
6.50664e-22
2.04945e-23
3.7482e-23
6.60706e-23
1.09104e-22
2.58288e-24
4.8407e-24
8.4489e-24
1.38937e-23
2.30898e-25
4.48518e-25
8.09928e-25
1.45376e-24
1.49974e-26
3.25337e-26
6.6902e-26
1.3486e-25
7.69102e-28
1.95378e-27
4.66804e-27
1.04675e-26
3.50703e-29
1.0305e-28
2.74094e-28
6.61206e-28
1.3732e-30
4.52853e-30
1.33053e-29
3.41266e-29
4.40892e-32
1.64983e-31
5.3174e-31
1.47347e-30
1.17095e-33
4.96283e-33
1.7777e-32
5.40826e-32
2.59199e-35
1.25445e-34
5.04512e-34
1.70869e-33
4.87666e-37
2.70566e-36
1.23256e-35
4.6934e-35
7.90028e-39
5.04651e-38
2.6208e-37
1.13016e-36
1.11473e-40
8.22564e-40
4.89391e-39
2.40286e-38
1.38091e-42
1.18122e-41
8.08542e-41
4.54029e-40
1.51078e-44
1.504e-43
1.1893e-42
7.66999e-42
1.46509e-46
1.70593e-45
1.56564e-44
1.16479e-43
1.26168e-48
1.72949e-47
1.85244e-46
1.59801e-45
9.64214e-51
1.56964e-49
1.97597e-48
1.98895e-47
6.5148e-53
1.27457e-51
1.90324e-50
2.25311e-49
3.8593e-55
9.22648e-54
1.65441e-52
2.3272e-51
1.9733e-57
5.90571e-56
1.29315e-54
2.19067e-53
8.47492e-60
3.29211e-58
9.01185e-57
1.87148e-55
2.89567e-62
1.55573e-60
5.5156e-59
1.43746e-57
7.19354e-65
5.90433e-63
2.84039e-61
9.5138e-60
1.03929e-21
2.19498e-21
4.04515e-21
6.43126e-21
7.22964e-21
5.84217e-21
2.63618e-21
5.99535e-22
7.70886e-23
7.20555e-24
5.57908e-25
3.68244e-26
2.0604e-27
9.62038e-29
3.66253e-30
1.09687e-31
2.4362e-33
3.5822e-35
2.36141e-37
1.69313e-22
3.52103e-22
6.41506e-22
9.6275e-22
1.00543e-21
7.34019e-22
2.93409e-22
6.07364e-23
7.47104e-24
6.8342e-25
5.16397e-26
3.30035e-27
1.77701e-28
7.95377e-30
2.89627e-31
8.28633e-33
1.75749e-34
2.46761e-36
1.53804e-38
2.24979e-23
4.84936e-23
8.81599e-23
1.23687e-22
1.22655e-22
8.09788e-23
2.90873e-23
5.55941e-24
6.59431e-25
5.91112e-26
4.36158e-27
2.70388e-28
1.4046e-29
6.04435e-31
2.1114e-32
5.78736e-34
1.17524e-35
1.57908e-37
9.32073e-40
2.56159e-24
5.73341e-24
1.02896e-23
1.38363e-23
1.30955e-23
7.87074e-24
2.57583e-24
4.60587e-25
5.30364e-26
4.66569e-27
3.36569e-28
2.02784e-29
1.01891e-30
4.22704e-32
1.42033e-33
3.73938e-35
7.28717e-37
9.38746e-39
5.25823e-41
2.49153e-25
5.64843e-25
1.01215e-24
1.36104e-24
1.21948e-24
6.7693e-25
2.0422e-25
3.45932e-26
3.88894e-27
3.3634e-28
2.37574e-29
1.39408e-30
6.79219e-32
2.72357e-33
8.825e-35
2.23693e-36
4.19221e-38
5.18801e-40
2.76137e-42
2.044e-26
4.68079e-26
8.56686e-26
1.16912e-25
9.93401e-26
5.16528e-26
1.4531e-26
2.35879e-27
2.60163e-28
2.21653e-29
1.5359e-30
8.79701e-32
4.16616e-33
1.6187e-34
5.06987e-36
1.24002e-37
2.23933e-39
2.66697e-41
1.35015e-43
1.36977e-27
3.30325e-27
6.33477e-27
8.72863e-27
7.12408e-27
3.50353e-27
9.3047e-28
1.46218e-28
1.58935e-29
1.33687e-30
9.10632e-32
5.10244e-33
2.35448e-34
8.8849e-36
2.69592e-37
6.37574e-39
1.11153e-40
1.27598e-42
6.15028e-45
7.57387e-29
2.01336e-28
4.09192e-28
5.68574e-28
4.51924e-28
2.1188e-28
5.37738e-29
8.25261e-30
8.87702e-31
7.38916e-32
4.95868e-33
2.72428e-34
1.2277e-35
4.50977e-37
1.32846e-38
3.04372e-40
5.1314e-42
5.68603e-44
2.61224e-46
3.54241e-30
1.06438e-29
2.30699e-29
3.25108e-29
2.54416e-29
1.14682e-29
2.81296e-30
4.24845e-31
4.5397e-32
3.74852e-33
2.48384e-34
1.34104e-35
5.91531e-37
2.11971e-38
6.07403e-40
1.35067e-41
2.20553e-43
2.36227e-45
1.03544e-47
1.42752e-31
4.89373e-31
1.13837e-30
1.64093e-30
1.27518e-30
5.57746e-31
1.3358e-31
1.99891e-32
2.12938e-33
1.74842e-34
1.14652e-35
6.09662e-37
2.63791e-38
9.24016e-40
2.58051e-41
5.5787e-43
8.83642e-45
9.1599e-47
3.83445e-49
5.00916e-33
1.96457e-32
4.93953e-32
7.34723e-32
5.7123e-32
2.44701e-32
5.77554e-33
8.61483e-34
9.17928e-35
7.51288e-36
4.88631e-37
2.56457e-38
1.09072e-39
3.7419e-41
1.02027e-42
2.1478e-44
3.30465e-46
3.31939e-48
1.32828e-50
1.54129e-34
6.92295e-34
1.89489e-33
2.93207e-33
2.29688e-33
9.72406e-34
2.2807e-34
3.40922e-35
3.64474e-36
2.98057e-37
1.92687e-38
1.00025e-39
4.18971e-41
1.41032e-42
3.76069e-44
7.7205e-46
1.15541e-47
1.12584e-49
4.31038e-52
4.18365e-36
2.15438e-35
6.46268e-35
1.04793e-34
8.32838e-35
3.51452e-35
8.25272e-36
1.24219e-36
1.33633e-37
1.0944e-38
7.04711e-40
3.62533e-41
1.49832e-42
4.95722e-44
1.29479e-45
2.59591e-47
3.78335e-49
3.58003e-51
1.31252e-53
1.00772e-37
5.95801e-37
1.97088e-36
3.37126e-36
2.73639e-36
1.16022e-36
2.7459e-37
4.17956e-38
4.53676e-39
3.72897e-40
2.39647e-41
1.22405e-42
5.00029e-44
1.62866e-45
4.17294e-47
8.18119e-49
1.16252e-50
1.06934e-52
3.75735e-55
2.16683e-39
1.4737e-38
5.40593e-38
9.814e-38
8.18791e-38
3.51389e-38
8.43203e-39
1.3028e-39
1.43046e-40
1.18251e-41
7.59883e-43
3.86038e-44
1.56124e-45
5.01371e-47
1.26189e-48
2.42221e-50
3.35943e-52
3.00671e-54
1.01334e-56
4.1839e-41
3.28125e-40
1.34168e-39
2.59954e-39
2.24289e-39
9.80838e-40
2.39901e-40
3.77523e-41
4.20273e-42
3.50094e-43
2.25346e-44
1.14051e-45
4.57343e-47
1.45008e-48
3.58972e-50
6.75399e-52
9.15209e-54
7.97706e-56
2.58072e-58
7.29714e-43
6.61895e-42
3.03161e-41
6.30152e-41
5.65487e-41
2.53534e-41
6.35012e-42
1.02083e-42
1.15465e-43
9.70977e-45
6.27047e-46
3.16645e-47
1.26074e-48
3.95179e-50
9.63342e-52
1.77848e-53
2.3568e-55
2.00218e-57
6.22249e-60
1.15612e-44
1.21747e-43
6.27612e-43
1.40634e-42
1.3196e-42
6.09898e-43
1.57064e-43
2.58616e-44
2.97776e-45
2.53198e-46
1.64293e-47
8.28925e-49
3.28118e-50
1.01796e-51
2.44629e-53
4.43575e-55
5.75347e-57
4.76767e-59
1.42444e-61
1.67294e-46
2.05522e-45
1.19821e-44
2.90751e-44
2.86659e-44
1.37245e-44
3.64689e-45
6.16452e-46
7.23783e-47
6.232e-48
4.06849e-49
2.05349e-50
8.09043e-52
2.48697e-53
5.89746e-55
1.05123e-56
1.33567e-58
1.08041e-60
3.10529e-63
2.22203e-48
3.20471e-47
2.12377e-46
5.60441e-46
5.83158e-46
2.90458e-46
7.98763e-47
1.38882e-47
1.66522e-48
1.45377e-49
9.56008e-51
4.83241e-52
1.89696e-53
5.78322e-55
1.35447e-56
2.37537e-58
2.95861e-60
2.33765e-62
6.46783e-65
2.72077e-50
4.64557e-49
3.51895e-48
1.01389e-47
1.11781e-47
5.8133e-48
1.65867e-48
2.97137e-49
3.64283e-50
3.22811e-51
2.1405e-52
1.08462e-53
4.24601e-55
1.28493e-56
2.97462e-58
5.13611e-60
6.27533e-62
4.84624e-64
1.29158e-66
3.08134e-52
6.30027e-51
5.48946e-50
1.73331e-49
2.03169e-49
1.10662e-49
3.28267e-50
6.06689e-51
7.6129e-52
6.85388e-53
4.58648e-54
2.33165e-55
9.10993e-57
2.73856e-58
6.27095e-60
1.06675e-61
1.2793e-63
9.66204e-66
2.48191e-68
3.23242e-54
8.04241e-53
8.12117e-52
2.81995e-51
3.52438e-51
2.01555e-51
6.22585e-52
1.18828e-52
1.52737e-53
1.39802e-54
9.44776e-56
4.82195e-57
1.88151e-58
5.62206e-60
1.27417e-61
2.13663e-63
2.51641e-65
1.85964e-67
4.6067e-70
3.13996e-56
9.72386e-55
1.14784e-53
4.39608e-53
5.87132e-53
3.53208e-53
1.1374e-53
2.24354e-54
2.95566e-55
2.75205e-56
1.8793e-57
9.63511e-59
3.7569e-60
1.11649e-61
2.50585e-63
4.14444e-65
4.79605e-67
3.46973e-69
8.29383e-72
2.75739e-58
1.11335e-56
1.56171e-55
6.62448e-55
9.47196e-55
6.0009e-55
2.01546e-55
4.10918e-56
5.54891e-57
5.25644e-58
3.62772e-59
1.8688e-60
7.2836e-62
2.1535e-63
4.78803e-65
7.81315e-67
8.88741e-69
6.29639e-71
1.45297e-73
)
;

boundaryField
{
    leftWall
    {
        type            zeroGradient;
    }
    rightWall
    {
        type            zeroGradient;
    }
    lowerWall
    {
        type            zeroGradient;
    }
    atmosphere
    {
        type            inletOutlet;
        inletValue      uniform 0;
        value           nonuniform List<scalar> 
23
(
7.19354e-65
5.90433e-63
2.84039e-61
9.5138e-60
2.75739e-58
1.11335e-56
1.56171e-55
6.62448e-55
9.47196e-55
6.0009e-55
2.01546e-55
4.10918e-56
5.54891e-57
5.25644e-58
3.62772e-59
1.8688e-60
7.2836e-62
2.1535e-63
4.78803e-65
7.81315e-67
8.88741e-69
6.29639e-71
1.45297e-73
)
;
    }
    defaultFaces
    {
        type            empty;
    }
    procBoundary3to1
    {
        type            processor;
        value           nonuniform List<scalar> 
23
(
5.08216e-22
9.89778e-22
1.80291e-21
3.11542e-21
5.14012e-21
1.14925e-20
2.20667e-20
3.68591e-20
4.54588e-20
4.07554e-20
2.10219e-20
5.33557e-21
7.24024e-22
6.92381e-23
5.49319e-24
3.75015e-25
2.18624e-26
1.06823e-27
4.26547e-29
1.34139e-30
3.12881e-32
4.83072e-34
3.37331e-36
)
;
    }
    procBoundary3to2
    {
        type            processor;
        value           nonuniform List<scalar> 
25
(
3.57892e-23
6.53814e-24
7.89348e-25
6.21081e-26
3.35546e-27
1.44737e-28
5.49173e-30
1.76162e-31
4.87087e-33
1.12425e-34
2.16092e-36
3.52425e-38
4.93352e-40
5.99166e-42
6.35712e-44
5.92026e-46
4.84846e-48
3.48965e-50
2.1979e-52
1.20013e-54
5.58383e-57
2.14476e-59
6.41448e-62
1.29334e-64
1.20513e-67
)
;
    }
}


// ************************************************************************* //
