/*--------------------------------*- C++ -*----------------------------------*\
| =========                 |                                                 |
| \\      /  F ield         | OpenFOAM: The Open Source CFD Toolbox           |
|  \\    /   O peration     | Version:  2.4.0                                 |
|   \\  /    A nd           | Web:      www.OpenFOAM.org                      |
|    \\/     M anipulation  |                                                 |
\*---------------------------------------------------------------------------*/
FoamFile
{
    version     2.0;
    format      ascii;
    class       volScalarField;
    location    "0.15";
    object      alpha.oil;
}
// * * * * * * * * * * * * * * * * * * * * * * * * * * * * * * * * * * * * * //

dimensions      [0 0 0 0 0 0 0];

internalField   nonuniform List<scalar> 
575
(
1.93144e-07
1.35381e-07
8.19128e-08
4.94417e-08
6.86153e-08
4.59814e-08
2.93356e-08
1.86078e-08
2.76138e-08
1.3464e-08
8.81508e-09
5.71004e-09
1.78241e-08
3.99349e-09
2.14265e-09
1.47349e-09
1.14491e-08
1.71243e-09
4.50363e-10
3.36905e-10
1.53272e-09
2.94834e-10
7.85361e-11
6.34952e-11
1.9125e-10
6.52504e-11
1.13637e-11
9.54999e-12
6.3465e-11
1.20169e-11
1.35536e-12
1.13564e-12
1.43428e-11
2.55828e-12
1.37793e-13
1.07949e-13
2.11318e-12
4.74243e-13
1.30937e-14
8.30068e-15
2.00143e-13
5.96712e-14
1.22209e-15
5.22806e-16
1.29494e-14
5.0825e-15
1.05565e-16
2.73056e-17
6.04694e-16
3.08815e-16
7.73788e-18
1.19676e-18
2.13489e-17
1.40574e-17
4.61245e-19
4.45171e-20
5.90891e-19
4.98534e-19
2.22382e-20
1.42089e-21
1.32094e-20
1.42174e-20
8.76968e-22
3.93278e-23
2.44429e-22
3.34705e-22
2.8761e-23
9.53651e-25
3.8238e-24
6.65516e-24
7.98557e-25
2.04595e-26
5.14918e-26
1.14067e-25
1.91038e-26
3.9201e-28
6.06093e-28
1.71716e-27
4.00533e-28
6.76779e-30
6.3147e-30
2.31046e-29
7.48223e-30
1.06146e-31
5.87377e-32
2.82483e-31
1.2658e-31
1.52339e-33
4.89448e-34
3.18863e-33
1.9713e-33
2.0123e-35
3.60733e-36
3.37201e-35
2.87364e-35
2.45564e-37
2.30019e-38
3.43296e-37
4.02126e-37
2.75076e-39
3.21037e-08
3.06906e-09
8.74911e-11
1.3986e-11
2.80988e-12
3.5452e-13
6.13154e-14
4.00173e-14
4.5397e-14
1.07296e-14
1.68951e-15
1.97104e-16
1.77351e-17
1.24784e-18
6.84123e-20
2.86034e-21
8.69442e-23
1.73156e-24
1.54168e-26
1.22737e-08
1.39467e-09
5.3939e-11
7.35881e-12
1.2194e-12
1.28683e-13
1.64829e-14
5.75392e-15
5.08445e-15
1.13043e-15
1.69262e-16
1.88053e-17
1.6112e-18
1.07943e-19
5.63641e-21
2.24553e-22
6.50768e-24
1.23619e-25
1.03978e-27
3.88795e-09
5.22751e-10
2.58584e-11
2.9905e-12
4.2493e-13
3.91885e-14
4.11601e-15
8.53382e-16
5.25961e-16
1.092e-16
1.55527e-17
1.64966e-18
1.35022e-19
8.64251e-21
4.31215e-22
1.64193e-23
4.54904e-25
8.26025e-27
6.57453e-29
1.06402e-09
1.61428e-10
9.4374e-12
9.64165e-13
1.2066e-13
1.00592e-14
9.19717e-16
1.29515e-16
5.12051e-17
9.75571e-18
1.31738e-18
1.33522e-19
1.04643e-20
6.417e-22
3.0678e-23
1.11932e-24
2.97151e-26
5.16751e-28
3.90004e-30
2.53853e-10
4.0045e-11
2.61444e-12
2.52056e-13
2.81788e-14
2.19145e-15
1.80931e-16
1.9432e-17
4.8091e-18
8.15954e-19
1.03582e-19
1.00169e-20
7.52459e-22
4.42922e-23
2.03334e-24
7.12436e-26
1.81585e-27
3.02987e-29
2.17125e-31
5.0799e-11
7.96147e-12
5.69016e-13
5.37324e-14
5.47686e-15
4.07471e-16
3.11624e-17
2.77553e-18
4.46882e-19
6.4946e-20
7.63211e-21
7.00742e-22
5.04145e-23
2.85096e-24
1.25864e-25
4.24201e-27
1.03975e-28
1.66715e-30
1.13532e-32
8.03583e-12
1.27468e-12
1.0043e-13
9.39143e-15
8.9743e-16
6.4978e-17
4.69658e-18
3.67119e-19
4.16884e-20
5.0125e-21
5.33454e-22
4.6075e-23
3.16448e-24
1.71817e-25
7.29868e-27
2.3686e-28
5.58952e-30
8.62156e-32
5.5838e-34
9.95948e-13
1.67102e-13
1.45629e-14
1.36172e-15
1.25234e-16
8.93584e-18
6.20535e-19
4.42349e-20
3.88486e-21
3.81151e-22
3.58695e-23
2.87539e-24
1.87369e-25
9.74385e-27
3.98016e-28
1.24399e-29
2.82792e-31
4.1988e-33
2.58784e-35
9.87102e-14
1.81375e-14
1.75005e-15
1.65929e-16
1.49981e-17
1.06605e-18
7.20916e-20
4.81445e-21
3.54216e-22
2.87391e-23
2.35054e-24
1.72174e-25
1.05498e-26
5.23113e-28
2.05056e-29
6.16775e-31
1.35049e-32
1.93047e-34
1.13258e-36
7.9892e-15
1.64488e-15
1.76072e-16
1.71874e-17
1.55213e-18
1.10977e-19
7.39106e-21
4.71629e-22
3.08327e-23
2.13577e-24
1.51302e-25
9.99258e-27
5.69733e-28
2.67663e-29
1.00336e-30
2.89901e-32
6.10845e-34
8.403e-36
4.69237e-38
5.36317e-16
1.25771e-16
1.49929e-17
1.52839e-18
1.39751e-19
1.01391e-20
6.714e-22
4.15567e-23
2.51249e-24
1.54144e-25
9.56563e-27
5.65992e-28
2.97428e-29
1.31427e-30
4.68919e-32
1.29772e-33
2.62684e-35
3.47392e-37
1.84547e-39
3.0228e-17
8.18515e-18
1.09202e-18
1.1771e-19
1.10218e-20
8.17593e-22
5.42753e-23
3.29738e-24
1.89328e-25
1.06268e-26
5.89577e-28
3.13394e-29
1.50919e-30
6.23016e-32
2.10458e-33
5.55838e-35
1.07824e-36
1.36861e-38
6.9102e-41
1.44609e-18
4.5772e-19
6.8719e-20
7.91587e-21
7.66504e-22
5.85217e-23
3.92258e-24
2.36153e-25
1.31109e-26
6.90497e-28
3.50338e-29
1.69028e-30
7.45737e-32
2.86319e-33
9.11321e-35
2.2879e-36
4.24088e-38
5.15575e-40
2.47087e-42
5.93342e-20
2.22005e-20
3.77158e-21
4.68477e-22
4.73139e-23
3.7396e-24
2.54676e-25
1.53135e-26
8.32566e-28
4.19189e-29
1.98534e-30
8.81844e-32
3.58234e-33
1.27784e-34
3.81942e-36
9.08246e-38
1.60386e-39
1.86317e-41
8.46187e-44
2.10943e-21
9.42497e-22
1.82168e-22
2.45861e-23
2.6092e-24
2.14575e-25
1.49291e-26
9.02466e-28
4.8502e-29
2.36682e-30
1.06409e-31
4.41597e-33
1.6659e-34
5.53416e-36
1.55158e-37
3.48602e-39
5.84902e-41
6.47758e-43
2.78313e-45
6.56345e-23
3.53366e-23
7.81056e-24
1.15279e-24
1.29389e-25
1.11208e-26
7.94262e-28
4.85372e-29
2.59739e-30
1.24104e-31
5.36637e-33
2.10869e-34
7.46117e-36
2.32012e-37
6.10849e-39
1.29536e-40
2.06117e-42
2.17179e-44
8.81305e-47
1.80512e-24
1.18034e-24
2.99779e-25
4.86506e-26
5.80776e-27
5.23719e-28
3.85583e-29
2.39319e-30
1.28259e-31
6.04722e-33
2.54052e-34
9.55884e-36
3.20363e-37
9.38617e-39
2.32778e-40
4.66147e-42
7.02808e-44
7.03553e-46
2.69267e-48
4.43139e-26
3.54332e-26
1.03852e-26
1.86175e-27
2.37528e-28
2.25488e-29
1.71754e-30
1.08704e-31
5.86208e-33
2.74397e-34
1.12881e-35
4.10394e-37
1.31441e-38
3.65377e-40
8.57199e-42
1.62403e-43
2.32049e-45
2.20542e-47
7.95281e-50
9.80483e-28
9.64277e-28
3.27407e-28
6.5085e-29
8.91118e-30
8.93142e-31
7.06017e-32
4.57192e-33
2.49053e-34
1.16302e-35
4.71374e-37
1.66805e-38
5.14431e-40
1.36584e-41
3.04598e-43
5.47507e-45
7.42234e-47
6.69767e-49
2.27441e-51
1.97415e-29
2.39981e-29
9.47056e-30
2.09422e-30
3.08771e-31
3.27535e-32
2.69401e-33
1.79002e-34
9.88184e-36
4.6217e-37
1.85455e-38
6.4251e-40
1.92016e-41
4.89874e-43
1.04357e-44
1.7856e-46
2.30093e-48
1.97273e-50
6.30842e-53
3.65179e-31
5.51021e-31
2.53432e-31
6.24942e-32
9.9503e-33
1.11933e-33
9.60017e-35
6.56035e-36
3.68002e-37
1.7293e-38
6.89708e-40
2.35039e-41
6.84246e-43
1.6862e-44
3.44712e-46
5.63451e-48
6.91741e-50
5.64206e-52
1.69977e-54
6.26521e-33
1.17781e-32
6.32658e-33
1.74291e-33
3.00329e-34
3.58827e-35
3.21458e-36
2.2635e-37
1.29296e-38
6.12049e-40
2.43396e-41
8.18972e-43
2.33252e-44
5.57723e-46
1.09874e-47
1.72164e-49
2.01885e-51
1.56905e-53
4.45707e-56
1.00638e-34
2.36531e-34
1.48591e-34
4.57865e-35
8.55189e-36
1.08639e-36
1.01787e-37
7.39582e-39
4.30939e-40
2.0592e-41
8.18584e-43
2.7279e-44
7.62776e-46
1.77634e-47
3.38479e-49
5.10093e-51
5.72808e-53
4.24993e-55
1.13958e-57
1.52747e-36
4.50324e-36
3.3103e-36
1.14139e-36
2.31283e-37
3.12587e-38
3.06556e-39
2.301e-40
1.36949e-41
6.617e-43
2.63498e-44
8.71889e-46
2.40065e-47
5.46263e-49
1.01009e-50
1.4685e-52
1.58327e-54
1.12364e-56
2.84804e-59
2.21235e-38
8.22731e-38
7.07549e-38
2.72858e-38
5.99827e-39
8.62357e-40
8.85337e-41
6.86734e-42
4.17767e-43
2.04312e-44
8.16146e-46
2.68631e-47
7.29929e-49
1.627e-50
2.92717e-52
4.11598e-54
4.27056e-56
2.90446e-58
6.96871e-61
)
;

boundaryField
{
    leftWall
    {
        type            zeroGradient;
    }
    rightWall
    {
        type            zeroGradient;
    }
    lowerWall
    {
        type            zeroGradient;
    }
    atmosphere
    {
        type            inletOutlet;
        inletValue      uniform 0;
        value           nonuniform List<scalar> 
23
(
2.30019e-38
3.43296e-37
4.02126e-37
2.75076e-39
2.21235e-38
8.22731e-38
7.07549e-38
2.72858e-38
5.99827e-39
8.62357e-40
8.85337e-41
6.86734e-42
4.17767e-43
2.04312e-44
8.16146e-46
2.68631e-47
7.29929e-49
1.627e-50
2.92717e-52
4.11598e-54
4.27056e-56
2.90446e-58
6.96871e-61
)
;
    }
    defaultFaces
    {
        type            empty;
    }
    procBoundary3to1
    {
        type            processor;
        value           nonuniform List<scalar> 
23
(
4.33957e-07
3.10695e-07
1.87031e-07
1.08276e-07
6.75676e-08
5.52263e-09
1.1345e-10
1.99775e-11
5.07933e-12
8.21434e-13
2.26822e-13
2.79331e-13
3.69577e-13
9.28138e-14
1.54066e-14
1.89413e-15
1.79693e-16
1.33308e-17
7.70185e-19
3.39092e-20
1.08428e-21
2.27005e-23
2.14285e-25
)
;
    }
    procBoundary3to2
    {
        type            processor;
        value           nonuniform List<scalar> 
25
(
1.98624e-07
2.13107e-07
3.14963e-07
2.94652e-07
1.38699e-07
2.86834e-08
3.05095e-09
4.65658e-10
4.50559e-11
3.47369e-12
2.02814e-13
8.88136e-15
2.97606e-16
7.80771e-18
1.63877e-19
2.80848e-21
4.00025e-23
4.81045e-25
4.9453e-27
4.38321e-29
3.35847e-31
2.20661e-33
1.208e-35
4.97552e-38
1.12048e-40
)
;
    }
}


// ************************************************************************* //
