/*--------------------------------*- C++ -*----------------------------------*\
| =========                 |                                                 |
| \\      /  F ield         | OpenFOAM: The Open Source CFD Toolbox           |
|  \\    /   O peration     | Version:  2.4.0                                 |
|   \\  /    A nd           | Web:      www.OpenFOAM.org                      |
|    \\/     M anipulation  |                                                 |
\*---------------------------------------------------------------------------*/
FoamFile
{
    version     2.0;
    format      ascii;
    class       volScalarField;
    location    "0.15";
    object      p;
}
// * * * * * * * * * * * * * * * * * * * * * * * * * * * * * * * * * * * * * //

dimensions      [1 -1 -2 0 0 0 0];

internalField   nonuniform List<scalar> 
575
(
2.68469
2.66304
2.64127
2.62491
2.62766
2.60704
2.58933
2.57357
2.56317
2.54355
2.5278
2.51356
2.48335
2.46925
2.45735
2.44441
2.39304
2.38116
2.37205
2.36119
2.29683
2.2877
2.27985
2.27095
2.19581
2.18785
2.18094
2.17375
2.09086
2.0842
2.07804
2.07178
1.9824
1.97675
1.97146
1.9662
1.87126
1.86646
1.86194
1.85748
1.75794
1.75388
1.75001
1.74623
1.64281
1.63937
1.63608
1.63286
1.52618
1.52327
1.52046
1.51772
1.40827
1.40581
1.40341
1.40107
1.28928
1.2872
1.28516
1.28316
1.16936
1.16761
1.16588
1.16417
1.04863
1.04717
1.04571
1.04426
0.927194
0.925981
0.924764
0.923549
0.805142
0.804152
0.803148
0.802141
0.682535
0.681745
0.680937
0.680118
0.559431
0.558823
0.558191
0.557545
0.435867
0.435422
0.434956
0.434469
0.311862
0.311577
0.311261
0.310925
0.187552
0.187351
0.187147
0.186943
0.0623742
0.0624313
0.0624476
0.0624296
2.59341
2.56603
2.55791
2.56584
2.58477
2.6128
2.64677
2.68547
2.72674
2.76915
2.81117
2.85151
2.88907
2.92288
2.95217
2.97632
2.99482
3.00733
3.01363
2.54842
2.5258
2.51503
2.5179
2.52961
2.5499
2.5759
2.60633
2.63948
2.67401
2.70859
2.7421
2.7735
2.80194
2.82669
2.84716
2.8629
2.87353
2.87888
2.49041
2.46962
2.45918
2.45799
2.46501
2.47916
2.49875
2.52239
2.54878
2.57667
2.60495
2.63258
2.65868
2.68245
2.70324
2.72049
2.73378
2.74278
2.74727
2.42167
2.40179
2.39183
2.38806
2.39174
2.40136
2.41578
2.43396
2.45474
2.4771
2.50004
2.52268
2.54422
2.56396
2.58131
2.59575
2.60691
2.6145
2.61832
2.34197
2.32526
2.31488
2.30972
2.31093
2.31717
2.32756
2.34135
2.35754
2.3753
2.39377
2.41218
2.42984
2.44612
2.4605
2.47252
2.48183
2.48816
2.49138
2.25465
2.23985
2.22993
2.22423
2.22366
2.22736
2.23464
2.24492
2.25739
2.27135
2.28609
2.30094
2.31531
2.32865
2.34048
2.35041
2.35811
2.36335
2.366
2.16039
2.14734
2.13837
2.13254
2.13082
2.13265
2.13755
2.14505
2.15451
2.16536
2.17701
2.18889
2.20048
2.21132
2.22098
2.22912
2.23545
2.23976
2.24193
2.06085
2.04935
2.04123
2.03558
2.0332
2.03369
2.03678
2.04209
2.04915
2.05747
2.06657
2.07598
2.08524
2.09397
2.10179
2.10841
2.11358
2.1171
2.11887
1.9571
1.94706
1.93963
1.93425
1.93149
1.93105
1.93279
1.93641
1.94155
1.94783
1.95484
1.9622
1.96953
1.97649
1.98277
1.9881
1.99228
1.99512
1.99656
1.8499
1.84115
1.83439
1.82933
1.82635
1.82528
1.82601
1.82833
1.83195
1.83659
1.84191
1.84758
1.85331
1.8588
1.86378
1.86803
1.87137
1.87365
1.8748
1.73985
1.73222
1.72613
1.72141
1.71835
1.71684
1.71683
1.71814
1.72058
1.7239
1.72785
1.73216
1.73656
1.74083
1.74473
1.74809
1.75072
1.75253
1.75344
1.62746
1.62081
1.61533
1.61096
1.60791
1.60613
1.60558
1.60613
1.60765
1.60993
1.61278
1.61597
1.6193
1.62256
1.62557
1.62818
1.63023
1.63164
1.63235
1.51313
1.50732
1.50242
1.49841
1.49543
1.49349
1.49255
1.49254
1.49334
1.49481
1.49678
1.49907
1.50153
1.50397
1.50626
1.50824
1.50982
1.5109
1.51144
1.39716
1.3921
1.38773
1.38406
1.38121
1.3792
1.378
1.37758
1.37784
1.37867
1.37995
1.38153
1.38328
1.38506
1.38675
1.38823
1.38942
1.39023
1.39064
1.27982
1.27543
1.27154
1.26821
1.26552
1.2635
1.26215
1.26143
1.26129
1.26164
1.26238
1.2634
1.26459
1.26584
1.26705
1.26812
1.26899
1.26959
1.26988
1.16133
1.15752
1.15409
1.15108
1.14857
1.1466
1.14517
1.14426
1.14383
1.14382
1.14415
1.14473
1.14548
1.14631
1.14714
1.14789
1.14851
1.14893
1.14913
1.04184
1.03856
1.03555
1.03285
1.03055
1.02866
1.02722
1.02619
1.02557
1.0253
1.02533
1.02558
1.026
1.02651
1.02704
1.02753
1.02794
1.02823
1.02836
0.921511
0.918704
0.916082
0.913695
0.911604
0.909844
0.908431
0.907364
0.906626
0.906185
0.905997
0.906012
0.906178
0.906439
0.906743
0.907042
0.907296
0.907471
0.907555
0.800442
0.798072
0.795818
0.793734
0.79187
0.790262
0.788927
0.78787
0.787081
0.786539
0.786212
0.786063
0.78605
0.786133
0.786269
0.786422
0.786559
0.786654
0.786697
0.678728
0.676761
0.67486
0.673075
0.67145
0.670018
0.668799
0.667799
0.667015
0.666434
0.666031
0.665781
0.665652
0.665612
0.665631
0.665679
0.665732
0.665768
0.665783
0.556439
0.55485
0.55329
0.551805
0.550432
0.5492
0.54813
0.54723
0.5465
0.545931
0.545507
0.54521
0.545017
0.544904
0.544848
0.544828
0.544825
0.544824
0.544819
0.43363
0.432402
0.431177
0.429996
0.428889
0.427882
0.426993
0.42623
0.425596
0.425084
0.424687
0.424388
0.424175
0.424029
0.423935
0.423877
0.423842
0.423818
0.423802
0.310337
0.309459
0.30857
0.307702
0.306879
0.306122
0.305444
0.304855
0.304355
0.303943
0.303613
0.303356
0.303162
0.30302
0.30292
0.302851
0.302804
0.302772
0.302752
0.186595
0.186069
0.185526
0.184988
0.184472
0.183992
0.183557
0.183174
0.182844
0.182567
0.18234
0.182158
0.182016
0.181908
0.181828
0.18177
0.181729
0.181701
0.181683
0.0623568
0.0621973
0.0620172
0.0618324
0.0616515
0.0614804
0.061323
0.0611817
0.0610577
0.0609513
0.0608618
0.0607881
0.0607287
0.0606818
0.0606455
0.060618
0.0605986
0.0605843
0.0605747
)
;

boundaryField
{
    leftWall
    {
        type            fixedFluxPressure;
        gradient        nonuniform 0();
        value           nonuniform 0();
    }
    rightWall
    {
        type            fixedFluxPressure;
        gradient        uniform 0;
        value           nonuniform List<scalar> 
25
(
3.01363
2.87888
2.74727
2.61832
2.49138
2.366
2.24193
2.11887
1.99656
1.8748
1.75344
1.63235
1.51144
1.39064
1.26988
1.14913
1.02836
0.907555
0.786697
0.665783
0.544819
0.423802
0.302752
0.181683
0.0605747
)
;
    }
    lowerWall
    {
        type            fixedFluxPressure;
        gradient        nonuniform 0();
        value           nonuniform 0();
    }
    atmosphere
    {
        type            totalPressure;
        U               U.air;
        phi             phi.air;
        rho             rho;
        psi             none;
        gamma           1;
        p0              uniform 0;
        value           uniform 0;
    }
    defaultFaces
    {
        type            empty;
    }
    procBoundary3to1
    {
        type            processor;
        value           nonuniform List<scalar> 
23
(
2.82113
2.77669
2.72736
2.67746
2.60855
2.5829
2.58618
2.60086
2.62931
2.66724
2.71083
2.75955
2.81049
2.86222
2.91294
2.96124
3.00587
3.04583
3.08029
3.10859
3.13023
3.14483
3.15214
)
;
    }
    procBoundary3to2
    {
        type            processor;
        value           nonuniform List<scalar> 
25
(
2.71155
2.66004
2.59268
2.50711
2.41336
2.31255
2.20912
2.10182
1.99162
1.87896
1.7644
1.64824
1.53075
1.41213
1.29253
1.17208
1.05089
0.929062
0.806653
0.68373
0.560338
0.436518
0.312252
0.187836
0.0622251
)
;
    }
}


// ************************************************************************* //
