/*--------------------------------*- C++ -*----------------------------------*\
| =========                 |                                                 |
| \\      /  F ield         | OpenFOAM: The Open Source CFD Toolbox           |
|  \\    /   O peration     | Version:  2.4.0                                 |
|   \\  /    A nd           | Web:      www.OpenFOAM.org                      |
|    \\/     M anipulation  |                                                 |
\*---------------------------------------------------------------------------*/
FoamFile
{
    version     2.0;
    format      ascii;
    class       surfaceScalarField;
    location    "0.15";
    object      phi;
}
// * * * * * * * * * * * * * * * * * * * * * * * * * * * * * * * * * * * * * //

dimensions      [0 3 -1 0 0 0 0];

internalField   nonuniform List<scalar> 
1102
(
-0.000129115
1.3195e-05
-0.00012624
1.46815e-05
-0.000123954
1.74171e-05
1.92905e-05
-0.000121476
-0.000123068
1.0347e-05
-0.000120867
1.24806e-05
-0.000117303
1.38533e-05
1.44114e-05
-0.000112424
-0.000112963
7.818e-06
-0.000109639
9.15712e-06
-0.000105539
9.75253e-06
1.15565e-05
-0.000102684
-0.000101306
5.08757e-06
-9.86403e-05
6.491e-06
-9.7096e-05
8.20827e-06
1.1198e-05
-9.67376e-05
-9.35858e-05
3.39063e-06
-9.20644e-05
4.9696e-06
-9.08954e-05
7.03926e-06
9.91513e-06
-8.96125e-05
-8.605e-05
2.78432e-06
-8.56353e-05
4.55498e-06
-8.49772e-05
6.38115e-06
8.53444e-06
-8.35965e-05
-7.89554e-05
2.52932e-06
-7.84133e-05
4.0129e-06
-7.77952e-05
5.7631e-06
7.30104e-06
-7.65618e-05
-7.18756e-05
2.08802e-06
-7.14362e-05
3.57355e-06
-7.07253e-05
5.0522e-06
6.39328e-06
-6.98175e-05
-6.54848e-05
1.76352e-06
-6.50075e-05
3.09629e-06
-6.43981e-05
4.44277e-06
5.67099e-06
-6.36758e-05
-5.95519e-05
1.47131e-06
-5.91644e-05
2.70871e-06
-5.86581e-05
3.93652e-06
5.08745e-06
-5.80746e-05
-5.4083e-05
1.2547e-06
-5.37699e-05
2.39556e-06
-5.33644e-05
3.53104e-06
4.61182e-06
-5.28887e-05
-4.90091e-05
1.0879e-06
-4.87621e-05
2.14854e-06
-4.84351e-05
3.20408e-06
4.22169e-06
-4.80449e-05
-4.42784e-05
9.63722e-07
-4.4084e-05
1.95413e-06
-4.38202e-05
2.94034e-06
3.89987e-06
-4.34984e-05
-3.98473e-05
8.71397e-07
-3.96944e-05
1.80116e-06
-3.94813e-05
2.72724e-06
3.63423e-06
-3.92156e-05
-3.56763e-05
8.043e-07
-3.5557e-05
1.68179e-06
-3.53854e-05
2.55573e-06
3.41565e-06
-3.51669e-05
-3.17319e-05
7.5715e-07
-3.16398e-05
1.58965e-06
-3.15029e-05
2.41888e-06
3.23737e-06
-3.13247e-05
-2.79825e-05
7.26742e-07
-2.79138e-05
1.52095e-06
-2.78069e-05
2.31192e-06
3.0943e-06
-2.76638e-05
-2.44007e-05
7.10703e-07
-2.43524e-05
1.47257e-06
-2.42718e-05
2.23133e-06
2.98285e-06
-2.41603e-05
-2.09605e-05
7.07713e-07
-2.09308e-05
1.44291e-06
-2.08744e-05
2.17497e-06
2.90055e-06
-2.07921e-05
-1.76376e-05
7.17273e-07
-1.76257e-05
1.43108e-06
-1.75924e-05
2.14167e-06
2.84613e-06
-1.7538e-05
-1.44087e-05
7.3945e-07
-1.44149e-05
1.43728e-06
-1.44047e-05
2.13147e-06
2.81946e-06
-1.4378e-05
-1.12506e-05
7.76484e-07
-1.12764e-05
1.46313e-06
-1.12907e-05
2.14576e-06
2.82174e-06
-1.1293e-05
-8.14208e-06
8.26946e-07
-8.18877e-06
1.50983e-06
-8.23002e-06
2.18699e-06
2.85509e-06
-8.26338e-06
-5.03185e-06
9.23754e-07
-5.13078e-06
1.60873e-06
-5.22146e-06
2.27765e-06
2.93787e-06
-5.30425e-06
-1.91013e-06
-1.91327e-06
-1.93548e-06
-1.97065e-06
-0.000113194
4.93075e-05
-0.000105911
5.45329e-05
-0.000100596
6.36681e-05
-9.28162e-05
7.16104e-05
-8.63541e-05
7.70672e-05
-7.93619e-05
8.3337e-05
-7.25193e-05
8.80971e-05
-6.56912e-05
9.25197e-05
-5.89641e-05
9.62319e-05
-5.2373e-05
9.94007e-05
-4.59448e-05
0.000102044
-3.96951e-05
0.000104226
-3.36244e-05
0.000106001
-2.77251e-05
0.000107419
-2.19775e-05
0.000108529
-1.63611e-05
0.000109369
-1.08442e-05
0.000109971
-5.40734e-06
0.00011033
0.00010904
-0.000104429
4.13132e-05
-9.95301e-05
4.96335e-05
-9.48566e-05
5.89946e-05
-8.75167e-05
6.42705e-05
-8.17661e-05
7.13166e-05
-7.52357e-05
7.68067e-05
-6.89335e-05
8.1795e-05
-6.26003e-05
8.61866e-05
-5.63435e-05
8.99751e-05
-5.01795e-05
9.32367e-05
-4.41345e-05
9.5999e-05
-3.8222e-05
9.83139e-05
-3.24461e-05
0.000100225
-2.68027e-05
0.000101776
-2.12799e-05
0.000103006
-1.58612e-05
0.000103951
-1.05273e-05
0.000104637
-5.23635e-06
0.000105039
0.000103804
-9.85562e-05
3.71857e-05
-9.43672e-05
4.54445e-05
-8.8234e-05
5.28614e-05
-8.26758e-05
5.87123e-05
-7.70731e-05
6.5714e-05
-7.11522e-05
7.08858e-05
-6.53327e-05
7.59754e-05
-5.94684e-05
8.03224e-05
-5.36528e-05
8.41595e-05
-4.78954e-05
8.74792e-05
-4.22208e-05
9.03245e-05
-3.66414e-05
9.27345e-05
-3.1163e-05
9.47462e-05
-2.57841e-05
9.63968e-05
-2.04969e-05
9.77185e-05
-1.52867e-05
9.87405e-05
-1.01347e-05
9.94847e-05
-5.0108e-06
9.99152e-05
9.87931e-05
-9.39823e-05
3.44304e-05
-8.85194e-05
3.99816e-05
-8.22217e-05
4.65637e-05
-7.79191e-05
5.44097e-05
-7.23788e-05
6.01737e-05
-6.71186e-05
6.56256e-05
-6.17237e-05
7.05806e-05
-5.63152e-05
7.49138e-05
-5.09161e-05
7.87604e-05
-4.55484e-05
8.21114e-05
-4.02324e-05
8.50086e-05
-3.49807e-05
8.74828e-05
-2.98003e-05
8.95658e-05
-2.46921e-05
9.12885e-05
-1.96517e-05
9.26781e-05
-1.46694e-05
9.37582e-05
-9.73256e-06
9.45478e-05
-4.84005e-06
9.50226e-05
9.39531e-05
-8.64375e-05
3.12555e-05
-8.17908e-05
3.53348e-05
-7.72516e-05
4.20246e-05
-7.28864e-05
5.00444e-05
-6.78959e-05
5.51832e-05
-6.31024e-05
6.08321e-05
-5.81367e-05
6.56149e-05
-5.31569e-05
6.99341e-05
-4.81554e-05
7.3759e-05
-4.31619e-05
7.71179e-05
-3.81937e-05
8.00403e-05
-3.32638e-05
8.25529e-05
-2.83804e-05
8.46825e-05
-2.35468e-05
8.64548e-05
-1.87618e-05
8.78931e-05
-1.40215e-05
8.90179e-05
-9.31892e-06
8.98452e-05
-4.64752e-06
9.03513e-05
8.93056e-05
-7.92387e-05
2.68976e-05
-7.54709e-05
3.1567e-05
-7.21517e-05
3.87053e-05
-6.78156e-05
4.57083e-05
-6.3543e-05
5.09106e-05
-5.91213e-05
5.64104e-05
-5.45907e-05
6.10844e-05
-5.00107e-05
6.5354e-05
-4.53904e-05
6.91387e-05
-4.07562e-05
7.24838e-05
-3.6125e-05
7.54091e-05
-3.15102e-05
7.79382e-05
-2.69211e-05
8.00934e-05
-2.23627e-05
8.18964e-05
-1.78362e-05
8.33666e-05
-1.33399e-05
8.45216e-05
-8.86895e-06
8.53743e-05
-4.41404e-06
8.58964e-05
8.48915e-05
-7.27036e-05
2.30394e-05
-6.98539e-05
2.87173e-05
-6.68153e-05
3.56667e-05
-6.29609e-05
4.18539e-05
-5.92244e-05
4.71741e-05
-5.52046e-05
5.23906e-05
-5.1092e-05
5.69718e-05
-4.6893e-05
6.1155e-05
-4.26377e-05
6.48834e-05
-3.83487e-05
6.81948e-05
-3.40437e-05
7.11041e-05
-2.97366e-05
7.36311e-05
-2.54375e-05
7.57944e-05
-2.11528e-05
7.76117e-05
-1.68854e-05
7.90992e-05
-1.26353e-05
8.02715e-05
-8.39985e-06
8.11389e-05
-4.17524e-06
8.16718e-05
8.07163e-05
-6.69534e-05
2.01753e-05
-6.45295e-05
2.62935e-05
-6.16658e-05
3.2803e-05
-5.83484e-05
3.85364e-05
-5.49935e-05
4.38193e-05
-5.13798e-05
4.8777e-05
-4.76538e-05
5.32458e-05
-4.38194e-05
5.73207e-05
-3.99124e-05
6.09764e-05
-3.59546e-05
6.4237e-05
-3.19647e-05
6.71141e-05
-2.79571e-05
6.96235e-05
-2.39428e-05
7.17801e-05
-1.99293e-05
7.35981e-05
-1.5921e-05
7.5091e-05
-1.192e-05
7.62705e-05
-7.926e-06
7.71449e-05
-3.9392e-06
7.7685e-05
7.67771e-05
-6.15429e-05
1.80424e-05
-5.93941e-05
2.41447e-05
-5.68097e-05
3.02187e-05
-5.39382e-05
3.56649e-05
-5.0911e-05
4.07921e-05
-4.76699e-05
4.5536e-05
-4.42966e-05
4.98726e-05
-4.08054e-05
5.38294e-05
-3.72283e-05
5.73994e-05
-3.35871e-05
6.05958e-05
-2.99006e-05
6.34277e-05
-2.61837e-05
6.59067e-05
-2.2448e-05
6.80444e-05
-1.8702e-05
6.98521e-05
-1.49515e-05
7.13405e-05
-1.12001e-05
7.2519e-05
-7.44948e-06
7.33943e-05
-3.70216e-06
7.39376e-05
7.30749e-05
-5.63952e-05
1.6363e-05
-5.44928e-05
2.22423e-05
-5.22176e-05
2.79434e-05
-4.97059e-05
3.31533e-05
-4.69903e-05
3.80765e-05
-4.40847e-05
4.26303e-05
-4.10352e-05
4.68231e-05
-3.78635e-05
5.06577e-05
-3.45972e-05
5.41331e-05
-3.12572e-05
5.72558e-05
-2.7862e-05
6.00324e-05
-2.44263e-05
6.2471e-05
-2.09622e-05
6.45803e-05
-1.74788e-05
6.63688e-05
-1.39831e-05
6.78448e-05
-1.04798e-05
6.90158e-05
-6.97221e-06
6.98867e-05
-3.46458e-06
7.043e-05
6.96104e-05
-5.15119e-05
1.49861e-05
-4.98484e-05
2.05788e-05
-4.78617e-05
2.59568e-05
-4.56511e-05
3.09426e-05
-4.32284e-05
3.56538e-05
-4.06263e-05
4.00282e-05
-3.78761e-05
4.40729e-05
-3.50019e-05
4.77836e-05
-3.20278e-05
5.11589e-05
-2.89737e-05
5.42018e-05
-2.58572e-05
5.69159e-05
-2.26928e-05
5.93067e-05
-1.94926e-05
6.13801e-05
-1.62662e-05
6.31424e-05
-1.30212e-05
6.45998e-05
-9.76336e-06
6.57579e-05
-6.49713e-06
6.66205e-05
-3.22819e-06
6.71611e-05
6.63822e-05
-4.68943e-05
1.38355e-05
-4.54517e-05
1.91363e-05
-4.37218e-05
2.42269e-05
-4.17738e-05
2.89946e-05
-3.96205e-05
3.35005e-05
-3.72946e-05
3.77023e-05
-3.48216e-05
4.15999e-05
-3.22247e-05
4.51867e-05
-2.95254e-05
4.84597e-05
-2.67425e-05
5.14189e-05
-2.38925e-05
5.40659e-05
-2.09894e-05
5.64035e-05
-1.8045e-05
5.84357e-05
-1.50693e-05
6.01667e-05
-1.20702e-05
6.16007e-05
-9.05414e-06
6.27419e-05
-6.02656e-06
6.35929e-05
-2.99416e-06
6.41287e-05
6.3388e-05
-4.25299e-05
1.2867e-05
-4.12855e-05
1.78918e-05
-3.97817e-05
2.27231e-05
-3.80682e-05
2.72811e-05
-3.61608e-05
3.15931e-05
-3.40878e-05
3.56294e-05
-3.18718e-05
3.93839e-05
-2.95338e-05
4.28487e-05
-2.70933e-05
4.60192e-05
-2.45677e-05
4.88933e-05
-2.19722e-05
5.14705e-05
-1.93204e-05
5.37517e-05
-1.66237e-05
5.5739e-05
-1.38919e-05
5.74349e-05
-1.11333e-05
5.88421e-05
-8.35475e-06
5.99634e-05
-5.56229e-06
6.08004e-05
-2.76329e-06
6.13297e-05
6.06247e-05
-3.83994e-05
1.20508e-05
-3.73303e-05
1.68228e-05
-3.60265e-05
2.14193e-05
-3.45247e-05
2.57793e-05
-3.28419e-05
2.99103e-05
-3.10019e-05
3.37894e-05
-2.90245e-05
3.74066e-05
-2.69289e-05
4.07531e-05
-2.47326e-05
4.38228e-05
-2.24512e-05
4.6612e-05
-2.00991e-05
4.91184e-05
-1.76889e-05
5.13415e-05
-1.52317e-05
5.32818e-05
-1.27369e-05
5.49401e-05
-1.0213e-05
5.63182e-05
-7.66711e-06
5.74175e-05
-5.10557e-06
5.82389e-05
-2.53627e-06
5.87604e-05
5.80885e-05
-3.4481e-05
1.13649e-05
-3.35674e-05
1.59092e-05
-3.2442e-05
2.02938e-05
-3.11326e-05
2.447e-05
-2.96558e-05
2.84335e-05
-2.80312e-05
3.21648e-05
-2.62765e-05
3.56519e-05
-2.44085e-05
3.88851e-05
-2.24428e-05
4.18572e-05
-2.03938e-05
4.4563e-05
-1.82745e-05
4.69991e-05
-1.60967e-05
4.91638e-05
-1.38709e-05
5.10559e-05
-1.16063e-05
5.26755e-05
-9.31109e-06
5.4023e-05
-6.9926e-06
5.5099e-05
-4.65737e-06
5.59037e-05
-2.31353e-06
5.64165e-05
5.57749e-05
-3.07528e-05
1.07931e-05
-2.99781e-05
1.51345e-05
-2.90135e-05
1.93292e-05
-2.78804e-05
2.3337e-05
-2.65936e-05
2.71467e-05
-2.51694e-05
3.07406e-05
-2.36232e-05
3.41057e-05
-2.19697e-05
3.72316e-05
-2.02227e-05
4.01102e-05
-1.8395e-05
4.27354e-05
-1.64987e-05
4.51028e-05
-1.45445e-05
4.72096e-05
-1.25423e-05
4.90537e-05
-1.0501e-05
5.06342e-05
-8.42854e-06
5.19505e-05
-6.33209e-06
5.30026e-05
-4.21829e-06
5.37899e-05
-2.09538e-06
5.42936e-05
5.36796e-05
-2.71934e-05
1.03227e-05
-2.65443e-05
1.44855e-05
-2.57265e-05
1.85113e-05
-2.47563e-05
2.23667e-05
-2.36461e-05
2.60365e-05
-2.24094e-05
2.9504e-05
-2.10594e-05
3.27557e-05
-1.96087e-05
3.5781e-05
-1.80695e-05
3.8571e-05
-1.64534e-05
4.11192e-05
-1.47709e-05
4.34204e-05
-1.30322e-05
4.54709e-05
-1.12463e-05
4.72679e-05
-9.42166e-06
4.88096e-05
-7.5659e-06
5.00948e-05
-5.68606e-06
5.11227e-05
-3.78871e-06
5.18925e-05
-1.88196e-06
5.23869e-05
5.17976e-05
-2.37824e-05
9.94476e-06
-2.32488e-05
1.39519e-05
-2.25668e-05
1.78293e-05
-2.17483e-05
2.15483e-05
-2.08036e-05
2.50918e-05
-1.97436e-05
2.8444e-05
-1.85792e-05
3.15913e-05
-1.73213e-05
3.4523e-05
-1.59804e-05
3.72301e-05
-1.45667e-05
3.97055e-05
-1.30899e-05
4.19436e-05
-1.1559e-05
4.39399e-05
-9.98242e-06
4.56913e-05
-8.36809e-06
4.71952e-05
-6.72325e-06
4.84499e-05
-5.05464e-06
4.94541e-05
-3.36869e-06
5.02066e-05
-1.67333e-06
5.06915e-05
5.01243e-05
-2.05002e-05
9.65284e-06
-2.00748e-05
1.35264e-05
-1.95203e-05
1.72748e-05
-1.8845e-05
2.0873e-05
-1.80568e-05
2.43036e-05
-1.71643e-05
2.75515e-05
-1.61766e-05
3.06036e-05
-1.51026e-05
3.34491e-05
-1.39516e-05
3.60791e-05
-1.27324e-05
3.84863e-05
-1.14537e-05
4.06648e-05
-1.01236e-05
4.26098e-05
-8.74983e-06
4.43176e-05
-7.33979e-06
4.57852e-05
-5.90026e-06
4.70104e-05
-4.43766e-06
4.79915e-05
-2.95817e-06
4.87271e-05
-1.46941e-06
4.92028e-05
4.86549e-05
-1.73286e-05
9.44343e-06
-1.70065e-05
1.32044e-05
-1.65736e-05
1.68418e-05
-1.6035e-05
2.03344e-05
-1.53962e-05
2.36649e-05
-1.46639e-05
2.68192e-05
-1.38453e-05
2.97849e-05
-1.29478e-05
3.25517e-05
-1.19793e-05
3.51106e-05
-1.09475e-05
3.74546e-05
-9.86012e-06
3.95774e-05
-8.7244e-06
4.14741e-05
-7.54747e-06
4.31407e-05
-6.33605e-06
4.45738e-05
-5.0965e-06
4.57709e-05
-3.83489e-06
4.67299e-05
-2.55699e-06
4.74492e-05
-1.27024e-06
4.7916e-05
4.73847e-05
-1.42501e-05
9.31549e-06
-1.4029e-05
1.29833e-05
-1.3714e-05
1.65268e-05
-1.33074e-05
1.99277e-05
-1.28126e-05
2.31702e-05
-1.22344e-05
2.62411e-05
-1.15784e-05
2.91289e-05
-1.08508e-05
3.1824e-05
-1.00582e-05
3.4318e-05
-9.20732e-06
3.66037e-05
-8.30494e-06
3.8675e-05
-7.35768e-06
4.05269e-05
-6.37198e-06
4.2155e-05
-5.354e-06
4.35558e-05
-4.30962e-06
4.47265e-05
-3.24446e-06
4.56648e-05
-2.16397e-06
4.63687e-05
-1.07495e-06
4.6827e-05
4.63097e-05
-1.12486e-05
9.27108e-06
-1.11291e-05
1.28637e-05
-1.09312e-05
1.63289e-05
-1.06548e-05
1.96513e-05
-1.03015e-05
2.28169e-05
-9.87432e-06
2.58139e-05
-9.37749e-06
2.86321e-05
-8.8159e-06
3.12624e-05
-8.19502e-06
3.36971e-05
-7.52059e-06
3.59293e-05
-6.79849e-06
3.79529e-05
-6.03458e-06
3.9763e-05
-5.23465e-06
4.13551e-05
-4.40433e-06
4.27255e-05
-3.54905e-06
4.38712e-05
-2.67403e-06
4.47898e-05
-1.78441e-06
4.54791e-05
-8.86535e-07
4.59292e-05
4.54232e-05
-8.30443e-06
9.31211e-06
-8.28425e-06
1.28435e-05
-8.19744e-06
1.62421e-05
-8.04209e-06
1.9496e-05
-7.81886e-06
2.25936e-05
-7.53017e-06
2.55252e-05
-7.17976e-06
2.82817e-05
-6.77219e-06
3.08549e-05
-6.31254e-06
3.32375e-05
-5.80612e-06
3.54228e-05
-5.25833e-06
3.74051e-05
-4.67446e-06
3.91791e-05
-4.05968e-06
4.07403e-05
-3.41895e-06
4.20847e-05
-2.75697e-06
4.32093e-05
-2.07846e-06
4.41113e-05
-1.38761e-06
4.47883e-05
-6.88689e-07
4.52303e-05
4.47345e-05
-5.47042e-06
9.47827e-06
-5.59232e-06
1.29654e-05
-5.66077e-06
1.63105e-05
-5.66946e-06
1.95047e-05
-5.61544e-06
2.25396e-05
-5.4983e-06
2.5408e-05
-5.31956e-06
2.81029e-05
-5.08222e-06
3.06175e-05
-4.79028e-06
3.29455e-05
-4.44848e-06
3.5081e-05
-4.06196e-06
3.70186e-05
-3.63607e-06
3.87532e-05
-3.17617e-06
4.02804e-05
-2.68754e-06
4.15961e-05
-2.17523e-06
4.26969e-05
-1.64404e-06
4.35801e-05
-1.1004e-06
4.42446e-05
-5.46699e-07
4.46766e-05
4.41878e-05
-2.07865e-06
-2.18218e-06
-2.2666e-06
-2.32465e-06
-2.35245e-06
-2.34799e-06
-2.31066e-06
-2.24092e-06
-2.14009e-06
-2.01015e-06
-1.85356e-06
-1.67309e-06
-1.4717e-06
-1.25245e-06
-1.01837e-06
-7.72358e-07
-5.18131e-07
-2.57928e-07
)
;

boundaryField
{
    leftWall
    {
        type            calculated;
        value           nonuniform 0();
    }
    rightWall
    {
        type            calculated;
        value           uniform 0;
    }
    lowerWall
    {
        type            calculated;
        value           nonuniform 0();
    }
    atmosphere
    {
        type            calculated;
        value           nonuniform List<scalar> 
23
(
9.06662e-07
1.61185e-06
2.29985e-06
2.97304e-06
9.58625e-06
1.3069e-05
1.6395e-05
1.95627e-05
2.25674e-05
2.54036e-05
2.80656e-05
3.05478e-05
3.28447e-05
3.49511e-05
3.6862e-05
3.85727e-05
4.0079e-05
4.13768e-05
4.24629e-05
4.3334e-05
4.39904e-05
4.44163e-05
4.39299e-05
)
;
    }
    defaultFaces
    {
        type            empty;
        value           nonuniform 0();
    }
    procBoundary3to1
    {
        type            processor;
        value           nonuniform List<scalar> 
23
(
-1.64542e-05
-1.75564e-05
-1.97037e-05
-2.17678e-05
-5.75899e-05
-6.18157e-05
-6.89827e-05
-7.93905e-05
-8.35294e-05
-9.03292e-05
-9.49397e-05
-9.93478e-05
-0.000102959
-0.000105992
-0.000108472
-0.000110476
-0.000112071
-0.000113318
-0.000114276
-0.000114986
-0.000115487
-0.000115767
-0.000114448
)
;
    }
    procBoundary3to2
    {
        type            processor;
        value           nonuniform List<scalar> 
25
(
0.000132374
0.000125916
0.000115492
0.000104037
9.52827e-05
8.66563e-05
7.92103e-05
7.23169e-05
6.58093e-05
5.98441e-05
5.42996e-05
4.91759e-05
4.44026e-05
3.99397e-05
3.57434e-05
3.17791e-05
2.80129e-05
2.44168e-05
2.09634e-05
1.7628e-05
1.43865e-05
1.12135e-05
8.09161e-06
4.93504e-06
1.9272e-06
)
;
    }
}


// ************************************************************************* //
