/*--------------------------------*- C++ -*----------------------------------*\
| =========                 |                                                 |
| \\      /  F ield         | OpenFOAM: The Open Source CFD Toolbox           |
|  \\    /   O peration     | Version:  2.4.0                                 |
|   \\  /    A nd           | Web:      www.OpenFOAM.org                      |
|    \\/     M anipulation  |                                                 |
\*---------------------------------------------------------------------------*/
FoamFile
{
    version     2.0;
    format      ascii;
    class       surfaceScalarField;
    location    "0.15";
    object      phi.air;
}
// * * * * * * * * * * * * * * * * * * * * * * * * * * * * * * * * * * * * * //

dimensions      [0 3 -1 0 0 0 0];

internalField   nonuniform List<scalar> 
1102
(
-0.000129115
1.31949e-05
-0.00012624
1.46815e-05
-0.000123953
1.74171e-05
1.92905e-05
-0.000121476
-0.000123067
1.0347e-05
-0.000120866
1.24806e-05
-0.000117303
1.38533e-05
1.44114e-05
-0.000112424
-0.000112963
7.81797e-06
-0.000109639
9.1571e-06
-0.000105538
9.7525e-06
1.15564e-05
-0.000102683
-0.000101306
5.08756e-06
-9.864e-05
6.49098e-06
-9.70957e-05
8.20825e-06
1.1198e-05
-9.67373e-05
-9.35856e-05
3.39063e-06
-9.20642e-05
4.9696e-06
-9.08952e-05
7.03925e-06
9.91511e-06
-8.96122e-05
-8.60499e-05
2.78432e-06
-8.56353e-05
4.55498e-06
-8.49772e-05
6.38115e-06
8.53444e-06
-8.35965e-05
-7.89554e-05
2.52932e-06
-7.84133e-05
4.0129e-06
-7.77953e-05
5.76311e-06
7.30105e-06
-7.65619e-05
-7.18757e-05
2.08803e-06
-7.14364e-05
3.57356e-06
-7.07255e-05
5.05221e-06
6.39329e-06
-6.98177e-05
-6.54849e-05
1.76352e-06
-6.50077e-05
3.0963e-06
-6.43983e-05
4.44278e-06
5.671e-06
-6.3676e-05
-5.95521e-05
1.47131e-06
-5.91645e-05
2.70872e-06
-5.86583e-05
3.93653e-06
5.08747e-06
-5.80747e-05
-5.40831e-05
1.25471e-06
-5.377e-05
2.39557e-06
-5.33645e-05
3.53105e-06
4.61184e-06
-5.28889e-05
-4.90092e-05
1.0879e-06
-4.87622e-05
2.14854e-06
-4.84352e-05
3.20409e-06
4.2217e-06
-4.80451e-05
-4.42784e-05
9.63724e-07
-4.40841e-05
1.95414e-06
-4.38203e-05
2.94034e-06
3.89988e-06
-4.34985e-05
-3.98474e-05
8.71399e-07
-3.96944e-05
1.80116e-06
-3.94813e-05
2.72724e-06
3.63424e-06
-3.92157e-05
-3.56764e-05
8.043e-07
-3.5557e-05
1.68179e-06
-3.53855e-05
2.55573e-06
3.41566e-06
-3.51669e-05
-3.1732e-05
7.5715e-07
-3.16398e-05
1.58966e-06
-3.1503e-05
2.41888e-06
3.23738e-06
-3.13247e-05
-2.79825e-05
7.26742e-07
-2.79138e-05
1.52095e-06
-2.78069e-05
2.31192e-06
3.09431e-06
-2.76638e-05
-2.44008e-05
7.10703e-07
-2.43524e-05
1.47257e-06
-2.42718e-05
2.23133e-06
2.98285e-06
-2.41604e-05
-2.09605e-05
7.07714e-07
-2.09308e-05
1.44292e-06
-2.08745e-05
2.17498e-06
2.90055e-06
-2.07922e-05
-1.76376e-05
7.17273e-07
-1.76258e-05
1.43108e-06
-1.75924e-05
2.14167e-06
2.84613e-06
-1.7538e-05
-1.44087e-05
7.39451e-07
-1.44149e-05
1.43728e-06
-1.44047e-05
2.13147e-06
2.81946e-06
-1.4378e-05
-1.12506e-05
7.76484e-07
-1.12764e-05
1.46313e-06
-1.12907e-05
2.14576e-06
2.82174e-06
-1.1293e-05
-8.14208e-06
8.26946e-07
-8.18877e-06
1.50983e-06
-8.23003e-06
2.18699e-06
2.85509e-06
-8.26338e-06
-5.03186e-06
9.23755e-07
-5.13078e-06
1.60873e-06
-5.22146e-06
2.27765e-06
2.93787e-06
-5.30425e-06
-1.91013e-06
-1.91327e-06
-1.93548e-06
-1.97065e-06
-0.000113194
4.93074e-05
-0.000105911
5.45328e-05
-0.000100596
6.36681e-05
-9.28162e-05
7.16103e-05
-8.63541e-05
7.70672e-05
-7.9362e-05
8.33371e-05
-7.25194e-05
8.80972e-05
-6.56913e-05
9.25199e-05
-5.89643e-05
9.6232e-05
-5.23731e-05
9.94008e-05
-4.59449e-05
0.000102044
-3.96951e-05
0.000104227
-3.36244e-05
0.000106001
-2.77251e-05
0.000107419
-2.19775e-05
0.000108529
-1.63611e-05
0.000109369
-1.08442e-05
0.000109971
-5.40734e-06
0.00011033
0.00010904
-0.000104429
4.13131e-05
-9.95299e-05
4.96334e-05
-9.48564e-05
5.89945e-05
-8.75166e-05
6.42704e-05
-8.17661e-05
7.13166e-05
-7.52358e-05
7.68067e-05
-6.89336e-05
8.1795e-05
-6.26004e-05
8.61867e-05
-5.63436e-05
8.99752e-05
-5.01796e-05
9.32368e-05
-4.41345e-05
9.59991e-05
-3.8222e-05
9.8314e-05
-3.24461e-05
0.000100225
-2.68027e-05
0.000101776
-2.12799e-05
0.000103006
-1.58612e-05
0.000103951
-1.05273e-05
0.000104637
-5.23635e-06
0.000105039
0.000103804
-9.85559e-05
3.71855e-05
-9.43669e-05
4.54443e-05
-8.82338e-05
5.28613e-05
-8.26757e-05
5.87122e-05
-7.70731e-05
6.57139e-05
-7.11522e-05
7.08858e-05
-6.53327e-05
7.59754e-05
-5.94685e-05
8.03224e-05
-5.36529e-05
8.41596e-05
-4.78954e-05
8.74793e-05
-4.22209e-05
9.03246e-05
-3.66414e-05
9.27345e-05
-3.1163e-05
9.47463e-05
-2.57841e-05
9.63968e-05
-2.04969e-05
9.77186e-05
-1.52867e-05
9.87405e-05
-1.01347e-05
9.94848e-05
-5.0108e-06
9.99152e-05
9.87932e-05
-9.3982e-05
3.44303e-05
-8.85192e-05
3.99815e-05
-8.22215e-05
4.65636e-05
-7.79189e-05
5.44096e-05
-7.23787e-05
6.01736e-05
-6.71186e-05
6.56255e-05
-6.17237e-05
7.05806e-05
-5.63152e-05
7.49139e-05
-5.09162e-05
7.87605e-05
-4.55484e-05
8.21115e-05
-4.02325e-05
8.50086e-05
-3.49808e-05
8.74828e-05
-2.98004e-05
8.95659e-05
-2.46921e-05
9.12885e-05
-1.96517e-05
9.26781e-05
-1.46694e-05
9.37582e-05
-9.73257e-06
9.45479e-05
-4.84005e-06
9.50227e-05
9.39532e-05
-8.64373e-05
3.12554e-05
-8.17906e-05
3.53347e-05
-7.72515e-05
4.20245e-05
-7.28863e-05
5.00444e-05
-6.78958e-05
5.51832e-05
-6.31023e-05
6.08321e-05
-5.81367e-05
6.5615e-05
-5.31569e-05
6.99341e-05
-4.81555e-05
7.3759e-05
-4.31619e-05
7.7118e-05
-3.81937e-05
8.00404e-05
-3.32638e-05
8.25529e-05
-2.83804e-05
8.46825e-05
-2.35468e-05
8.64549e-05
-1.87618e-05
8.78932e-05
-1.40215e-05
8.90179e-05
-9.31893e-06
8.98453e-05
-4.64753e-06
9.03513e-05
8.93056e-05
-7.92386e-05
2.68976e-05
-7.54709e-05
3.1567e-05
-7.21516e-05
3.87053e-05
-6.78155e-05
4.57083e-05
-6.35429e-05
5.09106e-05
-5.91213e-05
5.64104e-05
-5.45908e-05
6.10845e-05
-5.00107e-05
6.5354e-05
-4.53904e-05
6.91387e-05
-4.07562e-05
7.24838e-05
-3.6125e-05
7.54091e-05
-3.15102e-05
7.79382e-05
-2.69211e-05
8.00935e-05
-2.23627e-05
8.18964e-05
-1.78362e-05
8.33667e-05
-1.33399e-05
8.45217e-05
-8.86895e-06
8.53743e-05
-4.41404e-06
8.58964e-05
8.48916e-05
-7.27037e-05
2.30395e-05
-6.9854e-05
2.87174e-05
-6.68154e-05
3.56667e-05
-6.29609e-05
4.18539e-05
-5.92244e-05
4.71742e-05
-5.52047e-05
5.23907e-05
-5.1092e-05
5.69719e-05
-4.68931e-05
6.11551e-05
-4.26378e-05
6.48834e-05
-3.83487e-05
6.81948e-05
-3.40437e-05
7.11041e-05
-2.97366e-05
7.36311e-05
-2.54376e-05
7.57944e-05
-2.11528e-05
7.76117e-05
-1.68854e-05
7.90993e-05
-1.26353e-05
8.02715e-05
-8.39985e-06
8.11389e-05
-4.17525e-06
8.16718e-05
8.07163e-05
-6.69535e-05
2.01753e-05
-6.45296e-05
2.62935e-05
-6.16659e-05
3.28031e-05
-5.83484e-05
3.85365e-05
-5.49936e-05
4.38194e-05
-5.13799e-05
4.8777e-05
-4.76538e-05
5.32459e-05
-4.38195e-05
5.73207e-05
-3.99125e-05
6.09765e-05
-3.59546e-05
6.4237e-05
-3.19647e-05
6.71142e-05
-2.79571e-05
6.96236e-05
-2.39428e-05
7.17801e-05
-1.99293e-05
7.35982e-05
-1.5921e-05
7.5091e-05
-1.192e-05
7.62705e-05
-7.926e-06
7.71449e-05
-3.9392e-06
7.7685e-05
7.67771e-05
-6.1543e-05
1.80424e-05
-5.93942e-05
2.41447e-05
-5.68099e-05
3.02188e-05
-5.39383e-05
3.5665e-05
-5.09111e-05
4.07922e-05
-4.767e-05
4.5536e-05
-4.42967e-05
4.98726e-05
-4.08054e-05
5.38295e-05
-3.72283e-05
5.73994e-05
-3.35871e-05
6.05958e-05
-2.99006e-05
6.34277e-05
-2.61837e-05
6.59067e-05
-2.2448e-05
6.80444e-05
-1.8702e-05
6.98521e-05
-1.49515e-05
7.13406e-05
-1.12001e-05
7.25191e-05
-7.44949e-06
7.33943e-05
-3.70216e-06
7.39377e-05
7.3075e-05
-5.63953e-05
1.6363e-05
-5.4493e-05
2.22424e-05
-5.22177e-05
2.79435e-05
-4.97061e-05
3.31534e-05
-4.69904e-05
3.80766e-05
-4.40848e-05
4.26304e-05
-4.10353e-05
4.68232e-05
-3.78636e-05
5.06578e-05
-3.45972e-05
5.41331e-05
-3.12572e-05
5.72559e-05
-2.7862e-05
6.00324e-05
-2.44263e-05
6.2471e-05
-2.09622e-05
6.45803e-05
-1.74788e-05
6.63688e-05
-1.39831e-05
6.78448e-05
-1.04798e-05
6.90158e-05
-6.97221e-06
6.98867e-05
-3.46458e-06
7.043e-05
6.96104e-05
-5.1512e-05
1.49862e-05
-4.98485e-05
2.05789e-05
-4.78619e-05
2.59569e-05
-4.56512e-05
3.09427e-05
-4.32285e-05
3.56539e-05
-4.06264e-05
4.00283e-05
-3.78762e-05
4.4073e-05
-3.50019e-05
4.77836e-05
-3.20278e-05
5.1159e-05
-2.89737e-05
5.42018e-05
-2.58572e-05
5.69159e-05
-2.26928e-05
5.93067e-05
-1.94926e-05
6.13801e-05
-1.62662e-05
6.31424e-05
-1.30212e-05
6.45998e-05
-9.76337e-06
6.5758e-05
-6.49714e-06
6.66205e-05
-3.22819e-06
6.71611e-05
6.63822e-05
-4.68944e-05
1.38355e-05
-4.54519e-05
1.91364e-05
-4.3722e-05
2.4227e-05
-4.1774e-05
2.89947e-05
-3.96206e-05
3.35006e-05
-3.72947e-05
3.77024e-05
-3.48217e-05
4.16e-05
-3.22248e-05
4.51867e-05
-2.95255e-05
4.84597e-05
-2.67426e-05
5.14189e-05
-2.38925e-05
5.40659e-05
-2.09894e-05
5.64036e-05
-1.8045e-05
5.84357e-05
-1.50693e-05
6.01667e-05
-1.20702e-05
6.16007e-05
-9.05415e-06
6.2742e-05
-6.02656e-06
6.35929e-05
-2.99416e-06
6.41287e-05
6.3388e-05
-4.25301e-05
1.28671e-05
-4.12856e-05
1.78919e-05
-3.97818e-05
2.27232e-05
-3.80683e-05
2.72812e-05
-3.61609e-05
3.15932e-05
-3.40879e-05
3.56295e-05
-3.18718e-05
3.9384e-05
-2.95338e-05
4.28487e-05
-2.70933e-05
4.60192e-05
-2.45677e-05
4.88933e-05
-2.19723e-05
5.14705e-05
-1.93204e-05
5.37518e-05
-1.66237e-05
5.5739e-05
-1.38919e-05
5.74349e-05
-1.11333e-05
5.88421e-05
-8.35475e-06
5.99634e-05
-5.56229e-06
6.08005e-05
-2.76329e-06
6.13297e-05
6.06247e-05
-3.83995e-05
1.20508e-05
-3.73305e-05
1.68229e-05
-3.60266e-05
2.14193e-05
-3.45248e-05
2.57794e-05
-3.2842e-05
2.99104e-05
-3.10019e-05
3.37895e-05
-2.90246e-05
3.74066e-05
-2.6929e-05
4.07532e-05
-2.47326e-05
4.38229e-05
-2.24512e-05
4.6612e-05
-2.00992e-05
4.91184e-05
-1.7689e-05
5.13416e-05
-1.52317e-05
5.32818e-05
-1.27369e-05
5.49402e-05
-1.0213e-05
5.63182e-05
-7.66711e-06
5.74175e-05
-5.10557e-06
5.82389e-05
-2.53627e-06
5.87604e-05
5.80885e-05
-3.44811e-05
1.1365e-05
-3.35675e-05
1.59093e-05
-3.24421e-05
2.02939e-05
-3.11327e-05
2.44701e-05
-2.96559e-05
2.84336e-05
-2.80313e-05
3.21649e-05
-2.62766e-05
3.5652e-05
-2.44086e-05
3.88852e-05
-2.24429e-05
4.18572e-05
-2.03938e-05
4.4563e-05
-1.82746e-05
4.69992e-05
-1.60967e-05
4.91638e-05
-1.38709e-05
5.10559e-05
-1.16063e-05
5.26756e-05
-9.31109e-06
5.4023e-05
-6.9926e-06
5.5099e-05
-4.65737e-06
5.59037e-05
-2.31353e-06
5.64166e-05
5.57749e-05
-3.07529e-05
1.07931e-05
-2.99782e-05
1.51346e-05
-2.90136e-05
1.93292e-05
-2.78805e-05
2.3337e-05
-2.65937e-05
2.71467e-05
-2.51695e-05
3.07407e-05
-2.36233e-05
3.41058e-05
-2.19697e-05
3.72316e-05
-2.02227e-05
4.01102e-05
-1.8395e-05
4.27354e-05
-1.64987e-05
4.51029e-05
-1.45445e-05
4.72096e-05
-1.25423e-05
4.90538e-05
-1.0501e-05
5.06343e-05
-8.42855e-06
5.19506e-05
-6.33209e-06
5.30026e-05
-4.21829e-06
5.37899e-05
-2.09538e-06
5.42936e-05
5.36796e-05
-2.71935e-05
1.03227e-05
-2.65444e-05
1.44855e-05
-2.57266e-05
1.85114e-05
-2.47563e-05
2.23668e-05
-2.36461e-05
2.60365e-05
-2.24094e-05
2.9504e-05
-2.10594e-05
3.27558e-05
-1.96087e-05
3.5781e-05
-1.80696e-05
3.8571e-05
-1.64534e-05
4.11192e-05
-1.47709e-05
4.34204e-05
-1.30322e-05
4.54709e-05
-1.12463e-05
4.72679e-05
-9.42167e-06
4.88096e-05
-7.56591e-06
5.00948e-05
-5.68606e-06
5.11227e-05
-3.78871e-06
5.18925e-05
-1.88196e-06
5.23869e-05
5.17976e-05
-2.37824e-05
9.94477e-06
-2.32488e-05
1.39519e-05
-2.25668e-05
1.78293e-05
-2.17484e-05
2.15483e-05
-2.08037e-05
2.50918e-05
-1.97436e-05
2.8444e-05
-1.85792e-05
3.15914e-05
-1.73213e-05
3.45231e-05
-1.59804e-05
3.72302e-05
-1.45667e-05
3.97055e-05
-1.30899e-05
4.19436e-05
-1.1559e-05
4.394e-05
-9.98243e-06
4.56914e-05
-8.36809e-06
4.71953e-05
-6.72325e-06
4.845e-05
-5.05464e-06
4.94541e-05
-3.36869e-06
5.02066e-05
-1.67333e-06
5.06915e-05
5.01243e-05
-2.05003e-05
9.65285e-06
-2.00748e-05
1.35265e-05
-1.95203e-05
1.72748e-05
-1.8845e-05
2.0873e-05
-1.80568e-05
2.43036e-05
-1.71643e-05
2.75515e-05
-1.61766e-05
3.06036e-05
-1.51026e-05
3.34491e-05
-1.39516e-05
3.60792e-05
-1.27324e-05
3.84864e-05
-1.14537e-05
4.06649e-05
-1.01236e-05
4.26099e-05
-8.74984e-06
4.43176e-05
-7.33979e-06
4.57852e-05
-5.90026e-06
4.70104e-05
-4.43766e-06
4.79915e-05
-2.95817e-06
4.87271e-05
-1.46941e-06
4.92028e-05
4.86549e-05
-1.73286e-05
9.44344e-06
-1.70066e-05
1.32044e-05
-1.65736e-05
1.68418e-05
-1.6035e-05
2.03344e-05
-1.53962e-05
2.36649e-05
-1.4664e-05
2.68193e-05
-1.38453e-05
2.9785e-05
-1.29478e-05
3.25517e-05
-1.19793e-05
3.51107e-05
-1.09476e-05
3.74546e-05
-9.86012e-06
3.95774e-05
-8.72441e-06
4.14742e-05
-7.54747e-06
4.31407e-05
-6.33605e-06
4.45738e-05
-5.0965e-06
4.57709e-05
-3.83489e-06
4.67299e-05
-2.55699e-06
4.74492e-05
-1.27024e-06
4.7916e-05
4.73846e-05
-1.42501e-05
9.31549e-06
-1.4029e-05
1.29833e-05
-1.3714e-05
1.65268e-05
-1.33074e-05
1.99278e-05
-1.28126e-05
2.31702e-05
-1.22345e-05
2.62411e-05
-1.15784e-05
2.9129e-05
-1.08508e-05
3.18241e-05
-1.00582e-05
3.4318e-05
-9.20733e-06
3.66037e-05
-8.30494e-06
3.8675e-05
-7.35769e-06
4.05269e-05
-6.37198e-06
4.2155e-05
-5.354e-06
4.35558e-05
-4.30962e-06
4.47265e-05
-3.24446e-06
4.56648e-05
-2.16397e-06
4.63687e-05
-1.07494e-06
4.6827e-05
4.63097e-05
-1.12486e-05
9.27108e-06
-1.11291e-05
1.28637e-05
-1.09312e-05
1.63289e-05
-1.06548e-05
1.96513e-05
-1.03015e-05
2.28169e-05
-9.87433e-06
2.58139e-05
-9.37749e-06
2.86321e-05
-8.81591e-06
3.12625e-05
-8.19503e-06
3.36972e-05
-7.5206e-06
3.59293e-05
-6.79849e-06
3.79529e-05
-6.03458e-06
3.9763e-05
-5.23465e-06
4.13551e-05
-4.40433e-06
4.27255e-05
-3.54905e-06
4.38713e-05
-2.67403e-06
4.47898e-05
-1.78441e-06
4.54791e-05
-8.86535e-07
4.59292e-05
4.54232e-05
-8.30443e-06
9.31212e-06
-8.28425e-06
1.28435e-05
-8.19744e-06
1.62421e-05
-8.0421e-06
1.9496e-05
-7.81887e-06
2.25936e-05
-7.53018e-06
2.55252e-05
-7.17977e-06
2.82817e-05
-6.7722e-06
3.08549e-05
-6.31255e-06
3.32375e-05
-5.80613e-06
3.54229e-05
-5.25833e-06
3.74051e-05
-4.67446e-06
3.91791e-05
-4.05969e-06
4.07403e-05
-3.41895e-06
4.20848e-05
-2.75697e-06
4.32093e-05
-2.07846e-06
4.41113e-05
-1.38761e-06
4.47883e-05
-6.88689e-07
4.52303e-05
4.47345e-05
-5.47042e-06
9.47827e-06
-5.59233e-06
1.29654e-05
-5.66077e-06
1.63106e-05
-5.66946e-06
1.95047e-05
-5.61544e-06
2.25396e-05
-5.4983e-06
2.54081e-05
-5.31957e-06
2.81029e-05
-5.08222e-06
3.06175e-05
-4.79028e-06
3.29455e-05
-4.44848e-06
3.5081e-05
-4.06197e-06
3.70186e-05
-3.63607e-06
3.87532e-05
-3.17618e-06
4.02804e-05
-2.68754e-06
4.15961e-05
-2.17523e-06
4.2697e-05
-1.64404e-06
4.35801e-05
-1.1004e-06
4.42446e-05
-5.46699e-07
4.46766e-05
4.41878e-05
-2.07865e-06
-2.18218e-06
-2.2666e-06
-2.32465e-06
-2.35245e-06
-2.34799e-06
-2.31066e-06
-2.24092e-06
-2.14009e-06
-2.01015e-06
-1.85356e-06
-1.67309e-06
-1.4717e-06
-1.25245e-06
-1.01837e-06
-7.72358e-07
-5.18132e-07
-2.57928e-07
)
;

boundaryField
{
    leftWall
    {
        type            fixedValue;
        value           nonuniform 0();
    }
    rightWall
    {
        type            fixedValue;
        value           uniform 0;
    }
    lowerWall
    {
        type            fixedValue;
        value           nonuniform 0();
    }
    atmosphere
    {
        type            calculated;
        value           nonuniform List<scalar> 
23
(
9.06663e-07
1.61185e-06
2.29985e-06
2.97304e-06
9.58625e-06
1.3069e-05
1.6395e-05
1.95627e-05
2.25674e-05
2.54036e-05
2.80656e-05
3.05478e-05
3.28447e-05
3.49511e-05
3.6862e-05
3.85727e-05
4.0079e-05
4.13769e-05
4.24629e-05
4.33341e-05
4.39904e-05
4.44164e-05
4.39299e-05
)
;
    }
    defaultFaces
    {
        type            empty;
        value           nonuniform 0();
    }
    procBoundary3to1
    {
        type            processor;
        value           nonuniform List<scalar> 
23
(
-1.64541e-05
-1.75564e-05
-1.97037e-05
-2.17678e-05
-5.75899e-05
-6.18157e-05
-6.89827e-05
-7.93905e-05
-8.35294e-05
-9.03292e-05
-9.49398e-05
-9.9348e-05
-0.000102959
-0.000105992
-0.000108472
-0.000110476
-0.000112071
-0.000113318
-0.000114276
-0.000114986
-0.000115487
-0.000115767
-0.000114448
)
;
    }
    procBoundary3to2
    {
        type            processor;
        value           nonuniform List<scalar> 
25
(
0.000132374
0.000125915
0.000115492
0.000104036
9.52825e-05
8.66562e-05
7.92104e-05
7.2317e-05
6.58094e-05
5.98443e-05
5.42997e-05
4.9176e-05
4.44026e-05
3.99397e-05
3.57435e-05
3.17791e-05
2.80129e-05
2.44168e-05
2.09634e-05
1.7628e-05
1.43865e-05
1.12135e-05
8.09161e-06
4.93504e-06
1.92721e-06
)
;
    }
}


// ************************************************************************* //
