/*--------------------------------*- C++ -*----------------------------------*\
| =========                 |                                                 |
| \\      /  F ield         | OpenFOAM: The Open Source CFD Toolbox           |
|  \\    /   O peration     | Version:  2.4.0                                 |
|   \\  /    A nd           | Web:      www.OpenFOAM.org                      |
|    \\/     M anipulation  |                                                 |
\*---------------------------------------------------------------------------*/
FoamFile
{
    version     2.0;
    format      ascii;
    class       volVectorField;
    location    "0.15";
    object      U.air;
}
// * * * * * * * * * * * * * * * * * * * * * * * * * * * * * * * * * * * * * //

dimensions      [0 1 -1 0 0 0 0];

internalField   nonuniform List<vector> 
575
(
(-0.695066 0.170732 0)
(-0.684074 0.168595 0)
(-0.676198 0.204025 0)
(-0.667917 0.236194 0)
(-0.658008 0.136569 0)
(-0.658737 0.16398 0)
(-0.645034 0.187059 0)
(-0.622173 0.192797 0)
(-0.61102 0.107289 0)
(-0.607384 0.127191 0)
(-0.576493 0.132674 0)
(-0.559944 0.141202 0)
(-0.55238 0.0677463 0)
(-0.541286 0.0852373 0)
(-0.514627 0.0964111 0)
(-0.51564 0.13133 0)
(-0.50982 0.0449364 0)
(-0.501134 0.0574241 0)
(-0.483285 0.0845583 0)
(-0.491674 0.117852 0)
(-0.463485 0.0304406 0)
(-0.461986 0.0537964 0)
(-0.452129 0.0729316 0)
(-0.451301 0.103141 0)
(-0.424115 0.0317141 0)
(-0.424319 0.0471831 0)
(-0.415885 0.0690915 0)
(-0.41288 0.0868138 0)
(-0.38682 0.0250001 0)
(-0.38531 0.0428346 0)
(-0.379702 0.0603331 0)
(-0.375047 0.0762222 0)
(-0.352566 0.0216343 0)
(-0.350724 0.0370029 0)
(-0.346206 0.0530289 0)
(-0.341797 0.0672229 0)
(-0.320615 0.0178506 0)
(-0.318891 0.0323636 0)
(-0.315662 0.0468277 0)
(-0.311597 0.060193 0)
(-0.291085 0.0151275 0)
(-0.289627 0.0284587 0)
(-0.287298 0.0418499 0)
(-0.283729 0.0544459 0)
(-0.263703 0.0130099 0)
(-0.262484 0.0254109 0)
(-0.260832 0.0378374 0)
(-0.257746 0.0497388 0)
(-0.238182 0.0114228 0)
(-0.237173 0.0229977 0)
(-0.236005 0.0345973 0)
(-0.233382 0.0458411 0)
(-0.214299 0.0102419 0)
(-0.213457 0.021101 0)
(-0.212633 0.0319765 0)
(-0.210439 0.0426101 0)
(-0.191827 0.00937369 0)
(-0.191134 0.0196134 0)
(-0.190556 0.0298591 0)
(-0.188746 0.0399373 0)
(-0.170586 0.00875405 0)
(-0.170022 0.0184579 0)
(-0.169619 0.0281592 0)
(-0.168155 0.0377404 0)
(-0.150397 0.0083366 0)
(-0.149956 0.0175807 0)
(-0.149684 0.0268146 0)
(-0.148526 0.035958 0)
(-0.131116 0.00809183 0)
(-0.130789 0.0169451 0)
(-0.130616 0.0257811 0)
(-0.12973 0.0345449 0)
(-0.112596 0.00800031 0)
(-0.11238 0.0165264 0)
(-0.112292 0.0250294 0)
(-0.111649 0.0334701 0)
(-0.0947085 0.00805237 0)
(-0.0946027 0.0163119 0)
(-0.0945905 0.0245421 0)
(-0.0941669 0.0327143 0)
(-0.0773264 0.00824722 0)
(-0.0773306 0.0162988 0)
(-0.077398 0.0243141 0)
(-0.0771767 0.0322707 0)
(-0.0603204 0.008598 0)
(-0.0604434 0.016499 0)
(-0.0606004 0.0243552 0)
(-0.0605741 0.0321475 0)
(-0.0435876 0.00907251 0)
(-0.0438233 0.0169113 0)
(-0.0440876 0.0246746 0)
(-0.0442532 0.0323525 0)
(-0.026754 0.0101256 0)
(-0.0272781 0.0178168 0)
(-0.0277937 0.0254602 0)
(-0.0282488 0.0330344 0)
(-0.0102913 0.0103562 0)
(-0.0102556 0.0184013 0)
(-0.0103286 0.0262518 0)
(-0.0104832 0.0339347 0)
(-0.628888 0.268731 0)
(-0.581376 0.284718 0)
(-0.564057 0.319845 0)
(-0.516589 0.369934 0)
(-0.482913 0.389116 0)
(-0.445368 0.421988 0)
(-0.407781 0.444382 0)
(-0.371119 0.4659 0)
(-0.334517 0.483687 0)
(-0.298749 0.49877 0)
(-0.263758 0.511229 0)
(-0.229723 0.521413 0)
(-0.196653 0.529612 0)
(-0.164534 0.5361 0)
(-0.133288 0.541126 0)
(-0.102805 0.544899 0)
(-0.0729545 0.547575 0)
(-0.0435983 0.549105 0)
(-0.0144507 0.542694 0)
(-0.586704 0.214915 0)
(-0.543435 0.249191 0)
(-0.532921 0.303129 0)
(-0.484572 0.329012 0)
(-0.457512 0.361026 0)
(-0.421017 0.388986 0)
(-0.387329 0.412597 0)
(-0.353065 0.43398 0)
(-0.319219 0.452181 0)
(-0.285831 0.467804 0)
(-0.253032 0.480939 0)
(-0.220929 0.491871 0)
(-0.189557 0.500828 0)
(-0.158916 0.508048 0)
(-0.128957 0.513737 0)
(-0.099607 0.518077 0)
(-0.0707395 0.521202 0)
(-0.0423131 0.523058 0)
(-0.014076 0.516936 0)
(-0.546667 0.188327 0)
(-0.522439 0.232693 0)
(-0.491258 0.273608 0)
(-0.458068 0.297298 0)
(-0.430481 0.333748 0)
(-0.397443 0.358588 0)
(-0.366666 0.383225 0)
(-0.334911 0.404361 0)
(-0.30359 0.422872 0)
(-0.272473 0.438852 0)
(-0.241774 0.452474 0)
(-0.211561 0.463954 0)
(-0.181884 0.473485 0)
(-0.152751 0.481265 0)
(-0.124135 0.487469 0)
(-0.0959831 0.492254 0)
(-0.0681867 0.495743 0)
(-0.0406067 0.497808 0)
(-0.0133824 0.492339 0)
(-0.51187 0.17772 0)
(-0.496226 0.209139 0)
(-0.448796 0.240817 0)
(-0.435611 0.274944 0)
(-0.401664 0.30602 0)
(-0.37505 0.331459 0)
(-0.34574 0.355963 0)
(-0.316797 0.376966 0)
(-0.287746 0.395626 0)
(-0.258824 0.411821 0)
(-0.23014 0.425769 0)
(-0.201774 0.437634 0)
(-0.173778 0.447584 0)
(-0.146172 0.45578 0)
(-0.118945 0.46237 0)
(-0.0920634 0.46748 0)
(-0.0654768 0.471209 0)
(-0.0390598 0.473391 0)
(-0.0128518 0.467942 0)
(-0.477013 0.159893 0)
(-0.451444 0.183664 0)
(-0.422351 0.213694 0)
(-0.406568 0.254952 0)
(-0.375712 0.279799 0)
(-0.352406 0.307173 0)
(-0.325101 0.330708 0)
(-0.298715 0.351717 0)
(-0.271826 0.370344 0)
(-0.245007 0.386639 0)
(-0.218263 0.400775 0)
(-0.191699 0.41289 0)
(-0.165366 0.423126 0)
(-0.139294 0.431617 0)
(-0.113488 0.438488 0)
(-0.087933 0.443842 0)
(-0.0626104 0.447763 0)
(-0.0374855 0.45012 0)
(-0.0123816 0.444825 0)
(-0.442492 0.138987 0)
(-0.409075 0.159486 0)
(-0.398254 0.1958 0)
(-0.375659 0.232595 0)
(-0.351633 0.257394 0)
(-0.32956 0.2847 0)
(-0.304913 0.307583 0)
(-0.280718 0.328467 0)
(-0.255947 0.346948 0)
(-0.231127 0.363236 0)
(-0.206256 0.377443 0)
(-0.181445 0.389693 0)
(-0.156748 0.400104 0)
(-0.132205 0.408791 0)
(-0.107831 0.415858 0)
(-0.0836236 0.421397 0)
(-0.0595666 0.425477 0)
(-0.0356693 0.427983 0)
(-0.0117788 0.423008 0)
(-0.405417 0.117922 0)
(-0.37697 0.144255 0)
(-0.370001 0.179762 0)
(-0.347157 0.21188 0)
(-0.327825 0.237904 0)
(-0.307112 0.264022 0)
(-0.2851 0.286538 0)
(-0.26292 0.307101 0)
(-0.240194 0.325362 0)
(-0.217278 0.341542 0)
(-0.194213 0.355721 0)
(-0.171105 0.368009 0)
(-0.148013 0.378503 0)
(-0.124982 0.3873 0)
(-0.102038 0.394488 0)
(-0.0791879 0.400144 0)
(-0.0564234 0.404327 0)
(-0.0337619 0.406898 0)
(-0.0111281 0.402161 0)
(-0.371014 0.102466 0)
(-0.349395 0.132254 0)
(-0.340767 0.165291 0)
(-0.321183 0.194333 0)
(-0.304285 0.22056 0)
(-0.285396 0.245361 0)
(-0.26568 0.267442 0)
(-0.245432 0.287547 0)
(-0.224643 0.30551 0)
(-0.203544 0.321491 0)
(-0.182216 0.335558 0)
(-0.160756 0.3478 0)
(-0.139232 0.358299 0)
(-0.117693 0.367134 0)
(-0.0961721 0.374377 0)
(-0.0746854 0.380092 0)
(-0.0532374 0.384325 0)
(-0.0318532 0.386932 0)
(-0.0104883 0.382406 0)
(-0.339008 0.0911418 0)
(-0.322653 0.121455 0)
(-0.31297 0.152173 0)
(-0.296721 0.179464 0)
(-0.28147 0.20502 0)
(-0.264493 0.228677 0)
(-0.246757 0.250163 0)
(-0.228341 0.269724 0)
(-0.209366 0.28731 0)
(-0.189997 0.303017 0)
(-0.170332 0.316899 0)
(-0.150466 0.329027 0)
(-0.130469 0.339465 0)
(-0.110395 0.348277 0)
(-0.0902819 0.355522 0)
(-0.0701553 0.361252 0)
(-0.0500298 0.365504 0)
(-0.0299396 0.368135 0)
(-0.00985157 0.363834 0)
(-0.309465 0.0823672 0)
(-0.296542 0.11176 0)
(-0.286971 0.140485 0)
(-0.27331 0.166523 0)
(-0.259556 0.19109 0)
(-0.244382 0.21376 0)
(-0.228409 0.234554 0)
(-0.211709 0.253528 0)
(-0.194426 0.270676 0)
(-0.176696 0.286049 0)
(-0.158619 0.299689 0)
(-0.140288 0.311645 0)
(-0.121773 0.321969 0)
(-0.103131 0.33071 0)
(-0.0844059 0.337915 0)
(-0.0656278 0.343624 0)
(-0.0468189 0.347868 0)
(-0.0280228 0.350508 0)
(-0.00921522 0.346424 0)
(-0.281885 0.0752585 0)
(-0.271459 0.103251 0)
(-0.262565 0.130252 0)
(-0.250887 0.155142 0)
(-0.238565 0.178646 0)
(-0.225036 0.200406 0)
(-0.21067 0.220474 0)
(-0.195568 0.238844 0)
(-0.179867 0.255515 0)
(-0.163685 0.270514 0)
(-0.147122 0.283867 0)
(-0.130265 0.295609 0)
(-0.113185 0.305777 0)
(-0.09594 0.314408 0)
(-0.0785758 0.321537 0)
(-0.0611279 0.327198 0)
(-0.0436242 0.33141 0)
(-0.0261147 0.334044 0)
(-0.00858257 0.330165 0)
(-0.256061 0.0693345 0)
(-0.247553 0.0958493 0)
(-0.239533 0.12134 0)
(-0.22945 0.145117 0)
(-0.218478 0.167576 0)
(-0.206435 0.188465 0)
(-0.193548 0.207802 0)
(-0.179933 0.225562 0)
(-0.165712 0.241737 0)
(-0.150994 0.256336 0)
(-0.135872 0.269373 0)
(-0.12043 0.280869 0)
(-0.104737 0.29085 0)
(-0.0888496 0.299341 0)
(-0.0728167 0.306368 0)
(-0.0566765 0.311956 0)
(-0.0404609 0.31612 0)
(-0.0242247 0.318736 0)
(-0.00795724 0.315048 0)
(-0.231814 0.0643421 0)
(-0.224832 0.0894429 0)
(-0.217714 0.113584 0)
(-0.208972 0.136292 0)
(-0.199255 0.157759 0)
(-0.18856 0.177811 0)
(-0.177039 0.196432 0)
(-0.164808 0.213587 0)
(-0.151976 0.22926 0)
(-0.138641 0.243446 0)
(-0.124892 0.256148 0)
(-0.110807 0.267377 0)
(-0.096451 0.277148 0)
(-0.0818819 0.285477 0)
(-0.0671479 0.292382 0)
(-0.0522892 0.29788 0)
(-0.0373408 0.301982 0)
(-0.0223599 0.30457 0)
(-0.00734087 0.301062 0)
(-0.208983 0.0601205 0)
(-0.203235 0.0839198 0)
(-0.196988 0.106845 0)
(-0.189406 0.128542 0)
(-0.180846 0.149082 0)
(-0.171383 0.168337 0)
(-0.161127 0.186268 0)
(-0.150187 0.202833 0)
(-0.13866 0.218008 0)
(-0.126635 0.231777 0)
(-0.114195 0.244135 0)
(-0.10141 0.255085 0)
(-0.0883438 0.264631 0)
(-0.0750525 0.272783 0)
(-0.0615835 0.279552 0)
(-0.047978 0.284948 0)
(-0.0342723 0.288978 0)
(-0.0205254 0.291531 0)
(-0.00673556 0.28819 0)
(-0.187412 0.0565575 0)
(-0.182679 0.0791802 0)
(-0.17725 0.101009 0)
(-0.170694 0.121765 0)
(-0.163199 0.141446 0)
(-0.154868 0.159951 0)
(-0.145788 0.177224 0)
(-0.136057 0.193221 0)
(-0.125759 0.20791 0)
(-0.114977 0.221267 0)
(-0.103784 0.233281 0)
(-0.092247 0.243945 0)
(-0.0804251 0.253259 0)
(-0.0683716 0.261225 0)
(-0.0561331 0.267848 0)
(-0.0437508 0.273134 0)
(-0.0312618 0.277085 0)
(-0.018725 0.279599 0)
(-0.00614208 0.276412 0)
(-0.166954 0.0535676 0)
(-0.163073 0.0751394 0)
(-0.158405 0.0959848 0)
(-0.15277 0.115875 0)
(-0.146258 0.134767 0)
(-0.138976 0.152572 0)
(-0.130994 0.169227 0)
(-0.122398 0.184684 0)
(-0.113263 0.198904 0)
(-0.103662 0.21186 0)
(-0.0936608 0.223535 0)
(-0.0833216 0.233915 0)
(-0.0726995 0.242994 0)
(-0.0618448 0.25077 0)
(-0.0508025 0.257243 0)
(-0.039613 0.262413 0)
(-0.0283131 0.266281 0)
(-0.0169609 0.268752 0)
(-0.00556174 0.265706 0)
(-0.147473 0.0510862 0)
(-0.144319 0.0717286 0)
(-0.140362 0.0916973 0)
(-0.135565 0.110801 0)
(-0.129966 0.128974 0)
(-0.123662 0.146133 0)
(-0.116711 0.162212 0)
(-0.109186 0.177159 0)
(-0.101154 0.190934 0)
(-0.0926781 0.203505 0)
(-0.0838187 0.21485 0)
(-0.0746314 0.224951 0)
(-0.0651675 0.233799 0)
(-0.0554741 0.241385 0)
(-0.0455943 0.247705 0)
(-0.035567 0.252759 0)
(-0.0254286 0.256542 0)
(-0.0152346 0.258967 0)
(-0.00499454 0.256048 0)
(-0.128842 0.0490645 0)
(-0.126324 0.0688937 0)
(-0.123034 0.088088 0)
(-0.119012 0.106486 0)
(-0.114268 0.124008 0)
(-0.108882 0.140575 0)
(-0.102904 0.156122 0)
(-0.0963952 0.170595 0)
(-0.0894129 0.18395 0)
(-0.0820129 0.196156 0)
(-0.0742487 0.207184 0)
(-0.0661707 0.217016 0)
(-0.057826 0.225637 0)
(-0.0492584 0.233036 0)
(-0.0405084 0.239206 0)
(-0.0316135 0.244143 0)
(-0.0226088 0.247841 0)
(-0.0135464 0.250221 0)
(-0.00444068 0.247415 0)
(-0.110942 0.047468 0)
(-0.108995 0.0665943 0)
(-0.106337 0.0851117 0)
(-0.103042 0.102882 0)
(-0.0991055 0.11982 0)
(-0.0945897 0.135852 0)
(-0.0895363 0.150911 0)
(-0.083996 0.164944 0)
(-0.0780174 0.17791 0)
(-0.0716492 0.189771 0)
(-0.0649386 0.2005 0)
(-0.057931 0.210075 0)
(-0.0506693 0.218479 0)
(-0.043194 0.225698 0)
(-0.0355427 0.231722 0)
(-0.0277511 0.236545 0)
(-0.019853 0.24016 0)
(-0.0118964 0.242494 0)
(-0.00389949 0.239789 0)
(-0.0936615 0.0462745 0)
(-0.0922429 0.0648026 0)
(-0.0901928 0.0827353 0)
(-0.0875908 0.0999534 0)
(-0.0844243 0.116372 0)
(-0.08074 0.131921 0)
(-0.0765712 0.146536 0)
(-0.0719588 0.160167 0)
(-0.0669441 0.17277 0)
(-0.0615689 0.18431 0)
(-0.0558749 0.194757 0)
(-0.0499025 0.204088 0)
(-0.0436905 0.212283 0)
(-0.037276 0.219328 0)
(-0.0306942 0.225212 0)
(-0.0239782 0.229924 0)
(-0.0171603 0.233457 0)
(-0.0102842 0.235746 0)
(-0.00337089 0.233128 0)
(-0.0768964 0.0454739 0)
(-0.0759825 0.0635021 0)
(-0.0745263 0.0809362 0)
(-0.0725941 0.0976739 0)
(-0.0701704 0.113635 0)
(-0.0672867 0.128752 0)
(-0.0639686 0.142969 0)
(-0.060249 0.156234 0)
(-0.0561625 0.168508 0)
(-0.0517451 0.179754 0)
(-0.0470333 0.189942 0)
(-0.0420633 0.199049 0)
(-0.0368702 0.207053 0)
(-0.0314879 0.213938 0)
(-0.0259486 0.219691 0)
(-0.0202833 0.2243 0)
(-0.0145224 0.227757 0)
(-0.00870408 0.230006 0)
(-0.00285172 0.227462 0)
(-0.0605491 0.0450715 0)
(-0.0601367 0.062692 0)
(-0.0592739 0.0797065 0)
(-0.0580044 0.0960287 0)
(-0.0563114 0.111585 0)
(-0.0542132 0.126316 0)
(-0.0517285 0.140169 0)
(-0.0488823 0.153097 0)
(-0.0457028 0.165061 0)
(-0.0422203 0.176028 0)
(-0.0384661 0.185968 0)
(-0.0344721 0.194856 0)
(-0.0302696 0.202671 0)
(-0.0258893 0.209397 0)
(-0.021361 0.215019 0)
(-0.0167135 0.219525 0)
(-0.0119733 0.222907 0)
(-0.00717944 0.22511 0)
(-0.00235194 0.222629 0)
(-0.044513 0.0450661 0)
(-0.0445959 0.0623564 0)
(-0.0443035 0.0790197 0)
(-0.0436555 0.0949864 0)
(-0.0426367 0.110194 0)
(-0.0412589 0.124591 0)
(-0.0395384 0.13813 0)
(-0.0374983 0.150768 0)
(-0.0351646 0.162469 0)
(-0.0325656 0.173199 0)
(-0.0297301 0.182931 0)
(-0.0266872 0.191638 0)
(-0.023465 0.199299 0)
(-0.0200906 0.205896 0)
(-0.0165902 0.211412 0)
(-0.0129881 0.215836 0)
(-0.00931082 0.219153 0)
(-0.00558064 0.221326 0)
(-0.00182673 0.218894 0)
(-0.0289566 0.0455815 0)
(-0.0297548 0.0626063 0)
(-0.030269 0.078966 0)
(-0.030481 0.0946091 0)
(-0.0303604 0.109488 0)
(-0.0298998 0.12356 0)
(-0.0291025 0.136787 0)
(-0.0279812 0.149131 0)
(-0.026555 0.160561 0)
(-0.0248478 0.171045 0)
(-0.0228866 0.180555 0)
(-0.0206997 0.189067 0)
(-0.0183161 0.19656 0)
(-0.0157644 0.203013 0)
(-0.0130725 0.208411 0)
(-0.0102688 0.212741 0)
(-0.00736901 0.215998 0)
(-0.00443935 0.218113 0)
(-0.00144366 0.215725 0)
(-0.0108814 0.0465428 0)
(-0.0114626 0.0634536 0)
(-0.0119727 0.0796041 0)
(-0.01236 0.0949864 0)
(-0.0125932 0.109577 0)
(-0.0126569 0.12335 0)
(-0.0125445 0.136276 0)
(-0.0122556 0.14833 0)
(-0.0117954 0.159484 0)
(-0.0111729 0.169713 0)
(-0.0104003 0.178993 0)
(-0.00949182 0.1873 0)
(-0.00846312 0.194615 0)
(-0.0073304 0.200918 0)
(-0.00610987 0.206192 0)
(-0.00481936 0.210422 0)
(-0.00346691 0.21361 0)
(-0.00209414 0.215678 0)
(-0.000679288 0.213316 0)
)
;

boundaryField
{
    leftWall
    {
        type            fixedValue;
        value           nonuniform 0();
    }
    rightWall
    {
        type            fixedValue;
        value           uniform (0 0 0);
    }
    lowerWall
    {
        type            fixedValue;
        value           nonuniform 0();
    }
    atmosphere
    {
        type            fluxCorrectedVelocity;
        value           nonuniform List<vector> 
23
(
(-0.0102913 0.0103503 0)
(-0.0102556 0.0184005 0)
(-0.0103286 0.0262545 0)
(-0.0104832 0.0339395 0)
(-0.0108814 0.0465494 0)
(-0.0114626 0.0634609 0)
(-0.0119727 0.0796114 0)
(-0.01236 0.0949935 0)
(-0.0125932 0.109584 0)
(-0.0126569 0.123356 0)
(-0.0125445 0.136282 0)
(-0.0122556 0.148335 0)
(-0.0117954 0.159489 0)
(-0.0111729 0.169717 0)
(-0.0104003 0.178996 0)
(-0.00949182 0.187303 0)
(-0.00846312 0.194617 0)
(-0.0073304 0.20092 0)
(-0.00610987 0.206193 0)
(-0.00481936 0.210424 0)
(-0.00346691 0.213611 0)
(-0.00209414 0.215679 0)
(-0.000679288 0.213317 0)
)
;
    }
    defaultFaces
    {
        type            empty;
    }
    procBoundary3to1
    {
        type            processor;
        value           nonuniform List<vector> 
23
(
(-0.712998 0.166679 0)
(-0.691268 0.190458 0)
(-0.683694 0.20617 0)
(-0.682661 0.23893 0)
(-0.680416 0.298886 0)
(-0.623961 0.326376 0)
(-0.587341 0.351598 0)
(-0.554599 0.402805 0)
(-0.505738 0.423613 0)
(-0.470969 0.456376 0)
(-0.427927 0.479014 0)
(-0.389 0.500277 0)
(-0.349345 0.517555 0)
(-0.311049 0.531871 0)
(-0.273761 0.54342 0)
(-0.237753 0.55261 0)
(-0.202998 0.559818 0)
(-0.169453 0.565362 0)
(-0.137009 0.569559 0)
(-0.105517 0.572631 0)
(-0.0747841 0.574788 0)
(-0.0445427 0.575973 0)
(-0.0147703 0.56977 0)
)
;
    }
    procBoundary3to2
    {
        type            processor;
        value           nonuniform List<vector> 
25
(
(-0.737929 0.145577 0)
(-0.694421 0.115307 0)
(-0.626581 0.061533 0)
(-0.569566 0.0280841 0)
(-0.506141 0.0105418 0)
(-0.470507 0.0104695 0)
(-0.428415 0.00118412 0)
(-0.392175 -0.000377941 0)
(-0.355835 -0.00389728 0)
(-0.323222 -0.00520173 0)
(-0.292856 -0.00625289 0)
(-0.264913 -0.0067211 0)
(-0.238969 -0.00692548 0)
(-0.214774 -0.00691208 0)
(-0.192074 -0.00675916 0)
(-0.170661 -0.00650462 0)
(-0.150346 -0.00617864 0)
(-0.130965 -0.00579426 0)
(-0.112368 -0.00536381 0)
(-0.0944146 -0.00488864 0)
(-0.0769729 -0.0043698 0)
(-0.0599051 -0.00378102 0)
(-0.0430746 -0.00327977 0)
(-0.0262303 -0.00189423 0)
(-0.0102947 -0.00225369 0)
)
;
    }
}


// ************************************************************************* //
