/*--------------------------------*- C++ -*----------------------------------*\
| =========                 |                                                 |
| \\      /  F ield         | OpenFOAM: The Open Source CFD Toolbox           |
|  \\    /   O peration     | Version:  2.4.0                                 |
|   \\  /    A nd           | Web:      www.OpenFOAM.org                      |
|    \\/     M anipulation  |                                                 |
\*---------------------------------------------------------------------------*/
FoamFile
{
    version     2.0;
    format      ascii;
    class       volVectorField;
    location    "0.15";
    object      U.oil;
}
// * * * * * * * * * * * * * * * * * * * * * * * * * * * * * * * * * * * * * //

dimensions      [0 1 -1 0 0 0 0];

internalField   nonuniform List<vector> 
575
(
(-0.696575 0.168095 0)
(-0.685059 0.166784 0)
(-0.676809 0.2031 0)
(-0.668314 0.23579 0)
(-0.65855 0.135819 0)
(-0.659115 0.163449 0)
(-0.645297 0.186773 0)
(-0.622369 0.192657 0)
(-0.611263 0.106922 0)
(-0.607545 0.127022 0)
(-0.576614 0.132589 0)
(-0.560036 0.14116 0)
(-0.552531 0.0675354 0)
(-0.541359 0.0851953 0)
(-0.514689 0.0964019 0)
(-0.515699 0.13134 0)
(-0.509916 0.044822 0)
(-0.501185 0.057427 0)
(-0.483331 0.08458 0)
(-0.491721 0.11788 0)
(-0.463525 0.0304072 0)
(-0.462025 0.0538156 0)
(-0.45217 0.0729601 0)
(-0.451342 0.103173 0)
(-0.424146 0.031731 0)
(-0.424354 0.0472082 0)
(-0.415921 0.0691199 0)
(-0.412916 0.0868443 0)
(-0.386848 0.0250222 0)
(-0.385341 0.0428593 0)
(-0.379734 0.0603598 0)
(-0.375079 0.0762507 0)
(-0.352591 0.0216558 0)
(-0.350752 0.0370262 0)
(-0.346235 0.0530537 0)
(-0.341825 0.0672493 0)
(-0.320637 0.0178708 0)
(-0.318916 0.0323852 0)
(-0.315687 0.0468506 0)
(-0.311622 0.0602174 0)
(-0.291104 0.0151462 0)
(-0.289649 0.0284785 0)
(-0.287321 0.041871 0)
(-0.283751 0.0544684 0)
(-0.263721 0.013027 0)
(-0.262504 0.0254292 0)
(-0.260852 0.0378568 0)
(-0.257766 0.0497595 0)
(-0.238198 0.0114385 0)
(-0.23719 0.0230146 0)
(-0.236023 0.0346152 0)
(-0.233399 0.0458602 0)
(-0.214313 0.0102565 0)
(-0.213473 0.0211165 0)
(-0.212648 0.031993 0)
(-0.210453 0.0426277 0)
(-0.191839 0.00938708 0)
(-0.191147 0.0196276 0)
(-0.190569 0.0298743 0)
(-0.188759 0.0399536 0)
(-0.170596 0.00876644 0)
(-0.170033 0.0184711 0)
(-0.16963 0.0281733 0)
(-0.168166 0.0377554 0)
(-0.150406 0.00834814 0)
(-0.149966 0.017593 0)
(-0.149694 0.0268277 0)
(-0.148535 0.0359719 0)
(-0.131123 0.00810268 0)
(-0.130797 0.0169567 0)
(-0.130624 0.0257934 0)
(-0.129738 0.0345579 0)
(-0.112602 0.00801063 0)
(-0.112387 0.0165374 0)
(-0.112299 0.025041 0)
(-0.111655 0.0334823 0)
(-0.0947134 0.00806235 0)
(-0.094608 0.0163224 0)
(-0.0945958 0.0245532 0)
(-0.094172 0.032726 0)
(-0.0773301 0.00825705 0)
(-0.0773348 0.0163091 0)
(-0.0774022 0.024325 0)
(-0.0771807 0.0322821 0)
(-0.0603232 0.0086078 0)
(-0.0604464 0.0165093 0)
(-0.0606035 0.024366 0)
(-0.060577 0.0321588 0)
(-0.0435894 0.00908236 0)
(-0.0438254 0.0169216 0)
(-0.0440896 0.0246855 0)
(-0.044255 0.0323639 0)
(-0.0267549 0.0101356 0)
(-0.027279 0.0178272 0)
(-0.0277947 0.0254711 0)
(-0.0282498 0.0330456 0)
(-0.0102915 0.0103666 0)
(-0.0102558 0.0184119 0)
(-0.0103289 0.0262627 0)
(-0.0104835 0.0339458 0)
(-0.629198 0.268614 0)
(-0.581455 0.284768 0)
(-0.564123 0.31992 0)
(-0.516651 0.370015 0)
(-0.482971 0.389204 0)
(-0.445423 0.422081 0)
(-0.407833 0.44448 0)
(-0.37117 0.466 0)
(-0.334567 0.483791 0)
(-0.298798 0.498876 0)
(-0.263805 0.511338 0)
(-0.229767 0.521525 0)
(-0.196692 0.529725 0)
(-0.164568 0.536216 0)
(-0.133316 0.541243 0)
(-0.102826 0.545017 0)
(-0.0729699 0.547695 0)
(-0.0436076 0.549226 0)
(-0.0144531 0.542816 0)
(-0.586844 0.214839 0)
(-0.543501 0.249238 0)
(-0.532981 0.303196 0)
(-0.484628 0.329088 0)
(-0.457565 0.361106 0)
(-0.421068 0.389072 0)
(-0.387377 0.412686 0)
(-0.353113 0.434073 0)
(-0.319267 0.452276 0)
(-0.285878 0.467902 0)
(-0.253077 0.48104 0)
(-0.22097 0.491974 0)
(-0.189594 0.500934 0)
(-0.158948 0.508156 0)
(-0.128983 0.513847 0)
(-0.0996269 0.518188 0)
(-0.0707536 0.521314 0)
(-0.0423222 0.523171 0)
(-0.0140794 0.517048 0)
(-0.546745 0.188314 0)
(-0.522496 0.232741 0)
(-0.491311 0.27367 0)
(-0.458119 0.297368 0)
(-0.43053 0.333822 0)
(-0.39749 0.358667 0)
(-0.366712 0.383308 0)
(-0.334957 0.404447 0)
(-0.303636 0.42296 0)
(-0.272517 0.438943 0)
(-0.241816 0.452568 0)
(-0.2116 0.46405 0)
(-0.181918 0.473584 0)
(-0.152781 0.481367 0)
(-0.12416 0.487572 0)
(-0.0960021 0.492358 0)
(-0.0682005 0.495848 0)
(-0.0406152 0.497914 0)
(-0.0133851 0.492445 0)
(-0.511926 0.177744 0)
(-0.496275 0.209187 0)
(-0.448844 0.240875 0)
(-0.435656 0.275007 0)
(-0.401708 0.306089 0)
(-0.375093 0.331532 0)
(-0.345783 0.356039 0)
(-0.31684 0.377045 0)
(-0.287789 0.395708 0)
(-0.258866 0.411905 0)
(-0.23018 0.425856 0)
(-0.201811 0.437724 0)
(-0.173811 0.447676 0)
(-0.146201 0.455875 0)
(-0.118968 0.462466 0)
(-0.0920816 0.467577 0)
(-0.0654897 0.471307 0)
(-0.0390681 0.47349 0)
(-0.012855 0.468041 0)
(-0.477059 0.159927 0)
(-0.451487 0.18371 0)
(-0.422393 0.213746 0)
(-0.406609 0.255009 0)
(-0.375752 0.279861 0)
(-0.352446 0.307239 0)
(-0.325141 0.330778 0)
(-0.298755 0.351789 0)
(-0.271866 0.370419 0)
(-0.245046 0.386717 0)
(-0.2183 0.400856 0)
(-0.191733 0.412973 0)
(-0.165396 0.423211 0)
(-0.13932 0.431705 0)
(-0.11351 0.438577 0)
(-0.0879502 0.443933 0)
(-0.062623 0.447854 0)
(-0.0374933 0.450212 0)
(-0.0123841 0.444918 0)
(-0.442532 0.139023 0)
(-0.409113 0.159529 0)
(-0.398291 0.195848 0)
(-0.375695 0.232648 0)
(-0.351669 0.257451 0)
(-0.329597 0.284761 0)
(-0.30495 0.307647 0)
(-0.280756 0.328533 0)
(-0.255985 0.347017 0)
(-0.231164 0.363308 0)
(-0.206291 0.377518 0)
(-0.181477 0.38977 0)
(-0.156777 0.400184 0)
(-0.13223 0.408873 0)
(-0.107852 0.415941 0)
(-0.0836398 0.421481 0)
(-0.0595782 0.425563 0)
(-0.0356767 0.428069 0)
(-0.0117817 0.423094 0)
(-0.405451 0.117956 0)
(-0.377003 0.144294 0)
(-0.370034 0.179806 0)
(-0.347189 0.211928 0)
(-0.327858 0.237956 0)
(-0.307145 0.264078 0)
(-0.285135 0.286596 0)
(-0.262956 0.307162 0)
(-0.24023 0.325426 0)
(-0.217313 0.341608 0)
(-0.194246 0.35579 0)
(-0.171134 0.36808 0)
(-0.148039 0.378577 0)
(-0.125005 0.387376 0)
(-0.102058 0.394565 0)
(-0.079203 0.400223 0)
(-0.0564345 0.404406 0)
(-0.0337688 0.406979 0)
(-0.0111303 0.402242 0)
(-0.371045 0.102498 0)
(-0.349424 0.132289 0)
(-0.340795 0.16533 0)
(-0.321212 0.194377 0)
(-0.304315 0.220607 0)
(-0.285427 0.245411 0)
(-0.265712 0.267495 0)
(-0.245465 0.287602 0)
(-0.224676 0.305568 0)
(-0.203576 0.321552 0)
(-0.182246 0.335621 0)
(-0.160784 0.347866 0)
(-0.139257 0.358367 0)
(-0.117715 0.367204 0)
(-0.0961899 0.374449 0)
(-0.0746996 0.380165 0)
(-0.0532476 0.3844 0)
(-0.0318597 0.387007 0)
(-0.0104908 0.382482 0)
(-0.339036 0.0911709 0)
(-0.322679 0.121487 0)
(-0.312996 0.15221 0)
(-0.296747 0.179504 0)
(-0.281497 0.205063 0)
(-0.264522 0.228723 0)
(-0.246787 0.250212 0)
(-0.228372 0.269775 0)
(-0.209397 0.287364 0)
(-0.190027 0.303073 0)
(-0.17036 0.316958 0)
(-0.150491 0.329088 0)
(-0.130491 0.339528 0)
(-0.110414 0.348342 0)
(-0.0902983 0.355589 0)
(-0.0701683 0.361321 0)
(-0.0500395 0.365573 0)
(-0.0299456 0.368205 0)
(-0.00985351 0.363904 0)
(-0.309489 0.0823939 0)
(-0.296565 0.11179 0)
(-0.286993 0.140518 0)
(-0.273333 0.166559 0)
(-0.25958 0.19113 0)
(-0.244408 0.213802 0)
(-0.228437 0.234598 0)
(-0.211738 0.253575 0)
(-0.194455 0.270725 0)
(-0.176723 0.286101 0)
(-0.158645 0.299743 0)
(-0.140311 0.311702 0)
(-0.121794 0.322028 0)
(-0.103149 0.330771 0)
(-0.084421 0.337977 0)
(-0.0656399 0.343688 0)
(-0.0468276 0.347932 0)
(-0.0280284 0.350573 0)
(-0.00921742 0.34649 0)
(-0.281906 0.0752832 0)
(-0.271478 0.103278 0)
(-0.262585 0.130282 0)
(-0.250907 0.155175 0)
(-0.238587 0.178682 0)
(-0.22506 0.200444 0)
(-0.210695 0.220514 0)
(-0.195595 0.238886 0)
(-0.179893 0.25556 0)
(-0.163709 0.270561 0)
(-0.147145 0.283917 0)
(-0.130286 0.295662 0)
(-0.113204 0.305832 0)
(-0.0959564 0.314465 0)
(-0.0785897 0.321596 0)
(-0.0611389 0.327257 0)
(-0.0436325 0.33147 0)
(-0.0261199 0.334105 0)
(-0.00858424 0.330226 0)
(-0.256079 0.0693572 0)
(-0.24757 0.0958747 0)
(-0.23955 0.121368 0)
(-0.229468 0.145147 0)
(-0.218498 0.167608 0)
(-0.206457 0.188499 0)
(-0.193572 0.207839 0)
(-0.179958 0.225601 0)
(-0.165736 0.241779 0)
(-0.151016 0.25638 0)
(-0.135893 0.26942 0)
(-0.120449 0.280918 0)
(-0.104754 0.290901 0)
(-0.0888646 0.299393 0)
(-0.0728294 0.306422 0)
(-0.0566868 0.312011 0)
(-0.0404683 0.316176 0)
(-0.0242295 0.318793 0)
(-0.00795916 0.315105 0)
(-0.23183 0.064363 0)
(-0.224847 0.0894662 0)
(-0.217729 0.11361 0)
(-0.208988 0.13632 0)
(-0.199273 0.157788 0)
(-0.188581 0.177842 0)
(-0.177061 0.196465 0)
(-0.16483 0.213623 0)
(-0.151997 0.229299 0)
(-0.138661 0.243487 0)
(-0.124911 0.256192 0)
(-0.110824 0.267423 0)
(-0.0964663 0.277196 0)
(-0.0818955 0.285526 0)
(-0.0671595 0.292433 0)
(-0.0522986 0.297932 0)
(-0.0373478 0.302035 0)
(-0.0223644 0.304623 0)
(-0.00734231 0.301116 0)
(-0.208997 0.0601398 0)
(-0.203248 0.0839412 0)
(-0.197001 0.106869 0)
(-0.189421 0.128567 0)
(-0.180863 0.149108 0)
(-0.171402 0.168366 0)
(-0.161147 0.186298 0)
(-0.150207 0.202866 0)
(-0.138679 0.218043 0)
(-0.126653 0.231815 0)
(-0.114211 0.244176 0)
(-0.101425 0.255128 0)
(-0.0883577 0.264676 0)
(-0.0750648 0.272829 0)
(-0.0615941 0.279599 0)
(-0.0479867 0.284996 0)
(-0.0342787 0.289027 0)
(-0.0205296 0.29158 0)
(-0.00673724 0.28824 0)
(-0.187423 0.0565752 0)
(-0.182691 0.0791998 0)
(-0.177262 0.101031 0)
(-0.170708 0.121787 0)
(-0.163214 0.14147 0)
(-0.154885 0.159977 0)
(-0.145806 0.177253 0)
(-0.136074 0.193252 0)
(-0.125776 0.207943 0)
(-0.114993 0.221303 0)
(-0.103799 0.233319 0)
(-0.0922605 0.243985 0)
(-0.0804375 0.253301 0)
(-0.0683827 0.261268 0)
(-0.0561427 0.267893 0)
(-0.0437587 0.273179 0)
(-0.0312679 0.277131 0)
(-0.0187289 0.279645 0)
(-0.00614332 0.276459 0)
(-0.166964 0.053584 0)
(-0.163082 0.0751574 0)
(-0.158416 0.0960042 0)
(-0.152782 0.115896 0)
(-0.146271 0.134789 0)
(-0.138991 0.152596 0)
(-0.131009 0.169254 0)
(-0.122413 0.184713 0)
(-0.113277 0.198935 0)
(-0.103675 0.211894 0)
(-0.0936733 0.22357 0)
(-0.0833335 0.233952 0)
(-0.0727106 0.243033 0)
(-0.0618548 0.25081 0)
(-0.0508112 0.257284 0)
(-0.0396203 0.262455 0)
(-0.0283185 0.266324 0)
(-0.0169645 0.268795 0)
(-0.00556318 0.265749 0)
(-0.147481 0.0511013 0)
(-0.144328 0.0717451 0)
(-0.140371 0.0917151 0)
(-0.135576 0.11082 0)
(-0.129979 0.128995 0)
(-0.123675 0.146156 0)
(-0.116724 0.162237 0)
(-0.109199 0.177187 0)
(-0.101166 0.190964 0)
(-0.0926895 0.203537 0)
(-0.0838296 0.214884 0)
(-0.0746419 0.224987 0)
(-0.0651774 0.233835 0)
(-0.0554832 0.241423 0)
(-0.0456022 0.247744 0)
(-0.0355736 0.252798 0)
(-0.0254337 0.256582 0)
(-0.0152378 0.259008 0)
(-0.00499554 0.256089 0)
(-0.128849 0.0490786 0)
(-0.126332 0.068909 0)
(-0.123042 0.0881045 0)
(-0.119022 0.106504 0)
(-0.114279 0.124027 0)
(-0.108893 0.140597 0)
(-0.102915 0.156146 0)
(-0.0964057 0.170621 0)
(-0.0894228 0.183979 0)
(-0.0820225 0.196186 0)
(-0.0742581 0.207216 0)
(-0.0661799 0.217049 0)
(-0.0578347 0.225671 0)
(-0.0492665 0.233072 0)
(-0.0405155 0.239243 0)
(-0.0316195 0.244181 0)
(-0.0226133 0.247879 0)
(-0.0135494 0.250259 0)
(-0.00444185 0.247454 0)
(-0.110948 0.0474813 0)
(-0.109002 0.0666087 0)
(-0.106344 0.0851273 0)
(-0.103051 0.102899 0)
(-0.0991145 0.119839 0)
(-0.094599 0.135872 0)
(-0.0895454 0.150933 0)
(-0.0840046 0.164969 0)
(-0.0780256 0.177937 0)
(-0.0716573 0.1898 0)
(-0.0649467 0.20053 0)
(-0.057939 0.210107 0)
(-0.050677 0.218511 0)
(-0.043201 0.225731 0)
(-0.035549 0.231757 0)
(-0.0277564 0.236581 0)
(-0.0198572 0.240196 0)
(-0.011899 0.24253 0)
(-0.00390027 0.239826 0)
(-0.0936664 0.0462872 0)
(-0.0922482 0.0648164 0)
(-0.0901988 0.0827502 0)
(-0.0875976 0.0999697 0)
(-0.0844317 0.11639 0)
(-0.0807475 0.131941 0)
(-0.0765784 0.146558 0)
(-0.0719657 0.160191 0)
(-0.0669508 0.172795 0)
(-0.0615757 0.184337 0)
(-0.0558817 0.194785 0)
(-0.0499092 0.204118 0)
(-0.043697 0.212314 0)
(-0.0372821 0.219361 0)
(-0.0306996 0.225245 0)
(-0.0239829 0.229958 0)
(-0.0171638 0.233492 0)
(-0.0102866 0.235781 0)
(-0.0033719 0.233164 0)
(-0.0769003 0.0454862 0)
(-0.0759867 0.0635156 0)
(-0.0745311 0.0809509 0)
(-0.0725995 0.09769 0)
(-0.0701761 0.113652 0)
(-0.0672924 0.128772 0)
(-0.0639741 0.14299 0)
(-0.0602544 0.156258 0)
(-0.0561678 0.168533 0)
(-0.0517505 0.17978 0)
(-0.0470389 0.18997 0)
(-0.0420689 0.199078 0)
(-0.0368756 0.207083 0)
(-0.0314929 0.213969 0)
(-0.0259532 0.219723 0)
(-0.0202872 0.224334 0)
(-0.0145258 0.227791 0)
(-0.00870634 0.23004 0)
(-0.00285239 0.227497 0)
(-0.0605519 0.0450837 0)
(-0.0601398 0.0627052 0)
(-0.0592774 0.079721 0)
(-0.0580084 0.0960447 0)
(-0.0563156 0.111603 0)
(-0.0542174 0.126336 0)
(-0.0517325 0.14019 0)
(-0.0488863 0.153119 0)
(-0.0457068 0.165085 0)
(-0.0422245 0.176053 0)
(-0.0384705 0.185994 0)
(-0.0344765 0.194884 0)
(-0.0302739 0.202701 0)
(-0.0258933 0.209428 0)
(-0.0213646 0.215051 0)
(-0.0167169 0.219558 0)
(-0.0119762 0.222941 0)
(-0.00718122 0.225144 0)
(-0.00235245 0.222663 0)
(-0.0445148 0.0450782 0)
(-0.0445979 0.0623694 0)
(-0.0443059 0.0790339 0)
(-0.0436581 0.0950019 0)
(-0.0426394 0.110211 0)
(-0.0412616 0.12461 0)
(-0.0395411 0.13815 0)
(-0.0375009 0.150789 0)
(-0.0351674 0.162491 0)
(-0.0325685 0.173223 0)
(-0.0297332 0.182956 0)
(-0.0266903 0.191665 0)
(-0.023468 0.199328 0)
(-0.0200935 0.205925 0)
(-0.0165929 0.211443 0)
(-0.0129907 0.215868 0)
(-0.00931303 0.219185 0)
(-0.00558204 0.221359 0)
(-0.00182723 0.218928 0)
(-0.0289576 0.0455934 0)
(-0.029756 0.062619 0)
(-0.0302703 0.0789797 0)
(-0.0304824 0.0946239 0)
(-0.0303619 0.109504 0)
(-0.0299013 0.123577 0)
(-0.029104 0.136805 0)
(-0.0279827 0.149151 0)
(-0.0265566 0.160582 0)
(-0.0248496 0.171067 0)
(-0.0228884 0.180579 0)
(-0.0207016 0.189092 0)
(-0.0183179 0.196586 0)
(-0.0157661 0.203041 0)
(-0.0130742 0.20844 0)
(-0.0102704 0.212772 0)
(-0.00737044 0.216029 0)
(-0.00444041 0.218145 0)
(-0.00144404 0.215757 0)
(-0.0108818 0.0465545 0)
(-0.0114629 0.0634661 0)
(-0.0119731 0.0796175 0)
(-0.0123604 0.0950008 0)
(-0.0125936 0.109592 0)
(-0.0126574 0.123366 0)
(-0.012545 0.136294 0)
(-0.0122561 0.148349 0)
(-0.0117959 0.159504 0)
(-0.0111734 0.169734 0)
(-0.0104009 0.179015 0)
(-0.00949244 0.187324 0)
(-0.00846373 0.19464 0)
(-0.00733097 0.200944 0)
(-0.00611042 0.206219 0)
(-0.00481991 0.210451 0)
(-0.00346743 0.21364 0)
(-0.00209451 0.215709 0)
(-0.000679421 0.213348 0)
)
;

boundaryField
{
    leftWall
    {
        type            fixedValue;
        value           nonuniform 0();
    }
    rightWall
    {
        type            fixedValue;
        value           uniform (0 0 0);
    }
    lowerWall
    {
        type            fixedValue;
        value           nonuniform 0();
    }
    atmosphere
    {
        type            fluxCorrectedVelocity;
        value           nonuniform List<vector> 
23
(
(-0.0102915 0.0103503 0)
(-0.0102558 0.0184005 0)
(-0.0103289 0.0262545 0)
(-0.0104835 0.0339395 0)
(-0.0108818 0.0465494 0)
(-0.0114629 0.0634609 0)
(-0.0119731 0.0796114 0)
(-0.0123604 0.0949935 0)
(-0.0125936 0.109584 0)
(-0.0126574 0.123356 0)
(-0.012545 0.136282 0)
(-0.0122561 0.148335 0)
(-0.0117959 0.159489 0)
(-0.0111734 0.169717 0)
(-0.0104009 0.178996 0)
(-0.00949244 0.187303 0)
(-0.00846373 0.194617 0)
(-0.00733097 0.20092 0)
(-0.00611042 0.206193 0)
(-0.00481991 0.210424 0)
(-0.00346743 0.213611 0)
(-0.00209451 0.215679 0)
(-0.000679421 0.213317 0)
)
;
    }
    defaultFaces
    {
        type            empty;
    }
    procBoundary3to1
    {
        type            processor;
        value           nonuniform List<vector> 
23
(
(-0.720925 0.164816 0)
(-0.697457 0.191234 0)
(-0.687235 0.207108 0)
(-0.684428 0.239315 0)
(-0.681254 0.299088 0)
(-0.624054 0.326445 0)
(-0.587413 0.351681 0)
(-0.554666 0.402895 0)
(-0.505801 0.423709 0)
(-0.471028 0.456477 0)
(-0.427983 0.47912 0)
(-0.389054 0.500386 0)
(-0.349398 0.517668 0)
(-0.3111 0.531986 0)
(-0.27381 0.543538 0)
(-0.237799 0.552729 0)
(-0.203038 0.55994 0)
(-0.169488 0.565486 0)
(-0.137038 0.569684 0)
(-0.105539 0.572758 0)
(-0.0747998 0.574917 0)
(-0.044553 0.576103 0)
(-0.0147748 0.569901 0)
)
;
    }
    procBoundary3to2
    {
        type            processor;
        value           nonuniform List<vector> 
25
(
(-0.739061 0.142043 0)
(-0.696328 0.113179 0)
(-0.62861 0.0575271 0)
(-0.571342 0.0240523 0)
(-0.506684 0.00845588 0)
(-0.470641 0.00981449 0)
(-0.42845 0.00106626 0)
(-0.392199 -0.00037367 0)
(-0.355856 -0.00387969 0)
(-0.323241 -0.00518338 0)
(-0.292872 -0.00623576 0)
(-0.264927 -0.00670531 0)
(-0.238982 -0.00691096 0)
(-0.214785 -0.00689871 0)
(-0.192084 -0.00674684 0)
(-0.17067 -0.00649322 0)
(-0.150353 -0.00616802 0)
(-0.130971 -0.00578427 0)
(-0.112373 -0.00535427 0)
(-0.0944184 -0.00487938 0)
(-0.0769758 -0.00436065 0)
(-0.0599072 -0.00377184 0)
(-0.0430759 -0.0032705 0)
(-0.026231 -0.00188467 0)
(-0.0102949 -0.00224384 0)
)
;
    }
}


// ************************************************************************* //
