/*--------------------------------*- C++ -*----------------------------------*\
| =========                 |                                                 |
| \\      /  F ield         | OpenFOAM: The Open Source CFD Toolbox           |
|  \\    /   O peration     | Version:  2.4.0                                 |
|   \\  /    A nd           | Web:      www.OpenFOAM.org                      |
|    \\/     M anipulation  |                                                 |
\*---------------------------------------------------------------------------*/
FoamFile
{
    version     2.0;
    format      ascii;
    class       volScalarField;
    location    "0.3";
    object      alpha.water;
}
// * * * * * * * * * * * * * * * * * * * * * * * * * * * * * * * * * * * * * //

dimensions      [0 0 0 0 0 0 0];

internalField   nonuniform List<scalar> 
2268
(
1.67936e-11
1.15045e-11
9.7428e-12
1.02239e-11
1.06884e-11
1.6905e-11
1.63143e-11
5.56876e-11
1.15315e-10
1.79433e-10
4.15736e-10
9.80852e-10
1.59585e-09
1.83679e-09
1.73529e-09
1.36312e-09
8.25749e-10
3.57379e-10
1.56184e-10
1.25048e-10
1.09262e-10
8.80068e-11
5.55871e-11
1.64537e-10
1.07024e-10
8.84825e-11
9.28705e-11
1.00698e-10
1.90943e-10
2.0352e-10
7.06722e-10
1.38798e-09
2.00479e-09
3.82918e-09
7.12921e-09
9.60469e-09
9.56324e-09
8.63472e-09
6.46106e-09
3.98182e-09
3.96105e-09
8.57057e-09
2.07445e-08
2.07948e-08
1.16499e-08
1.67662e-09
8.24317e-10
5.29078e-10
4.7276e-10
5.65323e-10
6.9574e-10
1.55691e-09
1.80802e-09
5.18857e-09
8.83449e-09
1.21354e-08
1.91129e-08
2.80905e-08
2.9264e-08
2.7744e-08
3.27482e-08
4.20505e-08
7.88741e-08
2.83251e-07
1.21785e-06
2.57178e-06
2.16416e-06
1.15046e-06
1.61138e-07
3.82802e-09
2.78951e-09
3.01733e-09
4.04711e-09
5.14615e-09
1.03939e-08
1.26399e-08
2.62701e-08
3.63687e-08
4.82902e-08
6.4941e-08
1.84697e-07
1.30837e-06
7.06137e-06
2.59714e-05
4.4975e-05
8.05839e-05
9.46503e-05
9.11869e-05
7.70899e-05
4.13791e-05
1.27667e-05
8.78535e-07
2.3853e-08
1.72644e-08
1.94653e-08
2.44523e-08
2.86709e-08
5.49439e-08
7.25189e-08
3.35815e-07
1.54769e-06
4.33642e-06
1.96163e-05
0.000107875
0.000581302
0.00225287
0.00665799
0.0126371
0.0248693
0.020801
0.0148414
0.00721099
0.0017538
0.000187247
1.42225e-05
1.34444e-06
1.70732e-06
2.68883e-06
5.67151e-06
8.88672e-06
3.83431e-05
6.35704e-05
0.000228801
0.000720586
0.001659
0.00444675
0.0125704
0.0403761
0.101668
0.207616
0.339292
0.479148
0.647342
0.576039
0.335863
0.0605288
0.00260549
3.44947e-05
0.000880159
0.00101788
0.00134227
0.00208819
0.00283303
0.0064628
0.00954292
0.0191723
0.0398554
0.0715162
0.128276
0.234262
0.438382
0.676484
0.861982
0.9645
0.992773
0.988235
0.960123
0.852567
0.285697
0.0183135
0.000169667
0.0469251
0.0506981
0.0586885
0.0734893
0.0888005
0.131862
0.170433
0.239775
0.346288
0.470819
0.618512
0.786795
0.932455
0.989438
0.999117
0.999364
0.997844
0.991974
0.974235
0.934561
0.60422
0.0628
0.000668395
5.30731e-10
9.27093e-10
1.16098e-09
1.38547e-09
1.55302e-09
1.61259e-09
1.62988e-09
1.69388e-09
1.48497e-09
1.36069e-09
1.05108e-09
7.41826e-10
4.29903e-10
1.71241e-10
3.81097e-11
1.97294e-11
1.01324e-11
3.42471e-12
5.75138e-13
6.85593e-10
1.81481e-09
2.85375e-09
3.36683e-09
3.56677e-09
3.54707e-09
3.11137e-09
2.89585e-09
2.61919e-09
2.38595e-09
2.1396e-09
1.83859e-09
1.50779e-09
1.1099e-09
5.17474e-10
1.32642e-10
1.81749e-11
8.9936e-12
2.57365e-12
9.74883e-10
2.99642e-09
4.29458e-09
4.99661e-09
5.66596e-09
5.94046e-09
4.66464e-09
3.36733e-09
2.90161e-09
2.49086e-09
2.25054e-09
2.23878e-09
2.07202e-09
1.73194e-09
1.14094e-09
4.47859e-10
7.34545e-11
1.70406e-11
7.3758e-12
1.22996e-09
3.53026e-09
5.13596e-09
7.06123e-09
1.10106e-08
1.50925e-08
1.64773e-08
9.84231e-09
6.89311e-09
3.88415e-09
2.14899e-09
1.83241e-09
1.9304e-09
1.8706e-09
1.46228e-09
7.26461e-10
2.48596e-10
3.40814e-11
1.41244e-11
1.41298e-09
3.47893e-09
4.57147e-09
7.18627e-09
2.05676e-08
4.2558e-08
6.03514e-08
5.26129e-08
3.7993e-08
1.68745e-08
4.4848e-09
1.41197e-09
1.46368e-09
1.59537e-09
1.46559e-09
9.26555e-10
4.77381e-10
8.27767e-11
1.41778e-11
1.47066e-09
2.99941e-09
2.75162e-09
5.07992e-09
2.81421e-08
8.78048e-08
1.48645e-07
1.56763e-07
1.13466e-07
4.60527e-08
1.09811e-08
1.43444e-09
9.21491e-10
1.10243e-09
1.2564e-09
9.88085e-10
6.39557e-10
1.68061e-10
2.40427e-11
1.36986e-09
2.43349e-09
6.76763e-10
8.67123e-10
3.02064e-08
1.35661e-07
2.86214e-07
3.10872e-07
2.12604e-07
7.78252e-08
1.62952e-08
1.34138e-09
5.50496e-10
6.87039e-10
9.91778e-10
9.38349e-10
7.08112e-10
2.86448e-10
4.67627e-11
2.52147e-11
1.04949e-09
1.74122e-10
3.33525e-11
3.35171e-09
1.60305e-07
4.71973e-07
4.91312e-07
3.08662e-07
9.98674e-08
1.38617e-08
6.11557e-10
2.81913e-10
3.88453e-10
7.11508e-10
8.64472e-10
7.49468e-10
3.80443e-10
6.39666e-11
0.490855
0.502983
0.526352
0.5621
0.601856
0.666664
0.724479
0.792089
0.860104
0.916423
0.958732
0.9847
0.996283
0.999372
0.999863
0.99973
0.999047
0.996294
0.984626
0.940816
0.841746
0.270392
0.0200637
0.973523
0.975826
0.979622
0.984356
0.988915
0.993231
0.996303
0.998295
0.999322
0.999759
0.999913
0.999964
0.999989
0.999986
0.999966
0.999894
0.999695
0.999142
0.996296
0.974599
0.918115
0.683512
0.207417
0.999912
0.999921
0.999935
0.999951
0.999964
0.999975
0.999984
0.99999
0.999994
0.999996
0.999998
0.999998
0.999997
0.999991
0.999971
0.999906
0.999703
0.999075
0.997067
0.990935
0.960603
0.87075
0.54722
0.999999
0.999999
0.999999
0.999999
0.999999
0.999999
0.999999
0.999999
1
1
1
0.999999
0.999994
0.999942
0.999708
0.99903
0.997797
0.994992
0.991222
0.985517
0.969646
0.918555
0.781776
1
1
1
1
1
1
1
1
1
1
0.999999
0.999909
0.998748
0.993757
0.982173
0.96221
0.942332
0.915204
0.918079
0.912291
0.909531
0.894171
0.827526
1
1
1
1
1
1
1
1
1
0.999997
0.999675
0.99272
0.954785
0.875885
0.776788
0.670831
0.582092
0.496017
0.488399
0.496059
0.539099
0.686295
0.743107
0.999999
0.999999
0.999999
0.999999
0.999998
0.999996
0.999994
0.999991
0.999988
0.999511
0.984811
0.884276
0.661946
0.4409
0.289339
0.184798
0.110066
0.0517236
0.0496681
0.0667736
0.111455
0.279781
0.483233
0.999073
0.998974
0.998804
0.998508
0.998039
0.997303
0.996205
0.995111
0.995286
0.984375
0.850009
0.511892
0.204643
0.0777992
0.0335109
0.013107
0.00476967
0.00143873
0.00131874
0.00149023
0.00573846
0.0356773
0.147545
0.91303
0.908008
0.899609
0.886132
0.867113
0.841261
0.808345
0.779872
0.795947
0.809234
0.540161
0.126538
0.0214843
0.00767672
0.00298292
0.000970487
0.000254229
4.37019e-05
6.69911e-06
8.7215e-06
5.61652e-05
0.000577241
0.0115828
0.26679
0.253901
0.233413
0.204288
0.169489
0.131696
0.0939182
0.0670691
0.0739453
0.12886
0.0470809
0.000997922
0.000404275
0.000395772
0.000147174
4.48245e-05
1.05014e-05
1.32816e-06
9.08448e-08
4.52512e-08
1.70598e-06
8.9457e-06
8.74429e-05
0.000357279
0.000286707
0.000196728
0.00010843
4.88822e-05
1.81653e-05
6.00032e-06
2.40203e-06
5.35695e-06
0.000318072
1.06383e-05
1.2249e-06
2.06108e-06
5.90933e-06
4.64984e-06
2.87937e-06
6.53399e-07
1.0858e-07
4.2592e-08
1.27654e-08
3.73624e-09
4.08066e-09
8.92169e-07
3.88504e-07
2.99517e-07
2.87842e-07
2.97685e-07
2.12189e-07
1.70352e-08
4.11481e-09
9.5027e-09
3.31786e-08
5.25307e-08
1.81501e-08
4.99281e-09
3.40959e-09
1.03305e-08
1.16404e-08
5.62651e-09
1.5842e-09
4.38974e-10
2.92536e-10
1.60188e-10
3.87669e-11
6.84239e-12
6.43704e-11
1.0928e-07
4.89029e-08
3.78491e-08
4.02665e-08
3.74977e-08
7.70919e-09
1.35431e-09
2.78351e-10
7.34201e-10
3.84974e-09
3.75933e-10
2.0067e-10
1.96218e-10
1.79564e-10
1.40295e-10
1.07829e-10
2.06377e-11
2.32032e-12
2.21935e-13
5.43121e-14
1.43483e-13
2.0517e-13
1.39948e-13
4.71542e-08
1.96256e-08
1.28542e-08
1.45335e-08
1.16357e-08
3.51389e-09
1.29666e-09
1.73529e-10
1.02404e-10
1.75567e-10
1.81422e-10
2.20328e-10
2.3346e-10
1.50769e-10
6.20988e-12
2.35049e-13
3.28145e-14
2.73362e-14
2.32807e-14
2.12739e-14
6.44752e-14
8.61893e-14
1.13676e-13
1.46833e-08
2.77722e-09
9.64078e-10
6.31941e-10
6.20358e-10
6.0378e-10
7.14433e-10
1.98316e-10
9.59505e-11
1.13158e-10
1.97078e-10
2.61723e-10
2.61161e-10
1.1571e-10
2.73179e-12
7.22605e-14
1.60545e-14
1.22298e-14
9.49272e-15
9.14547e-15
3.33893e-14
8.20299e-14
1.31429e-13
9.31822e-10
7.3695e-10
1.39531e-10
5.51019e-11
3.50572e-11
3.64445e-11
4.78797e-11
7.06436e-11
5.45667e-11
7.68743e-11
8.73543e-11
9.11458e-11
8.82054e-11
1.68674e-11
1.41203e-12
4.58404e-15
3.26005e-15
1.57253e-15
1.31221e-15
3.25977e-15
8.0397e-15
1.60083e-14
2.99567e-14
3.61429e-11
1.00559e-10
2.6785e-11
1.70609e-11
1.28624e-11
1.15866e-11
1.23295e-11
1.67932e-11
1.78633e-11
1.69375e-11
1.63227e-11
1.37617e-11
8.50392e-12
4.27662e-12
5.98412e-13
4.91371e-16
2.06028e-16
7.27851e-17
1.5567e-16
4.20219e-16
1.01816e-15
2.201e-15
4.04067e-15
7.07066e-12
1.12989e-11
5.88496e-12
3.99163e-12
3.11041e-12
2.7814e-12
3.39766e-12
4.7108e-12
5.43776e-12
5.20873e-12
4.90418e-12
3.85295e-12
2.23983e-12
1.06983e-12
1.85803e-13
2.20473e-18
2.62516e-18
6.47883e-18
1.49958e-17
3.35086e-17
7.25106e-17
1.41814e-16
2.33309e-16
5.38286e-13
1.05095e-12
5.47192e-13
3.62105e-13
2.05907e-13
1.94609e-13
4.18781e-13
7.96802e-13
1.06682e-12
1.04616e-12
9.85608e-13
8.22856e-13
4.70968e-13
1.80406e-13
2.43687e-14
7.53341e-20
1.85589e-19
4.39749e-19
9.98674e-19
2.20607e-18
4.70785e-18
9.29304e-18
1.62644e-17
6.77732e-21
3.24629e-19
7.18999e-18
9.29505e-17
7.5708e-16
3.97559e-15
1.34815e-14
2.86899e-14
3.62295e-14
2.52036e-14
1.03866e-14
4.11485e-15
9.27561e-16
1.05643e-16
1.4544e-21
4.33767e-21
1.19415e-20
3.13066e-20
7.95548e-20
1.93741e-19
4.50642e-19
1.00711e-18
2.088e-18
4.43661e-38
5.19571e-36
2.83086e-34
9.4515e-33
2.17011e-31
3.68249e-30
4.82243e-29
5.04005e-28
4.29047e-27
3.01542e-26
1.78704e-25
9.12663e-25
4.06973e-24
1.62885e-23
6.05237e-23
2.12712e-22
7.08181e-22
2.23956e-21
6.80421e-21
1.98572e-20
5.4942e-20
1.40745e-19
3.19378e-19
1.78747e-39
1.87808e-37
9.31955e-36
2.91268e-34
6.45957e-33
1.08256e-31
1.42262e-30
1.50209e-29
1.30342e-28
9.55059e-28
6.0201e-27
3.30679e-26
1.62016e-25
7.37082e-25
3.17697e-24
1.30298e-23
5.08661e-23
1.88163e-22
6.53992e-22
2.12024e-21
6.34051e-21
1.7079e-20
4.04385e-20
2.32134e-41
2.63181e-39
1.41337e-37
4.77277e-36
1.14022e-34
2.05028e-33
2.89068e-32
3.28858e-31
3.09331e-30
2.45091e-29
1.67095e-28
1.01974e-27
5.80745e-27
3.11208e-26
1.56489e-25
7.37022e-25
3.26779e-24
1.36063e-23
5.24198e-23
1.83961e-22
5.8185e-22
1.65113e-21
4.19793e-21
3.69441e-43
4.20581e-41
2.27417e-39
7.7688e-38
1.88459e-36
3.45914e-35
5.01094e-34
5.92823e-33
5.91068e-32
5.12463e-31
3.97888e-30
2.82349e-29
1.85045e-28
1.13141e-27
6.50683e-27
3.48207e-26
1.70709e-25
7.68354e-25
3.19006e-24
1.2194e-23
4.24051e-23
1.32008e-22
3.72645e-22
3.01517e-45
3.47528e-43
1.91656e-41
6.77409e-40
1.73153e-38
3.42787e-37
5.50398e-36
7.41623e-35
8.60167e-34
8.7456e-33
7.90204e-32
6.41036e-31
4.73623e-30
3.22276e-29
2.02325e-28
1.18291e-27
6.50689e-27
3.34131e-26
1.57578e-25
6.74132e-25
2.59607e-24
9.08602e-24
2.94915e-23
1.88506e-47
2.36743e-45
1.43054e-43
5.55786e-42
1.56387e-40
3.40297e-39
5.9787e-38
8.76023e-37
1.09977e-35
1.21255e-34
1.20318e-33
1.09683e-32
9.30194e-32
7.35549e-31
5.41785e-30
3.69133e-29
2.2935e-28
1.29144e-27
6.6491e-27
3.15084e-26
1.38341e-25
5.60674e-25
2.09211e-24
8.91884e-50
1.22255e-47
8.08886e-46
3.46057e-44
1.08007e-42
2.63028e-41
5.2242e-40
8.74202e-39
1.26452e-37
1.61477e-36
1.85044e-35
1.92674e-34
1.83044e-33
1.59146e-32
1.27031e-31
9.35485e-31
6.40555e-30
4.09937e-29
2.43986e-28
1.33862e-27
6.71457e-27
3.09945e-26
1.325e-25
3.41264e-52
5.08568e-50
3.66455e-48
1.71353e-46
5.8719e-45
1.57944e-43
3.4903e-42
6.54998e-41
1.07017e-39
1.55082e-38
2.02082e-37
2.39409e-36
2.60511e-35
2.61925e-34
2.43843e-33
2.09968e-32
1.6671e-31
1.21574e-30
8.14754e-30
5.04041e-29
2.88715e-28
1.52808e-27
7.44718e-27
9.63637e-55
1.59931e-52
1.29124e-50
6.80868e-49
2.64813e-47
8.12771e-46
2.05695e-44
4.42948e-43
8.31314e-42
1.38571e-40
2.08142e-39
2.84345e-38
3.54863e-37
4.05905e-36
4.27021e-35
4.14396e-34
3.71777e-33
3.08983e-32
2.37781e-31
1.69015e-30
1.10742e-29
6.68264e-29
3.70555e-28
2.12175e-57
3.96638e-55
3.61038e-53
2.15566e-51
9.53824e-50
3.3482e-48
9.74365e-47
2.424e-45
5.27029e-44
1.01753e-42
1.76502e-41
2.77596e-40
3.98728e-39
5.25571e-38
6.37404e-37
7.1249e-36
7.34982e-35
6.99967e-34
6.15619e-33
5.00087e-32
3.7485e-31
2.58494e-30
1.63284e-29
3.68518e-60
7.81947e-58
8.13302e-56
5.57749e-54
2.84771e-52
1.15773e-50
3.91159e-49
1.13115e-47
2.85952e-46
6.41769e-45
1.29324e-43
2.35884e-42
3.91708e-41
5.94943e-40
8.29706e-39
1.06551e-37
1.26244e-36
1.38157e-35
1.39667e-34
1.30312e-33
1.12002e-32
8.83978e-32
6.37704e-31
4.86831e-63
1.19843e-60
1.44831e-58
1.15815e-56
6.91421e-55
3.29268e-53
1.30398e-51
4.41735e-50
1.30594e-48
3.41918e-47
8.01607e-46
1.69731e-44
3.26762e-43
5.7488e-42
9.27753e-41
1.37728e-39
1.88457e-38
2.3794e-37
2.77251e-36
2.97911e-35
2.94585e-34
2.67096e-33
2.20924e-32
4.94988e-66
1.42796e-63
2.02855e-61
1.91121e-59
1.34584e-57
7.56112e-56
3.53018e-54
1.40797e-52
4.89227e-51
1.50265e-49
4.12506e-48
1.02081e-46
2.29258e-45
4.6976e-44
8.81877e-43
1.52146e-41
2.41733e-40
3.54094e-39
4.78233e-38
5.94927e-37
6.80152e-36
7.1192e-35
6.78648e-34
3.66423e-69
1.26247e-66
2.14037e-64
2.40751e-62
2.02289e-60
1.35438e-58
7.52202e-57
3.56087e-55
1.46512e-53
5.31659e-52
1.72084e-50
5.01256e-49
1.32327e-47
3.18348e-46
7.0088e-45
1.41652e-43
2.63349e-42
4.50854e-41
7.10782e-40
1.03074e-38
1.37161e-37
1.6684e-36
1.84501e-35
1.85805e-72
7.7857e-70
1.59947e-67
2.17699e-65
2.20967e-63
1.78384e-61
1.19219e-59
6.77678e-58
3.34068e-56
1.44929e-54
5.59708e-53
1.94177e-51
6.09544e-50
1.74114e-48
4.54518e-47
1.0877e-45
2.39104e-44
4.83288e-43
8.98111e-42
1.53256e-40
2.39542e-39
3.41584e-38
4.41944e-37
5.73301e-76
3.00781e-73
7.64416e-71
1.28191e-68
1.59898e-66
1.58322e-64
1.29581e-62
9.00521e-61
5.41631e-59
2.86061e-57
1.34179e-55
5.64077e-54
2.14103e-52
7.37952e-51
2.31991e-49
6.67297e-48
1.7597e-46
4.25818e-45
9.45388e-44
1.92312e-42
3.57488e-41
6.04763e-40
9.25782e-39
9.11339e-80
6.25808e-77
2.01745e-74
4.24936e-72
6.62886e-70
8.19239e-68
8.36848e-66
7.27091e-64
5.48333e-62
3.63692e-60
2.13991e-58
1.1244e-56
5.31037e-55
2.26766e-53
8.79603e-52
3.11014e-50
1.00477e-48
2.96911e-47
8.02571e-46
1.98174e-44
4.45763e-43
9.0942e-42
1.67276e-40
6.114e-84
5.87081e-81
2.43717e-78
6.45729e-76
1.25843e-73
1.94352e-71
2.49526e-69
2.75552e-67
2.67352e-65
2.31067e-63
1.79307e-61
1.25155e-59
7.84121e-58
4.40388e-56
2.21927e-54
1.00655e-52
4.12861e-51
1.53782e-49
5.20972e-48
1.60412e-46
4.47789e-45
1.12824e-43
2.54966e-42
2.48088e-88
3.69e-85
2.02764e-82
6.85297e-80
1.68571e-77
3.26959e-75
5.22076e-73
7.08028e-71
8.35658e-69
8.76178e-67
8.30598e-65
7.21848e-63
5.79519e-61
4.30449e-59
2.94552e-57
1.83959e-55
1.03565e-53
5.21096e-52
2.33989e-50
9.40772e-49
3.39486e-47
1.09553e-45
3.14412e-44
4.15774e-92
7.74421e-89
4.82633e-86
1.80174e-83
4.82865e-81
1.01292e-78
1.7494e-76
2.5689e-74
3.29309e-72
3.76536e-70
3.91005e-68
3.75002e-66
3.37007e-64
2.86436e-62
2.31502e-60
1.78386e-58
1.30915e-56
9.07016e-55
5.81606e-53
3.35969e-51
1.7162e-49
7.68697e-48
2.98276e-46
5.50372e-95
8.54509e-92
4.98124e-89
1.7721e-86
4.53612e-84
9.08209e-82
1.50325e-79
2.13459e-77
2.66945e-75
3.00073e-73
3.08409e-71
2.94117e-69
2.64145e-67
2.26541e-65
1.87711e-63
1.51883e-61
1.21025e-59
9.54435e-58
7.46045e-56
5.75124e-54
4.26168e-52
2.89942e-50
1.71869e-48
6.68811e-98
1.0175e-94
6.12901e-92
2.27486e-89
6.07883e-87
1.26839e-84
2.17278e-82
3.16589e-80
4.02822e-78
4.56957e-76
4.70182e-74
4.45393e-72
3.9368e-70
3.29175e-68
2.64143e-66
2.06075e-64
1.5826e-62
1.21142e-60
9.35903e-59
7.39044e-57
6.03828e-55
5.13573e-53
4.45217e-51
0.0416008
0.0101621
0.00177083
0.000185185
0.0885059
0.0574507
0.0332748
0.00670676
0.275461
0.199934
0.118564
0.0443611
0.587399
0.414901
0.272496
0.169607
0.741202
0.636472
0.48857
0.320386
0.715606
0.663943
0.581648
0.461663
0.560216
0.552848
0.519073
0.444383
0.228122
0.266342
0.277735
0.265285
0.0269947
0.0405535
0.0510737
0.0577173
0.00032666
0.000739891
0.00128666
0.0019893
8.78198e-06
2.32111e-05
4.75156e-05
8.02233e-05
2.52706e-09
9.33556e-09
3.61744e-08
8.41917e-08
2.38296e-13
1.9728e-13
9.36991e-14
1.24066e-13
3.46745e-13
2.24094e-13
1.91435e-14
1.92749e-14
1.45632e-13
5.43214e-14
3.99357e-15
4.82086e-15
3.9789e-14
1.27093e-14
1.34635e-15
1.50135e-15
5.50204e-15
1.99342e-15
5.43833e-16
5.87533e-16
2.74653e-16
1.74706e-16
1.42072e-16
1.63556e-16
2.48983e-17
2.92162e-17
3.44003e-17
4.1304e-17
3.92886e-18
5.21939e-18
6.73606e-18
8.481e-18
6.38707e-19
8.86391e-19
1.19638e-18
1.55616e-18
8.57948e-20
1.24936e-19
1.77246e-19
2.41818e-19
9.73581e-21
1.52087e-20
2.32123e-20
3.40909e-20
9.77733e-22
1.6643e-21
2.75789e-21
4.37859e-21
8.91411e-23
1.66634e-22
2.99423e-22
5.09879e-22
7.2388e-24
1.48296e-23
2.88977e-23
5.29656e-23
5.22181e-25
1.17171e-24
2.48276e-24
4.90912e-24
3.32675e-26
8.19702e-26
1.89562e-25
4.07036e-25
1.87591e-27
5.09399e-27
1.29289e-26
3.03483e-26
9.38589e-29
2.8237e-28
7.91299e-28
2.04421e-27
4.17617e-30
1.39998e-29
4.35993e-29
1.24849e-28
1.65546e-31
6.22308e-31
2.16826e-30
6.93148e-30
5.85069e-33
2.48388e-32
9.75398e-32
3.50765e-31
1.84197e-34
8.90165e-34
3.97161e-33
1.61999e-32
5.15161e-36
2.86087e-35
1.46391e-34
6.83763e-34
1.27332e-37
8.21603e-37
4.87512e-36
2.63647e-35
2.7537e-39
2.09469e-38
1.46145e-37
9.27571e-37
5.12429e-41
4.68387e-40
3.91175e-39
2.96552e-38
7.95343e-43
8.98521e-42
9.21455e-41
8.55069e-40
9.92238e-45
1.43909e-43
1.87213e-42
2.18982e-41
8.46384e-47
1.74656e-45
3.13609e-44
4.94299e-43
3.58129e-49
1.17475e-47
3.24256e-46
7.66371e-45
6.47482e-06
3.90317e-08
3.59399e-11
2.79384e-11
3.24062e-11
1.48161e-07
8.27573e-07
7.47494e-07
4.14016e-07
1.01344e-07
5.05302e-09
6.5655e-11
4.18615e-11
1.25526e-10
3.882e-10
6.52303e-10
6.75869e-10
4.97329e-10
1.18787e-10
0.000372494
3.73679e-05
3.90657e-07
9.2658e-09
2.15713e-08
7.79014e-07
1.32533e-06
9.92599e-07
4.84263e-07
7.53281e-08
1.39684e-09
4.74811e-12
2.79037e-12
5.40764e-12
6.91503e-11
2.89922e-10
5.16535e-10
4.68171e-10
1.74412e-10
0.00584596
0.00163366
0.000152251
1.37149e-05
5.79901e-06
3.16871e-06
1.81875e-06
1.0283e-06
4.82274e-07
6.91943e-08
1.38732e-09
4.69922e-12
1.41662e-12
3.10681e-12
3.51071e-12
6.33762e-11
3.26957e-10
4.0194e-10
1.7334e-10
0.0391773
0.0098446
0.00231364
0.00062576
5.261e-05
4.17282e-06
1.4292e-06
8.43142e-07
3.37394e-07
3.77654e-08
6.56743e-10
3.09465e-12
1.14083e-12
1.15955e-12
1.77934e-12
4.1585e-12
1.40103e-10
3.09251e-10
1.62165e-10
0.151282
0.0396479
0.00703682
0.000617775
2.8854e-05
3.28721e-06
1.59791e-06
7.2143e-07
1.24275e-07
5.82692e-09
4.21647e-11
1.82125e-12
5.05837e-14
3.51287e-13
9.58343e-13
1.48945e-12
2.80406e-11
2.08004e-10
1.38301e-10
0.249362
0.0913715
0.0241207
0.00366163
0.000191301
1.44222e-05
4.80062e-06
5.36529e-07
1.35356e-08
1.09643e-10
1.90827e-12
4.4277e-13
5.64297e-14
7.29285e-14
5.46437e-13
8.73852e-13
2.14622e-12
1.28062e-10
1.08024e-10
0.275627
0.114786
0.0347743
0.00606045
0.000466481
6.94885e-05
8.63108e-06
1.86224e-07
4.26224e-10
1.61719e-12
7.91863e-13
1.18748e-13
1.88614e-14
3.30811e-14
2.07325e-13
5.35404e-13
1.2526e-12
7.8381e-11
7.92323e-11
0.18873
0.0834013
0.0265943
0.00386536
0.00106039
0.000126584
2.84263e-06
9.122e-09
2.13476e-12
2.82809e-13
5.32033e-14
1.29299e-14
1.41538e-14
3.21393e-14
8.13925e-14
3.82143e-13
1.00755e-12
4.13203e-11
5.52486e-11
0.0477019
0.0217554
0.00509763
0.00180096
0.000181469
7.64938e-06
5.24306e-08
2.18518e-11
5.89002e-13
4.34474e-14
1.30005e-14
6.46878e-15
1.39978e-14
3.77873e-14
8.36895e-14
3.32854e-13
8.93561e-13
1.36065e-11
3.46788e-11
0.00182619
0.00095224
0.000124667
1.32796e-05
1.47739e-06
1.62367e-08
5.83556e-12
1.0347e-13
3.66822e-14
1.45157e-14
5.25045e-15
4.49228e-15
1.4184e-14
4.18902e-14
9.9705e-14
3.14874e-13
8.04762e-13
5.32564e-12
1.72298e-11
5.72103e-05
4.76641e-06
1.07863e-07
1.16207e-09
1.3169e-12
6.94614e-14
5.99804e-14
2.98622e-14
1.54376e-14
6.04167e-15
2.31682e-15
3.7684e-15
1.44258e-14
4.49658e-14
1.12903e-13
2.89345e-13
7.12724e-13
4.05432e-12
9.34252e-12
4.53542e-08
1.32593e-09
1.28777e-12
1.03725e-13
7.66611e-14
3.31551e-14
2.37484e-14
1.41215e-14
6.5045e-15
2.31257e-15
1.19324e-15
3.45277e-15
1.43988e-14
4.70986e-14
1.23994e-13
2.66272e-13
6.29521e-13
3.30117e-12
8.11425e-12
3.82088e-13
1.18781e-13
7.47856e-14
5.43329e-14
2.10365e-14
1.80451e-14
1.14e-14
6.02921e-15
2.59229e-15
9.13304e-16
7.87562e-16
3.23574e-15
1.40964e-14
4.81535e-14
1.32184e-13
2.70084e-13
5.60976e-13
2.92763e-12
7.17481e-12
2.59281e-14
2.75007e-14
2.19073e-14
1.73736e-14
1.07327e-14
8.35286e-15
4.819e-15
2.36649e-15
9.73472e-16
3.77283e-16
6.24715e-16
3.01469e-15
1.34793e-14
4.79826e-14
1.37275e-13
2.93199e-13
5.15203e-13
2.75043e-12
6.35097e-12
5.90379e-15
6.54035e-15
7.28528e-15
5.9261e-15
4.66016e-15
3.29518e-15
1.80117e-15
8.70782e-16
3.47922e-16
1.76869e-16
5.2934e-16
2.79189e-15
1.25044e-14
4.69118e-14
1.37687e-13
3.15054e-13
4.86385e-13
2.51731e-12
5.54668e-12
1.77937e-15
2.17345e-15
2.53536e-15
2.22366e-15
1.75758e-15
1.17298e-15
6.29755e-16
3.00865e-16
1.2039e-16
9.89317e-17
4.51102e-16
2.51603e-15
1.13321e-14
4.51967e-14
1.35056e-13
3.22943e-13
4.459e-13
2.15886e-12
4.74977e-12
6.4715e-16
7.67569e-16
8.38307e-16
7.43243e-16
5.76999e-16
3.78452e-16
2.06458e-16
9.7758e-17
4.16214e-17
6.39206e-17
3.77764e-16
2.21906e-15
1.0273e-14
4.29533e-14
1.32526e-13
3.22646e-13
4.3935e-13
1.70325e-12
3.96919e-12
1.87576e-16
2.32119e-16
2.52913e-16
2.22344e-16
1.7203e-16
1.14476e-16
6.31132e-17
3.00112e-17
1.50073e-17
4.38968e-17
3.07941e-16
1.92809e-15
9.36465e-15
4.07504e-14
1.30823e-13
3.24606e-13
4.65908e-13
1.33933e-12
3.21077e-12
4.87639e-17
6.19015e-17
6.58645e-17
5.90228e-17
4.83244e-17
3.26994e-17
1.80181e-17
8.75085e-18
5.85354e-18
2.97694e-17
2.41418e-16
1.64535e-15
8.59217e-15
3.88434e-14
1.30371e-13
3.33245e-13
5.23403e-13
1.12417e-12
2.48894e-12
1.02631e-17
1.38845e-17
1.53078e-17
1.46191e-17
1.26077e-17
8.61874e-18
4.8365e-18
2.41769e-18
2.42084e-18
1.86677e-17
1.7535e-16
1.34419e-15
7.90745e-15
3.71669e-14
1.30513e-13
3.46881e-13
6.07301e-13
9.99045e-13
1.90553e-12
1.9348e-18
2.77972e-18
3.32241e-18
3.37677e-18
3.00947e-18
2.10328e-18
1.22329e-18
6.2837e-19
9.67717e-19
1.01398e-17
1.11903e-16
9.99643e-16
6.88816e-15
3.57208e-14
1.29891e-13
3.58768e-13
6.97147e-13
9.60988e-13
1.5589e-12
3.16537e-19
5.03374e-19
6.61659e-19
7.11212e-19
6.53822e-19
4.78927e-19
2.88585e-19
1.52898e-19
3.31058e-19
4.3827e-18
5.74221e-17
6.11805e-16
5.04158e-15
3.05045e-14
1.26575e-13
3.61715e-13
7.37366e-13
9.9069e-13
1.41573e-12
4.77906e-20
8.44503e-20
1.20029e-19
1.34928e-19
1.30939e-19
1.01966e-19
6.27872e-20
3.44684e-20
8.77915e-20
1.38341e-18
2.13963e-17
2.72715e-16
2.71854e-15
1.99135e-14
9.97831e-14
3.2843e-13
7.20776e-13
1.04038e-12
1.40125e-12
6.57463e-21
1.27432e-20
1.95381e-20
2.3189e-20
2.42889e-20
2.01133e-20
1.26868e-20
7.14528e-21
1.72809e-20
3.03248e-19
5.38377e-18
8.01913e-17
9.54851e-16
8.56968e-15
5.38789e-14
2.20536e-13
5.76159e-13
1.02807e-12
1.36549e-12
8.137e-22
1.71501e-21
2.85835e-21
3.67615e-21
4.16217e-21
3.6498e-21
2.39824e-21
1.37441e-21
2.60104e-21
4.69613e-20
9.22406e-19
1.54089e-17
2.10121e-16
2.23402e-15
1.74805e-14
9.40041e-14
3.29647e-13
7.71803e-13
1.16185e-12
9.01448e-23
2.07599e-22
3.78249e-22
5.37536e-22
6.56394e-22
6.1078e-22
4.25176e-22
2.48884e-22
3.268e-22
5.48817e-21
1.16641e-19
2.13405e-18
3.23644e-17
3.92582e-16
3.6613e-15
2.50947e-14
1.20708e-13
3.78078e-13
7.0023e-13
8.95278e-24
2.27205e-23
4.5675e-23
7.22599e-23
9.53257e-23
9.47946e-23
7.05903e-23
4.27484e-23
3.85372e-23
5.18702e-22
1.18298e-20
2.36321e-19
3.9835e-18
5.48785e-17
5.95701e-16
4.89278e-15
2.90114e-14
1.16294e-13
2.571e-13
8.01997e-25
2.26293e-24
5.0596e-24
8.92507e-24
1.27827e-23
1.37083e-23
1.09879e-23
6.98825e-24
4.76171e-24
4.17392e-23
1.00595e-21
2.1705e-20
3.97802e-19
6.02943e-18
7.33108e-17
6.90115e-16
4.81877e-15
2.33476e-14
5.8048e-14
6.51047e-26
2.05846e-25
5.15391e-25
1.01499e-24
1.58969e-24
1.85546e-24
1.60193e-24
1.07139e-24
6.27217e-25
2.85663e-24
6.9875e-23
1.6088e-21
3.16979e-20
5.2155e-19
6.97248e-18
7.3282e-17
5.80459e-16
3.23007e-15
8.68859e-15
4.80996e-27
1.71549e-26
4.8383e-26
1.06673e-25
1.84269e-25
2.33665e-25
2.15511e-25
1.51564e-25
8.46269e-26
1.77243e-25
4.03761e-24
9.84075e-23
2.06625e-21
3.64872e-20
5.28133e-19
6.06805e-18
5.29591e-17
3.25191e-16
9.23823e-16
3.24622e-28
1.31404e-27
4.19777e-27
1.04136e-26
1.98135e-26
2.71497e-26
2.66914e-26
1.97145e-26
1.10773e-26
1.1335e-26
1.98243e-25
5.06866e-24
1.12581e-22
2.11316e-21
3.26968e-20
4.03814e-19
3.79907e-18
2.50152e-17
7.36629e-17
2.0066e-29
9.27535e-29
3.37641e-28
9.46854e-28
1.96645e-27
2.90913e-27
3.0421e-27
2.35421e-27
1.35706e-27
8.60445e-28
8.46667e-27
2.23663e-25
5.22243e-24
1.03365e-22
1.69196e-21
2.21646e-20
2.21145e-19
1.53101e-18
4.59964e-18
1.13948e-30
6.05404e-30
2.53038e-29
7.9561e-29
1.80264e-28
2.87586e-28
3.19204e-28
2.58095e-28
1.53226e-28
7.80457e-29
3.26268e-28
8.58433e-27
2.09588e-25
4.34562e-24
7.46245e-23
1.02624e-21
1.07278e-20
7.70393e-20
2.32978e-19
5.95823e-32
3.66402e-31
1.77133e-30
6.18196e-30
1.5282e-29
2.62602e-29
3.08746e-29
2.6008e-29
1.58784e-29
7.53657e-30
1.22427e-29
2.90568e-28
7.38091e-27
1.59481e-25
2.85422e-24
4.08775e-23
4.43664e-22
3.27392e-21
9.85528e-21
2.875e-33
2.06437e-32
1.14886e-31
4.4501e-31
1.20033e-30
2.21914e-30
2.75831e-30
2.41417e-30
1.51129e-30
7.06795e-31
5.15901e-31
8.79674e-30
2.31035e-28
5.18099e-27
9.61467e-26
1.42533e-24
1.59533e-23
1.20168e-22
3.56796e-22
1.2815e-34
1.08874e-33
6.91071e-33
2.97461e-32
8.75646e-32
1.73995e-31
2.28227e-31
2.07034e-31
1.32501e-31
6.20426e-32
2.77596e-32
2.42406e-31
6.50351e-30
1.50891e-28
2.89261e-27
4.41857e-26
5.07445e-25
3.88385e-24
1.12899e-23
5.27675e-36
5.36889e-35
3.86429e-34
1.85149e-33
5.9505e-33
1.26971e-32
1.75463e-32
1.64614e-32
1.07431e-32
5.05248e-33
1.82294e-33
6.27359e-33
1.66534e-31
3.98735e-30
7.87453e-29
1.2353e-27
1.45022e-26
1.12412e-25
3.18017e-25
2.00743e-37
2.45477e-36
2.01355e-35
1.07649e-34
3.77989e-34
8.65559e-34
1.25835e-33
1.21871e-33
8.09413e-34
3.82297e-34
1.27509e-34
1.62912e-34
3.91779e-33
9.65734e-32
1.96178e-30
3.15405e-29
3.77586e-28
2.95759e-27
8.10486e-27
7.06478e-39
1.04226e-37
9.80961e-37
5.86947e-36
2.25319e-35
5.53273e-35
8.44905e-35
8.43366e-35
5.69158e-35
2.69838e-35
8.74749e-36
4.84807e-36
8.59877e-35
2.17101e-33
4.53006e-32
7.45204e-31
9.07962e-30
7.17422e-29
1.89725e-28
2.28813e-40
4.09289e-39
4.4675e-38
3.0084e-37
1.26546e-36
3.33311e-36
5.34174e-36
5.4888e-36
3.75994e-36
1.78895e-36
5.73306e-37
1.87274e-37
1.77972e-36
4.55285e-35
9.76444e-34
1.64411e-32
2.03826e-31
1.62372e-30
4.13235e-30
6.93027e-42
1.5201e-40
1.93283e-39
1.4644e-38
6.737e-38
1.89923e-37
3.18855e-37
3.36886e-37
2.34153e-37
1.11881e-37
3.57131e-38
9.20418e-39
3.62579e-38
9.06791e-37
1.99567e-35
3.43713e-34
4.33259e-33
3.47669e-32
8.49654e-32
1.6327e-43
4.8676e-42
7.59846e-41
6.64251e-40
3.38079e-39
1.02519e-38
1.80522e-38
1.96161e-38
1.38387e-38
6.64915e-39
2.12439e-39
5.04414e-40
7.65954e-40
1.71112e-38
3.87028e-37
6.83998e-36
8.78374e-35
7.10503e-34
1.66492e-33
)
;

boundaryField
{
    leftWall
    {
        type            zeroGradient;
    }
    rightWall
    {
        type            zeroGradient;
    }
    lowerWall
    {
        type            zeroGradient;
    }
    atmosphere
    {
        type            inletOutlet;
        inletValue      uniform 0;
        value           nonuniform List<scalar> 
46
(
0
0
0
0
0
0
0
0
0
0
0
0
0
0
0
0
0
0
0
0
0
0
0
0
0
0
0
1.6327e-43
4.8676e-42
7.59846e-41
6.64251e-40
3.38079e-39
1.02519e-38
1.80522e-38
1.96161e-38
1.38387e-38
6.64915e-39
2.12439e-39
5.04414e-40
7.65954e-40
1.71112e-38
3.87028e-37
6.83998e-36
8.78374e-35
7.10503e-34
1.66492e-33
)
;
    }
    defaultFaces
    {
        type            empty;
    }
}


// ************************************************************************* //
