/*--------------------------------*- C++ -*----------------------------------*\
| =========                 |                                                 |
| \\      /  F ield         | OpenFOAM: The Open Source CFD Toolbox           |
|  \\    /   O peration     | Version:  2.4.0                                 |
|   \\  /    A nd           | Web:      www.OpenFOAM.org                      |
|    \\/     M anipulation  |                                                 |
\*---------------------------------------------------------------------------*/
FoamFile
{
    version     2.0;
    format      ascii;
    class       volScalarField;
    location    "0.3";
    object      alpha.air;
}
// * * * * * * * * * * * * * * * * * * * * * * * * * * * * * * * * * * * * * //

dimensions      [0 0 0 0 0 0 0];

internalField   nonuniform List<scalar> 
2268
(
4.08694e-18
3.77491e-18
3.85185e-18
5.07281e-18
4.79739e-18
1.06037e-17
6.75459e-18
2.3353e-17
4.02071e-17
4.13862e-17
7.5393e-17
2.7614e-16
6.70172e-16
1.00915e-15
9.17668e-16
5.726e-16
2.83002e-16
1.5123e-16
9.11624e-17
6.09289e-17
4.04944e-17
2.25841e-17
7.29604e-18
1.22539e-16
1.14063e-16
1.16767e-16
1.48033e-16
1.41623e-16
2.7216e-16
1.97762e-16
5.38433e-16
8.68579e-16
9.47834e-16
1.61707e-15
4.61383e-15
9.85231e-15
1.38474e-14
1.28433e-14
8.41726e-15
4.47817e-15
2.54488e-15
1.56063e-15
9.72877e-16
5.7249e-16
2.70392e-16
7.82724e-17
1.74573e-15
1.6417e-15
1.69251e-15
2.06867e-15
2.00313e-15
3.40368e-15
2.79608e-15
6.09832e-15
9.15183e-15
1.07316e-14
1.76876e-14
3.95015e-14
7.01166e-14
9.26942e-14
8.88871e-14
6.33775e-14
3.83219e-14
2.33929e-14
1.442e-14
8.46551e-15
4.41986e-15
1.71471e-15
4.1994e-16
1.57158e-14
1.49734e-14
1.558e-14
1.84068e-14
1.80341e-14
2.75965e-14
2.49505e-14
4.50349e-14
6.32567e-14
7.83401e-14
1.25268e-13
2.22862e-13
3.327e-13
4.05132e-13
3.99863e-13
3.13592e-13
2.25194e-13
1.44862e-13
8.97299e-14
5.12504e-14
2.46726e-14
9.26006e-15
1.98082e-15
1.00332e-13
9.70458e-14
1.01787e-13
1.16628e-13
1.15494e-13
1.6158e-13
1.56471e-13
2.40716e-13
3.20357e-13
4.09994e-13
6.17615e-13
9.10266e-13
1.15162e-12
1.27621e-12
1.2659e-12
1.09467e-12
8.79617e-13
6.02663e-13
3.73143e-13
2.0493e-13
8.99295e-14
3.10788e-14
6.85975e-15
4.819e-13
4.72916e-13
4.97739e-13
5.54414e-13
5.55473e-13
7.15965e-13
7.26686e-13
9.79862e-13
1.25237e-12
1.62917e-12
2.22888e-12
2.71121e-12
2.87469e-12
2.86394e-12
2.78441e-12
2.49295e-12
2.00893e-12
1.41191e-12
8.46569e-13
4.4118e-13
1.77389e-13
5.97931e-14
1.31707e-14
1.78784e-12
1.77519e-12
1.87163e-12
2.03373e-12
2.0628e-12
2.45417e-12
2.58059e-12
3.16217e-12
3.92165e-12
5.18961e-12
5.87857e-12
5.26056e-12
4.5875e-12
4.16612e-12
3.95598e-12
3.65574e-12
2.98846e-12
2.09213e-12
1.14277e-12
5.66325e-13
2.38238e-13
8.10871e-14
1.87629e-14
5.17472e-12
5.21566e-12
5.61547e-12
5.99963e-12
6.12079e-12
6.78487e-12
7.29679e-12
8.73945e-12
1.05294e-11
1.42244e-11
8.69193e-12
3.46549e-12
3.38858e-12
3.32366e-12
3.24996e-12
3.1604e-12
3.06955e-12
3.69521e-12
2.94688e-12
1.31058e-12
4.32894e-13
1.09977e-13
2.43302e-14
0.000139147
5.78117e-05
3.79955e-05
4.23428e-05
3.28208e-05
2.37425e-05
2.67404e-05
3.36797e-05
4.14798e-05
4.32284e-05
4.90453e-05
2.84106e-05
8.52952e-06
2.00812e-05
0.00334888
0.00328446
0.00299319
0.00455403
0.00567211
0.000213607
1.81009e-05
3.82208e-06
1.17857e-06
4.22053e-07
1.81006e-07
1.52266e-07
1.67153e-07
2.18192e-07
1.72971e-07
1.54905e-07
9.66995e-08
1.68247e-07
3.97696e-05
0.00116331
0.00106306
0.00298233
0.0831089
0.0578198
0.000262998
6.09974e-06
2.12038e-06
6.14796e-07
1.61374e-07
1.14783e-07
1.13699e-07
1.12621e-07
9.90144e-08
7.10472e-08
6.09329e-08
4.2362e-08
8.93228e-08
1.16336e-05
9.7711e-05
0.000123792
0.00184221
0.114638
0.114639
0.000263881
6.71903e-06
8.07851e-06
4.46863e-06
9.57219e-07
2.81907e-07
1.3505e-07
1.31697e-07
2.67669e-08
2.67641e-08
4.01672e-08
4.03418e-08
8.26835e-08
3.79133e-07
2.12096e-06
5.86482e-06
0.000587617
0.0989799
0.0716592
0.000182374
1.09935e-05
1.61026e-05
4.40038e-05
3.005e-05
5.13186e-06
1.86916e-06
1.86052e-07
2.67641e-08
5.45162e-08
4.36283e-07
2.01853e-07
1.30997e-07
1.30116e-07
1.30113e-07
2.74062e-07
0.000759491
0.0377393
0.0192859
0.000114231
0.00269367
0.0513143
0.184442
0.0152927
0.000942136
9.60742e-05
2.48406e-06
1.87089e-07
1.56827e-05
0.000279011
0.000165112
1.87151e-05
6.61306e-07
1.30116e-07
1.87875e-07
0.00257545
0.00769519
0.00315163
5.51094e-05
0.00582004
0.577645
0.959451
0.562742
0.0556956
0.00219445
5.19191e-05
5.36245e-05
0.00232388
0.0310469
0.0330026
0.00546454
0.000122964
3.97709e-07
4.79348e-07
0.00268629
0.00149684
0.000336993
6.78997e-05
0.0101882
0.818937
0.999118
0.983074
0.4729
0.0158333
0.000352364
0.00222112
0.0608691
0.402346
0.568808
0.25513
0.0101614
3.05738e-05
1.36735e-06
0.00132642
0.000287926
2.98669e-05
1.24062e-11
1.29842e-11
1.49988e-11
1.58895e-11
1.60306e-11
1.69035e-11
1.84777e-11
2.35273e-11
2.72951e-11
3.59416e-11
6.31041e-11
1.1327e-10
1.86076e-10
3.23201e-10
3.49473e-10
2.91049e-10
1.69002e-10
6.3282e-11
1.29242e-11
5.11561e-12
2.0226e-12
5.54415e-13
6.52996e-14
2.15651e-10
2.4198e-10
2.92949e-10
3.07017e-10
3.08413e-10
3.28015e-10
3.59474e-10
4.70976e-10
4.97214e-10
6.30816e-10
1.30247e-09
2.55459e-09
3.40732e-09
3.85923e-09
3.29124e-09
2.36377e-09
1.44622e-09
7.35372e-10
2.66082e-10
5.1237e-11
5.47069e-12
2.41723e-12
4.78715e-13
2.79189e-09
3.04425e-09
3.35552e-09
3.57331e-09
3.80287e-09
4.16498e-09
4.4961e-09
5.29149e-09
5.56721e-09
6.69484e-09
9.9734e-09
1.41766e-08
1.36286e-08
1.05293e-08
6.795e-09
4.09774e-09
2.40639e-09
1.33162e-09
6.2021e-10
2.01332e-10
2.88837e-11
5.26013e-12
1.74931e-12
1.29478e-08
1.35462e-08
1.38198e-08
1.40755e-08
1.45566e-08
1.5291e-08
1.61997e-08
1.84893e-08
2.02613e-08
2.23842e-08
2.2099e-08
2.01208e-08
1.51055e-08
9.12353e-09
5.20265e-09
3.03007e-09
1.79628e-09
1.00924e-09
5.25477e-10
2.09173e-10
4.98952e-11
7.63458e-12
2.81812e-12
1.93824e-08
1.97682e-08
1.93188e-08
1.92237e-08
1.9635e-08
2.09137e-08
2.36419e-08
2.8804e-08
3.73373e-08
2.82303e-08
1.77166e-08
8.2025e-09
3.67152e-09
1.86709e-09
1.05574e-09
5.93099e-10
3.85179e-10
2.49022e-10
1.64416e-10
9.1953e-11
3.10021e-11
7.95003e-12
3.20747e-12
4.42052e-08
4.44831e-08
4.30285e-08
4.23865e-08
4.39483e-08
5.38806e-08
6.6214e-08
8.12729e-08
9.39352e-08
5.30303e-08
2.51061e-08
1.43663e-08
8.7515e-09
4.71419e-09
1.32782e-09
2.29863e-10
8.32589e-11
3.51025e-11
2.19351e-11
1.68526e-11
1.0955e-11
7.22048e-12
4.24903e-12
8.08926e-07
9.30157e-07
1.14264e-06
1.55083e-06
2.28438e-06
3.61962e-06
6.01033e-06
9.24398e-06
1.00613e-05
6.93861e-06
2.42435e-06
2.71387e-06
3.18678e-06
9.71526e-07
1.66456e-07
1.71282e-08
1.51081e-09
1.18004e-10
9.99401e-12
7.16952e-12
5.71891e-12
4.78137e-12
4.15966e-12
0.000927113
0.00102632
0.00119599
0.00149183
0.00196059
0.0026973
0.00379493
0.00488898
0.00449611
0.00232762
0.000946794
0.000840854
0.00127665
0.000293353
0.000102159
2.26788e-05
5.26895e-06
1.01153e-06
4.75192e-08
3.64118e-10
1.75036e-11
1.35017e-11
7.1519e-12
0.08697
0.0919923
0.100391
0.113868
0.132887
0.158739
0.191654
0.220117
0.201578
0.110651
0.0714185
0.0746724
0.0438727
0.0144803
0.00583667
0.00178124
0.000470672
8.801e-05
1.17579e-05
9.46695e-06
2.34419e-07
4.84736e-09
1.51781e-09
0.73321
0.746099
0.766587
0.795712
0.83051
0.868303
0.906079
0.932874
0.921396
0.736878
0.650533
0.737608
0.608467
0.38655
0.254617
0.136016
0.0681287
0.0272688
0.0102346
0.00349028
0.000305504
8.20734e-05
5.2745e-06
0.999642
0.999713
0.999803
0.999891
0.99995
0.999981
0.999988
0.999857
0.999242
0.997897
0.999804
0.999853
0.998433
0.985609
0.955179
0.864971
0.734142
0.548795
0.396863
0.258693
0.100927
0.0489316
0.0218628
0.999999
0.999999
0.999999
0.999999
0.999999
0.999999
0.999995
0.999994
0.999998
0.999998
0.999999
0.999999
0.999999
0.999999
0.999998
0.999991
0.99987
0.998444
0.992677
0.977131
0.909511
0.809761
0.756074
0.999999
0.999999
0.999999
0.999999
0.999999
0.999999
0.999999
0.999999
0.999999
0.999999
0.999999
0.999999
0.999999
1
1
1
1
1
1
1
1
1
1
0.999998
0.999998
0.999998
0.999998
0.999999
0.999999
0.999999
0.999999
0.999999
0.999999
0.999999
0.999999
0.999999
1
1
1
1
1
1
1
1
1
1
0.999998
0.999998
0.999998
0.999998
0.999999
0.999999
0.999999
0.999999
0.999999
0.999999
0.999999
1
0.999999
0.999999
0.999999
0.999999
0.999999
1
1
1
1
1
1
0.999998
0.999998
0.999998
0.999999
0.999999
0.999999
0.999999
0.999999
0.999999
1
1
1
0.999999
0.999999
0.999999
0.999999
0.999999
0.999999
1
1
1
0.999999
0.999999
0.999999
0.999999
0.999999
0.999999
0.999999
0.999999
0.999999
0.999999
1
1
1
1
0.999999
0.999999
0.999999
0.999999
0.999999
0.999999
0.999999
0.999999
0.999999
0.999999
0.999999
0.999999
0.999999
0.999999
0.999999
0.999999
0.999999
0.999999
1
1
1
1
1
1
0.999999
0.999999
0.999999
1
1
0.999999
0.999999
0.999999
0.999999
0.999999
0.999999
0.999999
0.999999
0.999999
0.999999
0.999999
1
1
1
1
1
1
1
1
1
1
1
1
1
1
1
1
0.999999
0.999999
0.999999
0.999999
0.999999
0.999999
1
1
1
1
1
1
1
1
1
1
1
1
1
1
1
1
1
1
0.999999
0.999999
0.999999
0.999999
1
1
1
1
1
1
1
1
1
0.999999
0.999999
0.999999
1
1
1
1
1
1
1
0.999999
0.999999
0.999999
1
1
1
1
1
1
1
1
1
1
0.999999
0.999999
0.999999
0.999999
1
1
1
1
1
1
0.999999
0.999999
0.999999
1
1
1
1
1
1
1
1
1
1
1
0.999999
0.999999
0.999999
0.999999
0.999999
1
1
1
1
0.999999
0.999999
1
1
1
1
1
1
1
1
1
1
1
1
0.999999
0.999999
0.999999
0.999999
0.999999
0.999999
0.999999
0.999999
0.999999
0.999999
0.999999
1
1
1
1
1
1
1
1
1
1
1
1
1
0.999999
0.999999
0.999999
0.999998
0.999998
0.999998
0.999998
0.999998
0.999999
1
1
1
1
1
1
1
1
1
1
1
1
1
1
0.999999
0.999999
0.999999
0.999998
0.999998
0.999998
0.999997
0.999997
1
1
1
1
1
1
1
1
1
1
1
1
1
1
1
1
0.999999
0.999999
0.999999
0.999998
0.999998
0.999998
0.999997
1
1
1
1
1
1
1
1
1
1
1
1
1
1
1
1
1
0.999999
0.999999
0.999999
0.999998
0.999998
0.999997
1
1
1
1
1
1
1
1
1
1
1
1
1
1
1
1
1
0.999999
0.999999
0.999999
0.999998
0.999998
0.999997
1
1
1
1
1
1
1
1
1
1
1
1
1
1
1
1
1
1
0.999999
0.999999
0.999999
0.999998
0.999998
1
1
1
1
1
1
1
1
1
1
1
1
1
1
1
1
1
1
1
0.999999
0.999999
0.999999
0.999998
1
1
1
1
1
1
1
1
1
1
1
1
1
1
1
1
1
1
1
1
0.999999
0.999999
0.999998
1
1
1
1
1
1
1
1
1
1
1
1
1
1
1
1
1
1
1
1
1
0.999999
0.999999
1
1
1
1
1
1
1
1
1
1
1
1
1
1
1
1
1
1
1
1
1
1
0.999999
1
1
1
1
1
1
1
1
1
1
1
1
1
1
1
1
1
1
1
1
1
1
1
1
1
1
1
1
1
1
1
1
1
1
1
1
1
1
1
1
1
1
1
1
1
1
1
1
1
1
1
1
1
1
1
1
1
1
1
1
1
1
1
1
1
1
1
1
1
1
1
1
1
1
1
1
1
1
1
1
1
1
1
1
1
1
1
1
1
1
1
1
1
1
1
1
1
1
1
1
1
1
1
1
1
1
1
1
1
1
1
1
1
1
1
1
1
1
1
1
1
1
1
1
1
1
1
1
1
1
1
0.999999
0.999999
0.999999
0.999999
1
1
1
1
1
1
1
1
1
1
1
1
1
1
1
1
1
1
1
1
1
1
0.999999
0.999999
1
1
1
1
1
1
1
1
1
1
1
1
1
1
1
1
1
1
1
1
1
1
1
1
1
0.0283276
0.804857
0.681924
0.306471
0.00432089
0.20593
0.272007
0.0489678
8.64014e-05
0.0344922
0.0603065
0.0324812
2.24339e-07
0.00110962
0.00588729
0.00905441
8.55871e-09
8.68431e-06
0.000132414
0.000389372
1.63435e-09
4.89752e-07
3.15152e-06
8.81623e-06
6.29693e-10
6.57298e-09
3.25062e-08
2.91533e-07
6.8956e-11
6.01756e-11
6.09675e-11
8.97417e-10
9.01657e-10
6.47485e-10
5.57048e-10
7.86421e-10
9.05833e-10
9.37547e-09
1.49537e-08
1.40154e-08
0.0153586
0.007889
0.00305879
0.00279399
0.761965
0.792388
0.824775
0.829273
0.999998
0.999996
0.999985
0.999876
1
1
1
0.999999
1
0.999999
0.999999
0.999999
0.999999
0.999999
0.999999
0.999999
0.999999
0.999999
0.999999
0.999998
0.999999
0.999998
0.999998
0.999998
0.999999
0.999999
0.999999
0.999998
1
1
0.999999
0.999999
1
1
1
1
1
1
1
1
1
1
1
1
1
1
1
1
0.999999
0.999999
0.999999
0.999999
0.999998
0.999998
0.999998
0.999998
0.999997
0.999997
0.999998
0.999998
0.999997
0.999997
0.999997
0.999997
0.999997
0.999997
0.999997
0.999997
0.999997
0.999997
0.999997
0.999997
0.999997
0.999997
0.999997
0.999997
0.999998
0.999998
0.999997
0.999997
0.999998
0.999998
0.999998
0.999998
0.999998
0.999998
0.999998
0.999998
0.999999
0.999999
0.999999
0.999998
0.999999
0.999999
0.999999
0.999999
0.999999
0.999999
0.999999
0.999999
1
0.999999
0.999999
0.999999
0.999999
0.999999
0.999999
0.999999
1
1
1
1
1
1
1
1
0.999999
1
1
1
0.000859781
0.492711
0.98609
0.99912
0.999119
0.768747
0.059609
0.00165455
0.0298952
0.415057
0.903316
0.990534
0.980402
0.710784
0.0926303
0.00142393
0.000118282
3.3421e-05
5.78429e-06
0.00358059
0.50706
0.975855
0.999119
0.99735
0.671696
0.0811201
0.00535855
0.086419
0.689106
0.984847
0.99996
0.999989
0.995734
0.8099
0.118488
0.00243427
1.52514e-05
1.62971e-06
0.00401303
0.14206
0.716031
0.949863
0.766683
0.174302
0.0110223
0.00847851
0.14964
0.750186
0.987631
0.999952
1
0.999994
0.996219
0.715089
0.0354332
0.000151957
1.62963e-06
0.00362914
0.0322454
0.11428
0.112513
0.0438754
0.00365702
0.000867606
0.0100579
0.291368
0.849159
0.994448
0.999977
1
1
0.999993
0.984863
0.217035
0.0031546
6.56464e-06
0.000870178
0.00235982
0.00993562
0.00522019
0.000754348
0.000363304
0.000862691
0.0500597
0.560515
0.95759
0.999599
1
1
1
1
0.999883
0.747454
0.041637
0.000157257
6.94763e-05
0.000171467
0.000197147
7.90052e-05
5.63076e-05
0.000356928
0.0101112
0.212544
0.80346
0.992177
0.999977
1
1
1
1
1
0.983099
0.180443
0.00153912
2.62989e-05
2.57371e-05
1.04076e-05
5.98547e-06
9.39647e-05
0.00550693
0.0779582
0.583308
0.95802
0.999586
1
1
1
1
1
1
0.999686
0.233702
0.00268098
2.16886e-06
1.17044e-06
8.1677e-07
9.39641e-06
0.00451293
0.0349537
0.39149
0.897614
0.997581
0.999998
1
1
1
1
1
1
0.999999
0.188082
0.00218735
1.68284e-08
1.86329e-08
1.65501e-05
0.00354143
0.0293156
0.328676
0.866622
0.99665
0.999998
1
1
1
1
1
1
1
1
0.173812
0.00205409
9.00154e-08
0.000560341
0.00725023
0.0403148
0.444894
0.93846
0.999511
1
1
1
1
1
1
1
1
1
1
0.290585
0.00474866
0.00381079
0.0676512
0.482222
0.91606
0.998799
0.999999
1
1
1
1
1
1
1
1
1
1
1
0.677386
0.0297302
0.842143
0.96357
0.998981
0.999755
0.999997
1
1
1
1
1
1
1
1
1
1
1
1
0.935715
0.0964592
0.999258
0.999833
0.999998
1
1
1
1
1
1
1
1
1
1
1
1
1
1
0.966666
0.113555
0.999999
0.999999
0.999999
1
1
1
1
1
1
1
1
1
1
1
1
1
0.999974
0.956032
0.0910616
0.999999
0.999999
0.999999
0.999999
1
1
1
1
1
1
1
1
1
1
1
1
0.999759
0.887225
0.0420314
0.999999
0.999999
0.999999
0.999999
0.999999
1
1
1
1
1
1
1
1
1
1
1
0.999891
0.748267
0.0148766
0.999998
0.999998
0.999998
0.999999
0.999999
0.999999
0.999999
1
1
1
1
1
1
1
1
1
0.999993
0.742386
0.0141736
0.999998
0.999998
0.999998
0.999998
0.999998
0.999999
0.999999
0.999999
1
1
1
1
1
1
1
1
1
0.83482
0.0167435
0.999998
0.999998
0.999998
0.999998
0.999998
0.999998
0.999999
0.999999
0.999999
1
1
1
1
1
1
1
1
0.948355
0.0545818
0.999999
0.999998
0.999998
0.999998
0.999998
0.999998
0.999998
0.999999
0.999999
1
1
1
1
1
1
1
1
0.991675
0.149316
0.999999
0.999999
0.999998
0.999998
0.999998
0.999998
0.999998
0.999999
0.999999
0.999999
1
1
1
1
1
1
1
0.999325
0.354587
1
0.999999
0.999999
0.999999
0.999998
0.999998
0.999999
0.999999
0.999999
0.999999
1
1
1
1
1
1
1
0.99999
0.704517
1
1
0.999999
0.999999
0.999999
0.999999
0.999999
0.999999
0.999999
0.999999
1
1
1
1
1
1
1
0.999998
0.945485
1
1
0.999999
0.999999
0.999999
0.999999
0.999999
0.999999
0.999999
1
1
1
1
1
1
1
0.999996
0.999799
0.99672
0.999999
0.999999
0.999999
0.999999
0.999999
0.999999
0.999999
0.999999
1
1
1
1
1
1
1
0.999998
0.999955
0.999799
0.999889
0.999998
0.999999
0.999999
0.999999
0.999999
0.999999
0.999999
0.999999
1
1
1
1
1
1
1
0.999999
0.999988
0.999965
0.999997
0.999998
0.999998
0.999998
0.999999
0.999999
0.999999
0.999999
0.999999
1
1
1
1
1
1
1
1
1
0.999999
1
0.999997
0.999998
0.999998
0.999998
0.999999
0.999999
0.999999
0.999999
1
1
1
1
1
1
1
1
1
1
1
0.999997
0.999997
0.999998
0.999998
0.999999
0.999999
0.999999
0.999999
0.999999
1
1
1
1
1
1
1
1
1
1
0.999997
0.999997
0.999997
0.999998
0.999998
0.999999
0.999999
0.999999
0.999999
1
1
1
1
1
1
1
1
1
1
0.999997
0.999997
0.999997
0.999998
0.999998
0.999999
0.999999
0.999999
0.999999
1
1
1
1
1
1
1
1
1
1
0.999997
0.999997
0.999997
0.999998
0.999998
0.999999
0.999999
0.999999
0.999999
1
1
1
1
1
1
1
1
1
1
0.999998
0.999997
0.999998
0.999998
0.999998
0.999999
0.999999
0.999999
0.999999
1
1
1
1
1
1
1
1
1
1
0.999998
0.999998
0.999998
0.999998
0.999998
0.999999
0.999999
0.999999
0.999999
1
1
1
1
1
1
1
1
1
1
0.999998
0.999998
0.999998
0.999998
0.999999
0.999999
0.999999
0.999999
0.999999
0.999999
1
1
1
1
1
1
1
1
1
0.999999
0.999998
0.999998
0.999999
0.999999
0.999999
0.999999
0.999999
0.999999
0.999999
1
1
1
1
1
1
1
1
1
0.999999
0.999999
0.999999
0.999999
0.999999
0.999999
0.999999
0.999999
0.999999
0.999999
0.999999
1
1
1
1
1
1
1
1
0.999999
0.999999
0.999999
0.999999
0.999999
0.999999
0.999999
0.999999
0.999999
0.999999
0.999999
0.999999
1
1
1
1
1
1
1
0.999999
0.999999
0.999999
0.999999
0.999999
0.999999
0.999999
0.999999
0.999999
0.999999
0.999999
0.999999
1
1
1
1
1
1
1
0.999999
0.999999
0.999999
0.999999
0.999999
0.999999
0.999999
0.999999
0.999999
0.999999
0.999999
0.999999
1
1
1
1
1
1
1
1
0.999999
0.999999
0.999999
0.999999
0.999999
0.999999
0.999999
0.999999
0.999999
0.999999
1
1
1
1
1
1
1
1
1
1
1
1
0.999999
0.999999
0.999999
0.999999
0.999999
0.999999
1
1
1
1
1
1
1
1
1
)
;

boundaryField
{
    leftWall
    {
        type            alphaContactAngle;
        thetaProperties 6 ( ( water mercury ) 90 0 0 0 ( water air ) 90 0 0 0 ( water oil ) 90 0 0 0 ( mercury air ) 90 0 0 0 ( oil mercury ) 90 0 0 0 ( oil air ) 90 0 0 0 );
        value           nonuniform List<scalar> 
50
(
4.08694e-18
1.22539e-16
1.74573e-15
1.57158e-14
1.00332e-13
4.819e-13
1.78784e-12
5.17472e-12
1.24062e-11
2.15651e-10
2.79189e-09
1.29478e-08
1.93824e-08
4.42052e-08
8.08926e-07
0.000927113
0.08697
0.73321
0.999642
0.999999
0.999999
0.999998
0.999998
0.999998
0.999999
0.999999
0.999999
0.999999
0.999999
0.999999
0.999999
0.999999
0.999999
0.999999
1
1
1
1
1
1
1
1
1
1
1
1
1
1
1
1
)
;
    }
    rightWall
    {
        type            alphaContactAngle;
        thetaProperties 6 ( ( water mercury ) 90 0 0 0 ( water air ) 90 0 0 0 ( water oil ) 90 0 0 0 ( mercury air ) 90 0 0 0 ( oil mercury ) 90 0 0 0 ( oil air ) 90 0 0 0 );
        value           nonuniform List<scalar> 
50
(
0.00567211
0.0578198
0.114639
0.0716592
0.0192859
0.00315163
0.000336993
2.98669e-05
5.78429e-06
1.62971e-06
1.62963e-06
6.56464e-06
0.000157257
0.00153912
0.00268098
0.00218735
0.00205409
0.00474866
0.0297302
0.0964592
0.113555
0.0910616
0.0420314
0.0148766
0.0141736
0.0167435
0.0545818
0.149316
0.354587
0.704517
0.945485
0.99672
0.999889
0.999997
1
1
1
1
1
1
1
1
1
1
1
1
1
1
1
1
)
;
    }
    lowerWall
    {
        type            alphaContactAngle;
        thetaProperties 6 ( ( water mercury ) 90 0 0 0 ( water air ) 90 0 0 0 ( water oil ) 90 0 0 0 ( mercury air ) 90 0 0 0 ( oil mercury ) 90 0 0 0 ( oil air ) 90 0 0 0 );
        value           nonuniform List<scalar> 
62
(
4.08694e-18
3.77491e-18
3.85185e-18
5.07281e-18
4.79739e-18
1.06037e-17
6.75459e-18
2.3353e-17
4.02071e-17
4.13862e-17
7.5393e-17
2.7614e-16
6.70172e-16
1.00915e-15
9.17668e-16
5.726e-16
2.83002e-16
1.5123e-16
9.11624e-17
6.09289e-17
4.04944e-17
2.25841e-17
7.29604e-18
7.29604e-18
7.82724e-17
4.1994e-16
1.98082e-15
6.85975e-15
1.31707e-14
1.87629e-14
2.43302e-14
0.0283276
0.804857
0.681924
0.306471
0.000139147
0.000213607
0.000262998
0.000263881
0.000182374
0.000114231
5.51094e-05
6.78997e-05
0.000139147
5.78117e-05
3.79955e-05
4.23428e-05
3.28208e-05
2.37425e-05
2.67404e-05
3.36797e-05
4.14798e-05
4.32284e-05
4.90453e-05
2.84106e-05
8.52952e-06
2.00812e-05
0.00334888
0.00328446
0.00299319
0.00455403
0.00567211
)
;
    }
    atmosphere
    {
        type            inletOutlet;
        inletValue      uniform 1;
        value           nonuniform List<scalar> 
46
(
1
1
1
1
1
1
1
1
1
1
1
1
1
1
1
1
1
1
1
1
1
1
1
1
1
1
1
1
1
1
1
0.999999
0.999999
0.999999
0.999999
0.999999
0.999999
1
1
1
1
1
1
1
1
1
)
;
    }
    defaultFaces
    {
        type            empty;
    }
}


// ************************************************************************* //
