/*--------------------------------*- C++ -*----------------------------------*\
| =========                 |                                                 |
| \\      /  F ield         | OpenFOAM: The Open Source CFD Toolbox           |
|  \\    /   O peration     | Version:  2.4.0                                 |
|   \\  /    A nd           | Web:      www.OpenFOAM.org                      |
|    \\/     M anipulation  |                                                 |
\*---------------------------------------------------------------------------*/
FoamFile
{
    version     2.0;
    format      ascii;
    class       volScalarField;
    location    "0.3";
    object      alpha.oil;
}
// * * * * * * * * * * * * * * * * * * * * * * * * * * * * * * * * * * * * * //

dimensions      [0 0 0 0 0 0 0];

internalField   nonuniform List<scalar> 
2268
(
6.65576e-29
1.60696e-27
2.13453e-26
2.92381e-25
1.9623e-24
3.64604e-23
4.98046e-23
8.01605e-22
1.78788e-17
4.54831e-14
2.18814e-11
3.40907e-10
1.45101e-09
3.25968e-09
5.53534e-09
8.85917e-09
1.37677e-08
2.75617e-08
9.3742e-08
3.01738e-07
1.59397e-06
2.15309e-05
8.59087e-05
3.92045e-27
8.86615e-26
1.09642e-24
1.39607e-23
9.19696e-23
1.30103e-21
2.12783e-21
2.22971e-20
2.13146e-16
4.08483e-13
1.64524e-10
2.11345e-09
8.22876e-09
1.63077e-08
2.4213e-08
3.39677e-08
5.48882e-08
1.27061e-07
3.34295e-07
6.6556e-07
1.90886e-06
2.23114e-05
9.99614e-05
1.12903e-25
2.38962e-24
2.74919e-23
3.26336e-22
2.09221e-21
2.28685e-20
4.36025e-20
3.09378e-19
1.15412e-15
1.57854e-12
5.08304e-10
6.08994e-09
2.67225e-08
7.0277e-08
1.36106e-07
2.43545e-07
5.37232e-07
1.28714e-06
3.47655e-06
5.98212e-06
6.08767e-06
2.53991e-05
0.000118838
2.1213e-24
4.20068e-23
4.4894e-22
4.99049e-21
3.07792e-20
2.64494e-19
5.61595e-19
2.866e-18
3.87517e-15
3.19349e-12
8.04166e-10
1.31452e-08
1.75763e-07
1.06863e-06
3.15958e-06
5.40607e-06
7.94073e-06
1.64929e-05
2.06239e-05
2.08566e-05
1.60095e-05
3.08088e-05
0.000125443
2.92761e-23
5.42526e-22
5.37529e-21
5.62799e-20
3.29249e-19
2.25769e-18
5.11853e-18
1.98761e-17
9.36238e-15
3.67956e-12
5.96136e-10
3.54028e-08
5.96716e-07
5.38283e-06
2.721e-05
7.53871e-05
0.000151576
0.000167816
0.000220092
0.000187617
0.000109188
5.68479e-05
0.000132148
3.16872e-22
5.49707e-21
5.04241e-20
4.99154e-19
2.73617e-18
1.50743e-17
3.53536e-17
1.09783e-16
1.82518e-14
4.57999e-12
1.10225e-09
5.41032e-08
9.50671e-07
1.2665e-05
0.000110352
0.000548356
0.00155772
0.00324386
0.00773685
0.00632486
0.00214618
0.000288632
0.000151863
2.80406e-21
4.5545e-20
3.86654e-19
3.62304e-18
1.83929e-17
8.13916e-17
1.93677e-16
5.03742e-16
3.23541e-14
6.57231e-12
1.50463e-09
6.87506e-08
1.17508e-06
1.63541e-05
0.000146957
0.000786355
0.00303768
0.0109072
0.0254446
0.0284176
0.0130236
0.00140496
0.000183984
2.08607e-20
3.17096e-19
2.49482e-18
2.21069e-17
1.0226e-16
3.66817e-16
8.58105e-16
2.00253e-15
6.28655e-14
7.94746e-12
1.64261e-09
6.03443e-08
7.22326e-07
6.80987e-06
4.80824e-05
0.000421135
0.00208897
0.00799515
0.0257201
0.0589158
0.0603136
0.0077979
0.000301061
0.999844
0.999909
0.999917
0.999892
0.999872
0.999842
0.999794
0.99978
0.999778
0.999789
0.99989
0.999955
0.999969
0.999954
0.996647
0.996718
0.997009
0.995449
0.994333
0.999772
0.999964
0.99998
0.999978
0.999957
0.999917
0.999859
0.999794
0.999777
0.99981
0.999819
0.999756
0.999585
0.999517
0.998646
0.998927
0.997019
0.916894
0.942184
0.999726
0.999982
0.999982
0.999981
0.999961
0.999916
0.999854
0.999786
0.999761
0.999743
0.999597
0.999154
0.998758
0.998864
0.999363
0.999828
0.998159
0.885364
0.885364
0.999726
0.999982
0.999982
0.999982
0.999957
0.999906
0.999791
0.99957
0.999391
0.999116
0.998668
0.997919
0.997838
0.998519
0.999379
0.999927
0.999408
0.901021
0.928343
0.999809
0.999982
0.999982
0.99995
0.999933
0.999912
0.999735
0.999158
0.998415
0.996943
0.995879
0.99553
0.996757
0.998468
0.99953
0.999949
0.999233
0.962262
0.980716
0.999878
0.997303
0.948688
0.815559
0.984697
0.999003
0.999519
0.997974
0.995727
0.991297
0.989271
0.992004
0.996203
0.998924
0.999766
0.999971
0.997418
0.992305
0.99685
0.99994
0.994179
0.422359
0.0405529
0.437257
0.944299
0.996876
0.995113
0.989587
0.978879
0.951405
0.957814
0.991668
0.999365
0.999912
0.999982
0.997308
0.998503
0.999664
0.999935
0.989815
0.181067
0.000887118
0.0169299
0.527103
0.981653
0.98982
0.977359
0.909386
0.574389
0.422989
0.743382
0.989661
0.999936
0.999982
0.998667
0.999712
0.999971
1.32943e-19
1.88955e-18
1.38336e-17
1.15868e-16
4.76025e-16
1.42227e-15
3.13758e-15
7.04049e-15
1.64225e-13
8.7421e-12
7.44601e-10
4.25382e-08
5.93318e-07
6.61933e-06
4.14998e-05
0.000220166
0.000919892
0.00367541
0.0153555
0.0588875
0.08222
0.0450425
0.00584598
1.26693e-18
1.6764e-17
1.15429e-16
9.19834e-16
3.17617e-15
8.23974e-15
1.67474e-14
3.69333e-14
9.09373e-13
1.1113e-11
5.0985e-10
4.80703e-08
7.87397e-07
6.9515e-06
2.84352e-05
0.00010138
0.000299774
0.000853552
0.00369893
0.0253862
0.0771626
0.089031
0.0354873
1.03639e-17
1.25991e-16
8.26551e-16
6.07902e-15
1.73392e-14
3.84532e-14
7.32615e-14
1.55704e-13
4.31181e-12
4.65173e-10
5.76761e-09
1.6163e-07
1.85144e-06
7.89281e-06
2.79411e-05
9.34822e-05
0.000295977
0.000923992
0.00293232
0.00906246
0.0389932
0.0887857
0.0753651
7.38763e-17
8.14649e-16
5.12235e-15
3.32531e-14
7.79074e-14
1.47567e-13
2.74665e-13
6.26041e-13
9.22941e-11
8.54401e-09
1.26958e-07
4.81166e-07
6.28779e-06
5.83237e-05
0.000291823
0.000970385
0.00220329
0.00500833
0.00877746
0.0144818
0.0302637
0.0746565
0.0998929
4.47059e-16
4.47832e-15
2.77631e-14
1.5386e-13
2.94841e-13
4.87094e-13
9.41741e-13
3.05286e-12
8.61979e-10
4.90806e-08
1.19749e-06
9.08488e-05
0.00125193
0.00624268
0.0178272
0.0377896
0.0576678
0.0847962
0.0819209
0.0877089
0.0904311
0.102996
0.130909
2.32892e-15
2.09743e-14
1.33238e-13
5.98594e-13
9.31778e-13
1.40453e-12
2.79014e-12
1.46918e-11
9.0255e-09
3.17622e-06
0.00032547
0.00727984
0.0452156
0.124115
0.223212
0.329169
0.417908
0.503983
0.511601
0.503941
0.460891
0.312896
0.243143
1.05028e-14
8.39079e-14
5.70857e-13
1.98174e-12
2.41192e-12
3.25349e-12
6.25382e-11
2.32212e-09
2.24814e-06
0.000481761
0.0151869
0.115721
0.338051
0.559099
0.710661
0.815202
0.889934
0.948276
0.950332
0.933226
0.888544
0.720108
0.513875
4.0938e-14
2.88144e-13
2.12196e-12
5.25718e-12
4.83275e-12
1.14022e-10
1.13091e-08
4.37909e-07
0.000218078
0.0132972
0.149044
0.487268
0.794081
0.921908
0.966387
0.98687
0.995225
0.99856
0.998681
0.99851
0.994261
0.964318
0.8522
1.38336e-13
8.7439e-13
6.73651e-12
3.06249e-11
1.61724e-10
1.03128e-08
3.10108e-07
1.07584e-05
0.00247525
0.0801145
0.388421
0.798789
0.934643
0.977843
0.991181
0.997248
0.999275
0.999868
0.999982
0.999982
0.999943
0.999423
0.988412
4.12037e-13
2.49325e-12
6.71335e-11
8.28378e-10
5.98636e-09
1.01829e-07
2.13744e-06
5.70816e-05
0.00465894
0.134263
0.302386
0.261394
0.391129
0.613055
0.745236
0.863939
0.931861
0.97273
0.989766
0.99651
0.999693
0.999909
0.999907
1.13651e-12
7.0092e-12
2.50668e-10
5.73885e-09
4.84641e-08
2.5413e-07
5.38903e-06
0.000140251
0.00075302
0.00178456
0.00018509
0.000145285
0.00156413
0.0143847
0.0448159
0.135026
0.265858
0.451206
0.603138
0.741308
0.899074
0.951069
0.978137
2.31766e-12
1.55959e-11
7.47888e-10
2.06018e-08
1.60912e-07
5.80083e-07
4.49379e-06
5.05435e-06
1.25857e-06
1.76751e-06
3.48563e-07
7.85748e-08
8.32704e-08
3.07482e-07
1.27722e-06
8.72056e-06
0.000130202
0.00155608
0.00732343
0.0228697
0.0904894
0.19024
0.243927
1.17363e-12
1.17885e-11
9.83566e-10
9.41466e-09
4.65231e-08
1.45539e-07
1.59663e-07
8.43104e-08
2.27399e-08
1.65965e-07
5.6715e-09
1.67177e-09
9.43938e-09
2.41566e-08
6.35042e-08
9.65577e-08
2.24966e-07
4.55138e-07
5.77806e-07
5.80228e-07
7.35259e-07
7.26614e-07
8.13993e-07
5.0502e-13
5.70918e-12
2.533e-10
1.80838e-09
6.27065e-09
5.67567e-09
3.30222e-09
3.493e-09
5.24305e-09
4.34979e-09
8.57988e-10
1.29323e-09
1.3875e-08
5.64324e-08
1.76424e-07
2.14769e-07
2.13964e-07
2.6568e-07
3.5046e-07
2.93782e-07
3.42032e-07
4.31589e-07
4.00112e-07
9.16557e-14
1.78687e-12
1.75713e-11
1.21972e-10
3.10523e-10
3.66918e-10
1.63181e-10
1.25829e-10
3.19131e-10
4.03774e-10
5.32126e-10
2.35894e-09
5.36691e-08
3.26993e-07
7.17461e-07
7.85305e-07
5.83537e-07
3.31149e-07
1.08744e-07
1.03554e-07
7.10564e-08
9.46367e-08
1.58768e-07
8.14564e-15
1.96909e-13
3.02966e-12
1.67698e-11
4.16636e-11
4.72381e-11
3.80171e-11
5.15496e-11
1.24289e-10
2.90684e-10
4.71616e-10
2.69202e-09
9.38344e-08
6.43029e-07
7.73949e-07
8.01268e-07
8.01241e-07
2.81318e-07
6.22313e-08
4.21682e-08
5.91115e-08
8.02359e-08
8.55752e-08
5.99767e-16
2.14587e-14
4.65222e-13
4.82774e-12
1.54572e-11
2.17341e-11
2.44157e-11
4.71197e-11
1.33903e-10
2.93024e-10
4.19615e-10
3.05096e-09
9.18779e-08
5.41553e-07
8.0134e-07
8.01299e-07
3.34077e-07
7.98188e-08
5.18656e-08
4.21432e-08
4.04352e-08
3.40482e-08
2.69471e-08
1.70283e-16
9.59483e-15
2.15871e-13
1.8881e-12
5.9423e-12
9.20652e-12
1.32597e-11
3.71507e-11
1.27373e-10
3.07902e-10
5.32956e-10
2.03558e-09
3.17904e-08
1.97726e-07
6.87108e-07
5.7489e-07
1.49058e-07
1.19007e-07
1.04025e-07
7.35485e-08
4.57873e-08
2.37376e-08
1.33322e-08
1.24119e-16
5.09448e-15
7.65669e-14
5.00624e-13
1.55226e-12
2.74842e-12
5.96197e-12
2.3835e-11
9.77669e-11
3.12164e-10
7.34719e-10
1.78868e-09
2.22668e-08
8.19611e-08
1.77712e-07
2.79229e-07
3.17831e-07
2.61409e-07
1.746e-07
9.88942e-08
4.90027e-08
2.18595e-08
8.56462e-09
4.5956e-17
1.36103e-15
1.59332e-14
8.9509e-14
2.66656e-13
5.99033e-13
2.35725e-12
1.27725e-11
5.74878e-11
2.25279e-10
5.2104e-10
6.70221e-10
6.02113e-09
4.03295e-08
1.05428e-07
1.63143e-07
2.5845e-07
2.53969e-07
1.92772e-07
1.15272e-07
5.46923e-08
2.03848e-08
6.31037e-09
3.31933e-21
3.18038e-19
1.39014e-17
3.62231e-16
6.24819e-15
7.54142e-14
6.49717e-13
4.0195e-12
1.79905e-11
8.00013e-11
1.85019e-10
2.61212e-10
4.31939e-10
1.24541e-08
5.8605e-08
1.14092e-07
1.37609e-07
1.49784e-07
1.33325e-07
9.1145e-08
4.70324e-08
1.74898e-08
4.262e-09
4.74313e-22
4.13502e-20
1.67524e-18
4.1651e-17
7.0954e-16
8.72098e-15
7.90916e-14
5.31799e-13
2.63576e-12
9.47449e-12
2.35191e-11
3.65176e-11
3.15514e-11
7.1963e-10
9.39134e-09
3.02695e-08
4.65285e-08
5.11264e-08
4.75538e-08
3.52077e-08
2.04503e-08
8.73098e-09
2.25847e-09
4.90045e-24
4.21268e-22
1.77031e-20
4.81563e-19
9.43883e-18
1.39059e-16
1.56347e-15
1.34136e-14
8.72107e-14
4.23127e-13
1.50711e-12
3.94148e-12
7.74466e-12
1.22332e-11
2.03297e-10
1.9112e-09
5.57243e-09
1.00621e-08
1.07066e-08
6.12711e-09
4.03773e-09
2.11437e-09
6.07008e-10
8.2166e-25
6.8706e-23
2.78215e-21
7.26225e-20
1.37238e-18
1.98493e-17
2.25478e-16
2.03139e-15
1.45247e-14
8.2101e-14
3.63952e-13
1.24673e-12
3.24023e-12
6.3705e-12
1.01269e-11
1.10123e-10
5.81279e-10
1.3509e-09
1.79626e-09
9.48689e-10
2.73e-10
8.30916e-11
3.90765e-11
9.98548e-26
8.41617e-24
3.37039e-22
8.5428e-21
1.54117e-19
2.10891e-18
2.27731e-17
1.9907e-16
1.42937e-15
8.47682e-15
4.15158e-14
1.67445e-13
5.58444e-13
1.5531e-12
3.64281e-12
7.43971e-12
2.01039e-11
5.45457e-11
9.00816e-11
1.13804e-10
1.00859e-10
4.18788e-11
1.58494e-11
7.99497e-27
7.33319e-25
3.20217e-23
8.83983e-22
1.73144e-20
2.55629e-19
2.95019e-18
2.72528e-17
2.04801e-16
1.26754e-15
6.53616e-15
2.83415e-14
1.03945e-13
3.2237e-13
8.44656e-13
1.86931e-12
3.54727e-12
6.22952e-12
1.08753e-11
1.3328e-11
1.15137e-11
7.13583e-12
2.81491e-12
7.90685e-29
7.84594e-27
3.71151e-25
1.11361e-23
2.3808e-22
3.85757e-21
4.91862e-20
5.05993e-19
4.27505e-18
3.0074e-17
1.78013e-16
8.93877e-16
3.8149e-15
1.38604e-14
4.29363e-14
1.13591e-13
2.56829e-13
4.94103e-13
7.94868e-13
1.03608e-12
1.04496e-12
7.62784e-13
3.61541e-13
5.38703e-31
5.78015e-29
2.95555e-27
9.59899e-26
2.22611e-24
3.92635e-23
5.47713e-22
6.20282e-21
5.80593e-20
4.54692e-19
3.00536e-18
1.6895e-17
8.14343e-17
3.38225e-16
1.21203e-15
3.73802e-15
9.8599e-15
2.20007e-14
4.09518e-14
6.22658e-14
7.44598e-14
6.55323e-14
3.81651e-14
2.39123e-33
2.82678e-31
1.59835e-29
5.76111e-28
1.48789e-26
2.92965e-25
4.56827e-24
5.78696e-23
6.06674e-22
5.34014e-21
3.99195e-20
2.55357e-19
1.40323e-18
6.64142e-18
2.71257e-17
9.55871e-17
2.89645e-16
7.49545e-16
1.63392e-15
2.93124e-15
4.17347e-15
4.44999e-15
3.23351e-15
7.54444e-36
9.9285e-34
6.23834e-32
2.50232e-30
7.20479e-29
1.5858e-27
2.77409e-26
3.95877e-25
4.69388e-24
4.68602e-23
3.97857e-22
2.896e-21
1.81878e-20
9.89337e-20
4.66592e-19
1.90555e-18
6.71377e-18
2.02532e-17
5.1676e-17
1.09374e-16
1.86087e-16
2.41748e-16
2.21142e-16
1.72486e-38
2.53532e-36
1.78548e-34
8.0455e-33
2.608e-31
6.47649e-30
1.28101e-28
2.07184e-27
2.79195e-26
3.17874e-25
3.0896e-24
2.58291e-23
1.86686e-22
1.17057e-21
6.37884e-21
3.0197e-20
1.23797e-19
4.36748e-19
1.31153e-18
3.2944e-18
6.73398e-18
1.07197e-17
1.24193e-17
2.77597e-41
4.63527e-39
3.70455e-37
1.89718e-35
6.99985e-34
1.98185e-32
4.47733e-31
8.28642e-30
1.28011e-28
1.67365e-27
1.87132e-26
1.80357e-25
1.50705e-24
1.09586e-23
6.94642e-23
3.83731e-22
1.84269e-21
7.65021e-21
2.72063e-20
8.16624e-20
2.02078e-19
3.96984e-19
5.84759e-19
3.18039e-44
6.07468e-42
5.56066e-40
3.26629e-38
1.38402e-36
4.5065e-35
1.17271e-33
2.50436e-32
4.47274e-31
6.77474e-30
8.79466e-29
9.86242e-28
9.60936e-27
8.16711e-26
6.06826e-25
3.943e-24
2.23659e-23
1.10273e-22
4.68977e-22
1.69901e-21
5.13802e-21
1.25488e-20
2.35514e-20
2.46365e-47
5.47312e-45
5.82121e-43
3.97654e-41
1.96131e-39
7.44134e-38
2.25898e-36
5.63465e-35
1.17699e-33
2.08821e-32
3.1808e-31
4.19391e-30
4.81598e-29
4.8373e-28
4.2609e-27
3.29436e-26
2.23356e-25
1.32373e-24
6.81545e-24
3.0162e-23
1.12681e-22
3.44756e-22
8.2545e-22
1.22234e-50
3.21848e-48
4.04662e-46
3.2685e-44
1.90717e-42
8.5679e-41
3.08311e-39
9.12632e-38
2.26507e-36
4.78129e-35
8.67831e-34
1.36595e-32
1.87655e-31
2.26084e-30
2.39626e-29
2.23791e-28
1.84141e-27
1.33208e-26
8.42984e-26
4.62273e-25
2.15947e-24
8.34455e-24
2.55303e-23
3.51295e-54
1.13132e-51
1.72287e-49
1.68259e-47
1.18697e-45
6.45159e-44
2.81246e-42
1.00982e-40
3.0434e-39
7.80901e-38
1.72479e-36
3.308e-35
5.54744e-34
8.17737e-33
1.06362e-31
1.22357e-30
1.24586e-29
1.12142e-28
8.88569e-28
6.14151e-27
3.63912e-26
1.79404e-25
7.04097e-25
5.07498e-58
2.09814e-55
3.99101e-53
4.83399e-51
4.22156e-49
2.84159e-47
1.53705e-45
6.87049e-44
2.58921e-42
8.33891e-41
2.31646e-39
5.59043e-38
1.17999e-36
2.19119e-35
3.59628e-34
5.23438e-33
6.7683e-32
7.77152e-31
7.89409e-30
7.02641e-29
5.37952e-28
3.4319e-27
1.74196e-26
3.10733e-62
1.77894e-59
4.34074e-57
6.60089e-55
7.19074e-53
6.03801e-51
4.09821e-49
2.32643e-47
1.12836e-45
4.74119e-44
1.74061e-42
5.60169e-41
1.58056e-39
3.91383e-38
8.52749e-37
1.64128e-35
2.80274e-34
4.25507e-33
5.72626e-32
6.76263e-31
6.86895e-30
5.79855e-29
3.86964e-28
8.88112e-67
7.81396e-64
2.52715e-61
4.94127e-59
6.89369e-57
7.42611e-55
6.44377e-53
4.64271e-51
2.84336e-49
1.50957e-47
7.06514e-46
2.95404e-44
1.11198e-42
3.77893e-41
1.1575e-39
3.17723e-38
7.74904e-37
1.6675e-35
3.14961e-34
5.18112e-33
7.28826e-32
8.44845e-31
7.64066e-30
5.67265e-71
6.66822e-68
2.59717e-65
5.96216e-63
9.64967e-61
1.19894e-58
1.20126e-56
1.00136e-54
7.12583e-53
4.42132e-51
2.43513e-49
1.21099e-47
5.51982e-46
2.3298e-44
9.16742e-43
3.37613e-41
1.16335e-39
3.7161e-38
1.07607e-36
2.72942e-35
5.84841e-34
1.01412e-32
1.32886e-31
2.49175e-74
2.57529e-71
9.85611e-69
2.26817e-66
3.69919e-64
4.64618e-62
4.7484e-60
4.09699e-58
3.06329e-56
2.02577e-54
1.20533e-52
6.54975e-51
3.30009e-49
1.56416e-47
7.05947e-46
3.0675e-44
1.29377e-42
5.31354e-41
2.11758e-39
8.05815e-38
2.79587e-36
8.1544e-35
1.78452e-33
1.26194e-77
1.30752e-74
5.31482e-72
1.31993e-69
2.34118e-67
3.21784e-65
3.60466e-63
3.41075e-61
2.79927e-59
2.03472e-57
1.33257e-55
7.97857e-54
4.4238e-52
2.30076e-50
1.13733e-48
5.40635e-47
2.49835e-45
1.1342e-43
5.1058e-42
2.29333e-40
1.02587e-38
4.45843e-37
1.72344e-35
0.00736488
0.0325885
0.284388
0.684996
0.0368156
0.0561775
0.31005
0.814618
0.0771205
0.0920099
0.185553
0.469112
0.116501
0.12929
0.170211
0.280337
0.156715
0.176965
0.206242
0.272603
0.246216
0.262427
0.288154
0.333198
0.431426
0.430007
0.44486
0.480473
0.771048
0.731786
0.717796
0.723739
0.972984
0.959392
0.948786
0.941892
0.999673
0.99926
0.998713
0.998011
0.984633
0.992088
0.996894
0.997126
0.238036
0.207613
0.175226
0.170727
2.30462e-06
3.89187e-06
1.46494e-05
0.000123222
6.99517e-07
1.43938e-07
2.77684e-08
3.74861e-08
1.50052e-07
6.67215e-08
2.6948e-08
1.42606e-08
7.94527e-08
4.71172e-08
2.01491e-08
1.13338e-08
2.48399e-08
1.60837e-08
9.76788e-09
6.46312e-09
6.17213e-09
5.05117e-09
3.82939e-09
2.96675e-09
3.05642e-09
2.39439e-09
1.8275e-09
1.34561e-09
1.87339e-09
1.29418e-09
8.89966e-10
6.02294e-10
9.65057e-10
6.90461e-10
4.76732e-10
3.15025e-10
3.71364e-10
2.75105e-10
1.96914e-10
1.35441e-10
1.11849e-10
8.56024e-11
6.34278e-11
4.48228e-11
2.7289e-11
2.19664e-11
1.69814e-11
1.24095e-11
5.34343e-12
4.60329e-12
3.79556e-12
2.93088e-12
8.74186e-13
7.99398e-13
7.07532e-13
5.8025e-13
1.22609e-13
1.15775e-13
1.10327e-13
9.68555e-14
1.4927e-14
1.4168e-14
1.45021e-14
1.37136e-14
1.55821e-15
1.47913e-15
1.62227e-15
1.66525e-15
1.3712e-16
1.32641e-16
1.56055e-16
1.7532e-16
1.0102e-17
1.02654e-17
1.30371e-17
1.61724e-17
6.26188e-19
6.89216e-19
9.54817e-19
1.31967e-18
3.3052e-20
4.042e-20
6.18582e-20
9.61406e-20
1.50698e-21
2.08725e-21
3.57261e-21
6.30206e-21
6.01924e-23
9.572e-23
1.85247e-22
3.74532e-22
2.13325e-24
3.93029e-24
8.6729e-24
2.03034e-23
6.77574e-26
1.4552e-25
3.6823e-25
1.00921e-24
1.94395e-27
4.88884e-27
1.42072e-26
4.61378e-26
5.05427e-29
1.49788e-28
4.97574e-28
1.94159e-27
1.20416e-30
4.25476e-30
1.58513e-29
7.52208e-29
2.51198e-32
1.11177e-31
4.49541e-31
2.64977e-30
4.64031e-34
2.91258e-33
1.11577e-32
7.95768e-32
0.997733
0.507272
0.0139165
0.000887477
0.000886233
0.230936
0.931734
0.977564
0.932818
0.549665
0.0862516
0.00859116
0.0194072
0.289188
0.90736
0.998567
0.999877
0.999966
0.999995
0.978265
0.490599
0.024121
0.000886504
0.00263816
0.323998
0.897962
0.957111
0.861229
0.277335
0.0116891
2.09717e-05
1.28005e-05
0.00426759
0.1901
0.88151
0.997564
0.999985
0.999999
0.887106
0.813832
0.277516
0.0490362
0.228271
0.79581
0.939871
0.939919
0.79398
0.222192
0.00990537
3.27643e-05
4.25513e-06
8.63901e-06
0.00378329
0.284912
0.964567
0.999848
0.999999
0.68544
0.811055
0.809479
0.82956
0.891676
0.923768
0.938893
0.930305
0.652137
0.134061
0.00462699
2.08538e-05
4.25664e-06
4.61008e-06
1.03334e-05
0.0151389
0.782966
0.996846
0.999994
0.484124
0.688201
0.77821
0.822302
0.855878
0.892232
0.924785
0.885049
0.408951
0.0391028
0.000351832
4.57764e-06
2.20214e-06
3.72345e-06
4.21531e-06
0.000119831
0.252548
0.958364
0.999844
0.481175
0.65556
0.757122
0.814091
0.861865
0.910878
0.92489
0.745702
0.187959
0.00747245
2.49433e-05
3.51228e-06
1.65644e-06
2.25364e-06
3.93962e-06
3.76513e-06
0.0169036
0.819558
0.998462
0.588004
0.72543
0.814815
0.869135
0.915643
0.938031
0.885382
0.404857
0.0410835
0.00040714
4.11424e-06
1.57618e-06
1.1282e-06
1.65361e-06
2.85483e-06
3.6858e-06
0.000316686
0.766299
0.99732
0.779996
0.863818
0.921588
0.955179
0.961753
0.945196
0.600225
0.101369
0.00239365
4.8389e-06
1.49576e-06
8.49448e-07
7.97874e-07
1.21079e-06
1.91278e-06
3.3414e-06
4.6093e-06
0.81192
0.997814
0.950049
0.971964
0.987739
0.98815
0.966541
0.669009
0.132918
0.00333153
4.67722e-06
1.24729e-06
6.93476e-07
5.18688e-07
5.73248e-07
9.6839e-07
1.65189e-06
3.23333e-06
3.80004e-06
0.82619
0.997947
0.998135
0.998182
0.99239
0.959511
0.554988
0.0615151
0.000489077
2.36946e-06
8.62932e-07
5.739e-07
3.929e-07
3.16982e-07
4.2026e-07
8.09008e-07
1.61014e-06
3.31176e-06
3.94618e-06
0.709418
0.995253
0.996131
0.932343
0.517777
0.0839401
0.00120097
1.7525e-06
1.62016e-06
6.19561e-07
4.67356e-07
3.20663e-07
2.17876e-07
1.92985e-07
3.18705e-07
7.0467e-07
1.54276e-06
3.36969e-06
3.86636e-06
0.322617
0.970272
0.157857
0.0364296
0.0010191
0.000245099
3.41584e-06
4.39581e-07
3.86382e-07
3.3412e-07
2.50198e-07
1.66105e-07
1.15568e-07
1.19952e-07
2.52956e-07
6.42923e-07
1.48834e-06
3.28744e-06
3.82323e-06
0.0642878
0.903543
0.000741641
0.000166235
1.85739e-06
4.81526e-08
2.34633e-07
2.19176e-07
2.04333e-07
1.69918e-07
1.2505e-07
8.20802e-08
6.02828e-08
7.98296e-08
2.1555e-07
6.17219e-07
1.48759e-06
3.08826e-06
3.80631e-06
0.0333375
0.886447
1.6161e-07
4.18148e-08
2.97096e-08
3.48835e-08
9.02818e-08
1.07056e-07
9.7691e-08
7.98172e-08
5.83117e-08
3.84918e-08
3.19379e-08
5.86013e-08
1.9297e-07
5.95354e-07
1.47599e-06
2.957e-06
3.01197e-05
0.043971
0.908941
1.72011e-08
1.04858e-08
1.63992e-08
2.68737e-08
4.00739e-08
4.56957e-08
4.17301e-08
3.49678e-08
2.54555e-08
1.73522e-08
1.77667e-08
4.63509e-08
1.70688e-07
5.58557e-07
1.38302e-06
3.00727e-06
0.000245353
0.112778
0.957971
6.70883e-09
5.63943e-09
8.35446e-09
1.21177e-08
1.58748e-08
1.77403e-08
1.6592e-08
1.4273e-08
1.03897e-08
7.63763e-09
1.08479e-08
3.85887e-08
1.51607e-07
5.22181e-07
1.28834e-06
2.52518e-06
0.00011301
0.251736
0.985126
4.96114e-09
2.4215e-09
2.94355e-09
4.17265e-09
5.45857e-09
6.31676e-09
6.54393e-09
5.36399e-09
3.76097e-09
3.32257e-09
7.31747e-09
3.27984e-08
1.35456e-07
4.81455e-07
1.18868e-06
2.1502e-06
1.05217e-05
0.257618
0.985829
2.24926e-09
9.11414e-10
8.77402e-10
1.24326e-09
1.69802e-09
2.08753e-09
2.2789e-09
2.08394e-09
1.32734e-09
1.48616e-09
5.40592e-09
2.84756e-08
1.22997e-07
4.43152e-07
1.11274e-06
2.01177e-06
3.23887e-06
0.165183
0.98326
9.82288e-10
2.94568e-10
2.30923e-10
3.3252e-10
4.94663e-10
6.44525e-10
7.32725e-10
6.96738e-10
4.84647e-10
7.44068e-10
3.86695e-09
2.29917e-08
1.0561e-07
3.91812e-07
1.01559e-06
1.85851e-06
2.8224e-06
0.0516489
0.945422
3.98846e-10
6.67135e-11
5.09629e-11
9.10211e-11
1.38869e-10
1.84952e-10
2.17753e-10
2.15801e-10
1.68773e-10
3.89836e-10
2.71042e-09
1.81858e-08
9.17808e-08
3.4951e-07
9.35737e-07
1.80528e-06
2.76296e-06
0.00832867
0.850687
2.05572e-10
2.83512e-11
9.73735e-12
1.45088e-11
2.75595e-11
4.59296e-11
6.02488e-11
5.99128e-11
5.70814e-11
1.87954e-10
1.638e-09
1.26473e-08
7.27149e-08
3.04737e-07
8.37805e-07
1.55737e-06
2.88124e-06
0.000678596
0.645417
9.01069e-11
1.30927e-11
2.73389e-12
3.37123e-12
6.12777e-12
1.04001e-11
1.43504e-11
1.58527e-11
1.69318e-11
7.3133e-11
7.58397e-10
6.65243e-09
4.15424e-08
2.33363e-07
6.07887e-07
1.34785e-06
2.72489e-06
1.34788e-05
0.295489
3.02999e-11
5.14175e-12
8.36254e-13
7.49403e-13
1.3518e-12
2.38253e-12
3.43507e-12
3.93181e-12
4.16518e-12
1.5888e-11
1.81855e-10
1.831e-09
1.37059e-08
7.03407e-08
3.23497e-07
1.00048e-06
2.28866e-06
6.35415e-06
0.0545192
8.55268e-12
1.69514e-12
2.65981e-13
1.59814e-13
2.7469e-13
5.03726e-13
7.60668e-13
9.1409e-13
9.72968e-13
3.33821e-12
4.06035e-11
4.81869e-10
4.25678e-09
2.60482e-08
1.45767e-07
1.02246e-06
5.56257e-06
0.000204277
0.00328376
2.09972e-12
4.77538e-13
8.04878e-14
3.37241e-14
5.07518e-14
9.65204e-14
1.5485e-13
1.97504e-13
1.95105e-13
2.05185e-13
5.74539e-13
2.93409e-12
1.27172e-11
2.748e-09
6.89886e-08
1.86857e-06
4.59089e-05
0.00020336
0.000113378
4.34735e-13
1.16825e-13
2.18067e-14
7.16793e-15
8.66298e-15
1.691e-14
2.91643e-14
3.99456e-14
4.19645e-14
4.17381e-14
8.56211e-14
3.75977e-13
1.317e-12
1.11578e-10
1.17435e-08
5.93529e-07
1.25543e-05
3.61416e-05
4.27851e-06
7.64918e-14
2.47011e-14
5.19738e-15
1.51759e-15
1.39654e-15
2.73088e-15
5.09099e-15
7.52719e-15
8.49428e-15
8.56071e-15
1.62905e-14
9.99219e-14
8.53951e-13
7.23439e-12
1.16445e-09
3.0121e-08
2.00859e-07
5.63842e-07
4.93049e-07
1.14905e-14
4.51968e-15
1.0906e-15
3.10672e-16
2.17245e-16
4.09261e-16
8.26116e-16
1.32728e-15
1.61891e-15
1.67603e-15
2.68634e-15
1.47821e-14
1.25533e-13
8.28048e-13
1.55017e-11
1.28622e-09
1.4106e-08
5.23512e-08
8.64938e-08
1.49348e-15
7.19417e-16
2.02345e-16
5.97686e-17
3.31787e-17
5.73526e-17
1.24646e-16
2.16847e-16
2.84509e-16
3.04591e-16
4.16073e-16
1.84363e-15
1.63542e-14
1.3392e-13
8.31035e-13
6.31405e-12
4.76424e-10
6.47437e-09
1.29473e-08
1.69924e-16
1.00538e-16
3.33786e-17
1.06195e-17
5.0176e-18
7.51354e-18
1.72596e-17
3.24289e-17
4.56433e-17
5.08097e-17
6.19349e-17
2.00165e-16
1.76072e-15
1.62643e-14
1.31591e-13
1.30085e-12
2.35093e-11
6.70866e-10
7.07585e-10
1.71172e-17
1.24585e-17
4.92736e-18
1.73109e-18
7.44658e-19
9.19442e-19
2.19049e-18
4.4325e-18
6.67216e-18
7.73567e-18
8.85861e-18
2.00178e-17
1.55254e-16
1.56692e-15
1.38708e-14
1.24324e-13
1.14596e-12
1.90653e-11
1.26754e-11
1.54206e-18
1.38203e-18
6.55659e-19
2.58486e-19
1.06764e-19
1.06018e-19
2.55043e-19
5.53592e-19
8.88427e-19
1.07157e-18
1.19581e-18
1.98279e-18
1.1548e-17
1.21352e-16
1.16278e-15
1.04219e-14
1.19742e-13
1.96687e-12
1.55068e-12
1.25434e-19
1.38576e-19
7.93017e-20
3.51899e-20
1.45873e-20
1.16459e-20
2.73041e-20
6.3231e-20
1.07862e-19
1.35002e-19
1.49609e-19
2.01129e-19
7.71052e-19
7.73174e-18
7.91618e-17
7.02055e-16
7.27118e-15
1.10904e-13
1.04147e-13
9.28967e-21
1.26736e-20
8.775e-21
4.37494e-21
1.87787e-21
1.23266e-21
2.69788e-21
6.61741e-21
1.19648e-20
1.54949e-20
1.71798e-20
2.04616e-20
5.01759e-20
4.19267e-19
4.4861e-18
4.02604e-17
3.51078e-16
4.38055e-15
4.67211e-15
6.31393e-22
1.06661e-21
8.87835e-22
4.98318e-22
2.26083e-22
1.26841e-22
2.47394e-22
6.36326e-22
1.21628e-21
1.62522e-21
1.80658e-21
2.00935e-21
3.41576e-21
2.02074e-20
2.16253e-19
2.00714e-18
1.55325e-17
1.45284e-16
1.57561e-16
3.96554e-23
8.33356e-23
8.25286e-23
5.22103e-23
2.53644e-23
1.27399e-23
2.1211e-23
5.6426e-23
1.1373e-22
1.56413e-22
1.74332e-22
1.8565e-22
2.47041e-22
9.17846e-22
9.06271e-21
8.74283e-20
6.4906e-19
4.67112e-18
4.56168e-18
2.31608e-24
6.06699e-24
7.08688e-24
5.05483e-24
2.65029e-24
1.24724e-24
1.71668e-24
4.63442e-24
9.82396e-24
1.38772e-23
1.55029e-23
1.59786e-23
1.83142e-23
4.22433e-23
3.38829e-22
3.35006e-21
2.51291e-20
1.55479e-19
1.30618e-19
1.26494e-25
4.11195e-25
5.65456e-25
4.54574e-25
2.58388e-25
1.18435e-25
1.3264e-25
3.54337e-25
7.87694e-25
1.14091e-24
1.27727e-24
1.28041e-24
1.33428e-24
2.08802e-24
1.16924e-23
1.14173e-22
8.84267e-22
5.21299e-21
3.96418e-21
6.49541e-27
2.60871e-26
4.21597e-26
3.81585e-26
2.35635e-26
1.08384e-26
9.91023e-27
2.53745e-26
5.89192e-26
8.73747e-26
9.80341e-26
9.58726e-26
9.32643e-26
1.11833e-25
3.91459e-25
3.51906e-24
2.81578e-23
1.66831e-22
1.23361e-22
3.15249e-28
1.56013e-27
2.96123e-27
3.01438e-27
2.02387e-27
9.53418e-28
7.24044e-28
1.71142e-27
4.13318e-27
6.26947e-27
7.05301e-27
6.74469e-27
6.20349e-27
6.26221e-27
1.34831e-26
9.99789e-26
8.14968e-25
4.93749e-24
3.71421e-24
1.44273e-29
8.81858e-29
1.96054e-28
2.23968e-28
1.63441e-28
8.00584e-29
5.23133e-29
1.09834e-28
2.73593e-28
4.23885e-28
4.78451e-28
4.48533e-28
3.92987e-28
3.53198e-28
5.05051e-28
2.70213e-27
2.17551e-26
1.34523e-25
1.05255e-25
6.04129e-31
4.77737e-30
1.24693e-29
1.5913e-29
1.25868e-29
6.44961e-30
3.73952e-30
6.71227e-30
1.71323e-29
2.71207e-29
3.07632e-29
2.83537e-29
2.37951e-29
1.96012e-29
2.07917e-29
7.18651e-29
5.42323e-28
3.39043e-27
2.78614e-27
)
;

boundaryField
{
    leftWall
    {
        type            zeroGradient;
    }
    rightWall
    {
        type            zeroGradient;
    }
    lowerWall
    {
        type            zeroGradient;
    }
    atmosphere
    {
        type            inletOutlet;
        inletValue      uniform 0;
        value           nonuniform List<scalar> 
46
(
0
0
0
0
0
0
0
0
0
0
0
0
0
0
0
0
0
0
0
0
0
0
0
0
0
0
0
6.04129e-31
4.77737e-30
1.24693e-29
1.5913e-29
1.25868e-29
6.44961e-30
3.73952e-30
6.71227e-30
1.71323e-29
2.71207e-29
3.07632e-29
2.83537e-29
2.37951e-29
1.96012e-29
2.07917e-29
7.18651e-29
5.42323e-28
3.39043e-27
2.78614e-27
)
;
    }
    defaultFaces
    {
        type            empty;
    }
}


// ************************************************************************* //
