/*--------------------------------*- C++ -*----------------------------------*\
| =========                 |                                                 |
| \\      /  F ield         | OpenFOAM: The Open Source CFD Toolbox           |
|  \\    /   O peration     | Version:  2.4.0                                 |
|   \\  /    A nd           | Web:      www.OpenFOAM.org                      |
|    \\/     M anipulation  |                                                 |
\*---------------------------------------------------------------------------*/
FoamFile
{
    version     2.0;
    format      ascii;
    class       volScalarField;
    location    "0.3";
    object      p;
}
// * * * * * * * * * * * * * * * * * * * * * * * * * * * * * * * * * * * * * //

dimensions      [1 -1 -2 0 0 0 0];

internalField   nonuniform List<scalar> 
2268
(
8285.59
8261.66
8216.21
8145.9
8050.96
7955.56
7786.39
7664.38
7485.9
7268.94
7064.35
6870.2
6658.46
6478.02
6344.37
6278.24
6333.24
6601.09
7203.48
8096.8
9220.11
10318.1
10889.8
7484.98
7460.95
7415.34
7344.53
7250.06
7150.44
6987.72
6859.08
6680.23
6464.62
6261.05
6058.51
5844.36
5655.61
5516.49
5434.9
5502.63
5761.44
6330.08
7233.13
8327.19
9556.49
10056.1
6680.1
6655.85
6609.87
6538.18
6444.05
6338.89
6184.82
6046.05
5865.81
5654.23
5449.14
5233.01
5010.2
4810.82
4654.22
4558.3
4546.82
4781.57
5300.64
6213.22
7337.12
8623.84
9179.6
5870.87
5846.32
5799.67
5726.92
5632.54
5522.73
5375.72
5225.75
5044.11
4837.49
4627.91
4393.58
4162.47
3945.22
3778.68
3654.98
3698.11
3872.58
4272.64
5108.49
6220.91
7616.88
8249.99
5057.23
5032.25
4984.69
4910.69
4815.92
4702.27
4558.95
4399.65
4216.45
4014.54
3793.79
3541.22
3295.67
3077.77
2891.92
2713.36
2544.01
2522.22
2935.7
3763.52
4961.09
6486.88
7176.7
4241.43
4215.85
4167.02
4091.61
3995.42
3877.15
3733.43
3566.5
3379.29
3176.65
2936.88
2664.49
2380.23
2079.76
1836.26
1663.89
1568.86
1566.63
1694.53
2027.51
3319.29
5230.36
5922.78
3426.09
3398.87
3346.89
3266.78
3166.67
3036.49
2890.6
2710.3
2518.19
2274.13
2020.7
1757.63
1511.83
1386.63
1372.94
1400.65
1456.62
1474.73
1481.9
1457.5
2012.94
3855.54
4412.22
2600.22
2573.72
2522.2
2445.09
2349.66
2212.19
2066.64
1884.43
1728.69
1531.76
1341.81
1242.86
1242.33
1350.75
1423.74
1469.89
1470.7
1457.02
1519.19
1532.34
1527.57
2681.55
2719.51
667.253
283.686
21.8652
-84.0073
-35.3422
98.1562
300.652
483.102
612.886
695.686
660.036
621.529
597.603
622.205
687.138
766.748
845.15
867.132
882.287
604.332
211.685
-41.9474
-133.095
-94.895
45.3669
258.978
434.255
570.478
652.784
621.666
581.474
559.839
584.431
645.203
723.202
798.573
817.833
840.959
474.652
87.0368
-131.543
-194.294
-171.208
-31.7452
194.265
373.787
514.701
594.778
570.611
527.936
509.665
537.135
604.701
689.484
777.331
806.886
831.754
310.134
-73.9949
-245.15
-325.65
-272.139
-131.253
102.489
302.736
448.816
524.603
505.079
455.213
442.994
477.493
550.986
641.85
732.219
776.947
802.967
151.234
-216.666
-337.244
-365.009
-351.006
-238.67
1.05363
219.992
372.681
448.156
429.516
368.362
371.408
415.242
491.7
588.676
684.341
743.28
778.821
-12.7279
-359.973
-472.366
-472.379
-438.903
-314.515
-90.6726
127.424
278.561
356.672
339.253
274.542
271.959
327.288
422.827
531.599
632.869
704.391
753.463
-159.518
-454.929
-482.922
-479.428
-476.8
-403.63
-172.257
33.4077
166.901
224.51
171.564
108.74
174.562
247.654
346.391
468.024
578.044
660.967
729.251
-256.914
-470.969
-482.349
-477.8
-481.786
-459.915
-274.608
-51.8827
59.0644
84.3308
61.9118
27.5261
62.619
124.473
267.447
401.066
515.904
616.423
696.261
1278.35
1260.82
1230.49
1195.31
1160.85
1133.87
1119.64
1116.64
1118.48
1145.77
1193.36
1237.46
1267.27
1252.79
1215.3
1200.17
1221.67
1267.38
1294.91
1379.93
1210.62
1343.99
194.213
1007.71
1013.79
1024.51
1039.81
1056.18
1073.22
1086.86
1098.63
1109.85
1116.76
1108.14
1096.36
1082.37
1092.76
1112.85
1158.09
1180
1191.06
1181.45
1209.61
1134.81
956.953
1087.29
997.56
994.29
988.264
980.411
971.849
964.247
958.309
954.243
949.274
941.785
936.243
935.225
936.446
941.555
945.74
943.274
937.391
949.827
965.581
968.846
960.583
847.463
782.746
793.122
793.695
794.907
796.833
799.577
802.673
806.011
807.37
807.485
805.19
800.95
795.71
789.913
783.268
775.077
767.969
765.968
761.097
750.175
738.411
718.838
658.467
557.912
679.295
679.356
679.281
678.887
678.015
676.486
675.072
671.496
669.569
664.048
653.921
642.542
627.522
606.78
586.025
563.59
541.944
517.537
497.339
481.001
452.019
418.364
340.217
537.355
537.244
536.733
535.558
533.402
530.236
526.84
522.129
519.581
512.406
499.61
481.58
454.338
419.555
381.977
342.737
307.658
278.802
254.128
259.146
252.16
225.63
189.709
396.851
396.975
396.912
396.044
393.811
389.939
385.458
381.306
380.455
375.404
358.162
324.599
286.206
259.676
242.855
223.771
207.756
188.674
175.842
178.644
158.794
126.398
123.834
252.49
253.086
253.853
253.935
252.364
248.057
241.593
236.128
246.991
264.154
239.916
202.072
189.128
162.34
151.54
151.119
155.615
156.854
155.474
160.257
154.905
149.768
151.651
59.6306
59.9648
60.4891
61.4562
62.7049
64.0241
64.4094
57.2971
59.8887
79.8128
70.4359
44.7856
49.39
63.6943
85.6013
105.996
112.211
109.262
110.714
110.943
109.896
117.166
134.296
4.72958
4.49413
4.11973
3.61637
3.01916
2.3753
1.64965
1.18024
0.958927
1.88914
2.73299
3.53092
4.67896
8.28058
16.1412
28.9401
35.9272
43.4113
57.0521
72.0909
101.272
113.532
121.595
3.38021
3.42136
3.49816
3.60893
3.75111
3.9221
4.10658
4.15867
4.34336
3.83352
3.57604
3.37143
3.14095
2.99981
2.6088
2.48567
3.10287
3.90968
5.78704
9.75933
19.4194
27.8501
35.7377
4.43145
4.38401
4.30208
4.19988
4.09217
3.9958
3.91761
3.81023
3.6787
3.80358
3.87452
3.92585
4.02452
4.07476
3.95306
3.62726
3.2445
2.93299
2.59343
2.21864
1.90225
1.94687
2.2634
3.03565
3.0635
3.11492
3.18471
3.26601
3.34917
3.41732
3.43609
3.41983
3.41888
3.18546
3.26794
3.25217
3.26021
3.29005
3.38918
3.53342
3.70436
3.89929
4.02561
4.02213
3.79876
3.59939
3.78872
3.76412
3.72659
3.68402
3.64403
3.61358
3.59252
3.57773
3.5978
3.61543
3.49805
3.43244
3.36884
3.29256
3.19586
3.08294
2.92557
2.75482
2.66392
2.56459
2.60435
2.76659
2.95384
3.22761
3.23418
3.2428
3.25271
3.26311
3.26802
3.26507
3.25205
3.23258
3.23117
3.20839
3.21324
3.19035
3.15557
3.11868
3.1074
3.12279
3.16373
3.21071
3.21483
3.19839
3.06889
2.87215
3.16259
3.16229
3.16396
3.16795
3.17306
3.17838
3.18326
3.18461
3.18449
3.18132
3.14408
3.10967
3.07317
3.0308
2.98344
2.93342
2.88303
2.83558
2.79191
2.77035
2.79698
2.84727
2.88877
3.04946
3.04886
3.04886
3.04989
3.05094
3.052
3.05205
3.04966
3.04395
3.03511
3.01296
2.98797
2.95979
2.9264
2.88814
2.84687
2.81066
2.78782
2.77751
2.76965
2.75701
2.73226
2.70034
2.92491
2.9252
2.92561
2.92583
2.92549
2.925
2.92345
2.91968
2.9134
2.90392
2.88773
2.86758
2.84497
2.81849
2.79022
2.76243
2.73387
2.71316
2.70229
2.6946
2.68749
2.6818
2.67591
2.80308
2.80301
2.80274
2.80215
2.80105
2.79916
2.79617
2.79168
2.78543
2.77647
2.76345
2.7462
2.7268
2.70462
2.68006
2.65461
2.63125
2.61023
2.59032
2.57454
2.5606
2.54645
2.53616
2.68062
2.68032
2.6797
2.67862
2.67691
2.67443
2.6709
2.66598
2.65943
2.6505
2.63848
2.62439
2.60895
2.59223
2.57429
2.55698
2.54124
2.52354
2.50538
2.49236
2.4804
2.46769
2.45654
2.55818
2.55781
2.55699
2.5556
2.5536
2.55076
2.54693
2.54189
2.53539
2.52688
2.51656
2.50465
2.49089
2.47577
2.45966
2.44334
2.42605
2.40913
2.39372
2.37843
2.36387
2.35088
2.3395
2.43596
2.43548
2.43452
2.43302
2.43086
2.42791
2.42406
2.41916
2.41293
2.40524
2.39596
2.38532
2.37322
2.35981
2.34576
2.3316
2.31687
2.30237
2.28836
2.27456
2.26261
2.25093
2.23832
2.3138
2.31331
2.31234
2.31079
2.30861
2.30568
2.30188
2.29709
2.29115
2.28392
2.27549
2.26592
2.25544
2.24411
2.23202
2.21926
2.20624
2.19319
2.18014
2.16776
2.15551
2.14308
2.13078
2.19216
2.19166
2.19064
2.18907
2.18687
2.18397
2.18029
2.17571
2.17017
2.16365
2.15623
2.1478
2.13846
2.12833
2.11767
2.10649
2.09475
2.08296
2.07123
2.0596
2.04817
2.03649
2.0241
2.07085
2.07034
2.06932
2.06775
2.0656
2.06281
2.05933
2.0551
2.05007
2.04422
2.0375
2.02996
2.02168
2.01271
2.00316
1.99314
1.98287
1.9722
1.96142
1.95086
1.94006
1.92891
1.91754
1.94981
1.94932
1.94834
1.94685
1.94481
1.94219
1.93894
1.93502
1.9304
1.92505
1.91898
1.91221
1.90485
1.89702
1.88865
1.8798
1.87053
1.86085
1.85115
1.84147
1.83161
1.82141
1.81098
1.82913
1.82867
1.82775
1.82634
1.82443
1.82198
1.81896
1.81536
1.81117
1.80638
1.80097
1.79499
1.78845
1.78136
1.77377
1.76582
1.75757
1.74917
1.74061
1.73181
1.72288
1.71375
1.7044
1.70882
1.7084
1.70755
1.70624
1.70448
1.70223
1.69948
1.69622
1.69242
1.68808
1.68321
1.67787
1.67206
1.66583
1.65921
1.65221
1.64491
1.63738
1.62973
1.62198
1.61404
1.60594
1.59772
1.58871
1.58831
1.58752
1.58632
1.58471
1.58267
1.58019
1.57726
1.57388
1.57005
1.56579
1.56109
1.55597
1.55047
1.54463
1.53849
1.53211
1.52552
1.51876
1.51191
1.50496
1.49794
1.49087
1.46897
1.4686
1.46789
1.46681
1.46536
1.46352
1.4613
1.45869
1.45569
1.45231
1.44855
1.44442
1.43994
1.43514
1.43005
1.4247
1.41913
1.4134
1.40755
1.40164
1.39567
1.38968
1.38374
1.34953
1.3492
1.34857
1.34761
1.34632
1.34469
1.34274
1.34044
1.33781
1.33485
1.33156
1.32797
1.32408
1.31992
1.31551
1.3109
1.30611
1.30118
1.29617
1.29112
1.28608
1.2811
1.27623
1.2303
1.23001
1.22945
1.22861
1.22747
1.22605
1.22435
1.22235
1.22007
1.21751
1.21469
1.2116
1.20826
1.2047
1.20094
1.19701
1.19294
1.18877
1.18455
1.18034
1.17617
1.17211
1.16824
1.11132
1.11107
1.11059
1.10986
1.10889
1.10767
1.1062
1.10449
1.10254
1.10036
1.09795
1.09533
1.09251
1.08951
1.08634
1.08304
1.07964
1.07618
1.07269
1.06924
1.06588
1.06267
1.05969
0.992516
0.992306
0.991901
0.991282
0.990457
0.989426
0.988191
0.986755
0.985122
0.9833
0.981295
0.979117
0.976778
0.974294
0.971684
0.968974
0.966193
0.963376
0.960567
0.957816
0.95518
0.952725
0.950536
0.87389
0.873716
0.873383
0.872871
0.872191
0.871341
0.870324
0.869146
0.867811
0.866326
0.864699
0.862935
0.861045
0.859044
0.856951
0.854786
0.852575
0.850353
0.848157
0.846037
0.844047
0.842253
0.840736
0.755406
0.755264
0.755001
0.754589
0.754045
0.753365
0.752551
0.751614
0.750559
0.749395
0.748127
0.746755
0.745286
0.743735
0.742121
0.740461
0.738776
0.737095
0.735455
0.733898
0.732475
0.731247
0.730286
0.637043
0.636931
0.636733
0.636416
0.636
0.635479
0.634866
0.634167
0.633385
0.632526
0.631594
0.630578
0.629489
0.628354
0.627187
0.625992
0.624787
0.623599
0.62246
0.621402
0.620469
0.619714
0.619205
0.518755
0.518661
0.518525
0.518297
0.518006
0.517654
0.517248
0.516777
0.516245
0.515653
0.515002
0.514317
0.513623
0.512906
0.51216
0.511392
0.510615
0.509871
0.509181
0.508561
0.508048
0.507686
0.507523
0.400505
0.400405
0.400329
0.400184
0.400015
0.399813
0.399582
0.399322
0.399038
0.398723
0.398381
0.398026
0.397647
0.397256
0.396868
0.396505
0.396197
0.395919
0.395643
0.395401
0.395244
0.395207
0.395305
0.282384
0.282252
0.282226
0.282165
0.282113
0.282061
0.281999
0.281927
0.281849
0.281771
0.281704
0.281648
0.281604
0.281576
0.281563
0.281569
0.28158
0.281614
0.28172
0.28189
0.282097
0.282314
0.282575
0.164622
0.164529
0.164541
0.164552
0.164589
0.164645
0.164719
0.164813
0.164926
0.165063
0.165223
0.165409
0.165619
0.16585
0.166124
0.166444
0.16681
0.167209
0.167641
0.168096
0.16856
0.169042
0.1695
0.0469721
0.047027
0.0470928
0.0471571
0.0472561
0.0473875
0.0475622
0.0477833
0.0480526
0.0483713
0.0487401
0.0491602
0.0496371
0.0501708
0.050745
0.0513517
0.0519876
0.0526481
0.053324
0.0540101
0.0546915
0.0553426
0.0559206
-313.286
-250.803
-219.66
-222.398
265.888
4.35762
-6.12856
151.699
485.72
319.476
253.627
222.336
407.832
297.362
187.236
96.2129
260.324
199.23
119.91
28.3536
157.698
125.39
76.7552
19.7548
127.548
118.993
94.0694
59.2125
150.964
150.797
144.625
126.845
140.622
142.218
138.934
129.423
125.993
128.809
126.216
121.914
37.3887
33.4235
26.5186
21.8598
2.66361
2.84728
2.79127
2.77646
3.40133
3.32423
3.23065
3.14304
3.10623
3.12817
3.15556
3.16503
2.9016
2.89274
2.86101
2.85373
2.90346
2.91172
2.91569
2.9131
2.70652
2.7097
2.71189
2.71951
2.67125
2.66872
2.66584
2.66174
2.53275
2.53057
2.52901
2.52772
2.44769
2.44188
2.43618
2.43082
2.33178
2.32684
2.32207
2.31737
2.22917
2.22298
2.21685
2.21104
2.122
2.1161
2.1099
2.10386
2.01557
2.00994
2.0039
1.99785
1.90941
1.90412
1.89845
1.89266
1.80346
1.79857
1.7934
1.78809
1.6976
1.69321
1.68865
1.68394
1.59175
1.58792
1.58401
1.57996
1.48576
1.48252
1.47927
1.47593
1.3795
1.37685
1.37423
1.37158
1.27283
1.27073
1.2687
1.26671
1.16562
1.16403
1.16254
1.16113
1.05777
1.05664
1.05562
1.05471
0.94921
0.948469
0.947852
0.947357
0.839907
0.839484
0.839186
0.839018
0.729853
0.729677
0.729614
0.729672
0.619074
0.619082
0.619193
0.619414
0.507612
0.507748
0.507973
0.508298
0.395526
0.395731
0.396015
0.396402
0.282839
0.283035
0.28325
0.283476
0.169838
0.170046
0.170251
0.170466
0.0562585
0.0564492
0.0566224
0.0567822
-303.461
-477.191
-481.202
-480.406
-479.293
-483.924
-409.053
-167.169
-41.7194
-1.33444
3.08347
1.21191
-0.69277
10.79
86.5423
293.584
407.489
538.885
632.846
-38.921
-463.836
-482.551
-478.13
-481.883
-480.032
-446.246
-243.462
-72.5756
1.79734
7.51118
7.34543
9.35109
5.77813
9.93017
88.4461
250.85
410.944
520.494
216.445
-377.446
-475.83
-480.529
-479.554
-476.521
-421.329
-249.579
-56.5721
2.7642
5.91807
4.66009
4.29479
5.88932
4.40177
10.2238
99.1934
275.751
388.435
26.6452
-278.393
-411.325
-462.535
-460.847
-432.372
-342.995
-195.044
-29.6097
4.87024
5.57918
5.17137
5.55831
5.43728
6.42149
3.11494
21.327
155.931
258.75
-95.8415
-255.119
-344.999
-393.336
-388.785
-332.284
-234.639
-84.3083
-2.48175
5.38543
5.10743
5.06069
5.18547
4.95298
5.41522
5.24438
4.22293
43.8229
149.748
-79.8951
-186.06
-255.273
-280.705
-264.149
-196.564
-115.758
-15.1796
4.02584
4.85606
4.81422
4.81308
4.81029
4.7733
4.71301
4.87632
3.82354
8.32453
81.3041
-4.40277
-82.9775
-127.817
-143.592
-125.051
-76.3379
-22.5785
2.22843
4.65898
4.58925
4.60436
4.68298
4.61714
4.79247
4.57037
4.7274
4.13307
3.96894
54.8068
84.6741
28.5768
-5.22679
-34.8813
-27.0974
-5.52639
2.47806
4.07229
4.27898
4.37608
4.37429
4.38101
4.3202
4.4407
4.32119
4.49699
4.17281
3.15103
49.6851
104.777
64.4323
26.5742
9.47115
15.9984
6.60762
3.99074
3.96348
4.09138
4.11026
4.1394
4.15447
4.09042
4.21213
3.93237
4.23004
3.87438
4.03438
44.4696
115.675
81.0246
35.0405
13.5137
4.98653
3.93107
3.78907
3.79361
3.8829
3.88913
3.92077
3.91165
3.87594
3.93868
3.68103
4.00292
3.63025
5.51906
32.4118
20.4424
7.64955
3.79395
3.59275
3.43204
3.48294
3.59475
3.63166
3.68664
3.68901
3.7154
3.68769
3.67734
3.68927
3.52303
3.69169
3.43272
3.52992
10.4868
3.04484
3.30807
3.37122
3.00675
3.61141
3.40136
3.49715
3.45738
3.51212
3.48422
3.51898
3.47029
3.48509
3.43744
3.37607
3.37199
3.20517
2.94443
4.88781
2.99097
3.27877
3.44644
3.29357
3.32273
3.29658
3.30662
3.30804
3.33088
3.29032
3.32984
3.25826
3.30395
3.20819
3.22406
3.08288
3.08279
2.62288
4.12876
3.18136
3.1754
3.07657
3.12161
3.16763
3.15337
3.15016
3.14016
3.15064
3.09713
3.15657
3.03891
3.14091
2.98538
3.10389
2.81741
3.01705
2.49715
4.33461
2.87953
3.0054
3.02483
3.01846
3.01771
3.00625
2.99495
2.97884
2.96934
2.91473
2.97274
2.8208
2.97853
2.78213
2.98672
2.7754
3.11668
2.40623
7.8153
2.89897
2.88256
2.87028
2.87348
2.86984
2.85695
2.83809
2.81461
2.78845
2.73965
2.77636
2.61052
2.79459
2.57224
2.91474
2.78991
3.19607
3.18161
20.6539
2.73853
2.75836
2.75685
2.74767
2.73274
2.71235
2.68623
2.65314
2.61337
2.56396
2.56513
2.3958
2.57712
2.31766
2.7596
2.62164
3.32176
3.31142
35.8765
2.65404
2.63986
2.62921
2.61658
2.59763
2.57182
2.53871
2.4967
2.44553
2.38529
2.34023
2.17785
2.29683
1.99944
2.43149
2.00391
3.09929
1.33094
27.0942
2.52556
2.52023
2.50848
2.49099
2.46743
2.43681
2.39735
2.34734
2.2844
2.20742
2.11555
1.96354
1.97496
1.6206
1.91579
1.15452
2.64444
-0.46697
9.12866
2.42141
2.40704
2.39059
2.36966
2.34282
2.30834
2.26407
2.20773
2.13495
2.04194
1.92054
1.75481
1.63765
1.21448
1.16284
0.146586
1.31496
-2.02851
3.75297
2.30915
2.29435
2.276
2.25299
2.22405
2.18737
2.14065
2.08052
2.00213
1.89878
1.75894
1.56653
1.31833
0.854496
0.447245
-0.732672
-1.40652
-3.7585
-5.95567
2.20075
2.18452
2.16484
2.14111
2.11174
2.07447
2.02781
1.96766
1.88912
1.78442
1.64077
1.43757
1.13913
0.654362
-0.0231067
-1.42225
-3.84925
-6.01791
-6.99808
2.09365
2.07695
2.05702
2.03353
2.00521
1.96975
1.9256
1.86931
1.79642
1.69994
1.5686
1.3835
1.11031
0.682496
-0.0428543
-1.43758
-3.64592
-6.74278
-2.19918
1.98774
1.97136
1.95235
1.9304
1.9041
1.87215
1.83293
1.78384
1.72163
1.64121
1.53482
1.39006
1.18548
0.880249
0.377263
-0.523266
-2.0391
-4.07134
3.59295
1.88299
1.86776
1.85017
1.83059
1.80754
1.78043
1.74788
1.70837
1.66012
1.60049
1.52595
1.43187
1.31182
1.15648
0.944835
0.635371
0.25293
0.450513
4.30378
1.77918
1.76559
1.75015
1.73347
1.71441
1.69276
1.66791
1.63915
1.60616
1.56853
1.52648
1.4816
1.4385
1.4058
1.40231
1.45674
1.80667
3.0125
4.50726
1.676
1.6643
1.6515
1.63802
1.62335
1.60745
1.59047
1.57246
1.5542
1.53702
1.52362
1.51896
1.53187
1.58059
1.69436
1.92465
2.40284
3.41805
4.1644
1.57318
1.56352
1.55345
1.54328
1.53301
1.52282
1.51321
1.50499
1.49969
1.49961
1.50868
1.53329
1.58375
1.67713
1.83916
2.10609
2.5283
3.19861
3.59581
1.47036
1.46279
1.45537
1.44842
1.44225
1.43706
1.43409
1.43423
1.43943
1.45242
1.47742
1.52068
1.59135
1.70241
1.87056
2.11393
2.4414
2.86592
3.09267
1.36722
1.36166
1.35669
1.35267
1.34996
1.34934
1.35176
1.35849
1.37149
1.39352
1.42841
1.48144
1.55949
1.67099
1.82476
2.02637
2.26826
2.53724
2.67766
1.26349
1.25975
1.25695
1.25544
1.25577
1.25872
1.26529
1.27678
1.29504
1.32249
1.36233
1.41849
1.49559
1.59834
1.73009
1.88973
2.06538
2.23913
2.33039
1.15894
1.15679
1.15582
1.15633
1.15906
1.16469
1.17418
1.18876
1.21003
1.23998
1.28103
1.33588
1.40727
1.49729
1.60611
1.72981
1.85709
1.97246
2.03369
1.0534
1.05256
1.05302
1.05513
1.05959
1.06703
1.07832
1.09453
1.11698
1.1472
1.18688
1.23773
1.30112
1.37749
1.46544
1.56038
1.65311
1.73183
1.77393
0.946764
0.946973
0.948446
0.951707
0.957273
0.965741
0.977863
0.994523
1.01674
1.04563
1.0823
1.12772
1.18234
1.24571
1.31582
1.38842
1.45654
1.51149
1.54103
0.838983
0.840043
0.842132
0.846055
0.852177
0.861001
0.873148
0.889316
0.910265
0.936763
0.969488
1.00887
1.05483
1.10652
1.16185
1.21727
1.26764
1.30673
1.32779
0.729986
0.731268
0.734007
0.738255
0.744465
0.753085
0.764615
0.779588
0.79855
0.821999
0.850303
0.88356
0.921424
0.962902
1.00614
1.0483
1.08565
1.1139
1.12902
0.619983
0.621559
0.624333
0.628501
0.634387
0.642348
0.652766
0.666037
0.682533
0.70256
0.726279
0.753602
0.784077
0.816755
0.850089
0.88191
0.909538
0.930049
0.940955
0.509021
0.51059
0.513186
0.51698
0.522214
0.529159
0.538099
0.549312
0.563044
0.579467
0.598617
0.620324
0.64413
0.669222
0.694379
0.717997
0.738186
0.752983
0.760787
0.3973
0.398544
0.40076
0.403954
0.408286
0.413949
0.421145
0.430061
0.440852
0.453603
0.468287
0.484718
0.502499
0.520987
0.539278
0.556228
0.57055
0.580938
0.586382
0.283808
0.285329
0.28716
0.289612
0.292863
0.297057
0.302329
0.308799
0.316557
0.325637
0.335992
0.34746
0.359743
0.372381
0.384757
0.396115
0.405632
0.412489
0.416061
0.170879
0.171679
0.172813
0.174341
0.176358
0.17894
0.182161
0.186086
0.19076
0.196194
0.202343
0.209102
0.216284
0.223616
0.23074
0.237229
0.24263
0.246503
0.248505
0.0570366
0.0574297
0.0578835
0.0584319
0.0591116
0.0599703
0.0610467
0.0623608
0.0639196
0.0657218
0.067748
0.0699581
0.0722881
0.0746476
0.0769211
0.0789722
0.0806704
0.0818758
0.0824912
)
;

boundaryField
{
    leftWall
    {
        type            fixedFluxPressure;
        gradient        uniform 0;
        value           nonuniform List<scalar> 
50
(
8285.59
7484.98
6680.1
5870.87
5057.23
4241.43
3426.09
2600.22
1278.35
1007.71
997.56
793.122
679.295
537.355
396.851
252.49
59.6306
4.72958
3.38021
4.43145
3.03565
3.78872
3.22761
3.16259
3.04946
2.92491
2.80308
2.68062
2.55818
2.43596
2.3138
2.19216
2.07085
1.94981
1.82913
1.70882
1.58871
1.46897
1.34953
1.2303
1.11132
0.992516
0.87389
0.755406
0.637043
0.518755
0.400505
0.282384
0.164622
0.0469721
)
;
    }
    rightWall
    {
        type            fixedFluxPressure;
        gradient        uniform 0;
        value           nonuniform List<scalar> 
50
(
882.287
840.959
831.754
802.967
778.821
753.463
729.251
696.261
632.846
520.494
388.435
258.75
149.748
81.3041
54.8068
49.6851
44.4696
32.4118
10.4868
4.88781
4.12876
4.33461
7.8153
20.6539
35.8765
27.0942
9.12866
3.75297
-5.95567
-6.99808
-2.19918
3.59295
4.30378
4.50726
4.1644
3.59581
3.09267
2.67766
2.33039
2.03369
1.77393
1.54103
1.32779
1.12902
0.940955
0.760787
0.586382
0.416061
0.248505
0.0824912
)
;
    }
    lowerWall
    {
        type            fixedFluxPressure;
        gradient        nonuniform List<scalar> 
62
(
132719
132719
132719
132719
132719
132719
132719
132719
132719
132719
132719
132719
132719
132719
132719
132719
132719
132719
132719
132719
132719
132707
132621
0
0
0
0
0
0
0
0
3464.59
26.4911
18.4422
157.697
0
0
0
0
0
0
0
0
4892.41
4902.98
4903.7
4902.69
4903.98
4904.92
4904.98
4904.51
4903.73
4902.95
4902.03
4903.68
4904.89
4904.76
3997.07
4042.86
4061.85
3724.3
3440.89
)
;
        value           nonuniform List<scalar> 
62
(
8683.74
8659.81
8614.36
8544.05
8449.11
8353.71
8184.54
8062.53
7884.04
7667.09
7462.5
7268.35
7056.61
6876.17
6742.52
6676.39
6731.39
6999.24
7601.63
8494.95
9618.26
10716.2
11287.6
10889.8
10056.1
9179.6
8249.99
7176.7
5922.78
4412.22
2719.51
-291.178
-250.634
-219.542
-221.392
667.253
604.332
474.652
310.134
151.234
-12.7279
-159.518
-256.914
681.93
298.394
36.576
-69.2996
-20.6306
112.871
315.366
497.815
627.597
710.394
674.742
636.24
612.318
636.919
699.129
778.877
857.335
878.305
892.61
)
;
    }
    atmosphere
    {
        type            totalPressure;
        U               U.air;
        phi             phi.air;
        rho             rho;
        psi             none;
        gamma           1;
        p0              uniform 0;
        value           nonuniform List<scalar> 
46
(
-0.0127186
-0.0130617
-0.012955
-0.012798
-0.0125718
-0.0122805
-0.0119231
-0.0114991
-0.0110098
-0.0104569
-0.00984273
-0.0091704
-0.00844297
-0.00766449
-0.00684352
-0.00599078
-0.00511865
-0.00424257
-0.00338049
-0.00255339
-0.00178371
-0.00110156
-0.000550953
-0.000284251
-0.00016968
-0.000103887
-8.0082e-05
0
0
0
0
0
0
0
0
0
0
0
0
0
0
0
0
0
0
0
)
;
    }
    defaultFaces
    {
        type            empty;
    }
}


// ************************************************************************* //
