/*--------------------------------*- C++ -*----------------------------------*\
| =========                 |                                                 |
| \\      /  F ield         | OpenFOAM: The Open Source CFD Toolbox           |
|  \\    /   O peration     | Version:  2.4.0                                 |
|   \\  /    A nd           | Web:      www.OpenFOAM.org                      |
|    \\/     M anipulation  |                                                 |
\*---------------------------------------------------------------------------*/
FoamFile
{
    version     2.0;
    format      ascii;
    class       surfaceScalarField;
    location    "0.3";
    object      phi.water;
}
// * * * * * * * * * * * * * * * * * * * * * * * * * * * * * * * * * * * * * //

dimensions      [0 3 -1 0 0 0 0];

internalField   nonuniform List<scalar> 
4432
(
3.48176e-06
-3.4817e-06
6.97982e-06
-3.498e-06
1.04598e-05
-3.47986e-06
1.41009e-05
-3.64105e-06
1.73541e-05
-3.25319e-06
2.1662e-05
-4.30777e-06
2.44959e-05
-2.83381e-06
2.84673e-05
-3.97123e-06
3.30928e-05
-4.62517e-06
3.68473e-05
-3.75407e-06
3.9746e-05
-2.89777e-06
4.30906e-05
-3.34284e-06
4.72309e-05
-4.13802e-06
5.19776e-05
-4.74445e-06
5.59263e-05
-3.94653e-06
5.7921e-05
-1.99286e-06
5.76564e-05
2.65741e-07
5.49936e-05
2.66413e-06
4.95578e-05
5.43934e-06
3.99071e-05
9.65991e-06
2.75474e-05
1.23704e-05
1.27342e-05
1.4818e-05
1.27348e-05
3.48255e-06
-6.96404e-06
6.98164e-06
-6.99693e-06
1.04594e-05
-6.95744e-06
1.40997e-05
-7.28122e-06
1.74088e-05
-6.56203e-06
2.15471e-05
-8.44569e-06
2.45589e-05
-5.84521e-06
2.85872e-05
-7.99834e-06
3.30996e-05
-9.13576e-06
3.67033e-05
-7.35503e-06
3.97143e-05
-5.90453e-06
4.32986e-05
-6.9212e-06
4.78819e-05
-8.7151e-06
5.25072e-05
-9.36364e-06
5.62743e-05
-7.70771e-06
5.80128e-05
-3.72382e-06
5.7906e-05
3.88119e-07
5.53445e-05
5.27008e-06
5.00516e-05
1.08849e-05
4.20178e-05
1.79215e-05
3.01603e-05
2.44568e-05
1.53646e-05
2.98698e-05
2.81769e-05
3.47969e-06
-1.04429e-05
6.97139e-06
-1.0488e-05
1.04514e-05
-1.04368e-05
1.4077e-05
-1.09059e-05
1.74488e-05
-9.93267e-06
2.13641e-05
-1.23589e-05
2.46978e-05
-9.17604e-06
2.87097e-05
-1.20046e-05
3.28004e-05
-1.32186e-05
3.63688e-05
-1.09128e-05
3.99655e-05
-9.48876e-06
4.42425e-05
-1.11686e-05
4.83912e-05
-1.26255e-05
5.24345e-05
-1.22448e-05
5.58838e-05
-7.92379e-06
5.77631e-05
-1.59662e-06
5.81885e-05
4.72642e-06
5.73428e-05
1.0785e-05
5.269e-05
1.97063e-05
4.5006e-05
2.88069e-05
2.93026e-05
4.16403e-05
1.55401e-05
4.39863e-05
4.38241e-05
3.47568e-06
-1.39138e-05
6.95511e-06
-1.39638e-05
1.0445e-05
-1.39225e-05
1.404e-05
-1.44954e-05
1.74673e-05
-1.33533e-05
2.12065e-05
-1.60866e-05
2.47762e-05
-1.27318e-05
2.87269e-05
-1.5892e-05
3.24299e-05
-1.66077e-05
3.59655e-05
-1.36656e-05
4.06116e-05
-1.15648e-05
4.50392e-05
-6.4559e-06
4.87324e-05
2.99533e-06
5.12054e-05
9.9482e-06
5.46976e-05
1.24521e-05
5.61233e-05
1.86336e-05
5.90654e-05
2.49363e-05
6.03884e-05
3.18656e-05
5.73252e-05
3.77013e-05
5.03397e-05
4.74644e-05
3.46376e-05
6.12804e-05
1.63109e-05
6.30662e-05
5.9919e-05
3.46898e-06
-1.70991e-05
6.93615e-06
-1.70674e-05
1.04268e-05
-1.68492e-05
1.40007e-05
-1.69523e-05
1.7424e-05
-1.52052e-05
2.10743e-05
-1.44268e-05
2.48062e-05
-9.55714e-06
2.86136e-05
-5.5019e-06
3.20952e-05
1.81234e-06
3.56135e-05
6.18473e-06
3.83703e-05
5.05695e-06
3.97096e-05
5.5464e-06
4.85163e-05
9.96395e-06
5.34096e-05
1.51688e-05
5.59941e-05
1.82312e-05
6.01024e-05
2.35956e-05
6.43625e-05
2.6057e-05
6.34605e-05
3.97696e-05
5.82353e-05
6.25726e-05
4.89239e-05
8.63391e-05
2.92667e-05
0.000114466
1.81833e-05
9.41777e-05
8.4877e-05
3.47147e-06
3.13922e-06
6.94171e-06
4.21095e-06
1.04539e-05
4.54554e-06
1.4014e-05
4.03334e-06
1.70623e-05
4.82237e-06
2.12112e-05
1.60415e-06
2.34754e-05
3.68985e-06
2.72403e-05
2.09657e-06
3.29787e-05
5.96898e-06
3.85833e-05
9.47909e-06
4.35818e-05
8.32989e-06
4.74555e-05
8.06396e-06
5.16263e-05
5.7109e-06
5.331e-05
6.44179e-06
5.57265e-05
6.26228e-06
5.76745e-05
9.5858e-06
5.6759e-05
1.06123e-05
5.71734e-05
1.30676e-05
5.39759e-05
3.51192e-05
3.76508e-05
7.17875e-05
2.94297e-05
0.000111884
1.41866e-05
0.000137061
0.000106699
3.74783e-06
5.95377e-06
7.409e-06
6.32182e-06
1.11363e-05
6.6e-06
1.47809e-05
6.11141e-06
1.85939e-05
7.57746e-06
2.21575e-05
4.45632e-06
2.66941e-05
6.68166e-06
2.97105e-05
4.14609e-06
3.39463e-05
9.64408e-07
3.874e-05
1.669e-07
4.23972e-05
-1.78693e-06
4.50431e-05
-3.06731e-06
4.66348e-05
-7.57841e-06
4.58554e-05
-9.19734e-06
4.20114e-05
-1.01685e-05
3.29403e-05
-3.81412e-06
2.4006e-05
1.06154e-06
2.40037e-05
1.2945e-06
2.98058e-05
1.4195e-05
2.23988e-05
5.15194e-05
1.87869e-05
9.87415e-05
1.40449e-05
0.000139232
0.000141965
3.71388e-06
2.15553e-06
7.40715e-06
2.01499e-06
1.11036e-05
1.7458e-06
1.45794e-05
8.2988e-07
1.86979e-05
1.17729e-06
2.18728e-05
-2.10886e-06
2.66856e-05
-2.16594e-06
2.93399e-05
-3.59209e-06
3.30506e-05
-7.86729e-06
3.66221e-05
-1.08816e-05
3.73783e-05
-1.39665e-05
3.5901e-05
-1.64813e-05
2.99232e-05
-1.7689e-05
2.383e-05
-1.46544e-05
2.0175e-05
-1.19972e-05
2.52848e-05
-1.0269e-05
3.09179e-05
-4.69402e-06
2.75952e-05
4.64272e-06
2.51092e-05
1.63154e-05
1.99426e-05
4.92586e-05
7.91201e-06
9.72888e-05
1.34304e-05
0.000128579
0.000161396
-6.60218e-05
6.59394e-05
-0.000109131
4.30618e-05
-0.0001292
2.00647e-05
-0.000131825
2.6375e-06
-0.000118998
-1.29182e-05
-9.4407e-05
-2.51061e-05
-6.71944e-05
-2.87324e-05
-3.58435e-05
-3.38658e-05
-2.79996e-06
-3.56371e-05
3.08972e-05
-3.60835e-05
5.27751e-05
-2.31501e-05
6.6482e-05
-1.59571e-05
6.82736e-05
-6.95646e-06
6.18322e-05
5.73857e-07
4.84515e-05
1.13048e-05
3.11216e-05
1.71597e-05
1.09064e-05
1.99413e-05
-1.92515e-06
8.59286e-06
-4.66047e-06
-6.54519e-05
0.000131348
-0.000105252
8.29001e-05
-0.000123081
3.79347e-05
-0.000120815
5.01537e-07
-0.000110452
-2.29736e-05
-8.98673e-05
-4.52468e-05
-5.70944e-05
-6.13378e-05
-2.61634e-05
-6.54758e-05
4.90646e-06
-6.8128e-05
3.8773e-05
-7.18326e-05
6.28763e-05
-5.11522e-05
7.86617e-05
-4.00389e-05
8.20081e-05
-2.22936e-05
7.66806e-05
-6.07132e-06
6.13219e-05
1.86071e-05
4.3216e-05
3.45467e-05
2.27136e-05
4.08786e-05
4.06597e-06
2.88876e-05
-9.7225e-07
-6.02203e-05
0.000191545
-0.000102093
0.000124792
-0.000113713
4.95679e-05
-0.00011262
-5.44282e-07
-0.000107236
-2.81365e-05
-8.25108e-05
-6.94986e-05
-4.86357e-05
-9.47995e-05
-2.18701e-05
-9.30269e-05
1.10569e-05
-0.000103094
4.53328e-05
-0.000109653
7.19457e-05
-8.48134e-05
8.72329e-05
-6.54586e-05
8.95171e-05
-3.49018e-05
8.35211e-05
-9.2591e-06
6.92188e-05
2.60666e-05
5.12419e-05
5.05389e-05
3.14696e-05
6.14546e-05
1.08191e-05
4.59108e-05
4.79281e-06
-5.2968e-05
0.000244502
-8.84806e-05
0.000160324
-9.42689e-05
5.5381e-05
-9.39561e-05
-7.7631e-07
-9.08625e-05
-3.09033e-05
-7.34508e-05
-8.58015e-05
-4.26551e-05
-0.000123722
-1.10559e-05
-0.000124561
2.27395e-05
-0.000138741
5.60273e-05
-0.000146897
8.171e-05
-0.000118166
9.44314e-05
-8.69646e-05
9.53994e-05
-4.39402e-05
8.92448e-05
-7.58618e-06
7.47113e-05
3.7922e-05
5.69793e-05
6.68637e-05
3.91759e-05
8.00774e-05
1.9823e-05
6.79493e-05
2.77622e-05
-4.48282e-05
0.000289329
-6.71129e-05
0.0001825
-6.60796e-05
5.06145e-05
-6.8017e-05
-1.33871e-05
-6.61899e-05
-3.30234e-05
-5.40988e-05
-9.62177e-05
-2.99181e-05
-0.000143816
3.06328e-06
-0.000155159
3.81313e-05
-0.000173274
6.93952e-05
-0.000179051
9.16873e-05
-0.000146063
0.000100447
-0.000103183
0.000100778
-4.87973e-05
9.32045e-05
1.55569e-07
7.91578e-05
5.33098e-05
6.26506e-05
8.30325e-05
4.02488e-05
0.000102714
1.8311e-05
9.26482e-05
4.74742e-05
-3.72281e-05
0.000326497
-3.92986e-05
0.000183754
-2.59219e-05
2.38492e-05
-2.93471e-05
-5.55969e-05
-3.60682e-05
-6.7493e-05
-3.01624e-05
-0.000102369
-9.08417e-06
-0.000158347
2.07405e-05
-0.000180895
5.31004e-05
-0.00020199
8.05479e-05
-0.000202858
9.87782e-05
-0.00016642
0.000107264
-0.00011655
0.000105785
-4.78873e-05
9.64207e-05
1.38906e-05
7.95979e-05
7.37494e-05
6.36236e-05
9.90638e-05
4.50888e-05
0.000121232
2.09855e-05
0.000117871
6.89015e-05
-2.4443e-05
0.000350781
-1.81919e-05
0.000166487
4.19157e-06
5.87422e-05
1.45254e-05
-4.04565e-05
5.88097e-06
-0.000125518
7.62057e-07
-0.000134304
1.17145e-05
-0.000162341
3.63672e-05
-0.000199484
6.5707e-05
-0.000224876
8.90934e-05
-0.000222424
0.00010236
-0.000205887
0.0001036
-0.000167844
0.000110284
-6.9143e-05
0.000100551
2.92838e-05
8.65879e-05
9.05199e-05
6.83317e-05
0.000117402
5.08868e-05
0.000138714
2.87988e-05
0.000140188
9.77523e-05
-1.15569e-05
0.000289285
3.75718e-06
0.000140997
2.03181e-05
7.34804e-05
3.63921e-06
4.30313e-05
2.78502e-05
-7.58334e-05
2.52116e-05
-0.000168928
3.01017e-05
-0.000171221
4.90627e-05
-0.000211427
7.57131e-05
-0.000242733
9.09151e-05
-0.000244245
0.000105788
-0.000242918
0.000109025
-0.000225002
0.000105862
-0.000154351
9.73305e-05
-2.47075e-05
8.72073e-05
9.84993e-05
7.22752e-05
0.000132316
4.99188e-05
0.00016116
2.745e-05
0.000162685
0.000125204
7.89831e-06
-1.86781e-05
1.56151e-05
-1.90711e-05
2.27963e-05
-1.95582e-05
2.89975e-05
-2.04002e-05
3.60632e-05
-2.17877e-05
4.05197e-05
-2.35864e-05
4.52942e-05
-2.4549e-05
4.99464e-05
-2.6724e-05
5.0814e-05
-2.68543e-05
4.88034e-05
-2.65529e-05
4.7944e-05
-2.76613e-05
4.97272e-05
-2.76356e-05
5.65176e-05
-2.81072e-05
6.63044e-05
-2.50943e-05
7.50555e-05
-2.07925e-05
7.6416e-05
-1.16312e-05
7.09312e-05
8.21525e-07
6.69864e-05
8.72115e-06
6.01707e-05
2.35688e-05
5.40741e-05
5.44597e-05
3.16365e-05
0.000102
5.44684e-05
0.000111395
0.00011596
9.64706e-05
4.06963e-06
-3.87767e-05
8.23852e-06
-3.89216e-05
1.21064e-05
-3.8439e-05
1.59816e-05
-3.82444e-05
1.97588e-05
-3.83269e-05
2.37696e-05
-3.85547e-05
2.75501e-05
-3.76723e-05
3.37095e-05
-4.01602e-05
3.92333e-05
-3.76365e-05
4.70526e-05
-3.73362e-05
5.81122e-05
-3.97459e-05
6.94448e-05
-3.92715e-05
7.70983e-05
-3.58266e-05
8.32197e-05
-3.12272e-05
8.58472e-05
-2.34202e-05
9.34762e-05
-1.92587e-05
0.000103286
-8.98175e-06
0.000107289
4.73957e-06
0.000103285
2.7764e-05
0.000102111
5.61365e-05
9.34784e-05
0.000108321
7.58979e-05
0.000123457
0.000122678
0.000107305
4.67027e-06
-4.41225e-05
9.64846e-06
-4.44878e-05
1.50437e-05
-4.42945e-05
2.10686e-05
-4.45909e-05
2.71364e-05
-4.46034e-05
3.35882e-05
-4.51271e-05
4.00131e-05
-4.41613e-05
4.68651e-05
-4.70396e-05
5.36828e-05
-4.44652e-05
6.19646e-05
-4.56209e-05
6.96937e-05
-4.74753e-05
7.70134e-05
-4.65911e-05
8.39972e-05
-4.28104e-05
9.23361e-05
-3.95663e-05
0.000103299
-3.43843e-05
0.000114371
-3.03364e-05
0.000120479
-1.51027e-05
0.000127194
-2.01561e-06
0.000130177
2.47415e-05
0.000135846
5.06354e-05
0.000149647
9.52676e-05
0.000125298
0.00014406
0.000143413
0.000118226
6.12876e-06
-5.02516e-05
1.21392e-05
-5.04984e-05
1.8261e-05
-5.04164e-05
2.41098e-05
-5.04396e-05
2.99915e-05
-5.04849e-05
3.57512e-05
-5.08867e-05
4.17001e-05
-5.01102e-05
4.76138e-05
-5.29532e-05
5.35451e-05
-5.03965e-05
6.17759e-05
-5.38517e-05
6.9209e-05
-5.49084e-05
7.68927e-05
-5.42758e-05
8.6924e-05
-5.28564e-05
9.86035e-05
-5.13058e-05
0.000111248
-4.71712e-05
0.000122675
-4.20875e-05
0.000132631
-2.561e-05
0.000143139
-1.34169e-05
0.000151821
1.51539e-05
0.000155779
4.57728e-05
0.000175418
7.50647e-05
0.000179397
0.000140248
0.000169057
0.000156749
5.89385e-06
-5.61454e-05
1.17596e-05
-5.63641e-05
1.76764e-05
-5.63332e-05
2.33974e-05
-5.61606e-05
2.9031e-05
-5.61185e-05
3.42869e-05
-5.61426e-05
4.00637e-05
-5.5887e-05
4.50344e-05
-5.79239e-05
5.12603e-05
-5.66224e-05
5.98224e-05
-6.24138e-05
6.74078e-05
-6.24975e-05
7.70582e-05
-6.39935e-05
9.08874e-05
-6.70032e-05
0.000104559
-6.60379e-05
0.000117279
-6.20592e-05
0.000127635
-5.59072e-05
0.000139029
-4.16134e-05
0.000148006
-2.80546e-05
0.000155163
1.38693e-06
0.000161552
3.43983e-05
0.000175142
5.72847e-05
0.000193486
0.000121197
0.00017083
0.000191465
5.82731e-06
-6.19727e-05
1.16846e-05
-6.22213e-05
1.7438e-05
-6.20866e-05
2.31783e-05
-6.19009e-05
2.87139e-05
-6.16541e-05
3.4029e-05
-6.14577e-05
3.97603e-05
-6.16183e-05
4.44403e-05
-6.26039e-05
5.11065e-05
-6.32886e-05
5.85732e-05
-6.98843e-05
6.72073e-05
-7.12348e-05
7.89124e-05
-7.65914e-05
9.0541e-05
-8.19166e-05
9.93127e-05
-8.09194e-05
0.000105777
-7.69524e-05
0.00011033
-7.05938e-05
0.00011406
-5.60525e-05
0.000114686
-4.00475e-05
0.000119981
-1.16085e-05
0.000134128
1.3529e-05
0.000149764
3.56497e-05
0.00017863
9.06496e-05
0.00015679
0.00019282
6.02904e-06
-6.802e-05
1.2065e-05
-6.82787e-05
1.79904e-05
-6.80376e-05
2.37615e-05
-6.77053e-05
2.92953e-05
-6.72335e-05
3.45459e-05
-6.67742e-05
3.91732e-05
-6.63418e-05
4.2408e-05
-6.59633e-05
4.66942e-05
-6.76803e-05
5.16927e-05
-7.49921e-05
5.9984e-05
-8.05366e-05
6.51136e-05
-8.63616e-05
6.37907e-05
-8.98489e-05
5.79624e-05
-8.62278e-05
4.74847e-05
-7.81726e-05
3.32493e-05
-6.87531e-05
2.4834e-05
-5.4029e-05
2.91449e-05
-4.23287e-05
4.80555e-05
-2.37269e-05
7.22023e-05
-9.05273e-06
9.52096e-05
1.27162e-05
0.000137233
5.06541e-05
0.000118776
0.000175677
6.14848e-06
-7.72972e-05
1.22162e-05
-7.76668e-05
1.82105e-05
-7.76744e-05
2.40072e-05
-7.76561e-05
2.94685e-05
-7.75726e-05
3.43146e-05
-7.74927e-05
3.77553e-05
-7.69943e-05
3.86795e-05
-7.57855e-05
3.80654e-05
-7.51132e-05
3.87114e-05
-7.95705e-05
3.62531e-05
-8.35107e-05
2.15724e-05
-8.49546e-05
2.71389e-06
-8.48893e-05
-1.15004e-05
-7.97815e-05
-1.35994e-05
-7.33579e-05
-1.08735e-05
-6.50269e-05
-6.4259e-06
-4.52787e-05
2.23435e-06
-3.4386e-05
1.5069e-05
-1.83021e-05
3.37781e-05
-1.25653e-05
5.34443e-05
3.169e-06
8.9192e-05
2.4151e-05
8.30708e-05
0.000137015
6.61781e-06
-0.000120663
1.30601e-05
-0.000122163
1.93233e-05
-0.000124107
2.53889e-05
-0.000127233
3.10432e-05
-0.000131322
3.6151e-05
-0.000136906
4.0212e-05
-0.00014395
3.94676e-05
-0.000140567
2.82803e-05
-0.000129921
8.43069e-06
-0.000119567
-2.11354e-05
-0.000119104
-4.2373e-05
-0.000130009
-4.0758e-05
-0.000119353
-3.28301e-05
-9.71146e-05
-2.66673e-05
-7.80252e-05
-1.87321e-05
-6.24245e-05
-8.82888e-06
-4.26983e-05
-1.69267e-07
-2.67987e-05
1.1427e-05
-2.03228e-05
1.93443e-05
-1.41616e-05
3.39984e-05
-1.73832e-07
6.69033e-05
7.3028e-06
4.48677e-05
0.000108587
5.48841e-06
-0.000222113
1.07482e-05
-0.000225373
1.58389e-05
-0.000229163
2.04808e-05
-0.000235579
2.47311e-05
-0.000240438
2.85908e-05
-0.000237276
3.38829e-05
-0.000211057
3.62746e-05
-0.000153083
1.59413e-05
-0.000135761
-4.60391e-05
-0.000149307
-9.59138e-05
-0.000124559
-7.84042e-05
-9.26064e-05
-5.49928e-05
-9.89508e-05
-4.10881e-05
-0.000113247
-2.525e-05
-9.9109e-05
-1.35879e-05
-8.28658e-05
-5.42706e-06
-6.3324e-05
4.43813e-06
-6.971e-05
1.73866e-05
-5.77344e-05
3.04643e-05
-4.41645e-05
4.34627e-05
-1.53642e-05
5.19779e-05
-7.17569e-07
2.19132e-05
8.7394e-05
5.54901e-06
-0.0001714
9.42289e-06
-0.00017058
1.37476e-05
-0.000172098
1.70912e-05
-0.000175943
1.76787e-05
-0.000170733
1.20219e-05
-0.000131343
-7.465e-06
-0.000102526
-8.62041e-06
-7.00215e-05
-1.70038e-07
-5.48182e-05
-1.9865e-05
-6.21338e-05
-4.11561e-05
-5.28337e-05
-3.44676e-05
-2.86912e-05
-2.03592e-05
-5.02824e-05
-7.35064e-06
-7.644e-05
6.41907e-06
-7.67116e-05
1.24653e-05
-0.000130142
1.9106e-05
-0.000164706
2.6918e-05
-0.0001444
3.90836e-05
-0.000124973
4.95891e-05
-0.000108415
6.01665e-05
-8.17173e-05
7.6201e-05
-6.87607e-05
-5.13298e-05
8.74015e-05
-1.36801e-05
-7.55495e-05
-2.70885e-05
-8.01509e-05
-3.61214e-05
-8.21038e-05
-3.96868e-05
-8.38855e-05
-3.14155e-05
-8.68193e-05
-3.87334e-05
-8.50609e-05
-4.56283e-05
-8.56362e-05
-5.70083e-05
-8.01668e-05
-4.96193e-05
-4.62854e-05
-6.22743e-06
1.17389e-07
5.27485e-05
-7.40416e-05
6.29443e-05
-0.000111014
7.78158e-05
-0.000114189
9.78874e-05
-0.0001088
0.000114208
-9.20639e-05
0.000109893
-6.80383e-05
8.57338e-05
-5.52715e-05
6.43476e-05
-5.79602e-05
5.45942e-05
-6.84754e-05
5.64289e-05
-7.41487e-05
6.633e-05
-6.72569e-05
7.36358e-05
-7.99558e-05
-7.80274e-05
8.03755e-05
-6.48706e-06
-4.49e-05
-1.2104e-05
-5.17473e-05
-1.57296e-05
-5.67656e-05
-1.81513e-05
-6.25911e-05
-1.96376e-05
-6.88516e-05
-2.23785e-05
-7.93948e-05
-2.44724e-05
-8.27154e-05
-2.64058e-05
-7.5597e-05
-2.28248e-05
-4.02102e-05
6.4311e-06
-1.84768e-05
1.51324e-05
-7.70777e-05
9.46596e-06
-0.000103881
2.55019e-06
-0.000106324
-3.97411e-06
-0.000100732
-5.54248e-06
-9.09352e-05
1.30364e-06
-7.65083e-05
1.24837e-05
-6.36502e-05
2.22752e-05
-5.13237e-05
3.05705e-05
-4.54238e-05
3.61692e-05
-4.29005e-05
2.93043e-05
-2.89962e-05
1.56614e-05
-1.75601e-05
4.71644e-07
-3.27061e-06
-2.18152e-06
-5.12335e-05
-4.25645e-06
-5.5687e-05
-6.43055e-06
-6.00383e-05
-9.13816e-06
-6.53936e-05
-1.28351e-05
-7.06425e-05
-1.87582e-05
-7.46555e-05
-2.55257e-05
-7.60704e-05
-2.87522e-05
-7.24175e-05
-6.51824e-06
-6.26535e-05
3.06512e-05
-5.70531e-05
3.42684e-05
-8.07539e-05
2.08334e-05
-9.04447e-05
9.89243e-06
-9.53808e-05
2.82806e-06
-9.36661e-05
7.5073e-07
-8.88426e-05
1.0598e-06
-7.6794e-05
1.45952e-07
-6.27298e-05
1.52123e-07
-5.13287e-05
-8.62613e-07
-4.44072e-05
-9.76236e-06
-3.39998e-05
-1.9979e-05
-1.87764e-05
-1.74173e-05
-2.01181e-05
3.88757e-07
-1.73261e-05
1.41054e-06
-5.14205e-05
2.59688e-06
-5.60554e-05
2.53661e-06
-5.9308e-05
1.15905e-06
-6.32622e-05
-1.50967e-06
-6.72392e-05
-5.45112e-06
-7.04252e-05
-9.77232e-06
-7.16608e-05
-1.21797e-05
-7.00126e-05
-9.07017e-06
-6.57576e-05
-1.95554e-06
-6.41563e-05
-4.88926e-06
-7.78189e-05
-9.97082e-06
-8.53634e-05
-1.33408e-05
-9.20113e-05
-1.36646e-05
-9.33441e-05
-1.26175e-05
-8.98895e-05
-9.92588e-06
-7.94853e-05
-8.04617e-06
-6.461e-05
-9.22682e-06
-5.01467e-05
-1.68159e-05
-3.68188e-05
-3.09626e-05
-1.98511e-05
-5.11773e-05
1.43858e-06
-7.12025e-05
-9.1418e-08
3.69229e-06
-7.45018e-05
8.73121e-07
-5.24085e-05
1.55933e-06
-5.67179e-05
1.44279e-06
-5.91831e-05
2.81249e-07
-6.20967e-05
-2.07672e-06
-6.48788e-05
-5.80758e-06
-6.66935e-05
-1.03205e-05
-6.71513e-05
-1.38189e-05
-6.65165e-05
-1.43567e-05
-6.52215e-05
-1.28116e-05
-6.57036e-05
-1.67736e-05
-7.3858e-05
-2.12327e-05
-8.09029e-05
-2.6653e-05
-8.6588e-05
-3.23626e-05
-8.76337e-05
-3.92775e-05
-8.29743e-05
-4.64607e-05
-7.23011e-05
-5.48399e-05
-5.62289e-05
-6.38207e-05
-4.11665e-05
-7.27165e-05
-2.79204e-05
-7.58671e-05
-1.67011e-05
-6.64967e-05
-7.92981e-06
-5.75429e-05
-9.04449e-06
-7.73876e-06
-4.61083e-05
8.47143e-07
-5.32753e-05
1.21696e-06
-5.70991e-05
8.29859e-07
-5.87969e-05
-6.55169e-07
-6.06114e-05
-3.61779e-06
-6.19157e-05
-7.65912e-06
-6.26515e-05
-1.19258e-05
-6.28837e-05
-1.56401e-05
-6.28008e-05
-1.77824e-05
-6.30782e-05
-1.86325e-05
-6.48524e-05
-2.26855e-05
-6.9804e-05
-2.87205e-05
-7.48666e-05
-3.83586e-05
-7.69476e-05
-4.90683e-05
-7.6923e-05
-5.74479e-05
-7.45927e-05
-6.41539e-05
-6.55941e-05
-7.04285e-05
-4.99529e-05
-7.46207e-05
-3.69709e-05
-7.57148e-05
-2.68263e-05
-7.49059e-05
-1.75071e-05
-7.20929e-05
-1.07423e-05
-7.32042e-05
-7.93231e-06
-6.71261e-06
-7.42259e-05
1.21345e-08
-5.32863e-05
-4.84953e-07
-5.66008e-05
-1.90006e-06
-5.73811e-05
-4.19038e-06
-5.83205e-05
-7.09728e-06
-5.90083e-05
-1.03304e-05
-5.94178e-05
-1.35247e-05
-5.9689e-05
-1.63574e-05
-5.99675e-05
-1.87815e-05
-6.06537e-05
-2.13051e-05
-6.23282e-05
-2.63435e-05
-6.47649e-05
-3.48366e-05
-6.63728e-05
-4.55578e-05
-6.62256e-05
-5.60712e-05
-6.64084e-05
-6.64831e-05
-6.4181e-05
-7.53539e-05
-5.67197e-05
-8.05944e-05
-4.4709e-05
-8.16105e-05
-3.59539e-05
-7.76618e-05
-3.07709e-05
-7.02432e-05
-2.49248e-05
-6.36191e-05
-1.73639e-05
-5.75256e-05
-1.40233e-05
-1.20508e-05
-5.21847e-05
-8.15533e-07
-5.24705e-05
-2.1094e-06
-5.53063e-05
-3.86183e-06
-5.56281e-05
-5.92566e-06
-5.6256e-05
-8.1571e-06
-5.67762e-05
-1.03923e-05
-5.71819e-05
-1.25576e-05
-5.75231e-05
-1.46714e-05
-5.78531e-05
-1.71667e-05
-5.81577e-05
-2.07653e-05
-5.8729e-05
-2.61719e-05
-5.93576e-05
-3.35531e-05
-5.89909e-05
-4.1241e-05
-5.85371e-05
-5.00756e-05
-5.75736e-05
-5.88187e-05
-5.54347e-05
-6.39799e-05
-5.15581e-05
-6.41091e-05
-4.45783e-05
-6.33583e-05
-3.67034e-05
-6.23879e-05
-3.17397e-05
-6.04537e-05
-2.68576e-05
-5.79197e-05
-1.98964e-05
-5.70808e-05
-1.48611e-05
-1.19568e-05
-5.71709e-05
-1.37345e-06
-5.10964e-05
-2.83043e-06
-5.38489e-05
-4.37749e-06
-5.40807e-05
-6.15556e-06
-5.44776e-05
-8.12888e-06
-5.48026e-05
-1.0177e-05
-5.51335e-05
-1.23224e-05
-5.53774e-05
-1.46315e-05
-5.55438e-05
-1.71737e-05
-5.56152e-05
-2.03516e-05
-5.55508e-05
-2.44186e-05
-5.52904e-05
-2.85767e-05
-5.48326e-05
-3.34266e-05
-5.36868e-05
-3.91575e-05
-5.18419e-05
-4.50967e-05
-4.94963e-05
-5.09237e-05
-4.57294e-05
-5.42966e-05
-4.12048e-05
-5.49774e-05
-3.60216e-05
-5.55538e-05
-3.11621e-05
-5.51147e-05
-2.72957e-05
-5.239e-05
-2.26198e-05
-5.06762e-05
-1.65731e-05
-1.27214e-05
-4.99088e-05
-1.3378e-06
-4.97586e-05
-2.85188e-06
-5.23346e-05
-4.54082e-06
-5.23914e-05
-6.43398e-06
-5.25842e-05
-8.46634e-06
-5.277e-05
-1.06628e-05
-5.29368e-05
-1.29583e-05
-5.30816e-05
-1.54007e-05
-5.31012e-05
-1.80473e-05
-5.29685e-05
-2.07846e-05
-5.28132e-05
-2.37574e-05
-5.23175e-05
-2.73762e-05
-5.12134e-05
-3.12269e-05
-4.98358e-05
-3.49415e-05
-4.81277e-05
-3.86697e-05
-4.57665e-05
-4.22616e-05
-4.21383e-05
-4.54607e-05
-3.80052e-05
-4.73698e-05
-3.41119e-05
-4.80964e-05
-3.04347e-05
-4.8519e-05
-2.68722e-05
-4.88578e-05
-2.22797e-05
-4.9343e-05
-1.6087e-05
-1.29389e-05
-4.91221e-05
-1.56561e-06
-4.81925e-05
-3.27019e-06
-5.06297e-05
-5.04338e-06
-5.0618e-05
-6.90421e-06
-5.07231e-05
-8.88663e-06
-5.07873e-05
-1.10398e-05
-5.07834e-05
-1.34101e-05
-5.07112e-05
-1.59589e-05
-5.05523e-05
-1.85606e-05
-5.03666e-05
-2.13827e-05
-4.99909e-05
-2.46015e-05
-4.90985e-05
-2.8023e-05
-4.77917e-05
-3.12928e-05
-4.6566e-05
-3.45889e-05
-4.4831e-05
-3.78065e-05
-4.25501e-05
-4.03829e-05
-3.95611e-05
-4.23438e-05
-3.60442e-05
-4.39547e-05
-3.25009e-05
-4.51432e-05
-2.92456e-05
-4.59609e-05
-2.6054e-05
-4.64266e-05
-2.18131e-05
-4.62238e-05
-1.62885e-05
-1.38406e-05
-4.53199e-05
-1.4274e-06
-4.67651e-05
-2.99479e-06
-4.90621e-05
-4.66041e-06
-4.89522e-05
-6.43944e-06
-4.89439e-05
-8.35131e-06
-4.88753e-05
-1.03913e-05
-4.87433e-05
-1.25855e-05
-4.85169e-05
-1.49453e-05
-4.81924e-05
-1.75798e-05
-4.77321e-05
-2.0493e-05
-4.70775e-05
-2.32805e-05
-4.6311e-05
-2.57783e-05
-4.52938e-05
-2.86018e-05
-4.37424e-05
-3.16764e-05
-4.17569e-05
-3.46683e-05
-3.95573e-05
-3.70199e-05
-3.72105e-05
-3.8721e-05
-3.43432e-05
-4.02225e-05
-3.09994e-05
-4.17148e-05
-2.77529e-05
-4.29839e-05
-2.47845e-05
-4.34989e-05
-2.12971e-05
-4.29112e-05
-1.68757e-05
-1.45529e-05
-4.21962e-05
-1.56241e-06
-4.52022e-05
-3.22468e-06
-4.73996e-05
-4.93442e-06
-4.72422e-05
-6.72402e-06
-4.71541e-05
-8.61296e-06
-4.69862e-05
-1.06124e-05
-4.67437e-05
-1.27084e-05
-4.64207e-05
-1.48815e-05
-4.60192e-05
-1.71004e-05
-4.55131e-05
-1.93697e-05
-4.48082e-05
-2.18175e-05
-4.3863e-05
-2.44762e-05
-4.26351e-05
-2.70436e-05
-4.11749e-05
-2.9329e-05
-3.94712e-05
-3.16967e-05
-3.7191e-05
-3.42292e-05
-3.46775e-05
-3.62817e-05
-3.22914e-05
-3.76371e-05
-2.96441e-05
-3.84983e-05
-2.68917e-05
-3.93138e-05
-2.39688e-05
-4.01191e-05
-2.04913e-05
-3.98245e-05
-1.71693e-05
-1.5077e-05
-3.92988e-05
-1.54707e-06
-4.36552e-05
-3.17875e-06
-4.57679e-05
-4.82086e-06
-4.56e-05
-6.49558e-06
-4.54793e-05
-8.19855e-06
-4.52831e-05
-9.93361e-06
-4.50086e-05
-1.1719e-05
-4.46353e-05
-1.36029e-05
-4.41352e-05
-1.566e-05
-4.34559e-05
-1.79335e-05
-4.25346e-05
-2.04286e-05
-4.13679e-05
-2.29429e-05
-4.01206e-05
-2.53781e-05
-3.87396e-05
-2.77888e-05
-3.70612e-05
-2.97651e-05
-3.52139e-05
-3.11826e-05
-3.32614e-05
-3.25343e-05
-3.094e-05
-3.39889e-05
-2.81899e-05
-3.5474e-05
-2.54067e-05
-3.68148e-05
-2.26279e-05
-3.7378e-05
-1.99276e-05
-3.71148e-05
-1.74322e-05
-1.50831e-05
-3.71065e-05
-1.48142e-06
-4.21735e-05
-3.05074e-06
-4.41984e-05
-4.65304e-06
-4.39976e-05
-6.31549e-06
-4.38167e-05
-8.04979e-06
-4.35487e-05
-9.86372e-06
-4.31946e-05
-1.17541e-05
-4.27449e-05
-1.37054e-05
-4.21837e-05
-1.56771e-05
-4.14842e-05
-1.75872e-05
-4.06245e-05
-1.93991e-05
-3.95559e-05
-2.11781e-05
-3.83414e-05
-2.30072e-05
-3.69106e-05
-2.48191e-05
-3.5249e-05
-2.66939e-05
-3.33404e-05
-2.87909e-05
-3.11643e-05
-3.08196e-05
-2.89119e-05
-3.22935e-05
-2.67165e-05
-3.32888e-05
-2.44116e-05
-3.38079e-05
-2.21087e-05
-3.42654e-05
-1.94698e-05
-3.47784e-05
-1.69185e-05
-1.4809e-05
-3.50512e-05
-1.41688e-06
-4.07567e-05
-2.90417e-06
-4.2711e-05
-4.40374e-06
-4.24979e-05
-5.93526e-06
-4.22851e-05
-7.50686e-06
-4.1977e-05
-9.13032e-06
-4.15711e-05
-1.0818e-05
-4.10572e-05
-1.25778e-05
-4.04239e-05
-1.4405e-05
-3.96569e-05
-1.62895e-05
-3.87399e-05
-1.81881e-05
-3.76573e-05
-2.01458e-05
-3.63836e-05
-2.21026e-05
-3.49538e-05
-2.39808e-05
-3.33713e-05
-2.56574e-05
-3.16633e-05
-2.6988e-05
-2.98349e-05
-2.80329e-05
-2.78675e-05
-2.90674e-05
-2.56825e-05
-3.01705e-05
-2.33087e-05
-3.13656e-05
-2.09137e-05
-3.21493e-05
-1.86858e-05
-3.25723e-05
-1.64954e-05
-1.43409e-05
-3.30388e-05
-1.37397e-06
-3.93824e-05
-2.81637e-06
-4.12685e-05
-4.26833e-06
-4.10459e-05
-5.74553e-06
-4.08079e-05
-7.24685e-06
-4.04757e-05
-8.77152e-06
-4.00464e-05
-1.03201e-05
-3.95086e-05
-1.18971e-05
-3.88469e-05
-1.35088e-05
-3.80452e-05
-1.51546e-05
-3.70941e-05
-1.68083e-05
-3.60035e-05
-1.8398e-05
-3.47939e-05
-1.99285e-05
-3.34233e-05
-2.14189e-05
-3.18807e-05
-2.29045e-05
-3.0179e-05
-2.44037e-05
-2.83354e-05
-2.59023e-05
-2.63698e-05
-2.72375e-05
-2.43478e-05
-2.82706e-05
-2.2276e-05
-2.90515e-05
-2.0133e-05
-2.97685e-05
-1.79686e-05
-3.04421e-05
-1.58214e-05
-1.37372e-05
-3.10448e-05
-1.28067e-06
-3.81019e-05
-2.6214e-06
-3.99278e-05
-3.96846e-06
-3.96988e-05
-5.33843e-06
-3.94379e-05
-6.73846e-06
-3.90756e-05
-8.17376e-06
-3.86111e-05
-9.64444e-06
-3.80379e-05
-1.11418e-05
-3.73496e-05
-1.26475e-05
-3.65395e-05
-1.41445e-05
-3.5597e-05
-1.56385e-05
-3.45095e-05
-1.71545e-05
-3.32779e-05
-1.86617e-05
-3.19161e-05
-2.01106e-05
-3.04323e-05
-2.14703e-05
-2.88187e-05
-2.27258e-05
-2.70813e-05
-2.38561e-05
-2.52399e-05
-2.49094e-05
-2.3295e-05
-2.5923e-05
-2.12628e-05
-2.68614e-05
-1.91948e-05
-2.76762e-05
-1.71537e-05
-2.83831e-05
-1.51145e-05
-1.30611e-05
-2.90579e-05
-1.19721e-06
-3.69045e-05
-2.45463e-06
-3.86703e-05
-3.71267e-06
-3.84407e-05
-4.98727e-06
-3.81633e-05
-6.27956e-06
-3.77833e-05
-7.59136e-06
-3.72993e-05
-8.92378e-06
-3.67055e-05
-1.02773e-05
-3.59961e-05
-1.16502e-05
-3.51665e-05
-1.30332e-05
-3.4214e-05
-1.44043e-05
-3.31384e-05
-1.57436e-05
-3.19385e-05
-1.70507e-05
-3.0609e-05
-1.83324e-05
-2.91504e-05
-1.95783e-05
-2.75739e-05
-2.0771e-05
-2.58886e-05
-2.19061e-05
-2.41055e-05
-2.29597e-05
-2.22421e-05
-2.39122e-05
-2.03107e-05
-2.47747e-05
-1.83325e-05
-2.55855e-05
-1.6343e-05
-2.63504e-05
-1.43493e-05
-1.23324e-05
-2.70783e-05
-1.11321e-06
-3.57915e-05
-2.2739e-06
-3.75096e-05
-3.43524e-06
-3.72793e-05
-4.61016e-06
-3.69883e-05
-5.80041e-06
-3.65931e-05
-7.00688e-06
-3.60928e-05
-8.22818e-06
-3.54842e-05
-9.46042e-06
-3.47639e-05
-1.06984e-05
-3.39286e-05
-1.19373e-05
-3.2975e-05
-1.31743e-05
-3.19013e-05
-1.44047e-05
-3.07081e-05
-1.56148e-05
-2.93989e-05
-1.67883e-05
-2.79773e-05
-1.79168e-05
-2.64451e-05
-1.89958e-05
-2.48105e-05
-2.0018e-05
-2.30838e-05
-2.09846e-05
-2.12761e-05
-2.18955e-05
-1.94002e-05
-2.27525e-05
-1.74758e-05
-2.35644e-05
-1.5531e-05
-2.43411e-05
-1.35726e-05
-1.15786e-05
-2.5094e-05
-1.01416e-06
-3.47771e-05
-2.0757e-06
-3.6448e-05
-3.1351e-06
-3.62199e-05
-4.20622e-06
-3.59172e-05
-5.29003e-06
-3.55093e-05
-6.38718e-06
-3.49957e-05
-7.49688e-06
-3.43745e-05
-8.61677e-06
-3.3644e-05
-9.74258e-06
-3.28027e-05
-1.08681e-05
-3.18495e-05
-1.19857e-05
-3.07837e-05
-1.30882e-05
-2.96055e-05
-1.41712e-05
-2.83159e-05
-1.52305e-05
-2.69179e-05
-1.62593e-05
-2.54173e-05
-1.72498e-05
-2.382e-05
-1.8199e-05
-2.21354e-05
-1.91027e-05
-2.0373e-05
-1.99602e-05
-1.85431e-05
-2.07778e-05
-1.66585e-05
-2.15689e-05
-1.47401e-05
-2.23422e-05
-1.27991e-05
-1.08183e-05
-2.3102e-05
-9.18046e-07
-3.38592e-05
-1.87644e-06
-3.54896e-05
-2.83263e-06
-3.52637e-05
-3.79914e-06
-3.49507e-05
-4.77612e-06
-3.45323e-05
-5.76376e-06
-3.40081e-05
-6.76118e-06
-3.33771e-05
-7.76606e-06
-3.26392e-05
-8.77508e-06
-3.17937e-05
-9.78412e-06
-3.08404e-05
-1.07886e-05
-2.97792e-05
-1.17832e-05
-2.86109e-05
-1.27617e-05
-2.73373e-05
-1.37186e-05
-2.59614e-05
-1.46486e-05
-2.44869e-05
-1.55495e-05
-2.29202e-05
-1.64178e-05
-2.12676e-05
-1.72534e-05
-1.95379e-05
-1.80574e-05
-1.77395e-05
-1.88343e-05
-1.5882e-05
-1.9594e-05
-1.39804e-05
-2.03461e-05
-1.20472e-05
-1.00702e-05
-2.10935e-05
-8.13119e-07
-3.30459e-05
-1.66563e-06
-3.46371e-05
-2.51568e-06
-3.44137e-05
-3.37573e-06
-3.40907e-05
-4.24573e-06
-3.36623e-05
-5.1259e-06
-3.31279e-05
-6.01571e-06
-3.24873e-05
-6.91297e-06
-3.17419e-05
-7.8142e-06
-3.08925e-05
-8.71517e-06
-2.99394e-05
-9.61134e-06
-2.8883e-05
-1.04983e-05
-2.77239e-05
-1.13723e-05
-2.64634e-05
-1.22294e-05
-2.51042e-05
-1.30668e-05
-2.36503e-05
-1.38811e-05
-2.21059e-05
-1.46717e-05
-2.04777e-05
-1.54384e-05
-1.87718e-05
-1.61832e-05
-1.69952e-05
-1.69105e-05
-1.5155e-05
-1.7629e-05
-1.32622e-05
-1.83476e-05
-1.13285e-05
-9.34834e-06
-1.90692e-05
-7.04243e-07
-3.23419e-05
-1.44884e-06
-3.38925e-05
-2.19146e-06
-3.36711e-05
-2.94384e-06
-3.33383e-05
-3.70553e-06
-3.29007e-05
-4.47695e-06
-3.23566e-05
-5.2586e-06
-3.17057e-05
-6.04891e-06
-3.09517e-05
-6.8446e-06
-3.00968e-05
-7.64152e-06
-2.91425e-05
-8.43525e-06
-2.80892e-05
-9.22179e-06
-2.69373e-05
-9.99785e-06
-2.56874e-05
-1.07604e-05
-2.43419e-05
-1.15069e-05
-2.29036e-05
-1.22366e-05
-2.13771e-05
-1.29486e-05
-1.97662e-05
-1.36441e-05
-1.80769e-05
-1.43256e-05
-1.63143e-05
-1.49973e-05
-1.44837e-05
-1.56666e-05
-1.25931e-05
-1.6342e-05
-1.06533e-05
-8.66367e-06
-1.70263e-05
-5.87662e-07
-3.1754e-05
-1.22546e-06
-3.32547e-05
-1.86121e-06
-3.30353e-05
-2.50507e-06
-3.26945e-05
-3.15642e-06
-3.22494e-05
-3.81571e-06
-3.16973e-05
-4.48615e-06
-3.10353e-05
-5.16805e-06
-3.02698e-05
-5.85898e-06
-2.94059e-05
-6.55529e-06
-2.84462e-05
-7.25189e-06
-2.73926e-05
-7.94395e-06
-2.62453e-05
-8.62837e-06
-2.5003e-05
-9.3014e-06
-2.36688e-05
-9.96165e-06
-2.22443e-05
-1.0608e-05
-2.07308e-05
-1.12417e-05
-1.91332e-05
-1.18637e-05
-1.74555e-05
-1.24775e-05
-1.57011e-05
-1.30876e-05
-1.3874e-05
-1.37011e-05
-1.198e-05
-1.43257e-05
-1.00287e-05
-8.02381e-06
-1.49655e-05
-4.66402e-07
-3.12878e-05
-1.00658e-06
-3.27146e-05
-1.54338e-06
-3.24986e-05
-2.08265e-06