/*--------------------------------*- C++ -*----------------------------------*\
| =========                 |                                                 |
| \\      /  F ield         | OpenFOAM: The Open Source CFD Toolbox           |
|  \\    /   O peration     | Version:  2.4.0                                 |
|   \\  /    A nd           | Web:      www.OpenFOAM.org                      |
|    \\/     M anipulation  |                                                 |
\*---------------------------------------------------------------------------*/
FoamFile
{
    version     2.0;
    format      ascii;
    class       surfaceScalarField;
    location    "0.3";
    object      phi.oil;
}
// * * * * * * * * * * * * * * * * * * * * * * * * * * * * * * * * * * * * * //

dimensions      [0 3 -1 0 0 0 0];

internalField   nonuniform List<scalar> 
4432
(
3.48176e-06
-3.48173e-06
6.97982e-06
-3.49802e-06
1.04598e-05
-3.47988e-06
1.41009e-05
-3.64107e-06
1.73541e-05
-3.25321e-06
2.1662e-05
-4.30781e-06
2.44959e-05
-2.83385e-06
2.84673e-05
-3.97137e-06
3.30928e-05
-4.62544e-06
3.68473e-05
-3.7545e-06
3.9746e-05
-2.89862e-06
4.30906e-05
-3.34398e-06
4.72309e-05
-4.13794e-06
5.19777e-05
-4.74205e-06
5.59264e-05
-3.94137e-06
5.79209e-05
-1.98348e-06
5.76555e-05
2.82942e-07
5.49864e-05
2.708e-06
4.95163e-05
5.55037e-06
3.96376e-05
9.86719e-06
2.546e-05
1.28828e-05
1.04666e-05
1.77428e-05
2.10688e-05
3.48256e-06
-6.96425e-06
6.98164e-06
-6.99707e-06
1.04594e-05
-6.95756e-06
1.40997e-05
-7.28135e-06
1.74088e-05
-6.5622e-06
2.15471e-05
-8.44604e-06
2.45589e-05
-5.84562e-06
2.85871e-05
-7.99952e-06
3.30995e-05
-9.1378e-06
3.67031e-05
-7.35802e-06
3.9714e-05
-5.90933e-06
4.32986e-05
-6.92669e-06
4.78824e-05
-8.71495e-06
5.25077e-05
-9.35026e-06
5.62749e-05
-7.67647e-06
5.80125e-05
-3.66397e-06
5.7902e-05
5.26015e-07
5.53087e-05
5.53171e-06
4.99881e-05
1.13903e-05
4.18104e-05
1.86384e-05
2.8099e-05
2.53046e-05
1.2596e-05
3.32686e-05
3.76081e-05
3.47971e-06
-1.04439e-05
6.97139e-06
-1.04887e-05
1.04514e-05
-1.04376e-05
1.4077e-05
-1.09069e-05
1.74487e-05
-9.93388e-06
2.13641e-05
-1.23614e-05
2.46975e-05
-9.17905e-06
2.87093e-05
-1.20113e-05
3.27998e-05
-1.32283e-05
3.6368e-05
-1.09262e-05
3.99645e-05
-9.50543e-06
4.4243e-05
-1.12011e-05
4.83924e-05
-1.28203e-05
5.24342e-05
-1.31473e-05
5.58832e-05
-1.05498e-05
5.77585e-05
-4.79668e-06
5.81349e-05
8.95707e-07
5.72158e-05
7.65297e-06
5.25074e-05
1.752e-05
4.47888e-05
2.79426e-05
2.7565e-05
4.22304e-05
1.2962e-05
4.76312e-05
5.40078e-05
3.47573e-06
-1.39196e-05
6.95508e-06
-1.3968e-05
1.04449e-05
-1.39273e-05
1.40399e-05
-1.45018e-05
1.7467e-05
-1.33609e-05
2.12061e-05
-1.61004e-05
2.47751e-05
-1.2748e-05
2.87254e-05
-1.59615e-05
3.24284e-05
-1.69313e-05
3.59634e-05
-1.44611e-05
4.06173e-05
-1.41584e-05
4.50939e-05
-1.56622e-05
4.88381e-05
-1.64796e-05
5.19054e-05
-1.54567e-05
5.4942e-05
-1.12906e-05
5.67933e-05
-2.06411e-06
5.92184e-05
6.21382e-06
6.08636e-05
1.42039e-05
5.81389e-05
2.74567e-05
5.13571e-05
3.99771e-05
3.41532e-05
6.13558e-05
1.30182e-05
6.85931e-05
7.1579e-05
3.46929e-06
-1.73889e-05
6.93589e-06
-1.74346e-05
1.04265e-05
-1.74179e-05
1.40003e-05
-1.80756e-05
1.7424e-05
-1.67845e-05
2.10735e-05
-1.97499e-05
2.48096e-05
-1.6484e-05
2.86129e-05
-1.97638e-05
3.20837e-05
-2.03928e-05
3.59435e-05
-1.82923e-05
4.1194e-05
-1.93382e-05
4.54678e-05
-1.97894e-05
4.86787e-05
-1.98242e-05
5.0854e-05
-1.76186e-05
5.38674e-05
-1.12914e-05
5.83616e-05
9.62429e-07
6.43446e-05
1.51444e-05
6.50966e-05
3.77388e-05
6.17645e-05
6.10847e-05
5.28471e-05
7.71283e-05
3.78823e-05
9.08149e-05
1.85317e-05
9.14056e-05
9.47098e-05
3.46386e-06
-2.08397e-05
6.92184e-06
-2.08757e-05
1.04124e-05
-2.0885e-05
1.39538e-05
-2.15802e-05
1.73706e-05
-2.01534e-05
2.10314e-05
-2.33205e-05
2.4881e-05
-2.022e-05
2.84247e-05
-2.3124e-05
3.19926e-05
-2.36652e-05
3.65174e-05
-2.24779e-05
4.13532e-05
-2.40607e-05
4.54264e-05
-2.46878e-05
4.93684e-05
-2.75859e-05
4.89635e-05
-2.79119e-05
4.90526e-05
-2.97768e-05
5.38007e-05
-1.71494e-05
5.53839e-05
1.12218e-05
5.99276e-05
2.18858e-05
5.60604e-05
4.66451e-05
3.81383e-05
8.47538e-05
2.72097e-05
0.000115673
2.04746e-05
0.000122054
0.000120507
3.47511e-06
-2.40057e-05
6.94835e-06
-2.40328e-05
1.04491e-05
-2.40639e-05
1.39354e-05
-2.47539e-05
1.74857e-05
-2.34234e-05
2.09425e-05
-2.67676e-05
2.52281e-05
-2.47737e-05
2.82497e-05
-2.71202e-05
3.20911e-05
-2.9762e-05
3.68553e-05
-3.129e-05
4.06609e-05
-3.44281e-05
4.3654e-05
-3.8045e-05
4.61755e-05
-4.5761e-05
4.26064e-05
-4.66334e-05
3.22594e-05
-4.20736e-05
2.68512e-05
-2.06665e-05
2.17021e-05
9.33147e-06
2.31794e-05
1.31101e-05
2.77707e-05
2.75289e-05
2.25898e-05
6.49073e-05
1.74858e-05
9.8954e-05
1.59424e-05
0.000141283
0.000146401
3.49549e-06
-2.93932e-05
6.99154e-06
-2.95729e-05
1.04929e-05
-2.99106e-05
1.38306e-05
-3.09442e-05
1.76287e-05
-3.05844e-05
2.06918e-05
-3.42859e-05
2.51059e-05
-3.45958e-05
2.79828e-05
-3.69414e-05
3.12259e-05
-4.22322e-05
3.46494e-05
-4.62127e-05
3.59586e-05
-4.84057e-05
3.54026e-05
-5.03342e-05
3.11174e-05
-4.78077e-05
2.27822e-05
-3.08794e-05
1.51075e-05
-1.29588e-05
2.24021e-05
-4.65624e-06
2.93661e-05
1.24844e-05
2.4197e-05
2.22576e-05
2.16995e-05
3.4131e-05
1.82476e-05
6.64719e-05
6.34302e-06
0.000107454
1.31466e-05
0.000128786
0.000146331
-6.59698e-05
6.59635e-05
-0.000109097
4.31288e-05
-0.000129214
2.01176e-05
-0.000131978
2.76402e-06
-0.000119391
-1.25855e-05
-9.50823e-05
-2.43051e-05
-6.7938e-05
-2.71331e-05
-3.64139e-05
-3.15058e-05
-3.12013e-06
-3.3274e-05
3.08714e-05
-3.3973e-05
5.27902e-05
-2.19098e-05
6.64421e-05
-1.36403e-05
6.81441e-05
-1.67475e-06
6.17878e-05
6.42415e-06
4.8459e-05
1.32218e-05
3.11263e-05
1.7173e-05
1.09082e-05
1.99267e-05
-1.92361e-06
8.32424e-06
-4.8256e-06
-6.54248e-05
0.000131376
-0.000105235
8.29417e-05
-0.00012308
3.79625e-05
-0.000120861
5.43296e-07
-0.000110666
-2.27828e-05
-9.04828e-05
-4.44914e-05
-5.81018e-05
-5.95167e-05
-2.71868e-05
-6.24178e-05
4.23303e-06
-6.46845e-05
3.8452e-05
-6.81798e-05
6.23861e-05
-4.5816e-05
7.73366e-05
-2.85175e-05
8.00147e-05
-4.21949e-06
7.5006e-05
1.15761e-05
6.08989e-05
2.75362e-05
4.32245e-05
3.50051e-05
2.27347e-05
4.08731e-05
4.10399e-06
2.87098e-05
-1.12285e-06
-6.02008e-05
0.000191569
-0.000102081
0.000124825
-0.000113714
4.95947e-05
-0.00011266
-5.1105e-07
-0.000107508
-2.79363e-05
-8.33062e-05
-6.86963e-05
-5.00332e-05
-9.27925e-05
-2.3457e-05
-8.89877e-05
9.72398e-06
-9.78457e-05
4.37876e-05
-0.000102205
6.94258e-05
-7.13666e-05
8.35911e-05
-4.25089e-05
8.53172e-05
-5.74514e-06
8.00044e-05
1.7041e-05
6.78479e-05
3.98024e-05
5.12654e-05
5.16447e-05
3.15172e-05
6.14554e-05
1.08955e-05
4.54736e-05
4.41029e-06
-5.29523e-05
0.000244523
-8.84732e-05
0.000160349
-9.42702e-05
5.53914e-05
-9.40184e-05
-7.63716e-07
-9.12363e-05
-3.07205e-05
-7.48041e-05
-8.51354e-05
-4.56369e-05
-0.000121974
-1.4667e-05
-0.000119955
1.91007e-05
-0.000131575
5.18775e-05
-0.000134871
7.69821e-05
-9.62368e-05
8.90413e-05
-5.42611e-05
9.00675e-05
-6.53522e-06
8.53313e-05
2.18656e-05
7.3244e-05
5.19186e-05
5.69197e-05
6.79828e-05
3.92322e-05
8.00881e-05
1.98756e-05
6.76691e-05
2.76186e-05
-4.48184e-05
0.000289348
-6.71129e-05
0.000182499
-6.60805e-05
5.03236e-05
-6.80538e-05
-1.44501e-05
-6.6488e-05
-3.29949e-05
-5.57996e-05
-9.58652e-05
-3.50866e-05
-0.000142725
-3.26219e-06
-0.000151813
3.1544e-05
-0.000166363
6.25707e-05
-0.00016574
8.52331e-05
-0.000118453
9.38038e-05
-6.23679e-05
9.50682e-05
-7.5896e-06
8.97517e-05
2.71852e-05
7.82106e-05
6.34447e-05
6.26103e-05
8.35922e-05
4.02739e-05
0.000102716
1.8332e-05
9.25519e-05
4.744e-05
-3.7229e-05
0.000326512
-3.93467e-05
0.000183727
-2.59231e-05
2.26297e-05
-2.92675e-05
-6.42189e-05
-3.62043e-05
-7.09076e-05
-3.25035e-05
-0.000102275
-1.72183e-05
-0.000158202
1.18416e-05
-0.000181004
4.37797e-05
-0.000198416
7.11178e-05
-0.000193162
9.10321e-05
-0.000140043
0.000100829
-7.38932e-05
0.000100999
-7.93765e-06
9.43093e-05
3.38079e-05
7.9214e-05
7.85121e-05
6.36145e-05
9.92244e-05
4.50963e-05
0.000121225
2.09903e-05
0.000117851
6.88978e-05
-2.44537e-05
0.00035081
-1.89766e-05
0.000166472
8.69494e-06
5.89029e-05
1.89589e-05
-5.72492e-05
6.94633e-06
-0.000142501
-2.32591e-06
-0.000136776
3.95257e-07
-0.000163031
2.51251e-05
-0.000206141
5.48224e-05
-0.000228696
7.85344e-05
-0.000222164
9.46837e-05
-0.000198107
9.66031e-05
-0.00014474
0.000107518
-3.98713e-05
9.98111e-05
4.09582e-05
8.65238e-05
9.17835e-05
6.83308e-05
0.000117453
5.08901e-05
0.000138707
2.87994e-05
0.000140186
9.77524e-05
-1.15762e-05
0.000362234
2.84284e-06
0.000141043
2.47296e-05
7.40724e-05
4.12766e-05
1.20563e-05
3.76702e-05
-9.08633e-05
2.38976e-05
-0.000172605
1.62615e-05
-0.000177157
3.58926e-05
-0.000226805
6.17762e-05
-0.000256502
7.83807e-05
-0.000261786
9.56524e-05
-0.000266546
0.000104335
-0.000237743
0.00010439
-0.000150621
9.70966e-05
-2.4143e-05
8.7172e-05
9.8589e-05
7.22735e-05
0.000132345
4.99203e-05
0.00016116
2.74496e-05
0.000162684
0.000125205
7.38762e-06
-5.46755e-05
1.47212e-05
-5.48948e-05
2.17563e-05
-5.51075e-05
2.79673e-05
-5.55639e-05
3.51615e-05
-5.64586e-05
4.00311e-05
-5.78967e-05
4.49101e-05
-5.8614e-05
4.97808e-05
-6.03963e-05
5.03616e-05
-6.04283e-05
4.93329e-05
-5.46035e-05
4.97136e-05
-4.27487e-05
5.13296e-05
-3.50173e-05
5.81978e-05
-3.11538e-05
5.89699e-05
-2.5964e-05
6.24469e-05
-1.94857e-05
6.42144e-05
-6.20878e-06
6.4304e-05
1.04694e-05
6.03401e-05
2.22542e-05
5.31304e-05
4.00474e-05
5.08754e-05
7.33939e-05
2.97116e-05
0.000121703
5.78796e-05
0.000116664
0.000112038
9.72618e-05
4.12595e-06
-5.16245e-05
8.35734e-06
-5.0625e-05
1.22971e-05
-4.83926e-05
1.62021e-05
-4.61075e-05
2.00756e-05
-4.4258e-05
2.39935e-05
-4.27341e-05
2.77296e-05
-4.0423e-05
3.37806e-05
-4.16361e-05
3.92268e-05
-3.83615e-05
4.70239e-05
-3.75288e-05
5.81161e-05
-3.97582e-05
6.95196e-05
-3.92673e-05
7.50254e-05
-3.57778e-05
7.52239e-05
-3.08671e-05
7.57969e-05
-2.2076e-05
8.41562e-05
-1.5622e-05
9.46109e-05
-1.85589e-06
0.00010186
2.39598e-05
9.53434e-05
4.84987e-05
9.91905e-05
7.77968e-05
9.66816e-05
0.000131247
7.52976e-05
0.00013757
0.000130572
0.000110846
4.66926e-06
-4.4133e-05
9.647e-06
-4.44928e-05
1.50433e-05
-4.42942e-05
2.10693e-05
-4.45878e-05
2.71376e-05
-4.46e-05
3.35894e-05
-4.51245e-05
4.00143e-05
-4.41594e-05
4.68662e-05
-4.70383e-05
5.3684e-05
-4.44643e-05
6.19668e-05
-4.56204e-05
6.97134e-05
-4.74819e-05
7.69625e-05
-4.65923e-05
8.19324e-05
-4.22234e-05
8.61197e-05
-3.18839e-05
9.31835e-05
-2.2728e-05
0.000102502
-1.58343e-05
0.000110469
-1.44624e-07
0.000125903
1.61776e-05
0.000127314
4.56351e-05
0.000133627
7.17945e-05
0.000148871
0.000119334
0.000129456
0.000167978
0.000155367
0.000122911
6.12914e-06
-5.02492e-05
1.21399e-05
-5.04961e-05
1.8262e-05
-5.04143e-05
2.41109e-05
-5.04377e-05
2.99927e-05
-5.04834e-05
3.57523e-05
-5.08854e-05
4.17012e-05
-5.01092e-05
4.76149e-05
-5.29524e-05
5.3547e-05
-5.0396e-05
6.17981e-05
-5.38607e-05
6.92123e-05
-5.49171e-05
7.52427e-05
-3.29314e-05
6.88003e-05
-2.86534e-05
8.33662e-05
-3.1518e-05
0.000102065
-3.09403e-05
0.000123794
-2.5354e-05
0.000133291
-6.5807e-06
0.000144607
7.5075e-06
0.000152814
3.77835e-05
0.000156463
6.83238e-05
0.00017883
9.71087e-05
0.000184405
0.000165668
0.000187678
0.000162762
5.89416e-06
-5.61428e-05
1.17602e-05
-5.63616e-05
1.76772e-05
-5.63309e-05
2.33983e-05
-5.61585e-05
2.90319e-05
-5.61167e-05
3.42878e-05
-5.61411e-05
4.00646e-05
-5.58858e-05
4.50354e-05
-5.7923e-05
5.12656e-05
-5.66225e-05
5.98371e-05
-6.18215e-05
4.32188e-05
-3.24129e-05
6.15028e-05
-4.29381e-05
9.09202e-05
-5.31265e-05
0.00010583
-4.90374e-05
0.0001173
-4.2734e-05
0.000127083
-3.51119e-05
0.000139233
-2.00078e-05
0.000149122
-5.89975e-06
0.000157088
2.68807e-05
0.000164447
5.48299e-05
0.000179432
7.69031e-05
0.000200678
0.000136295
0.000187759
0.000200542
5.82753e-06
-6.19698e-05
1.1685e-05
-6.22186e-05
1.74386e-05
-6.2084e-05
2.31789e-05
-6.18985e-05
2.87145e-05
-6.1652e-05
3.40296e-05
-6.14558e-05
3.9761e-05
-6.16167e-05
4.44421e-05
-6.26026e-05
5.066e-05
-6.29369e-05
3.42858e-05
-3.76679e-05
5.87091e-05
-5.36382e-05
7.81801e-05
-6.10267e-05
8.85618e-05
-6.23193e-05
9.61514e-05
-5.86738e-05
0.000102448
-5.31197e-05
0.000108054
-4.63362e-05
0.000112721
-3.21753e-05
0.000116479
-1.75153e-05
0.000121365
9.56086e-06
0.000135057
3.16495e-05
0.000149275
5.3518e-05
0.000181446
9.84113e-05
0.000163094
0.000200186
6.02917e-06
-6.80166e-05
1.20653e-05
-6.82752e-05
1.79907e-05
-6.80342e-05
2.37619e-05
-6.77019e-05
2.92957e-05
-6.723e-05
3.45463e-05
-6.67703e-05
3.91737e-05
-6.63378e-05
4.22732e-05
-6.59484e-05
2.54741e-05
-3.72943e-05
4.50737e-05
-5.81919e-05
5.7347e-05
-6.52937e-05
6.07126e-05
-6.51086e-05
6.00425e-05
-6.5724e-05
5.53818e-05
-6.09907e-05
4.75974e-05
-5.30086e-05
3.8654e-05
-4.46115e-05
3.33613e-05
-3.41092e-05
3.43259e-05
-2.46069e-05
4.42209e-05
-6.06502e-06
6.46473e-05
6.19405e-06
8.51035e-05
2.67702e-05
0.000125862
5.17003e-05
0.000112603
0.000173673
6.14852e-06
-7.71919e-05
1.22162e-05
-7.75548e-05
1.82106e-05
-7.7551e-05
2.40074e-05
-7.75145e-05
2.94688e-05
-7.7405e-05
3.43159e-05
-7.72971e-05
3.77676e-05
-7.69881e-05
1.8699e-05
-7.41681e-05
2.67952e-05
-7.10251e-05
3.29043e-05
-6.95758e-05
2.9611e-05
-6.59197e-05
1.8213e-05
-6.17258e-05
4.54529e-06
-6.01658e-05
-7.2694e-06
-5.51447e-05
-1.08887e-05
-5.33961e-05
-1.01916e-05
-4.76619e-05
-7.43371e-06
-3.80057e-05
-2.252e-08
-3.2488e-05
1.1324e-05
-1.78636e-05
2.67976e-05
-9.81789e-06
3.98046e-05
1.27101e-05
6.69987e-05
2.25604e-05
6.07262e-05
0.000116989
6.61742e-06
-0.000118924
1.30594e-05
-0.000120328
1.93219e-05
-0.000122108
2.53868e-05
-0.000124961
3.10414e-05
-0.000128664
3.6174e-05
-0.000134277
3.66732e-05
-0.000149396
1.47671e-05
-0.000118809
6.68846e-06
-0.000129527
-4.52516e-06
-9.98455e-05
-2.57004e-05
-9.14164e-05
-4.35372e-05
-9.46039e-05
-4.3232e-05
-9.58502e-05
-3.72747e-05
-7.99432e-05
-2.97212e-05
-7.18796e-05
-2.03708e-05
-6.17654e-05
-9.43703e-06
-5.09488e-05
5.26835e-07
-4.31225e-05
1.116e-05
-2.86991e-05
2.26167e-05
-2.13277e-05
3.45129e-05
7.85852e-07
5.06831e-05
6.31996e-06
3.08381e-05
8.17731e-05
5.52411e-06
-0.000206708
1.08077e-05
-0.000209469
1.59356e-05
-0.000212675
2.06325e-05
-0.000217891
2.49734e-05
-0.000220047
2.78482e-05
-0.000210543
9.05774e-06
-0.000148233
-3.36738e-05
-0.000138801
-6.08493e-05
-0.000176039
-7.93393e-05
-0.000146266
-9.51597e-05
-0.000164655
-7.9129e-05
-0.000190125
-5.54127e-05
-0.000189073
-3.9468e-05
-0.000156027
-2.57705e-05
-0.000143675
-1.43685e-05
-0.000126514
-3.80133e-06
-0.000102142
5.13427e-06
-7.86251e-05
1.74411e-05
-5.90459e-05
3.0291e-05
-4.49223e-05
4.82299e-05
-2.06885e-05
6.20492e-05
-8.96407e-06
8.51743e-06
8.38878e-05
-9.87496e-06
-8.82459e-05
-2.09204e-05
-8.60854e-05
-3.28763e-05
-8.37997e-05
-4.527e-05
-8.58681e-05
-5.17869e-05
-9.77626e-05
-3.63358e-05
-0.000101258
-5.93136e-05
-0.000121962
-8.78725e-05
-0.000144566
-9.58634e-05
-0.000115319
-0.000110509
-9.0197e-05
-0.000109407
-0.000126211
-7.09641e-05
-0.000131397
-4.02871e-05
-0.000125831
-1.40612e-05
-0.000118886
7.35554e-06
-0.000122563
1.46696e-05
-0.000176489
1.99469e-05
-0.000199946
2.71062e-05
-0.000160787
3.92824e-05
-0.000137326
4.97284e-05
-0.0001182
6.02009e-05
-8.79555e-05
7.64793e-05
-7.31761e-05
-6.24611e-05
9.76004e-05
-1.35872e-05
-5.96481e-05
-2.46771e-05
-6.18979e-05
-3.29144e-05
-6.50099e-05
-3.47345e-05
-7.20795e-05
-3.44736e-05
-8.52678e-05
-3.79299e-05
-9.33308e-05
-6.02866e-05
-8.61574e-05
-5.45498e-05
-8.29889e-05
-4.62236e-05
-7.01445e-05
-3.57954e-06
-1.53932e-05
4.58446e-05
-8.07258e-05
6.2879e-05
-0.000115478
6.86106e-05
-0.000118175
7.34129e-05
-0.000101393
6.59759e-05
-7.241e-05
4.34654e-05
-8.98855e-05
3.68321e-05
-0.000129131
4.2266e-05
-0.00011747
4.8026e-05
-0.000107725
5.60522e-05
-9.62293e-05
6.66737e-05
-7.55436e-05
7.39214e-05
-8.83129e-05
-8.66918e-05
8.06995e-05
-7.26884e-06
-5.23784e-05
-1.2298e-05
-5.68709e-05
-1.58477e-05
-6.14129e-05
-1.81758e-05
-6.65531e-05
-1.95207e-05
-6.95935e-05
-2.22581e-05
-6.50797e-05
-2.37733e-05
-6.50663e-05
-2.59877e-05
-6.65636e-05
-2.01725e-05
-3.75835e-05
1.06559e-06
-1.97205e-06
1.51971e-05
-7.64559e-05
9.41766e-06
-0.000103852
2.39113e-06
-0.000106389
-4.0976e-06
-0.000100004
-5.38893e-06
-8.49799e-05
2.55014e-06
-7.10821e-05
1.41639e-05
-6.70801e-05
2.39766e-05
-5.97253e-05
3.06682e-05
-5.62547e-05
3.53395e-05
-5.39494e-05
3.71255e-05
-4.30751e-05
3.49806e-05
-4.1568e-05
-2.6736e-05
1.97002e-05
-2.28184e-06
-5.00964e-05
-4.25123e-06
-5.4903e-05
-6.38526e-06
-5.93771e-05
-9.14407e-06
-6.47111e-05
-1.29432e-05
-7.01732e-05
-1.87831e-05
-7.46329e-05
-2.55552e-05
-7.61728e-05
-2.87381e-05
-7.2615e-05
-6.57273e-06
-6.29317e-05
3.05012e-05
-5.72457e-05
3.42587e-05
-8.07755e-05
2.05466e-05
-9.04162e-05
9.21059e-06
-9.41608e-05
1.97564e-06
-8.37861e-05
9.1041e-08
-7.9889e-05
2.10251e-07
-7.41018e-05
-7.91764e-07
-6.39952e-05
-5.5584e-07
-5.11686e-05
-1.34357e-06
-3.76549e-05
-9.59845e-06
-3.19603e-05
-1.8644e-05
-2.38671e-05
-1.58824e-05
-2.85821e-05
-4.88367e-06
-1.50971e-05
1.45909e-06
-5.15552e-05
2.59967e-06
-5.6043e-05
2.53531e-06
-5.93023e-05
1.15813e-06
-6.32592e-05
-1.51023e-06
-6.72378e-05
-5.44831e-06
-7.04249e-05
-9.7784e-06
-7.16639e-05
-1.21803e-05
-7.00142e-05
-9.06949e-06
-6.57548e-05
-1.95589e-06
-6.41552e-05
-4.90703e-06
-7.78204e-05
-1.01179e-05
-8.53685e-05
-1.19807e-05
-9.14899e-05
-1.31093e-05
-9.02508e-05
-1.28997e-05
-9.20341e-05
-9.96426e-06
-8.23237e-05
-7.65797e-06
-6.69633e-05
-7.86881e-06
-5.23144e-05
-1.67218e-05
-3.77936e-05
-3.05933e-05
-1.97889e-05
-5.20939e-05
1.28595e-06
-7.18899e-05
6.61209e-08
7.10786e-06
-7.43094e-05
8.73641e-07
-5.24282e-05
1.56005e-06
-5.67288e-05
1.44261e-06
-5.91843e-05
2.8108e-07
-6.20967e-05
-2.07674e-06
-6.48788e-05
-5.80739e-06
-6.66934e-05
-1.03203e-05
-6.71509e-05
-1.38192e-05
-6.65158e-05
-1.43564e-05
-6.52213e-05
-1.28121e-05
-6.57041e-05
-1.67889e-05
-7.3859e-05
-2.09711e-05
-8.09102e-05
-2.2085e-05
-8.6892e-05
-3.31915e-05
-8.92733e-05
-4.02824e-05
-8.47258e-05
-4.72716e-05
-7.40709e-05
-4.90875e-05
-5.6161e-05
-5.61396e-05
-4.17536e-05
-7.24764e-05
-2.82345e-05
-7.56172e-05
-1.67134e-05
-6.60938e-05
-8.53919e-06
-5.74136e-05
-1.11604e-05
-1.04011e-05
-4.61229e-05
8.47022e-07
-5.3275e-05
1.21697e-06
-5.70984e-05
8.29829e-07
-5.87967e-05
-6.55231e-07
-6.06112e-05
-3.61783e-06
-6.19157e-05
-7.65913e-06
-6.26515e-05
-1.19258e-05
-6.28837e-05
-1.56405e-05
-6.28008e-05
-1.77826e-05
-6.30786e-05
-1.86332e-05
-6.48533e-05
-2.27067e-05
-6.98041e-05
-2.82673e-05
-7.48879e-05
-3.34544e-05
-7.6699e-05
-4.94501e-05
-7.24527e-05
-5.83006e-05
-7.63732e-05
-5.97672e-05
-6.65978e-05
-6.23857e-05
-4.73778e-05
-7.43107e-05
-3.75398e-05
-7.56962e-05
-2.81121e-05
-7.49278e-05
-1.87127e-05
-7.20994e-05
-1.10362e-05
-7.31735e-05
-7.52335e-06
-6.1575e-06
-7.42352e-05
1.21367e-08
-5.32862e-05
-4.84966e-07
-5.66007e-05
-1.90008e-06
-5.73811e-05
-4.1904e-06
-5.83205e-05
-7.0973e-06
-5.90083e-05
-1.03305e-05
-5.94178e-05
-1.35248e-05
-5.9689e-05
-1.63578e-05
-5.99676e-05
-1.87821e-05
-6.06541e-05
-2.13064e-05
-6.23292e-05
-2.63591e-05
-6.47656e-05
-3.50208e-05
-6.63818e-05
-4.33956e-05
-6.63724e-05
-5.07159e-05
-6.55485e-05
-6.6603e-05
-5.84725e-05
-6.4566e-05
-5.61395e-05
-8.04027e-05
-4.29378e-05
-8.15795e-05
-3.42026e-05
-7.76024e-05
-3.01324e-05
-7.02505e-05
-2.48061e-05
-6.35927e-05
-1.74652e-05
-5.75665e-05
-1.41468e-05
-1.21955e-05
-5.2202e-05
-8.15531e-07
-5.24705e-05
-2.1094e-06
-5.53063e-05
-3.86183e-06
-5.56281e-05
-5.92567e-06
-5.6256e-05
-8.15711e-06
-5.67762e-05
-1.03924e-05
-5.71819e-05
-1.25577e-05
-5.75231e-05
-1.46716e-05
-5.78532e-05
-1.71677e-05
-5.81581e-05
-2.07682e-05
-5.87302e-05
-2.61831e-05
-5.93612e-05
-3.36563e-05
-5.90023e-05
-4.10776e-05
-5.8598e-05
-4.96794e-05
-5.76238e-05
-5.86454e-05
-5.55045e-05
-6.4129e-05
-5.14928e-05
-6.41075e-05
-4.50751e-05
-6.28521e-05
-3.72934e-05
-6.16661e-05
-3.22796e-05
-6.00068e-05
-2.72712e-05
-5.77356e-05
-2.01132e-05
-5.70282e-05
-1.48783e-05
-1.19379e-05
-5.71634e-05
-1.37345e-06
-5.10964e-05
-2.83043e-06
-5.38489e-05
-4.37749e-06
-5.40807e-05
-6.15556e-06
-5.44776e-05
-8.12888e-06
-5.48026e-05
-1.0177e-05
-5.51335e-05
-1.23224e-05
-5.53774e-05
-1.46316e-05
-5.55438e-05
-1.71744e-05
-5.56155e-05
-2.03536e-05
-5.5552e-05
-2.44197e-05
-5.52933e-05
-2.8603e-05
-5.48363e-05
-3.34262e-05
-5.37179e-05
-3.89081e-05
-5.18065e-05
-4.50643e-05
-4.94478e-05
-5.05856e-05
-4.6007e-05
-5.44449e-05
-4.11504e-05
-5.47989e-05
-3.6259e-05
-5.4915e-05
-3.16626e-05
-5.4492e-05
-2.77063e-05
-5.21954e-05
-2.28278e-05
-5.06197e-05
-1.66563e-05
-1.27533e-05
-4.99074e-05
-1.3378e-06
-4.97586e-05
-2.85188e-06
-5.23346e-05
-4.54082e-06
-5.23914e-05
-6.43398e-06
-5.25842e-05
-8.46634e-06
-5.277e-05
-1.06628e-05
-5.29368e-05
-1.29584e-05
-5.30816e-05
-1.54008e-05
-5.31013e-05
-1.80475e-05
-5.29686e-05
-2.07851e-05
-5.28137e-05
-2.37578e-05
-5.23185e-05
-2.73773e-05
-5.12152e-05
-3.12536e-05
-4.98387e-05
-3.47599e-05
-4.81648e-05
-3.84539e-05
-4.55458e-05
-4.2328e-05
-4.15496e-05
-4.5552e-05
-3.75165e-05
-4.73989e-05
-3.3562e-05
-4.78927e-05
-2.97969e-05
-4.81337e-05
-2.6526e-05
-4.86118e-05
-2.22379e-05
-4.92777e-05
-1.60899e-05
-1.29383e-05
-4.91227e-05
-1.56561e-06
-4.81925e-05
-3.27019e-06
-5.06297e-05
-5.04338e-06
-5.0618e-05
-6.90421e-06
-5.07231e-05
-8.88663e-06
-5.07873e-05
-1.10398e-05
-5.07834e-05
-1.34101e-05
-5.07112e-05
-1.59589e-05
-5.05523e-05
-1.85606e-05
-5.03667e-05
-2.13828e-05
-4.9991e-05
-2.46015e-05
-4.90986e-05
-2.8023e-05
-4.77919e-05
-3.12963e-05
-4.65661e-05
-3.46122e-05
-4.48346e-05
-3.77792e-05
-4.25662e-05
-4.03911e-05
-3.94305e-05
-4.23718e-05
-3.57495e-05
-4.39697e-05
-3.22786e-05
-4.51022e-05
-2.92212e-05
-4.59162e-05
-2.60971e-05
-4.63807e-05
-2.18284e-05
-4.62156e-05
-1.62956e-05
-1.38437e-05
-4.53223e-05
-1.4274e-06
-4.67651e-05
-2.99479e-06
-4.90621e-05
-4.66041e-06
-4.89522e-05
-6.43944e-06
-4.89439e-05
-8.35131e-06
-4.88753e-05
-1.03913e-05
-4.87433e-05
-1.25855e-05
-4.85169e-05
-1.49453e-05
-4.81924e-05
-1.75798e-05
-4.77321e-05
-2.0493e-05
-4.70775e-05
-2.32805e-05
-4.6311e-05
-2.57783e-05
-4.52938e-05
-2.86019e-05
-4.37424e-05
-3.16772e-05
-4.1757e-05
-3.46748e-05
-3.95585e-05
-3.70282e-05
-3.72223e-05
-3.87281e-05
-3.43734e-05
-4.02284e-05
-3.10358e-05
-4.17046e-05
-2.77638e-05
-4.29811e-05
-2.47826e-05
-4.3499e-05
-2.13011e-05
-4.29132e-05
-1.68784e-05
-1.45533e-05
-4.21967e-05
-1.56241e-06
-4.52022e-05
-3.22468e-06
-4.73996e-05
-4.93442e-06
-4.72422e-05
-6.72402e-06
-4.71541e-05
-8.61296e-06
-4.69862e-05
-1.06124e-05
-4.67437e-05
-1.27084e-05
-4.64207e-05
-1.48815e-05
-4.60192e-05
-1.71004e-05
-4.55131e-05
-1.93697e-05
-4.48082e-05
-2.18175e-05
-4.3863e-05
-2.44762e-05
-4.26351e-05
-2.70436e-05
-4.11749e-05
-2.9329e-05
-3.94712e-05
-3.16971e-05
-3.71911e-05
-3.42311e-05
-3.46778e-05
-3.62837e-05
-3.22919e-05
-3.76385e-05
-2.96447e-05
-3.8498e-05
-2.68956e-05
-3.93129e-05
-2.39738e-05
-4.0119e-05
-2.04922e-05
-3.98245e-05
-1.71694e-05
-1.5077e-05
-3.92988e-05
-1.54707e-06
-4.36552e-05
-3.17875e-06
-4.57679e-05
-4.82086e-06
-4.56e-05
-6.49558e-06
-4.54793e-05
-8.19855e-06
-4.52831e-05
-9.93361e-06
-4.50086e-05
-1.1719e-05
-4.46353e-05
-1.36029e-05
-4.41352e-05
-1.566e-05
-4.34559e-05
-1.79335e-05
-4.25346e-05
-2.04286e-05
-4.13679e-05
-2.29429e-05
-4.01206e-05
-2.53781e-05
-3.87396e-05
-2.77888e-05
-3.70612e-05
-2.97651e-05
-3.52139e-05
-3.11826e-05
-3.32614e-05
-3.25344e-05
-3.09401e-05
-3.3989e-05
-2.81902e-05
-3.54741e-05
-2.54071e-05
-3.68148e-05
-2.2628e-05
-3.7378e-05
-1.99277e-05
-3.71148e-05
-1.74323e-05
-1.50831e-05
-3.71065e-05
-1.48142e-06
-4.21735e-05
-3.05074e-06
-4.41984e-05
-4.65304e-06
-4.39976e-05
-6.31549e-06
-4.38167e-05
-8.04979e-06
-4.35487e-05
-9.86372e-06
-4.31946e-05
-1.17541e-05
-4.27449e-05
-1.37054e-05
-4.21837e-05
-1.56771e-05
-4.14842e-05
-1.75872e-05
-4.06245e-05
-1.93991e-05
-3.95559e-05
-2.11781e-05
-3.83414e-05
-2.30072e-05
-3.69106e-05
-2.48191e-05
-3.5249e-05
-2.66939e-05
-3.33404e-05
-2.87909e-05
-3.11643e-05
-3.08196e-05
-2.89119e-05
-3.22935e-05
-2.67165e-05
-3.32888e-05
-2.44116e-05
-3.38079e-05
-2.21088e-05
-3.42654e-05
-1.94698e-05
-3.47784e-05
-1.69185e-05
-1.4809e-05
-3.50512e-05
-1.41688e-06
-4.07567e-05
-2.90417e-06
-4.2711e-05
-4.40374e-06
-4.24979e-05
-5.93526e-06
-4.22851e-05
-7.50686e-06
-4.1977e-05
-9.13032e-06
-4.15711e-05
-1.0818e-05
-4.10572e-05
-1.25778e-05
-4.04239e-05
-1.4405e-05
-3.96569e-05
-1.62895e-05
-3.87399e-05
-1.81881e-05
-3.76573e-05
-2.01458e-05
-3.63836e-05
-2.21026e-05
-3.49538e-05
-2.39808e-05
-3.33713e-05
-2.56574e-05
-3.16633e-05
-2.6988e-05
-2.98349e-05
-2.80329e-05
-2.78675e-05
-2.90674e-05
-2.56825e-05
-3.01705e-05
-2.33087e-05
-3.13656e-05
-2.09137e-05
-3.21493e-05
-1.86858e-05
-3.25723e-05
-1.64954e-05
-1.43409e-05
-3.30388e-05
-1.37397e-06
-3.93824e-05
-2.81637e-06
-4.12685e-05
-4.26833e-06
-4.10459e-05
-5.74553e-06
-4.08079e-05
-7.24685e-06
-4.04757e-05
-8.77152e-06
-4.00464e-05
-1.03201e-05
-3.95086e-05
-1.18971e-05
-3.88469e-05
-1.35088e-05
-3.80452e-05
-1.51546e-05
-3.70941e-05
-1.68083e-05
-3.60035e-05
-1.8398e-05
-3.47939e-05
-1.99285e-05
-3.34233e-05
-2.14189e-05
-3.18807e-05
-2.29045e-05
-3.0179e-05
-2.44037e-05
-2.83354e-05
-2.59023e-05
-2.63698e-05
-2.72375e-05
-2.43478e-05
-2.82706e-05
-2.2276e-05
-2.90515e-05
-2.0133e-05
-2.97685e-05
-1.79686e-05
-3.04421e-05
-1.58214e-05
-1.37372e-05
-3.10448e-05
-1.28067e-06
-3.81019e-05
-2.6214e-06
-3.99278e-05
-3.96846e-06
-3.96988e-05
-5.33843e-06
-3.94379e-05
-6.73846e-06
-3.90756e-05
-8.17376e-06
-3.86111e-05
-9.64444e-06
-3.80379e-05
-1.11418e-05
-3.73496e-05
-1.26475e-05
-3.65395e-05
-1.41445e-05
-3.5597e-05
-1.56385e-05
-3.45095e-05
-1.71545e-05
-3.32779e-05
-1.86617e-05
-3.19161e-05
-2.01106e-05
-3.04323e-05
-2.14703e-05
-2.88187e-05
-2.27258e-05
-2.70813e-05
-2.38561e-05
-2.52399e-05
-2.49094e-05
-2.3295e-05
-2.5923e-05
-2.12628e-05
-2.68614e-05
-1.91948e-05
-2.76762e-05
-1.71537e-05
-2.83831e-05
-1.51145e-05
-1.30611e-05
-2.90579e-05
-1.19721e-06
-3.69045e-05
-2.45463e-06
-3.86703e-05
-3.71267e-06
-3.84407e-05
-4.98727e-06
-3.81633e-05
-6.27956e-06
-3.77833e-05
-7.59136e-06
-3.72993e-05
-8.92378e-06
-3.67055e-05
-1.02773e-05
-3.59961e-05
-1.16502e-05
-3.51665e-05
-1.30332e-05
-3.4214e-05
-1.44043e-05
-3.31384e-05
-1.57436e-05
-3.19385e-05
-1.70507e-05
-3.0609e-05
-1.83324e-05
-2.91504e-05
-1.95783e-05
-2.75739e-05
-2.0771e-05
-2.58886e-05
-2.19061e-05
-2.41055e-05
-2.29597e-05
-2.22421e-05
-2.39122e-05
-2.03107e-05
-2.47747e-05
-1.83325e-05
-2.55855e-05
-1.6343e-05
-2.63504e-05
-1.43493e-05
-1.23324e-05
-2.70783e-05
-1.11321e-06
-3.57915e-05
-2.2739e-06
-3.75096e-05
-3.43524e-06
-3.72793e-05
-4.61016e-06
-3.69883e-05
-5.80041e-06
-3.65931e-05
-7.00688e-06
-3.60928e-05
-8.22818e-06
-3.54842e-05
-9.46042e-06
-3.47639e-05
-1.06984e-05
-3.39286e-05
-1.19373e-05
-3.2975e-05
-1.31743e-05
-3.19013e-05
-1.44047e-05
-3.07081e-05
-1.56148e-05
-2.93989e-05
-1.67883e-05
-2.79773e-05
-1.79168e-05
-2.64451e-05
-1.89958e-05
-2.48105e-05
-2.0018e-05
-2.30838e-05
-2.09846e-05
-2.12761e-05
-2.18955e-05
-1.94002e-05
-2.27525e-05
-1.74758e-05
-2.35644e-05
-1.5531e-05
-2.43411e-05
-1.35726e-05
-1.15786e-05
-2.5094e-05
-1.01416e-06
-3.47771e-05
-2.0757e-06
-3.6448e-05
-3.1351e-06
-3.62199e-05
-4.20622e-06
-3.59172e-05
-5.29003e-06
-3.55093e-05
-6.38718e-06
-3.49957e-05
-7.49688e-06
-3.43745e-05
-8.61677e-06
-3.3644e-05
-9.74258e-06
-3.28027e-05
-1.08681e-05
-3.18495e-05
-1.19857e-05
-3.07837e-05
-1.30882e-05
-2.96055e-05
-1.41712e-05
-2.83159e-05
-1.52305e-05
-2.69179e-05
-1.62593e-05
-2.54173e-05
-1.72498e-05
-2.382e-05
-1.8199e-05
-2.21354e-05
-1.91027e-05
-2.0373e-05
-1.99602e-05
-1.85431e-05
-2.07778e-05
-1.66585e-05
-2.15689e-05
-1.47401e-05
-2.23422e-05
-1.27991e-05
-1.08183e-05
-2.3102e-05
-9.18046e-07
-3.38592e-05
-1.87644e-06
-3.54896e-05
-2.83263e-06
-3.52637e-05
-3.79914e-06
-3.49507e-05
-4.77612e-06
-3.45323e-05
-5.76376e-06
-3.40081e-05
-6.76118e-06
-3.33771e-05
-7.76606e-06
-3.26392e-05
-8.77508e-06
-3.17937e-05
-9.78412e-06
-3.08404e-05
-1.07886e-05
-2.97792e-05
-1.17832e-05
-2.86109e-05
-1.27617e-05
-2.73373e-05
-1.37186e-05
-2.59614e-05
-1.46486e-05
-2.44869e-05
-1.55495e-05
-2.29202e-05
-1.64178e-05
-2.12676e-05
-1.72534e-05
-1.95379e-05
-1.80574e-05
-1.77395e-05
-1.88343e-05
-1.5882e-05
-1.9594e-05
-1.39804e-05
-2.03461e-05
-1.20472e-05
-1.00702e-05
-2.10935e-05
-8.13119e-07
-3.30459e-05
-1.66563e-06
-3.46371e-05
-2.51568e-06
-3.44137e-05
-3.37573e-06
-3.40907e-05
-4.24573e-06
-3.36623e-05
-5.1259e-06
-3.31279e-05
-6.01571e-06
-3.24873e-05
-6.91297e-06
-3.17419e-05
-7.8142e-06
-3.08925e-05
-8.71517e-06
-2.99394e-05
-9.61134e-06
-2.8883e-05
-1.04983e-05
-2.77239e-05
-1.13723e-05
-2.64634e-05
-1.22294e-05
-2.51042e-05
-1.30668e-05
-2.36503e-05
-1.38811e-05
-2.21059e-05
-1.46717e-05
-2.04777e-05
-1.54384e-05
-1.87718e-05
-1.61832e-05
-1.69952e-05
-1.69105e-05
-1.5155e-05
-1.7629e-05
-1.32622e-05
-1.83476e-05
-1.13285e-05
-9.34834e-06
-1.90692e-05
-7.04243e-07
-3.23419e-05
-1.44884e-06
-3.38925e-05
-2.19146e-06
-3.36711e-05
-2.94384e-06
-3.33383e-05
-3.70553e-06
-3.29007e-05
-4.47695e-06
-3.23566e-05
-5.2586e-06
-3.17057e-05
-6.04891e-06
-3.09517e-05
-6.8446e-06
-3.00968e-05
-7.64152e-06
-2.91425e-05
-8.43525e-06
-2.80892e-05
-9.22179e-06
-2.69373e-05
-9.99785e-06
-2.56874e-05
-1.07604e-05
-2.43419e-05
-1.15069e-05
-2.29036e-05
-1.22366e-05
-2.13771e-05
-1.29486e-05
-1.97662e-05
-1.36441e-05
-1.80769e-05
-1.43256e-05
-1.63143e-05
-1.49973e-05
-1.44837e-05
-1.56666e-05
-1.25931e-05
-1.6342e-05
-1.06533e-05
-8.66367e-06
-1.70263e-05
-5.87662e-07
-3.1754e-05
-1.22546e-06
-3.32547e-05
-1.86121e-06
-3.30353e-05
-2.50507e-06
-3.26945e-05
-3.15642e-06
-3.22494e-05
-3.81571e-06
-3.16973e-05
-4.48615e-06
-3.10353e-05
-5.16805e-06
-3.02698e-05
-5.85898e-06
-2.94059e-05
-6.55529e-06
-2.84462e-05
-7.25189e-06
-2.73926e-05
-7.94395e-06
-2.62453e-05
-8.62837e-06
-2.5003e-05
-9.3014e-06
-2.36688e-05
-9.96165e-06
-2.22443e-05
-1.0608e-05
-2.07308e-05
-1.12417e-05
-1.91332e-05
-1.18637e-05
-1.74555e-05
-1.24775e-05
-1.57011e-05
-1.30876e-05
-1.3874e-05
-1.37011e-05
-1.198e-05
-1.43257e-05
-1.00287e-05
-8.02381e-06
-1.49655e-05
-4.66402e-07
-3.12878e-05
-1.00658e-06