/*--------------------------------*- C++ -*----------------------------------*\
| =========                 |                                                 |
| \\      /  F ield         | OpenFOAM: The Open Source CFD Toolbox           |
|  \\    /   O peration     | Version:  2.4.0                                 |
|   \\  /    A nd           | Web:      www.OpenFOAM.org                      |
|    \\/     M anipulation  |                                                 |
\*---------------------------------------------------------------------------*/
FoamFile
{
    version     2.0;
    format      ascii;
    class       surfaceScalarField;
    location    "0.3";
    object      phi.air;
}
// * * * * * * * * * * * * * * * * * * * * * * * * * * * * * * * * * * * * * //

dimensions      [0 3 -1 0 0 0 0];

internalField   nonuniform List<scalar> 
4432
(
3.48176e-06
-3.48173e-06
6.97982e-06
-3.49802e-06
1.04598e-05
-3.47988e-06
1.41009e-05
-3.64107e-06
1.73541e-05
-3.25321e-06
2.1662e-05
-4.30781e-06
2.44959e-05
-2.83385e-06
2.84673e-05
-3.97137e-06
3.30928e-05
-4.62544e-06
3.68473e-05
-3.7545e-06
3.9746e-05
-2.89867e-06
4.30906e-05
-3.34458e-06
4.72308e-05
-4.14022e-06
5.19775e-05
-4.74674e-06
5.59263e-05
-3.94877e-06
5.7921e-05
-1.99472e-06
5.76565e-05
2.64515e-07
5.49937e-05
2.66279e-06
4.95578e-05
5.43583e-06
3.99071e-05
9.65068e-06
2.75474e-05
1.23597e-05
1.27342e-05
1.48133e-05
1.27339e-05
3.48256e-06
-6.96425e-06
6.98164e-06
-6.99707e-06
1.04594e-05
-6.95756e-06
1.40997e-05
-7.28135e-06
1.74088e-05
-6.5622e-06
2.15471e-05
-8.44604e-06
2.45589e-05
-5.84562e-06
2.85871e-05
-7.99952e-06
3.30995e-05
-9.1378e-06
3.67031e-05
-7.35802e-06
3.9714e-05
-5.90949e-06
4.32982e-05
-6.92874e-06
4.78817e-05
-8.72366e-06
5.2507e-05
-9.37204e-06
5.62743e-05
-7.71598e-06
5.80129e-05
-3.73326e-06
5.79061e-05
3.71304e-07
5.53453e-05
5.2237e-06
5.00549e-05
1.07262e-05
4.2021e-05
1.76847e-05
3.01615e-05
2.42195e-05
1.53616e-05
2.96136e-05
2.80958e-05
3.47971e-06
-1.04439e-05
6.97139e-06
-1.04887e-05
1.04514e-05
-1.04376e-05
1.4077e-05
-1.09069e-05
1.74487e-05
-9.93388e-06
2.13641e-05
-1.23614e-05
2.46975e-05
-9.17905e-06
2.87093e-05
-1.20113e-05
3.27998e-05
-1.32283e-05
3.6368e-05
-1.09262e-05
3.99642e-05
-9.50577e-06
4.42415e-05
-1.1206e-05
4.83898e-05
-1.28719e-05
5.24331e-05
-1.34154e-05
5.58838e-05
-1.11666e-05
5.77642e-05
-5.61366e-06
5.81968e-05
-6.12827e-08
5.74139e-05
6.00672e-06
5.28456e-05
1.52946e-05
4.51471e-05
2.53834e-05
2.94177e-05
3.99489e-05
1.55559e-05
4.34754e-05
4.36515e-05
3.47573e-06
-1.39196e-05
6.95508e-06
-1.3968e-05
1.04449e-05
-1.39273e-05
1.40399e-05
-1.45018e-05
1.7467e-05
-1.33609e-05
2.12061e-05
-1.61004e-05
2.47751e-05
-1.2748e-05
2.87254e-05
-1.59615e-05
3.24284e-05
-1.69313e-05
3.59634e-05
-1.44611e-05
4.06165e-05
-1.41588e-05
4.50855e-05
-1.56747e-05
4.88988e-05
-1.66751e-05
5.19866e-05
-1.64385e-05
5.4958e-05
-1.39944e-05
5.68283e-05
-7.27157e-06
5.94322e-05
-2.33994e-06
6.11098e-05
4.63322e-06
5.86516e-05
1.79421e-05
5.19887e-05
3.21448e-05
3.57513e-05
5.61984e-05
1.62285e-05
6.29985e-05
5.98803e-05
3.46929e-06
-1.73889e-05
6.93589e-06
-1.74346e-05
1.04265e-05
-1.74178e-05
1.40003e-05
-1.80756e-05
1.7424e-05
-1.67845e-05
2.10735e-05
-1.97499e-05
2.48096e-05
-1.6484e-05
2.86129e-05
-1.97631e-05
3.20837e-05
-2.03873e-05
3.59435e-05
-1.82758e-05
4.11915e-05
-1.93091e-05
4.54684e-05
-1.97528e-05
4.91063e-05
-1.9901e-05
5.17384e-05
-1.86461e-05
5.45174e-05
-1.71247e-05
5.8665e-05
-1.31176e-05
6.4314e-05
-1.19466e-05
6.62217e-05
-3.72698e-06
6.35565e-05
1.48188e-05
5.52895e-05
3.84458e-05
4.00594e-05
7.21176e-05
2.11827e-05
8.19391e-05
8.10633e-05
3.46386e-06
-2.0832e-05
6.92184e-06
-2.08659e-05
1.04124e-05
-2.08716e-05
1.39538e-05
-2.15598e-05
1.73706e-05
-2.01308e-05
2.10314e-05
-2.32829e-05
2.48809e-05
-2.01752e-05
2.84244e-05
-2.30572e-05
3.19935e-05
-2.35587e-05
3.65208e-05
-2.23382e-05
4.13591e-05
-2.39586e-05
4.54706e-05
-2.462e-05
4.98301e-05
-2.78124e-05
5.23125e-05
-2.9183e-05
5.51407e-05
-3.28133e-05
5.7991e-05
-3.27447e-05
5.82791e-05
-3.34145e-05
5.97474e-05
-2.93227e-05
5.8916e-05
-4.08322e-06
4.86524e-05
3.24588e-05
3.92494e-05
7.74399e-05
2.24413e-05
9.92237e-05
0.00010353
3.4753e-06
-2.38913e-05
6.94877e-06
-2.39136e-05
1.045e-05
-2.39372e-05
1.39367e-05
-2.46239e-05
1.74876e-05
-2.33161e-05
2.09448e-05
-2.66772e-05
2.5231e-05
-2.46945e-05
2.82526e-05
-2.70691e-05
3.20941e-05
-2.97592e-05
3.6857e-05
-3.15273e-05
4.06604e-05
-3.50203e-05
4.36471e-05
-3.90224e-05
4.6214e-05
-4.7344e-05
4.6887e-05
-5.04443e-05
4.30917e-05
-5.06746e-05
3.49469e-05
-3.11244e-05
2.558e-05
-6.69469e-06
2.86248e-05
-6.09259e-07
4.28122e-05
2.42642e-06
3.98311e-05
2.42459e-05
3.14068e-05
7.33262e-05
2.14303e-05
0.000108309
0.000125054
3.49585e-06
-2.94862e-05
6.99218e-06
-2.96808e-05
1.04938e-05
-3.00484e-05
1.38315e-05
-3.11297e-05
1.76294e-05
-3.08181e-05
2.06918e-05
-3.46153e-05
2.51044e-05
-3.50077e-05
2.79789e-05
-3.73991e-05
3.12038e-05
-4.2785e-05
3.4581e-05
-4.74051e-05
3.58603e-05
-5.06323e-05
3.53415e-05
-5.401e-05
3.10343e-05
-5.24797e-05
2.53206e-05
-3.45356e-05
2.06469e-05
-1.61155e-05
2.53349e-05
-1.11777e-05
3.08972e-05
-4.67475e-06
2.74801e-05
4.94444e-06
2.70739e-05
1.71081e-05
3.33615e-05
3.98482e-05
2.09503e-05
6.86802e-05
1.7606e-05
0.000107864
0.000142593
-4.53356e-05
9.47517e-05
-0.000100941
5.14282e-05
-0.000125101
2.79127e-05
-0.000133997
1.09898e-05
-0.000123171
-5.25483e-06
-9.96513e-05
-1.99881e-05
-7.26741e-05
-2.49198e-05
-4.07392e-05
-2.86861e-05
-6.70996e-06
-2.97681e-05
3.28641e-05
-2.8568e-05
5.46121e-05
-1.50591e-05
6.71768e-05
-1.20266e-05
6.78913e-05
-7.81617e-06
4.032e-05
5.77402e-06
2.43613e-05
8.39741e-05
7.52465e-06
8.80293e-05
3.14363e-06
0.00010247
-7.02038e-06
0.000111089
8.5767e-05
-4.30385e-05
0.000192736
-0.000102834
8.79458e-05
-0.00012271
4.02935e-05
-0.000120866
1.09685e-06
-0.000110451
-2.27514e-05
-8.94553e-05
-4.56957e-05
-5.64324e-05
-6.24149e-05
-2.54871e-05
-6.70749e-05
5.44865e-06
-7.00573e-05
3.91249e-05
-7.41206e-05
6.32617e-05
-5.41947e-05
7.92625e-05
-4.4349e-05
8.24857e-05
-2.7787e-05
5.83431e-05
-8.83473e-06
3.77512e-05
7.6131e-05
1.93768e-05
7.36073e-05
1.45149e-05
8.04814e-05
-4.92165e-06
5.93715e-05
2.95071e-05
-3.73647e-05
0.000267617
-0.000101255
0.000128385
-0.00011353
5.49994e-05
-0.000112611
3.29989e-06
-0.000107017
-2.73856e-05
-8.20351e-05
-6.98633e-05
-4.79668e-05
-9.57174e-05
-2.11584e-05
-9.45892e-05
1.16576e-05
-0.000105148
4.59602e-05
-0.00011236
7.27674e-05
-8.90121e-05
8.82557e-05
-7.15332e-05
9.0702e-05
-4.2168e-05
8.31003e-05
-1.60595e-05
6.34333e-05
2.96375e-05
2.71502e-05
6.14572e-05
1.69965e-05
0.00013007
-8.01079e-07
0.000114613
7.5938e-05
-3.07916e-05
0.000311445
-8.74387e-05
0.000163657
-9.33811e-05
5.86107e-05
-9.42258e-05
2.2098e-06
-9.08579e-05
-2.56883e-05
-7.27196e-05
-8.41158e-05
-4.14484e-05
-0.000123814
-9.76232e-06
-0.000126046
2.39726e-05
-0.000141015
5.72736e-05
-0.0001503
8.29456e-05
-0.00012517
9.57321e-05
-9.54801e-05
9.67135e-05
-5.2545e-05
9.04769e-05
-1.50874e-05
7.45848e-05
3.26833e-05
4.24496e-05
6.79773e-05
2.10802e-05
0.000136542
9.70444e-06
0.000133643
8.17657e-05
-3.11802e-05
0.000337737
-6.65554e-05
0.000289798
-6.58107e-05
0.000207553
-6.81898e-05
0.00015531
-6.73465e-05
5.91926e-05
-5.50626e-05
-3.00495e-05
-2.82932e-05
-0.000129261
4.99093e-06
-0.000155947
3.99611e-05
-0.000175194
7.15128e-05
-0.000182301
9.36559e-05
-0.000138167
0.000102099
-0.000110587
0.000102124
-6.47406e-05
9.41638e-05
-8.13514e-06
7.91105e-05
4.96594e-05
4.43605e-05
8.33536e-05
2.05501e-05
0.000174164
6.13092e-06
0.000160224
0.000103139
1.25469e-05
0.000350667
-1.399e-05
0.000282346
-2.58079e-05
8.29729e-05
-3.81135e-05
5.75924e-05
-6.0914e-05
8.43488e-05
-6.39439e-05
-1.25527e-05
-1.41346e-05
-8.26691e-05
2.35441e-05
-0.000174051
5.62618e-05
-0.000196398
8.58708e-05
-0.000101606
0.000107268
-4.21455e-06
0.000111584
5.39179e-05
0.000108261
7.34706e-05
9.72264e-05
2.30077e-05
7.95e-05
7.1834e-05
3.7955e-05
9.92275e-05
2.47282e-05
0.000197415
5.77312e-06
0.000187955
0.000111829
2.9296e-05
0.000363112
2.28173e-05
0.000186839
-3.17861e-05
5.65199e-05
-2.54997e-05
-9.20704e-07
-3.85394e-05
-1.85619e-06
-4.46371e-05
-1.02029e-05
-2.75358e-05
-7.41058e-05
3.87463e-05
-0.000165672
5.50898e-05
-0.000131176
8.77632e-05
-7.14834e-05
0.000104574
2.03649e-06
8.79926e-05
9.1448e-05
9.23238e-05
0.000120941
9.52357e-05
0.000126015
8.65227e-05
9.53122e-05
4.17203e-05
0.000117628
2.94202e-05
0.000222603
1.14428e-05
0.000195416
0.000117666
4.13986e-05
0.000362777
3.15765e-05
0.000138206
-7.58177e-07
6.99005e-05
-5.14697e-05
5.015e-05
-5.7415e-05
-5.24354e-05
-5.74559e-05
-0.000113244
-1.63701e-05
-9.48735e-05
2.96265e-05
-0.000155076
5.79572e-05
-0.000156147
8.56771e-05
-0.000119211
0.000114171
-0.00011321
8.87136e-05
4.29147e-06
8.65561e-05
0.000110841
7.67502e-05
0.000276978
8.62149e-05
0.000200189
4.87756e-05
0.000180252
2.91352e-05
0.000234709
2.03103e-05
0.000189028
0.00013018
7.37456e-06
-5.61756e-05
1.46956e-05
-5.6458e-05
2.17207e-05
-5.68149e-05
2.79239e-05
-5.75323e-05
3.51119e-05
-5.87466e-05
3.99951e-05
-6.09062e-05
4.48755e-05
-6.24485e-05
4.97636e-05
-6.46087e-05
5.03072e-05
-6.52193e-05
4.94101e-05
-5.94144e-05
5.00465e-05
-4.63213e-05
5.1619e-05
-3.74919e-05
5.70963e-05
-3.22566e-05
6.61086e-05
-2.64955e-05
7.50317e-05
-2.0876e-05
7.63997e-05
-1.1643e-05
7.0896e-05
8.32132e-07
6.68233e-05
8.80796e-06
5.98513e-05
2.39911e-05
6.3885e-05
5.54492e-05
4.74957e-05
7.48269e-05
4.98759e-05
9.10307e-05
0.000125815
0.000315739
4.13679e-06
-5.5032e-05
8.38113e-06
-5.38951e-05
1.23378e-05
-5.1416e-05
1.62534e-05
-4.87124e-05
2.01583e-05
-4.64471e-05
2.40606e-05
-4.45149e-05
2.77933e-05
-4.18053e-05
3.38116e-05
-4.25444e-05
3.92222e-05
-3.8915e-05
4.6995e-05
-3.77247e-05
5.80936e-05
-3.97714e-05
6.94394e-05
-3.9261e-05
7.70993e-05
-3.58189e-05
8.3221e-05
-3.12207e-05
8.58478e-05
-2.34152e-05
9.34751e-05
-1.92542e-05
0.000103275
-8.97492e-06
0.00010725
4.79465e-06
0.000102994
2.79958e-05
9.92224e-05
5.70179e-05
9.16217e-05
0.000100119
7.35694e-05
9.54026e-05
0.000114677
0.000121305
4.66746e-06
-4.41424e-05
9.6437e-06
-4.44944e-05
1.50409e-05
-4.42874e-05
2.10684e-05
-4.45765e-05
2.71375e-05
-4.45887e-05
3.35895e-05
-4.51144e-05
4.00143e-05
-4.415e-05
4.68663e-05
-4.70283e-05
5.36842e-05
-4.44541e-05
6.19661e-05
-4.56093e-05
6.96951e-05
-4.7463e-05
7.70147e-05
-4.65777e-05
8.39984e-05
-4.27987e-05
9.23376e-05
-3.95575e-05
0.0001033
-3.43755e-05
0.000114369
-3.03123e-05
0.000120463
-1.5043e-05
0.000127188
-1.84391e-06
0.000130128
2.51161e-05
0.000134799
5.12803e-05
0.000141825
9.60886e-05
0.000116032
0.00011975
0.000124614
9.48392e-05
6.1291e-06
-5.02391e-05
1.21398e-05
-5.04856e-05
1.82618e-05
-5.04037e-05
2.41107e-05
-5.04269e-05
2.99924e-05
-5.04719e-05
3.5752e-05
-5.08729e-05
4.17011e-05
-5.00948e-05
4.76149e-05
-5.29348e-05
5.35465e-05
-5.03741e-05
6.17776e-05
-5.38317e-05
6.92109e-05
-5.48921e-05
7.68946e-05
-5.42626e-05
8.69253e-05
-5.281e-05
9.86009e-05
-5.11318e-05
0.000111235
-4.67998e-05
0.000122683
-4.13472e-05
0.000132641
-2.43918e-05
0.000143171
-1.15984e-05
0.000151854
1.70827e-05
0.000155694
4.78214e-05
0.000170507
7.71935e-05
0.000162968
0.000129345
0.00014785
0.00012361
5.89415e-06
-5.61181e-05
1.17602e-05
-5.63365e-05
1.76772e-05
-5.63065e-05
2.33984e-05
-5.61343e-05
2.90321e-05
-5.60915e-05
3.4288e-05
-5.61111e-05
4.00651e-05
-5.58506e-05
4.50357e-05
-5.78816e-05
5.12623e-05
-5.65731e-05
5.98247e-05
-6.23817e-05
6.74084e-05
-6.24711e-05
7.70347e-05
-6.38001e-05
9.08894e-05
-6.6359e-05
0.000104597
-6.41903e-05
0.000117282
-5.88819e-05
0.000127591
-5.14599e-05
0.000139053
-3.61767e-05
0.000148141
-2.17248e-05
0.000155398
8.70773e-06
0.000161894
4.01776e-05
0.000172876
6.25657e-05
0.000179912
0.000118194
0.000155341
0.000164619
5.82755e-06
-6.18777e-05
1.16851e-05
-6.2117e-05
1.74389e-05
-6.19631e-05
2.31795e-05
-6.17393e-05
2.87154e-05
-6.14244e-05
3.40307e-05
-6.11044e-05
3.97627e-05
-6.10523e-05
4.44421e-05
-6.17549e-05
5.11096e-05
-6.23575e-05
5.85705e-05
-6.91878e-05
6.71341e-05
-7.08949e-05
7.88791e-05
-7.58922e-05
9.0312e-05
-7.97207e-05
9.87116e-05
-7.57501e-05
0.000104916
-6.85391e-05
0.000109608
-5.99238e-05
0.000113567
-4.44005e-05
0.000115401
-2.82618e-05
0.000120533
-5.3969e-07
0.000134484
2.293e-05
0.000148942
4.43951e-05
0.000171101
9.29361e-05
0.000147918
0.000173775
6.02909e-06
-2.86412e-05
1.20654e-05
-2.66885e-05
1.79918e-05
-2.52864e-05
2.37655e-05
-2.31653e-05
2.93047e-05
-2.06816e-05
3.45628e-05
-1.79907e-05
3.91968e-05
-1.57181e-05
4.24141e-05
-1.51091e-05
4.67246e-05
-2.00573e-05
5.17484e-05
-3.37986e-05
6.00319e-05
-4.67263e-05
6.49602e-05
-4.82272e-05
6.32312e-05
-3.17747e-05
5.70398e-05
-5.28963e-05
4.75492e-05
-5.28154e-05
3.67695e-05
-4.79648e-05
3.12023e-05
-3.68933e-05
3.33362e-05
-2.65889e-05
4.50157e-05
-8.58583e-06
6.66133e-05
3.56297e-06
8.89457e-05
2.35894e-05
0.000130847
5.12896e-05
0.000113567
0.000166609
5.90369e-06
-5.68676e-06
1.18802e-05
-5.81155e-06
1.81519e-05
-5.46541e-06
2.46199e-05
-5.0787e-06
3.11786e-05
-4.59338e-06
3.6865e-05
-3.97721e-06
3.98194e-05
-2.22006e-06
3.45394e-05
4.68444e-06
3.13272e-05
4.75758e-06
4.86333e-05
-9.01969e-06
4.97989e-05
1.65061e-05
2.66635e-05
4.23474e-05
1.8627e-05
2.54844e-05
-5.61614e-06
7.81384e-06
-1.11182e-05
-7.26099e-06
-1.03549e-05
-1.49396e-05
-7.43042e-06
-2.162e-05
3.8087e-09
-2.77454e-05
1.13802e-05
-1.71043e-05
2.7033e-05
-9.09132e-06
4.13967e-05
1.25584e-05
7.32878e-05
2.27201e-05
6.64355e-05
0.000124919
6.48844e-06
-2.33514e-05
1.28556e-05
-2.33581e-05
1.8946e-05
-2.2933e-05
2.48938e-05
-2.23092e-05
3.05025e-05
-2.1225e-05
3.5967e-05
-1.96902e-05
4.32995e-05
-1.72637e-05
3.83397e-05
-9.6338e-06
2.01152e-05
5.65914e-06
1.17596e-05
2.85108e-05
-8.19968e-06
5.53539e-05
-4.64457e-05
3.435e-05
-5.25273e-05
1.12214e-05
-5.26047e-05
1.0921e-05
-4.55873e-05
9.78403e-06
-2.5108e-05
5.15329e-06
-8.69013e-06
7.04839e-06
3.65406e-07
5.81569e-06
1.11543e-05
1.07212e-05
2.2602e-05
7.87424e-06
3.45068e-05
4.1394e-06
5.16316e-05
6.94325e-06
3.12112e-05
8.51745e-05
6.26192e-06
-6.59588e-05
1.1958e-05
-6.6122e-05
1.76253e-05
-6.68628e-05
2.2949e-05
-6.76012e-05
2.81383e-05
-6.88835e-05
3.47138e-05
-7.22424e-05
4.16905e-05
-7.50672e-05
4.07012e-05
-6.11456e-05
1.95694e-06
-7.38868e-06
-6.63295e-05
3.60708e-05
-9.91815e-05
1.43745e-05
-8.57197e-05
-3.91196e-05
-6.59182e-05
-5.84545e-05
-5.23549e-05
-4.35236e-05
-3.9872e-05
-3.23469e-05
-2.01411e-05
-1.50427e-05
-9.45327e-06
3.30021e-06
-5.08509e-06
1.56659e-05
5.74206e-06
3.00267e-05
9.27472e-06
3.71228e-05
4.50073e-05
4.83946e-05
6.14586e-05
5.08093e-05
5.99125e-05
8.387e-05
-1.3588e-05
-7.32174e-05
-2.69761e-05
-7.29624e-05
-3.96299e-05
-7.3156e-05
-5.05478e-05
-7.3842e-05
-5.74995e-05
-7.64692e-05
-5.69778e-05
-8.36307e-05
-4.71037e-05
-9.13262e-05
-2.15024e-05
-8.98049e-05
-3.84679e-06
-3.01285e-05
-4.95987e-05
5.75361e-05
-5.40232e-05
-1.1592e-05
-1.23195e-05
-0.000100554
2.48799e-06
-9.86043e-05
1.11079e-05
-8.68175e-05
9.93744e-06
-7.45972e-05
1.00789e-05
-6.44513e-05
1.5861e-05
-4.56519e-05
2.20288e-05
-2.90152e-05
3.16129e-05
-1.59221e-05
3.71581e-05
4.7976e-07
5.28208e-05
2.8002e-05
7.0577e-05
4.1078e-05
6.66948e-05
9.60859e-05
-1.35871e-05
-5.96478e-05
-2.46668e-05
-6.18967e-05
-3.28007e-05
-6.50319e-05
-3.68008e-05
-6.98475e-05
-3.76182e-05
-7.56542e-05
-3.87808e-05
-8.24685e-05
-4.53416e-05
-8.47655e-05
-5.76099e-05
-7.75407e-05
-5.08371e-05
-3.69334e-05
-3.3496e-06
9.89764e-06
5.39112e-05
-6.88637e-05
6.28969e-05
-0.000109542
7.75127e-05
-0.000113241
9.77212e-05
-0.000107257
0.000114536
-9.24872e-05
0.000112161
-6.96357e-05
9.85019e-05
-5.24609e-05
8.13082e-05
-4.14716e-05
6.55477e-05
-3.68671e-05
5.78162e-05
-3.66179e-05
6.3801e-05
-3.3979e-05
7.05535e-05
-2.51985e-05
-8.98687e-06
7.65231e-05
-7.26891e-06
-5.23789e-05
-1.22936e-05
-5.68721e-05
-1.58297e-05
-6.14958e-05
-1.82993e-05
-6.73779e-05
-2.02277e-05
-7.37258e-05
-2.2466e-05
-8.02302e-05
-2.449e-05
-8.27415e-05
-2.641e-05
-7.56207e-05
-2.29161e-05
-4.04273e-05
6.84921e-06
-1.98677e-05
1.51205e-05
-7.7135e-05
9.4612e-06
-0.000103882
2.54377e-06
-0.000106324
-3.98175e-06
-0.000100731
-5.55021e-06
-9.09187e-05
1.29824e-06
-7.64842e-05
1.24751e-05
-6.36427e-05
2.22651e-05
-5.13208e-05
3.05593e-05
-4.54208e-05
3.61568e-05
-4.2897e-05
2.92886e-05
-2.89914e-05
1.56397e-05
-1.7553e-05
4.8174e-07
-3.30611e-06
-2.28196e-06
-5.0097e-05
-4.25067e-06
-5.49034e-05
-6.37887e-06
-5.93676e-05
-9.12002e-06
-6.46368e-05
-1.29389e-05
-6.9907e-05
-1.88035e-05
-7.43656e-05
-2.55504e-05
-7.59946e-05
-2.87534e-05
-7.24177e-05
-6.52905e-06
-6.26517e-05
3.06485e-05
-5.70452e-05
3.42669e-05
-8.07534e-05
2.08301e-05
-9.04455e-05
9.88554e-06
-9.53794e-05
2.82032e-06
-9.36659e-05
7.43859e-07
-8.88423e-05
1.05238e-06
-7.67927e-05
1.37673e-07
-6.2728e-05
1.43031e-07
-5.13262e-05
-8.73168e-07
-4.44046e-05
-9.77415e-06
-3.3996e-05
-1.99932e-05
-1.87724e-05
-1.74336e-05
-2.01127e-05
3.95718e-07
-1.73476e-05
1.45893e-06
-5.15559e-05
2.5993e-06
-5.60438e-05
2.53483e-06
-5.93031e-05
1.15779e-06
-6.32597e-05
-1.51109e-06
-6.72381e-05
-5.45107e-06
-7.04256e-05
-9.7804e-06
-7.16652e-05
-1.21821e-05
-7.0016e-05
-9.07334e-06
-6.57605e-05
-1.95937e-06
-6.41592e-05
-4.8919e-06
-7.78208e-05
-9.9751e-06
-8.53623e-05
-1.33463e-05
-9.20082e-05
-1.36699e-05
-9.33422e-05
-1.26238e-05
-8.98884e-05
-9.93311e-06
-7.94834e-05
-8.05388e-06
-6.46073e-05
-9.23599e-06
-5.01441e-05
-1.68256e-05
-3.6815e-05
-3.09741e-05
-1.98475e-05
-5.11899e-05
1.44349e-06
-7.12169e-05
-8.56552e-08
3.69959e-06
-7.45208e-05
8.73427e-07
-5.24293e-05
1.55963e-06
-5.673e-05
1.44198e-06
-5.91854e-05
2.80237e-07
-6.2098e-05
-2.07792e-06
-6.48799e-05
-5.80897e-06
-6.66945e-05
-1.03221e-05
-6.71521e-05
-1.38212e-05
-6.65169e-05
-1.43595e-05
-6.52222e-05
-1.28145e-05
-6.57041e-05
-1.6777e-05
-7.38583e-05
-2.12367e-05
-8.09026e-05
-2.66585e-05
-8.65864e-05
-3.23679e-05
-8.76328e-05
-3.92831e-05
-8.29732e-05
-4.6467e-05
-7.22995e-05
-5.48477e-05
-5.62266e-05
-6.38286e-05
-4.11631e-05
-7.27264e-05
-2.79173e-05
-7.58774e-05
-1.66966e-05
-6.65087e-05
-7.92518e-06
-5.75558e-05
-9.03853e-06
-7.73124e-06
-4.6125e-05
8.46836e-07
-5.32762e-05
1.21654e-06
-5.70996e-05
8.29134e-07
-5.8798e-05
-6.56179e-07
-6.06126e-05
-3.61907e-06
-6.1917e-05
-7.66069e-06
-6.26528e-05
-1.19276e-05
-6.28851e-05
-1.56424e-05
-6.28021e-05
-1.7785e-05
-6.30795e-05
-1.86355e-05
-6.48536e-05
-2.26889e-05
-6.98049e-05
-2.87243e-05
-7.48672e-05
-3.83628e-05
-7.69479e-05
-4.90725e-05
-7.69231e-05
-5.7453e-05
-7.45927e-05
-6.41596e-05
-6.55928e-05
-7.04351e-05
-4.99512e-05
-7.46289e-05
-3.69693e-05
-7.57232e-05
-2.6823e-05
-7.49159e-05
-1.75038e-05
-7.21035e-05
-1.07376e-05
-7.32155e-05
-7.92656e-06
-6.7062e-06
-7.42405e-05
1.18179e-08
-5.3288e-05
-4.85496e-07
-5.66023e-05
-1.90084e-06
-5.73826e-05
-4.19142e-06
-5.8322e-05
-7.09859e-06
-5.90098e-05
-1.0332e-05
-5.94194e-05
-1.35266e-05
-5.96906e-05
-1.63596e-05
-5.9969e-05
-1.8784e-05
-6.06552e-05
-2.13079e-05
-6.23296e-05
-2.63467e-05
-6.47662e-05
-3.484e-05
-6.63739e-05
-4.55614e-05
-6.62265e-05
-5.60753e-05
-6.64092e-05
-6.64868e-05
-6.41812e-05
-7.53592e-05
-5.67204e-05
-8.0601e-05
-4.47093e-05
-8.1617e-05
-3.59532e-05
-7.76702e-05
-3.07697e-05
-7.02517e-05
-2.49224e-05
-6.36286e-05
-1.73606e-05
-5.75361e-05
-1.4019e-05
-1.20451e-05
-5.21972e-05
-8.15731e-07
-5.24722e-05
-2.10989e-06
-5.53081e-05
-3.86261e-06
-5.56299e-05
-5.92672e-06
-5.62579e-05
-8.15843e-06
-5.67781e-05
-1.0394e-05
-5.71839e-05
-1.25595e-05
-5.7525e-05
-1.46735e-05
-5.7855e-05
-1.71691e-05
-5.81596e-05
-2.0768e-05
-5.87307e-05
-2.61749e-05
-5.93593e-05
-3.35563e-05
-5.89925e-05
-4.12443e-05
-5.85385e-05
-5.00786e-05
-5.75749e-05
-5.88231e-05
-5.54366e-05
-6.39845e-05
-5.15591e-05
-6.41146e-05
-4.45791e-05
-6.33643e-05
-3.67035e-05
-6.2395e-05
-3.1739e-05
-6.04614e-05
-2.6856e-05
-5.79282e-05
-1.98938e-05
-5.709e-05
-1.48573e-05
-1.19521e-05
-5.7183e-05
-1.37375e-06
-5.10985e-05
-2.83098e-06
-5.38509e-05
-4.3783e-06
-5.40826e-05
-6.15663e-06
-5.44796e-05
-8.13022e-06
-5.48045e-05
-1.01786e-05
-5.51355e-05
-1.23243e-05
-5.53793e-05
-1.46336e-05
-5.55457e-05
-1.71761e-05
-5.56171e-05
-2.03542e-05
-5.55526e-05
-2.44214e-05
-5.52921e-05
-2.85797e-05
-5.48342e-05
-3.34298e-05
-5.36884e-05
-3.91611e-05
-5.18436e-05
-4.51002e-05
-4.94975e-05
-5.09281e-05
-4.57311e-05
-5.43013e-05
-4.12058e-05
-5.49827e-05
-3.6022e-05
-5.55599e-05
-3.11619e-05
-5.51213e-05
-2.72946e-05
-5.23974e-05
-2.26177e-05
-5.06845e-05
-1.65702e-05
-1.27172e-05
-4.99194e-05
-1.33804e-06
-4.97604e-05
-2.85241e-06
-5.23365e-05
-4.54163e-06
-5.23934e-05
-6.43506e-06
-5.25861e-05
-8.46768e-06
-5.27719e-05
-1.06644e-05
-5.29387e-05
-1.29602e-05
-5.30835e-05
-1.54028e-05
-5.31031e-05
-1.80496e-05
-5.29703e-05
-2.07872e-05
-5.2815e-05
-2.37601e-05
-5.23192e-05
-2.73792e-05
-5.12151e-05
-3.12302e-05
-4.98374e-05
-3.49446e-05
-4.81292e-05
-3.86737e-05
-4.57684e-05
-4.22653e-05
-4.21395e-05
-4.54649e-05
-3.80063e-05
-4.73743e-05
-3.41126e-05
-4.81015e-05
-3.04346e-05
-4.85246e-05
-2.68714e-05
-4.88642e-05
-2.22781e-05
-4.93501e-05
-1.60843e-05
-1.29355e-05
-4.91318e-05
-1.56591e-06
-4.81945e-05
-3.27075e-06
-5.06317e-05
-5.0442e-06
-5.06199e-05
-6.90528e-06
-5.0725e-05
-8.88796e-06
-5.07892e-05
-1.10414e-05
-5.07853e-05
-1.34119e-05
-5.0713e-05
-1.59609e-05
-5.05541e-05
-1.85628e-05
-5.03684e-05
-2.13852e-05
-4.99926e-05
-2.46042e-05
-4.91002e-05
-2.8026e-05
-4.77933e-05
-3.12959e-05
-4.65675e-05
-3.45925e-05
-4.48327e-05
-3.78096e-05
-4.25513e-05
-4.03865e-05
-3.95626e-05
-4.23475e-05
-3.60453e-05
-4.39585e-05
-3.25015e-05
-4.51475e-05
-2.92456e-05
-4.59656e-05
-2.60534e-05
-4.6432e-05
-2.18117e-05
-4.623e-05
-1.62864e-05
-1.38374e-05
-4.5328e-05
-1.42763e-06
-4.67669e-05
-2.99532e-06
-4.9064e-05
-4.66121e-06
-4.8954e-05
-6.44049e-06
-4.89458e-05
-8.35261e-06
-4.88771e-05
-1.03929e-05
-4.87451e-05
-1.25873e-05
-4.85186e-05
-1.49473e-05
-4.81941e-05
-1.75819e-05
-4.77337e-05
-2.04955e-05
-4.70791e-05
-2.32832e-05
-4.63125e-05
-2.57812e-05
-4.52952e-05
-2.8605e-05
-4.37438e-05
-3.16795e-05
-4.17582e-05
-3.46719e-05
-3.95589e-05
-3.70231e-05
-3.72114e-05
-3.87242e-05
-3.43442e-05
-4.02257e-05
-3.1e-05
-4.17184e-05
-2.7753e-05
-4.29878e-05
-2.4784e-05
-4.35036e-05
-2.12959e-05
-4.29163e-05
-1.68736e-05
-1.45502e-05
-4.22035e-05
-1.56271e-06
-4.52041e-05
-3.22522e-06
-4.74015e-05
-4.9352e-06
-4.7244e-05
-6.72505e-06
-4.71559e-05
-8.61423e-06
-4.69879e-05
-1.06139e-05
-4.67454e-05
-1.27101e-05
-4.64224e-05
-1.48834e-05
-4.60207e-05
-1.71026e-05
-4.55146e-05
-1.93721e-05
-4.48096e-05
-2.18202e-05
-4.38644e-05
-2.4479e-05
-4.26363e-05
-2.70467e-05
-4.11761e-05
-2.93324e-05
-3.94725e-05
-3.16996e-05
-3.71918e-05
-3.42324e-05
-3.46787e-05
-3.62845e-05
-3.22921e-05
-3.76399e-05
-2.96445e-05
-3.85013e-05
-2.68917e-05
-3.9317e-05
-2.39683e-05
-4.01228e-05
-2.04901e-05
-3.98289e-05
-1.71675e-05
-1.50744e-05
-3.93048e-05
-1.54729e-06
-4.36568e-05
-3.17924e-06
-4.57695e-05
-4.82161e-06
-4.56016e-05
-6.49658e-06
-4.54809e-05
-8.19977e-06
-4.52847e-05
-9.93505e-06
-4.50101e-05
-1.17206e-05
-4.46368e-05
-1.36047e-05
-4.41366e-05
-1.56621e-05
-4.34572e-05
-1.79358e-05
-4.25359e-05
-2.04311e-05
-4.13691e-05
-2.29457e-05
-4.01217e-05
-2.53812e-05
-3.87407e-05
-2.77917e-05
-3.7062e-05
-2.97684e-05
-3.5215e-05
-3.11852e-05
-3.32619e-05
-3.25369e-05
-3.09405e-05
-3.39913e-05
-2.81901e-05
-3.54764e-05
-2.54065e-05
-3.68174e-05
-2.26273e-05
-3.73811e-05
-1.99265e-05
-3.71182e-05
-1.74305e-05
-1.50808e-05
-3.71118e-05
-1.4817e-06
-4.21751e-05
-3.05124e-06
-4.42e-05
-4.65377e-06
-4.39991e-05
-6.31645e-06
-4.38183e-05
-8.05097e-06
-4.35502e-05
-9.8651e-06
-4.3196e-05
-1.17557e-05
-4.27463e-05
-1.37072e-05
-4.2185e-05
-1.56791e-05
-4.14854e-05
-1.75894e-05
-4.06256e-05
-1.94015e-05
-3.95569e-05
-2.11809e-05
-3.83423e-05
-2.30101e-05
-3.69114e-05
-2.48223e-05
-3.52498e-05
-2.66966e-05
-3.33408e-05
-2.87936e-05
-3.11649e-05
-3.08219e-05
-2.89122e-05
-3.22956e-05
-2.67165e-05
-3.32908e-05
-2.44113e-05
-3.381e-05
-2.21081e-05
-3.42678e-05
-1.94687e-05
-3.47813e-05
-1.6917e-05
-1.48068e-05
-3.50553e-05
-1.41708e-06
-4.07581e-05
-2.90463e-06
-4.27124e-05
-4.40443e-06
-4.24993e-05
-5.93617e-06
-4.22865e-05
-7.50798e-06
-4.19784e-05
-9.13164e-06
-4.15724e-05
-1.08195e-05
-4.10584e-05
-1.25795e-05
-4.0425e-05
-1.44069e-05
-3.9658e-05
-1.62916e-05
-3.87409e-05
-1.81904e-05
-3.76581e-05
-2.01484e-05
-3.63844e-05
-2.21054e-05
-3.49544e-05
-2.39835e-05
-3.33717e-05
-2.56604e-05
-3.16639e-05
-2.69903e-05
-2.98349e-05
-2.8035e-05
-2.78676e-05
-2.90691e-05
-2.56824e-05
-3.01721e-05
-2.33083e-05
-3.13672e-05
-2.0913e-05
-3.21513e-05
-1.86847e-05
-3.25745e-05
-1.64938e-05
-1.43389e-05
-3.30424e-05
-1.37422e-06
-3.93838e-05
-2.81683e-06
-4.12698e-05
-4.269e-06
-4.10471e-05
-5.7464e-06
-4.08091e-05
-7.24792e-06
-4.04768e-05
-8.77277e-06
-4.00475e-05
-1.03216e-05
-3.95096e-05
-1.18987e-05
-3.88479e-05
-1.35106e-05
-3.80461e-05
-1.51566e-05
-3.70949e-05
-1.68106e-05
-3.60042e-05
-1.84005e-05
-3.47945e-05
-1.99311e-05
-3.34237e-05
-2.14218e-05
-3.18811e-05
-2.29068e-05
-3.01789e-05
-2.44061e-05
-2.83357e-05
-2.59041e-05
-2.63696e-05
-2.7239e-05
-2.43475e-05
-2.82719e-05
-2.22754e-05
-2.90528e-05
-2.01322e-05
-2.97699e-05
-1.79675e-05
-3.04438e-05
-1.582e-05
-1.37352e-05
-3.10475e-05
-1.28085e-06
-3.8103e-05
-2.62181e-06
-3.99289e-05
-3.96908e-06
-3.96999e-05
-5.33925e-06
-3.94389e-05
-6.73946e-06
-3.90766e-05
-8.17493e-06
-3.8612e-05
-9.64578e-06
-3.80388e-05
-1.11433e-05
-3.73504e-05
-1.26492e-05
-3.65402e-05
-1.41465e-05
-3.55976e-05
-1.56407e-05
-3.451e-05
-1.71569e-05
-3.32782e-05
-1.86643e-05
-3.19164e-05
-2.0113e-05
-3.04323e-05
-2.1473e-05
-2.88189e-05
-2.27278e-05
-2.70809e-05
-2.38578e-05
-2.52396e-05
-2.49107e-05
-2.32946e-05
-2.5924e-05
-2.12621e-05
-2.68623e-05
-1.91939e-05
-2.76773e-05
-1.71526e-05
-2.83843e-05
-1.5113e-05
-1.30593e-05
-2.90602e-05
-1.19744e-06
-3.69055e-05
-2.45504e-06
-3.86713e-05
-3.71326e-06
-3.84416e-05
-4.98804e-06
-3.81642e-05
-6.2805e-06
-3.77842e-05
-7.59246e-06
-3.73001e-05
-8.92504e-06
-3.67062e-05
-1.02787e-05
-3.59968e-05
-1.16518e-05
-3.5167e-05
-1.3035e-05
-3.42144e-05
-1.44063e-05
-3.31387e-05
-1.57458e-05
-3.19387e-05
-1.70531e-05
-3.06091e-05
-1.8335e-05
-2.91504e-05
-1.95805e-05
-2.75735e-05
-2.0773e-05
-2.58883e-05
-2.19076e-05
-2.4105e-05
-2.29607e-05
-2.22415e-05
-2.3913e-05
-2.03099e-05
-2.47754e-05
-1.83315e-05
-2.55862e-05
-1.63418e-05
-2.63513e-05
-1.43479e-05
-1.23307e-05
-2.708e-05
-1.11337e-06
-3.57922e-05
-2.27426e-06
-3.75104e-05
-3.43578e-06
-3.72801e-05
-4.61088e-06
-3.69891e-05
-5.80129e-06
-3.65938e-05
-7.00791e-06
-3.60934e-05
-8.22935e-06
-3.54847e-05
-9.46175e-06
-3.47644e-05
-1.06999e-05
-3.39289e-05
-1.1939e-05
-3.29753e-05
-1.31762e-05
-3.19014e-05
-1.44068e-05
-3.07081e-05
-1.56171e-05
-2.93988e-05
-1.67905e-05
-2.7977e-05
-1.79191e-05
-2.64449e-05
-1.89976e-05
-2.48099e-05
-2.00194e-05
-2.30832e-05
-2.09855e-05
-2.12754e-05
-2.18961e-05
-1.93993e-05
-2.27529e-05
-1.74747e-05
-2.35649e-05
-1.55298e-05
-2.43417e-05
-1.35711e-05
-1.1577e-05
-2.50954e-05
-1.01436e-06
-3.47778e-05
-2.07605e-06
-3.64487e-05
-3.13561e-06
-3.62206e-05
-4.20688e-06
-3.59178e-05
-5.29084e-06
-3.55098e-05
-6.38812e-06
-3.49962e-05
-7.49796e-06
-3.43749e-05
-8.61799e-06
-3.36443e-05
-9.74397e-06
-3.28029e-05
-1.08697e-05
-3.18496e-05
-1.19874e-05
-3.07837e-05
-1.30902e-05
-2.96054e-05
-1.41733e-05
-2.83157e-05
-1.52328e-05
-2.69175e-05
-1.62612e-05
-2.54165e-05
-1.72516e-05
-2.38195e-05
-1.82002e-05
-2.21346e-05
-1.91035e-05
-2.03721e-05
-1.99607e-05
-1.85421e-05
-2.07781e-05
-1.66574e-05
-2.15691e-05
-1.47388e-05
-2.23425e-05
-1.27977e-05
-1.08166e-05
-2.31029e-05
-9.18174e-07
-3.38596e-05
-1.87675e-06
-3.54901e-05
-2.83309e-06
-3.52642e-05
-3.79974e-06
-3.49511e-05
-4.77687e-06
-3.45327e-05
-5.76463e-06
-3.40084e-05
-6.76218e-06
-3.33773e-05
-7.76719e-06
-3.26393e-05
-8.77636e-06
-3.17938e-05
-9.78558e-06
-3.08403e-05
-1.07902e-05
-2.9779e-05
-1.1785e-05
-2.86106e-05
-1.27638e-05
-2.73369e-05
-1.37205e-05
-2.59608e-05
-1.46507e-05
-2.44863e-05
-1.5551e-05
-2.29192e-05
-1.64189e-05
-2.12667e-05
-1.72541e-05
-1.95369e-05
-1.80578e-05
-1.77384e-05
-1.88344e-05
-1.58807e-05
-1.95941e-05
-1.39791e-05
-2.03462e-05
-1.20456e-05
-1.00686e-05
-2.10942e-05
-8.13291e-07
-3.30464e-05
-1.66593e-06
-3.46375e-05
-2.5161e-06
-3.4414e-05
-3.37629e-06
-3.4091e-05
-4.24641e-06
-3.36626e-05
-5.12669e-06
-3.31281e-05
-6.01662e-06
-3.24874e-05
-6.914e-06
-3.17419e-05
-7.81537e-06
-3.08924e-05
-8.71652e-06
-2.99392e-05
-9.61287e-06
-2.88827e-05
-1.05e-05
-2.77234e-05
-1.13741e-05
-2.64628e-05
-1.22314e-05
-2.51035e-05
-1.30684e-05
-2.36493e-05
-1.38826e-05
-2.2105e-05
-1.46727e-05
-2.04766e-05
-1.5439e-05
-1.87706e-05
-1.61835e-05
-1.6994e-05
-1.69105e-05
-1.51537e-05
-1.76289e-05
-1.32607e-05
-1.83476e-05
-1.1327e-05
-9.34664e-06
-1.90696e-05
-7.04343e-07
-3.2342e-05
-1.44908e-06
-3.38927e-05
-2.19184e-06
-3.36713e-05
-2.94434e-06
-3.33385e-05
-3.70614e-06
-3.29008e-05
-4.47766e-06
-3.23566e-05
-5.25943e-06
-3.17057e-05
-6.04985e-06
-3.09515e-05
-6.84566e-06
-3.00966e-05
-7.64274e-06
-2.91421e-05
-8.43665e-06
-2.80888e-05
-9.22338e-06
-2.69367e-05
-9.99957e-06
-2.56866e-05
-1.07621e-05
-2.4341e-05
-1.15086e-05
-2.29028e-05
-1.22379e-05
-2.13758e-05
-1.29495e-05
-1.9765e-05
-1.36446e-05
-1.80756e-05
-1.43258e-05
-1.63128e-05
-1.49972e-05
-1.44822e-05
-1.56664e-05
-1.25915e-05
-1.63418e-05
-1.06516e-05
-8.66192e-06
-1.70266e-05
-5.87804e-07
-3.17542e-05
-1.2257e-06
-3.32548e-05
-1.86154e-06
-3.30354e-05
-2.50551e-06
-3.26945e-05
-3.15695e-06
-3.22493e-05
-3.81634e-06
-3.16972e-05
-4.48688e-06
-3.10351e-05
-5.16888e-06
-3.02695e-05
-5.85994e-06
-2.94055e-05
-6.55639e-06
-2.84457e-05
-7.25316e-06
-2.7392e-05
-7.94538e-06
-2.62445e-05
-8.62992e-06
-2.50021e-05
-9.30312e-06
-2.36678e-05
-9.96302e-06
-2.22429e-05
-1.06093e-05
-2.07296e-05
-1.12425e-05
-1.91318e-05
-1.18641e-05
-1.7454e-05
-1.24775e-05
-1.56994e-05
-1.30875e-05
-1.38723e-05
-1.37008e-05
-1.19782e-05
-1.43255e-05
-1.00269e-05
-8.02189e-06
-1.49656e-05
-4.66473e-07
-3.12877e-05
-1.00676e-06
-3.27145e-05
-1.54367e-06
-3.24985e-05
-2.08302e-06
-3.21551e-05