/*--------------------------------*- C++ -*----------------------------------*\
| =========                 |                                                 |
| \\      /  F ield         | OpenFOAM: The Open Source CFD Toolbox           |
|  \\    /   O peration     | Version:  2.4.0                                 |
|   \\  /    A nd           | Web:      www.OpenFOAM.org                      |
|    \\/     M anipulation  |                                                 |
\*---------------------------------------------------------------------------*/
FoamFile
{
    version     2.0;
    format      ascii;
    class       surfaceScalarField;
    location    "0.3";
    object      phi.mercury;
}
// * * * * * * * * * * * * * * * * * * * * * * * * * * * * * * * * * * * * * //

dimensions      [0 3 -1 0 0 0 0];

internalField   nonuniform List<scalar> 
4432
(
3.48176e-06
-3.48176e-06
6.97981e-06
-3.49805e-06
1.04597e-05
-3.47991e-06
1.41008e-05
-3.6411e-06
1.73541e-05
-3.25325e-06
2.16619e-05
-4.30785e-06
2.44958e-05
-2.83389e-06
2.84672e-05
-3.97141e-06
3.30927e-05
-4.62547e-06
3.68472e-05
-3.75453e-06
3.97459e-05
-2.89868e-06
4.30905e-05
-3.34459e-06
4.72307e-05
-4.14022e-06
5.19774e-05
-4.74674e-06
5.59262e-05
-3.94876e-06
5.79209e-05
-1.99471e-06
5.76564e-05
2.64514e-07
5.49936e-05
2.66279e-06
4.95578e-05
5.43581e-06
3.99071e-05
9.65067e-06
2.75474e-05
1.23597e-05
1.27342e-05
1.48133e-05
1.27333e-05
3.48255e-06
-6.96431e-06
6.98163e-06
-6.99712e-06
1.04593e-05
-6.95762e-06
1.40997e-05
-7.28142e-06
1.74087e-05
-6.56228e-06
2.1547e-05
-8.44613e-06
2.45588e-05
-5.84572e-06
2.8587e-05
-7.99962e-06
3.30994e-05
-9.1379e-06
3.6703e-05
-7.3581e-06
3.97139e-05
-5.90957e-06
4.32981e-05
-6.92881e-06
4.78816e-05
-8.72372e-06
5.2507e-05
-9.37208e-06
5.62742e-05
-7.71602e-06
5.80128e-05
-3.73329e-06
5.79061e-05
3.71264e-07
5.53452e-05
5.22365e-06
5.00549e-05
1.07261e-05
4.2021e-05
1.76846e-05
3.01615e-05
2.42193e-05
1.53617e-05
2.96132e-05
2.80945e-05
3.4797e-06
-1.0444e-05
6.97137e-06
-1.04888e-05
1.04514e-05
-1.04376e-05
1.40769e-05
-1.09069e-05
1.74486e-05
-9.934e-06
2.1364e-05
-1.23615e-05
2.46974e-05
-9.17917e-06
2.87092e-05
-1.20114e-05
3.27997e-05
-1.32284e-05
3.63679e-05
-1.09263e-05
3.99642e-05
-9.50586e-06
4.42415e-05
-1.12061e-05
4.83897e-05
-1.2872e-05
5.24331e-05
-1.34154e-05
5.58837e-05
-1.11667e-05
5.77641e-05
-5.61377e-06
5.81967e-05
-6.15816e-08
5.74138e-05
6.00631e-06
5.28456e-05
1.52941e-05
4.5147e-05
2.53829e-05
2.94177e-05
3.99486e-05
1.5556e-05
4.34751e-05
4.36501e-05
3.47573e-06
-1.39197e-05
6.95506e-06
-1.39681e-05
1.04448e-05
-1.39274e-05
1.40398e-05
-1.45019e-05
1.74669e-05
-1.33611e-05
2.1206e-05
-1.61006e-05
2.4775e-05
-1.27481e-05
2.87253e-05
-1.59617e-05
3.24284e-05
-1.69315e-05
3.59633e-05
-1.44612e-05
4.06164e-05
-1.41589e-05
4.50855e-05
-1.56757e-05
4.88988e-05
-1.6691e-05
5.19865e-05
-1.65331e-05
5.49579e-05
-1.42273e-05
5.68283e-05
-7.65087e-06
5.94322e-05
-3.01469e-06
6.11098e-05
4.03725e-06
5.86518e-05
1.76012e-05
5.19888e-05
3.19888e-05
3.57513e-05
5.61813e-05
1.62286e-05
6.29978e-05
5.98782e-05
3.46928e-06
-1.7389e-05
6.93587e-06
-1.74347e-05
1.04265e-05
-1.7418e-05
1.40003e-05
-1.80757e-05
1.74239e-05
-1.67847e-05
2.10734e-05
-1.97502e-05
2.48096e-05
-1.64845e-05
2.86128e-05
-1.97666e-05
3.20836e-05
-2.04103e-05
3.59434e-05
-1.83414e-05
4.11917e-05
-1.94618e-05
4.54734e-05
-2.01178e-05
4.91088e-05
-2.09549e-05
5.17194e-05
-2.10016e-05
5.44896e-05
-2.11334e-05
5.86231e-05
-1.91605e-05
6.43124e-05
-1.99528e-05
6.62984e-05
-1.64936e-05
6.36658e-05
2.37664e-06
5.53651e-05
3.06036e-05
4.00959e-05
7.00295e-05
2.11835e-05
8.18815e-05
8.10606e-05
3.46385e-06
-2.08634e-05
6.92182e-06
-2.09055e-05
1.04123e-05
-2.09257e-05
1.39537e-05
-2.1644e-05
1.73706e-05
-2.02371e-05
2.10314e-05
-2.34925e-05
2.48812e-05
-2.04499e-05
2.84258e-05
-2.3558e-05
3.19898e-05
-2.45879e-05
3.6503e-05
-2.40668e-05
4.13202e-05
-2.65519e-05
4.53968e-05
-2.85907e-05
4.97038e-05
-3.4285e-05
5.21932e-05
-3.95368e-05
5.50333e-05
-4.97036e-05
5.80727e-05
-5.9155e-05
5.88049e-05
-6.07583e-05
6.06765e-05
-5.3283e-05
6.02528e-05
-2.87262e-05
5.03275e-05
1.48919e-05
3.97351e-05
7.26956e-05
2.24774e-05
9.84046e-05
0.000103525
3.47451e-06
-2.50692e-05
6.94705e-06
-2.51801e-05
1.04463e-05
-2.53679e-05
1.39305e-05
-2.63281e-05
1.74747e-05
-2.52531e-05
2.09248e-05
-2.91929e-05
2.51953e-05
-2.7711e-05
2.81956e-05
-3.08658e-05
3.19847e-05
-3.47092e-05
3.66922e-05
-3.79889e-05
4.04276e-05
-4.38198e-05
4.33425e-05
-5.23643e-05
4.6067e-05
-6.9888e-05
4.7469e-05
-8.27996e-05
4.41803e-05
-9.04177e-05
3.92386e-05
-8.10011e-05
3.64983e-05
-5.5333e-05
4.43302e-05
-4.19273e-05
5.63558e-05
-3.43989e-05
4.77171e-05
-3.51952e-06
3.31895e-05
6.58622e-05
2.15824e-05
0.00010673
0.000125025
3.48415e-06
-3.48044e-05
6.96815e-06
-3.51151e-05
1.04537e-05
-3.57135e-05
1.37751e-05
-3.7178e-05
1.75298e-05
-3.7296e-05
2.05547e-05
-4.20624e-05
2.48737e-05
-4.34626e-05
2.77135e-05
-4.7604e-05
3.07293e-05
-5.57668e-05
3.38951e-05
-6.38022e-05
3.51449e-05
-7.07795e-05
3.49109e-05
-8.16058e-05
3.27274e-05
-9.7496e-05
3.15712e-05
-0.000106578
2.97979e-05
-8.67687e-05
2.88722e-05
-5.98836e-05
3.06457e-05
-2.4867e-05
3.39054e-05
-8.0872e-06
3.84536e-05
-3.95975e-06
4.22204e-05
-9.30825e-06
2.45596e-05
5.37099e-05
1.78236e-05
0.000105487
0.000142565
-8.5748e-05
4.83295e-05
-0.000119603
1.61899e-05
-0.00012578
-8.14601e-06
-0.000114329
-3.11511e-05
-9.16165e-05
-5.33769e-05
-6.10902e-05
-7.94887e-05
-3.58341e-05
-9.97895e-05
-1.11092e-05
-0.000118864
1.28513e-05
-0.000122602
3.30907e-05
-0.000125101
4.97978e-05
-9.49815e-05
8.01291e-05
-0.000105283
9.5002e-05
-0.000127448
7.64777e-05
-0.000125926
4.22285e-05
-7.40077e-05
3.18652e-05
-9.19097e-06
1.09091e-05
2.01022e-05
-1.92525e-06
8.59329e-06
-4.66025e-06
-8.10622e-05
0.000103374
-0.000116148
5.1472e-05
-0.000122753
1.01017e-05
-0.000105362
-2.9742e-05
-8.53207e-05
-6.39993e-05
-5.40895e-05
-0.000106203
-1.86381e-05
-0.000141797
7.31501e-06
-0.000160898
2.82252e-05
-0.000172108
5.14037e-05
-0.000183841
7.83392e-05
-0.000174005
0.000105478
-0.000195829
0.000115188
-0.000205526
0.00011028
-0.000192406
7.98913e-05
-0.000141864
3.68148e-05
-4.28034e-05
2.32655e-05
3.35202e-05
4.06602e-06
2.8888e-05
-9.72532e-07
-7.17446e-05
0.000161237
-0.000109656
9.33906e-05
-0.0001125
1.97427e-05
-9.87218e-05
-2.94685e-05
-7.70708e-05
-6.96528e-05
-3.94956e-05
-0.000126596
-4.36872e-08
-0.000165381
2.48419e-05
-0.000178757
4.82356e-05
-0.00019966
7.82716e-05
-0.000218518
0.000104198
-0.000227368
0.000120169
-0.000234825
0.000124433
-0.000226324
0.0001197
-0.000212667
9.50525e-05
-0.000158351
4.69426e-05
-4.81302e-05
3.32243e-05
3.07646e-05
1.08205e-05
4.62108e-05
4.79278e-06
-6.29645e-05
0.000215555
-9.4141e-05
0.000130919
-9.22103e-05
3.24839e-05
-7.42596e-05
-2.40844e-05
-5.63094e-05
-6.93196e-05
-1.94631e-05
-0.000131708
2.15364e-05
-0.000171333
4.65212e-05
-0.000185305
6.86588e-05
-0.000210722
9.49213e-05
-0.000229831
0.000114001
-0.000237536
0.000125899
-0.000238459
0.000128963
-0.000230134
0.000123312
-0.000214942
9.92861e-05
-0.000156271
6.48699e-05
-3.35991e-05
2.99107e-05
5.26887e-05
2.00989e-05
6.73323e-05
2.77629e-05
-5.27747e-05
0.000260813
-6.72156e-05
0.00015914
-6.11155e-05
3.90617e-05
-5.11794e-05
-2.53782e-05
-3.60898e-05
-5.85217e-05
3.28306e-06
-0.000129715
4.42193e-05
-0.000167614
6.22849e-05
-0.000182096
7.9791e-05
-0.000213267
0.000101545
-0.000229204
0.000117833
-0.000232187
0.000128079
-0.000233963
0.000131291
-0.000226371
0.000123693
-0.000208452
9.82278e-05
-0.000134213
7.02359e-05
2.85903e-06
3.18158e-05
8.09494e-05
1.87999e-05
9.21637e-05
4.74813e-05
-4.28223e-05
0.000295775
-3.85548e-05
0.000169242
-2.37133e-05
1.77233e-05
-2.1502e-05
-5.3718e-05
-1.228e-05
-8.92194e-05
2.95521e-05
-0.000112103
6.30589e-05
-0.000161086
6.9658e-05
-0.000180501
8.65065e-05
-0.000214523
0.000106241
-0.000226482
0.000119401
-0.000226318
0.00012854
-0.000232465
0.000131365
-0.000226325
0.000120728
-0.000197272
9.3017e-05
-8.41028e-05
6.82318e-05
4.59156e-05
3.45646e-05
0.000104032
2.18929e-05
0.000111453
6.89675e-05
-2.85992e-05
0.000210586
-1.64468e-05
0.000143286
2.131e-06
5.94825e-05
8.40597e-06
-6.01298e-05
1.00311e-05
-8.03984e-05
4.17996e-05
-9.17529e-05
7.29498e-05
-0.000157778
7.46232e-05
-0.000178548
9.17274e-05
-0.000216198
0.000110609
-0.000222997
0.000120108
-0.000220458
0.000127563
-0.000229478
0.000128115
-0.000227562
0.000114207
-0.000179764
9.26536e-05
-1.60722e-05
7.14406e-05
8.30566e-05
4.27739e-05
0.000124226
2.66124e-05
0.000138443
9.78059e-05
-1.21462e-05
9.64538e-05
2.04338e-06
8.43347e-05
1.03096e-05
7.10971e-05
-6.21802e-06
1.19858e-05
1.72513e-05
-8.97749e-05
3.76333e-05
-8.5518e-05
7.84712e-05
-0.000146876
7.89266e-05
-0.000176881
9.93682e-05
-0.000220265
0.000108854
-0.00022194
0.00012079
-0.000217876
0.000126863
-0.000228364
0.000121665
-0.000229644
0.000107156
-0.00017709
9.70788e-05
2.15059e-05
7.5401e-05
0.000103068
4.17719e-05
0.00014522
2.49275e-05
0.000161255
0.000125418
7.21579e-06
-8.1035e-05
1.4407e-05
-8.1486e-05
2.1363e-05
-8.21822e-05
2.75393e-05
-8.34178e-05
3.47324e-05
-8.51659e-05
3.97561e-05
-8.87743e-05
4.46526e-05
-9.19534e-05
4.96439e-05
-9.64527e-05
4.98818e-05
-0.000101846
5.01118e-05
-9.7355e-05
5.39007e-05
-7.72296e-05
5.81023e-05
-6.71742e-05
6.18927e-05
-6.34346e-05
6.12578e-05
-6.18671e-05
7.18326e-05
-3.61095e-05
7.68748e-05
-1.91831e-05
7.57593e-05
-6.60374e-06
7.02706e-05
1.56154e-06
7.31336e-05
1.59792e-05
7.55161e-05
1.7818e-05
5.59482e-05
3.52785e-05
4.97851e-05
8.34786e-05
0.00012587
6.26357e-05
4.26577e-06
-8.96566e-05
8.67666e-06
-8.74302e-05
1.28818e-05
-8.34708e-05
1.70162e-05
-7.92122e-05
2.15845e-05
-7.58445e-05
2.5487e-05
-7.40202e-05
2.95692e-05
-7.21156e-05
3.5044e-05
-7.21728e-05
3.89412e-05
-6.94978e-05
4.39668e-05
-6.08415e-05
5.43027e-05
-4.65505e-05
6.13248e-05
-3.56825e-05
7.50202e-05
-3.10299e-05
8.29122e-05
-2.63537e-05
8.68246e-05
-1.98473e-05
9.42868e-05
-1.74039e-05
0.000103208
-1.04895e-05
0.000107051
7.62998e-07
9.78722e-05
1.7993e-05
8.12564e-05
4.16472e-05
8.97731e-05
3.84812e-05
7.33544e-05
7.12925e-05
0.000114152
7.53043e-05
4.282e-06
-5.03711e-05
8.79464e-06
-4.88185e-05
1.40932e-05
-4.56435e-05
2.02946e-05
-4.20853e-05
2.67543e-05
-3.85307e-05
3.31725e-05
-3.63478e-05
3.89213e-05
-3.44978e-05
4.52592e-05
-3.54252e-05
5.18933e-05
-3.35263e-05
5.92094e-05
-3.40697e-05
6.87118e-05
-3.66777e-05
7.67057e-05
-3.60239e-05
8.34435e-05
-3.32384e-05
9.18526e-05
-3.1246e-05
0.000102694
-2.77667e-05
0.000114284
-2.50387e-05
0.00012051
-1.19466e-05
0.00012696
-7.37872e-07
0.000114284
2.23187e-05
9.83266e-05
4.60226e-05
0.000128693
4.90433e-05
0.000111016
6.88914e-05
0.000115982
9.09202e-05
6.10233e-06
-3.48716e-05
1.20943e-05
-3.53764e-05
1.81762e-05
-3.57862e-05
2.40071e-05
-3.68364e-05
2.98486e-05
-3.80925e-05
3.56123e-05
-4.00088e-05
4.13894e-05
-4.07996e-05
4.73461e-05
-4.56609e-05
5.32177e-05
-4.50538e-05
6.13995e-05
-4.97376e-05
6.87501e-05
-5.22143e-05
7.67067e-05
-5.29631e-05
8.67842e-05
-5.17866e-05
9.8442e-05
-5.04712e-05
0.000111141
-4.65784e-05
0.000122642
-4.14728e-05
0.000132641
-2.46556e-05
0.000143197
-1.19238e-05
0.000121936
1.71094e-05
0.000105023
4.58552e-05
0.000143716
5.22216e-05
0.000143321
6.62809e-05
0.000124895
0.000115526
5.89173e-06
-5.60817e-05
1.17547e-05
-5.63053e-05
1.76752e-05
-5.62862e-05
2.33967e-05
-5.61192e-05
2.90297e-05
-5.60837e-05
3.42854e-05
-5.61148e-05
4.00602e-05
-5.58617e-05
4.50309e-05
-5.79088e-05
5.12575e-05
-5.6605e-05
5.98152e-05
-6.23987e-05
6.74043e-05
-6.24843e-05
7.70398e-05
-6.38588e-05
9.08863e-05
-6.65204e-05
0.000104586
-6.45549e-05
0.000117282
-5.93115e-05
0.000127599
-5.18913e-05
0.00013905
-3.65823e-05
0.000148126
-2.20829e-05
0.000150101
8.30199e-06
9.583e-05
4.01472e-05
0.000142443
4.97087e-05
0.000153102
6.22823e-05
0.000124316
0.000138047
5.82753e-06
-6.19698e-05
1.1685e-05
-6.22186e-05
1.74386e-05
-6.2084e-05
2.31789e-05
-6.18985e-05
2.87145e-05
-6.1652e-05
3.40296e-05
-6.14558e-05
3.9761e-05
-6.16167e-05
4.4441e-05
-6.26026e-05
5.11072e-05
-6.32876e-05
5.85696e-05
-6.98741e-05
6.71557e-05
-7.10168e-05
7.88847e-05
-7.53107e-05
9.03393e-05
-7.80197e-05
9.87606e-05
-7.42149e-05
0.000104961
-6.79158e-05
0.000109632
-5.98607e-05
0.000113577
-4.43656e-05
0.00011539
-2.81118e-05
0.000120692
-3.8662e-07
7.47917e-05
2.3079e-05
0.000119748
3.66753e-05
0.000142479
5.50396e-05
0.000113863
0.000140561
6.02917e-06
-6.80166e-05
1.20653e-05
-6.82752e-05
1.79907e-05
-6.80342e-05
2.37619e-05
-6.77019e-05
2.92957e-05
-6.723e-05
3.45463e-05
-6.67703e-05
3.91736e-05
-6.63373e-05
4.24084e-05
-6.59582e-05
4.66883e-05
-6.76726e-05
5.16106e-05
-7.48221e-05
5.97592e-05
-7.9007e-05
6.41625e-05
-8.05951e-05
6.24552e-05
-7.92885e-05
5.67278e-05
-7.21287e-05
4.75514e-05
-6.20271e-05
3.68716e-05
-5.14977e-05
3.13393e-05
-3.82957e-05
3.34191e-05
-2.68336e-05
4.49826e-05
-8.18433e-06
5.45745e-05
3.97419e-06
6.95041e-05
1.96976e-05
0.000117453
3.70214e-05
8.83315e-05
0.000135456
6.14852e-06
-7.71919e-05
1.22162e-05
-7.75548e-05
1.82106e-05
-7.7551e-05
2.40074e-05
-7.75145e-05
2.94687e-05
-7.74049e-05
3.43149e-05
-7.72887e-05
3.77556e-05
-7.67406e-05
3.86767e-05
-7.54701e-05
3.79539e-05
-7.48123e-05
3.81304e-05
-7.87602e-05
3.43868e-05
-7.9059e-05
1.99406e-05
-7.32175e-05
3.95619e-06
-6.75896e-05
-8.0806e-06
-5.94025e-05
-1.11816e-05
-5.53124e-05
-1.02254e-05
-4.8424e-05
-7.41056e-06
-3.81329e-05
2.69282e-09
-3.25023e-05
1.13646e-05
-1.787e-05
2.7202e-05
-9.83513e-06
2.60818e-05
1.28684e-05
7.03827e-05
1.7292e-05
5.00523e-05
0.000120275
6.61742e-06
-0.000118924
1.30594e-05
-0.000120328
1.93219e-05
-0.000122108
2.53868e-05
-0.000124957
3.10405e-05
-0.000128629
3.615e-05
-0.00013358
4.02345e-05
-0.00013966
3.93787e-05
-0.000135458
2.68216e-05
-0.000124971
5.40281e-06
-0.000113193
-2.33173e-05
-0.000105921
-4.32628e-05
-0.000101772
-4.30461e-05
-9.57599e-05
-3.71266e-05
-7.94607e-05
-2.968e-05
-7.13298e-05
-2.03631e-05
-6.1483e-05
-9.43539e-06
-5.08196e-05
5.28255e-07
-4.30825e-05
1.11616e-05
-2.86906e-05
2.26189e-05
-2.13297e-05
3.47376e-05
7.79856e-07
3.65938e-05
5.8604e-06
1.97318e-05
8.44952e-05
5.52411e-06
-0.000206708
1.08077e-05
-0.000209469
1.59356e-05
-0.000212678
2.06336e-05
-0.000218032
2.49811e-05
-0.000221722
2.91442e-05
-0.000217881
3.47526e-05
-0.000192833
3.45384e-05
-0.000138066
-7.65094e-06
-0.00011741
-6.25203e-05
-0.000137211
-9.5532e-05
-0.000139383
-7.95233e-05
-0.00016902
-5.57931e-05
-0.00017319
-3.97329e-05
-0.000145206
-2.59394e-05
-0.0001355
-1.44053e-05
-0.000121194
-3.81833e-06
-9.87903e-05
5.12252e-06
-7.68075e-05
1.74365e-05
-5.79315e-05
3.02896e-05
-4.42873e-05
4.82489e-05
-2.04775e-05
6.22022e-05
-8.82641e-06
9.26515e-06
8.4271e-05
-9.87493e-06
-8.82453e-05
-2.09185e-05
-8.60812e-05
-3.28171e-05
-8.36009e-05
-4.48776e-05
-8.09907e-05
-5.41244e-05
-8.00114e-05
-5.57389e-05
-8.43484e-05
-4.72384e-05
-9.13967e-05
-3.0686e-05
-9.12238e-05
-2.60598e-05
-4.14443e-05
-6.09847e-05
1.57006e-05
-5.85838e-05
-1.88724e-05
-2.48294e-05
-0.000101945
-1.99857e-05
-0.000104581
-6.96521e-06
-0.000104684
7.77552e-06
-0.000109304
1.42406e-05
-0.000158344
1.97214e-05
-0.00018051
2.69388e-05
-0.000146303
3.91247e-05
-0.000125482
4.95925e-05
-0.000108543
6.01667e-05
-8.17741e-05
7.64752e-05
-6.88443e-05
-5.82005e-05
9.76221e-05
-1.3587e-05
-5.96478e-05
-2.46667e-05
-6.18966e-05
-3.28005e-05
-6.50317e-05
-3.68004e-05
-6.98473e-05
-3.76171e-05
-7.5654e-05
-3.87792e-05
-8.24683e-05
-4.53547e-05
-8.47657e-05
-5.7606e-05
-7.75436e-05
-5.08337e-05
-3.69358e-05
-3.3465e-06
9.89456e-06
5.39155e-05
-6.88631e-05
6.29021e-05
-0.000109541
7.75189e-05
-0.000113241
9.77254e-05
-0.000107256
0.000114423
-9.2486e-05
0.00010916
-6.96855e-05
8.5522e-05
-5.5745e-05
6.43337e-05
-5.80258e-05
5.45909e-05
-6.8497e-05
5.64282e-05
-7.41549e-05
6.63299e-05
-6.72573e-05
7.3636e-05
-7.99559e-05
-7.80366e-05
8.03746e-05
-7.26875e-06
-5.23785e-05
-1.22932e-05
-5.68717e-05
-1.58292e-05
-6.14953e-05
-1.82985e-05
-6.73774e-05
-2.02266e-05
-7.37253e-05
-2.24646e-05
-8.02296e-05
-2.44882e-05
-8.27409e-05
-2.64078e-05
-7.56201e-05
-2.29134e-05
-4.04266e-05
6.85239e-06
-1.98669e-05
1.51245e-05
-7.71343e-05
9.46608e-06
-0.000103882
2.54975e-06
-0.000106324
-3.97479e-06
-0.000100731
-5.54269e-06
-9.09194e-05
1.30626e-06
-7.64854e-05
1.24842e-05
-6.36442e-05
2.22753e-05
-5.1323e-05
3.05705e-05
-4.54238e-05
3.61692e-05
-4.29005e-05
2.93043e-05
-2.89961e-05
1.56614e-05
-1.75601e-05
4.71681e-07
-3.27074e-06
-2.28182e-06
-5.00964e-05
-4.25041e-06
-5.49028e-05
-6.37843e-06
-5.93669e-05
-9.11935e-06
-6.46361e-05
-1.29379e-05
-6.99063e-05
-1.88022e-05
-7.43648e-05
-2.55487e-05
-7.59937e-05
-2.87513e-05
-7.24169e-05
-6.52631e-06
-6.26508e-05
3.06518e-05
-5.70443e-05
3.42708e-05
-8.07525e-05
2.08348e-05
-9.04449e-05
9.89101e-06
-9.53792e-05
2.8266e-06
-9.36661e-05
7.5075e-07
-8.88428e-05
1.0598e-06
-7.67941e-05
1.45952e-07
-6.27298e-05
1.52123e-07
-5.13287e-05
-8.62613e-07
-4.44072e-05
-9.76236e-06
-3.39998e-05
-1.9979e-05
-1.87764e-05
-1.74173e-05
-2.01181e-05
3.88756e-07
-1.73261e-05
1.45908e-06
-5.15552e-05
2.59965e-06
-5.6043e-05
2.5354e-06
-5.93022e-05
1.15861e-06
-6.32588e-05
-1.50997e-06
-6.72371e-05
-5.44962e-06
-7.04245e-05
-9.77859e-06
-7.16641e-05
-1.21799e-05
-7.00149e-05
-9.07062e-06
-6.57593e-05
-1.95611e-06
-6.41581e-05
-4.888e-06
-7.78199e-05
-9.97056e-06
-8.53617e-05
-1.33412e-05
-9.2008e-05
-1.36642e-05
-9.33425e-05
-1.26175e-05
-8.98895e-05
-9.92588e-06
-7.94853e-05
-8.04617e-06
-6.461e-05
-9.22682e-06
-5.01467e-05
-1.68159e-05
-3.68188e-05
-3.09626e-05
-1.98511e-05
-5.11773e-05
1.43857e-06
-7.12025e-05
-9.14281e-08
3.69228e-06
-7.45018e-05
8.7364e-07
-5.24282e-05
1.56005e-06
-5.67288e-05
1.44263e-06
-5.91843e-05
2.81137e-07
-6.20968e-05
-2.07672e-06
-6.48787e-05
-5.80745e-06
-6.66932e-05
-1.03202e-05
-6.71507e-05
-1.38189e-05
-6.65156e-05
-1.43568e-05
-6.52209e-05
-1.28114e-05
-6.57029e-05
-1.67734e-05
-7.38573e-05
-2.12326e-05
-8.09019e-05
-2.66538e-05
-8.65861e-05
-3.23629e-05
-8.76331e-05
-3.92775e-05
-8.29743e-05
-4.64607e-05
-7.23011e-05
-5.48399e-05
-5.62289e-05
-6.38207e-05
-4.11665e-05
-7.27165e-05
-2.79204e-05
-7.58671e-05
-1.67011e-05
-6.64967e-05
-7.92981e-06
-5.75429e-05
-9.04449e-06
-7.73876e-06
-4.61083e-05
8.47022e-07
-5.3275e-05
1.21697e-06
-5.70984e-05
8.29834e-07
-5.87967e-05
-6.55198e-07
-6.06112e-05
-3.6178e-06
-6.19156e-05
-7.65912e-06
-6.26513e-05
-1.19257e-05
-6.28836e-05
-1.56401e-05
-6.28006e-05
-1.77824e-05
-6.30781e-05
-1.86325e-05
-6.48522e-05
-2.26855e-05
-6.98037e-05
-2.87205e-05
-7.48663e-05
-3.83587e-05
-7.69473e-05
-4.90684e-05
-7.69229e-05
-5.74479e-05
-7.45927e-05
-6.41539e-05
-6.55941e-05
-7.04285e-05
-4.99529e-05
-7.46207e-05
-3.69709e-05
-7.57148e-05
-2.68263e-05
-7.49059e-05
-1.75071e-05
-7.20929e-05
-1.07423e-05
-7.32042e-05
-7.93231e-06
-6.71261e-06
-7.42259e-05
1.21367e-08
-5.32862e-05
-4.84966e-07
-5.66007e-05
-1.90007e-06
-5.73811e-05
-4.19039e-06
-5.83205e-05
-7.09728e-06
-5.90082e-05
-1.03304e-05
-5.94178e-05
-1.35247e-05
-5.96889e-05
-1.63574e-05
-5.99674e-05
-1.87815e-05
-6.06536e-05
-2.13051e-05
-6.23282e-05
-2.63435e-05
-6.47648e-05
-3.48366e-05
-6.63728e-05
-4.55579e-05
-6.62255e-05
-5.60712e-05
-6.64083e-05
-6.64831e-05
-6.4181e-05
-7.53539e-05
-5.67197e-05
-8.05944e-05
-4.4709e-05
-8.16105e-05
-3.59539e-05
-7.76618e-05
-3.07709e-05
-7.02432e-05
-2.49248e-05
-6.36191e-05
-1.73639e-05
-5.75256e-05
-1.40233e-05
-1.20508e-05
-5.21847e-05
-8.15531e-07
-5.24705e-05
-2.1094e-06
-5.53063e-05
-3.86183e-06
-5.56281e-05
-5.92566e-06
-5.6256e-05
-8.1571e-06
-5.67762e-05
-1.03923e-05
-5.71819e-05
-1.25576e-05
-5.75231e-05
-1.46714e-05
-5.78531e-05
-1.71667e-05
-5.81577e-05
-2.07653e-05
-5.8729e-05
-2.61719e-05
-5.93576e-05
-3.35531e-05
-5.89909e-05
-4.1241e-05
-5.85371e-05
-5.00756e-05
-5.75736e-05
-5.88187e-05
-5.54347e-05
-6.39799e-05
-5.15581e-05
-6.41091e-05
-4.45783e-05
-6.33583e-05
-3.67034e-05
-6.23879e-05
-3.17397e-05
-6.04537e-05
-2.68576e-05
-5.79197e-05
-1.98964e-05
-5.70808e-05
-1.48611e-05
-1.19568e-05
-5.71709e-05
-1.37345e-06
-5.10964e-05
-2.83043e-06
-5.38489e-05
-4.37749e-06
-5.40807e-05
-6.15556e-06
-5.44776e-05
-8.12888e-06
-5.48026e-05
-1.0177e-05
-5.51335e-05
-1.23224e-05
-5.53774e-05
-1.46315e-05
-5.55438e-05
-1.71737e-05
-5.56152e-05
-2.03516e-05
-5.55508e-05
-2.44186e-05
-5.52904e-05
-2.85767e-05
-5.48326e-05
-3.34266e-05
-5.36868e-05
-3.91575e-05
-5.18419e-05
-4.50967e-05
-4.94963e-05
-5.09237e-05
-4.57294e-05
-5.42966e-05
-4.12048e-05
-5.49774e-05
-3.60216e-05
-5.55538e-05
-3.11621e-05
-5.51147e-05
-2.72957e-05
-5.239e-05
-2.26198e-05
-5.06762e-05
-1.65731e-05
-1.27214e-05
-4.99088e-05
-1.3378e-06
-4.97586e-05
-2.85188e-06
-5.23346e-05
-4.54082e-06
-5.23914e-05
-6.43398e-06
-5.25842e-05
-8.46634e-06
-5.277e-05
-1.06628e-05
-5.29368e-05
-1.29583e-05
-5.30816e-05
-1.54007e-05
-5.31012e-05
-1.80473e-05
-5.29685e-05
-2.07846e-05
-5.28132e-05
-2.37574e-05
-5.23175e-05
-2.73762e-05
-5.12134e-05
-3.12269e-05
-4.98358e-05
-3.49415e-05
-4.81277e-05
-3.86697e-05
-4.57665e-05
-4.22616e-05
-4.21383e-05
-4.54607e-05
-3.80052e-05
-4.73698e-05
-3.41119e-05
-4.80964e-05
-3.04347e-05
-4.8519e-05
-2.68722e-05
-4.88578e-05
-2.22797e-05
-4.9343e-05
-1.6087e-05
-1.29389e-05
-4.91221e-05
-1.56561e-06
-4.81925e-05
-3.27019e-06
-5.06297e-05
-5.04338e-06
-5.0618e-05
-6.90421e-06
-5.07231e-05
-8.88663e-06
-5.07873e-05
-1.10398e-05
-5.07834e-05
-1.34101e-05
-5.07112e-05
-1.59589e-05
-5.05523e-05
-1.85606e-05
-5.03666e-05
-2.13827e-05
-4.99909e-05
-2.46015e-05
-4.90985e-05
-2.8023e-05
-4.77917e-05
-3.12928e-05
-4.6566e-05
-3.45889e-05
-4.4831e-05
-3.78065e-05
-4.25501e-05
-4.03829e-05
-3.95611e-05
-4.23438e-05
-3.60442e-05
-4.39547e-05
-3.25009e-05
-4.51432e-05
-2.92456e-05
-4.59609e-05
-2.6054e-05
-4.64266e-05
-2.18131e-05
-4.62238e-05
-1.62885e-05
-1.38406e-05
-4.53199e-05
-1.4274e-06
-4.67651e-05
-2.99479e-06
-4.90621e-05
-4.66041e-06
-4.89522e-05
-6.43944e-06
-4.89439e-05
-8.35131e-06
-4.88753e-05
-1.03913e-05
-4.87433e-05
-1.25855e-05
-4.85169e-05
-1.49453e-05
-4.81924e-05
-1.75798e-05
-4.77321e-05
-2.0493e-05
-4.70775e-05
-2.32805e-05
-4.6311e-05
-2.57783e-05
-4.52938e-05
-2.86018e-05
-4.37424e-05
-3.16764e-05
-4.17569e-05
-3.46683e-05
-3.95573e-05
-3.70199e-05
-3.72105e-05
-3.8721e-05
-3.43432e-05
-4.02225e-05
-3.09994e-05
-4.17148e-05
-2.77529e-05
-4.29839e-05
-2.47845e-05
-4.34989e-05
-2.12971e-05
-4.29112e-05
-1.68757e-05
-1.45529e-05
-4.21962e-05
-1.56241e-06
-4.52022e-05
-3.22468e-06
-4.73996e-05
-4.93442e-06
-4.72422e-05
-6.72402e-06
-4.71541e-05
-8.61296e-06
-4.69862e-05
-1.06124e-05
-4.67437e-05
-1.27084e-05
-4.64207e-05
-1.48815e-05
-4.60192e-05
-1.71004e-05
-4.55131e-05
-1.93697e-05
-4.48082e-05
-2.18175e-05
-4.3863e-05
-2.44762e-05
-4.26351e-05
-2.70436e-05
-4.11749e-05
-2.9329e-05
-3.94712e-05
-3.16967e-05
-3.7191e-05
-3.42292e-05
-3.46775e-05
-3.62817e-05
-3.22914e-05
-3.76371e-05
-2.96441e-05
-3.84983e-05
-2.68917e-05
-3.93138e-05
-2.39688e-05
-4.01191e-05
-2.04913e-05
-3.98245e-05
-1.71693e-05
-1.5077e-05
-3.92988e-05
-1.54707e-06
-4.36552e-05
-3.17875e-06
-4.57679e-05
-4.82086e-06
-4.56e-05
-6.49558e-06
-4.54793e-05
-8.19855e-06
-4.52831e-05
-9.93361e-06
-4.50086e-05
-1.1719e-05
-4.46353e-05
-1.36029e-05
-4.41352e-05
-1.566e-05
-4.34559e-05
-1.79335e-05
-4.25346e-05
-2.04286e-05
-4.13679e-05
-2.29429e-05
-4.01206e-05
-2.53781e-05
-3.87396e-05
-2.77888e-05
-3.70612e-05
-2.97651e-05
-3.52139e-05
-3.11826e-05
-3.32614e-05
-3.25343e-05
-3.094e-05
-3.39889e-05
-2.81899e-05
-3.5474e-05
-2.54067e-05
-3.68148e-05
-2.26279e-05
-3.7378e-05
-1.99276e-05
-3.71148e-05
-1.74322e-05
-1.50831e-05
-3.71065e-05
-1.48142e-06
-4.21735e-05
-3.05074e-06
-4.41984e-05
-4.65304e-06
-4.39976e-05
-6.31549e-06
-4.38167e-05
-8.04979e-06
-4.35487e-05
-9.86372e-06
-4.31946e-05
-1.17541e-05
-4.27449e-05
-1.37054e-05
-4.21837e-05
-1.56771e-05
-4.14842e-05
-1.75872e-05
-4.06245e-05
-1.93991e-05
-3.95559e-05
-2.11781e-05
-3.83414e-05
-2.30072e-05
-3.69106e-05
-2.48191e-05
-3.5249e-05
-2.66939e-05
-3.33404e-05
-2.87909e-05
-3.11643e-05
-3.08196e-05
-2.89119e-05
-3.22935e-05
-2.67165e-05
-3.32888e-05
-2.44116e-05
-3.38079e-05
-2.21087e-05
-3.42654e-05
-1.94698e-05
-3.47784e-05
-1.69185e-05
-1.4809e-05
-3.50512e-05
-1.41688e-06
-4.07567e-05
-2.90417e-06
-4.2711e-05
-4.40374e-06
-4.24979e-05
-5.93526e-06
-4.22851e-05
-7.50686e-06
-4.1977e-05
-9.13032e-06
-4.15711e-05
-1.0818e-05
-4.10572e-05
-1.25778e-05
-4.04239e-05
-1.4405e-05
-3.96569e-05
-1.62895e-05
-3.87399e-05
-1.81881e-05
-3.76573e-05
-2.01458e-05
-3.63836e-05
-2.21026e-05
-3.49538e-05
-2.39808e-05
-3.33713e-05
-2.56574e-05
-3.16633e-05
-2.6988e-05
-2.98349e-05
-2.80329e-05
-2.78675e-05
-2.90674e-05
-2.56825e-05
-3.01705e-05
-2.33087e-05
-3.13656e-05
-2.09137e-05
-3.21493e-05
-1.86858e-05
-3.25723e-05
-1.64954e-05
-1.43409e-05
-3.30388e-05
-1.37397e-06
-3.93824e-05
-2.81637e-06
-4.12685e-05
-4.26833e-06
-4.10459e-05
-5.74553e-06
-4.08079e-05
-7.24685e-06
-4.04757e-05
-8.77152e-06
-4.00464e-05
-1.03201e-05
-3.95086e-05
-1.18971e-05
-3.88469e-05
-1.35088e-05
-3.80452e-05
-1.51546e-05
-3.70941e-05
-1.68083e-05
-3.60035e-05
-1.8398e-05
-3.47939e-05
-1.99285e-05
-3.34233e-05
-2.14189e-05
-3.18807e-05
-2.29045e-05
-3.0179e-05
-2.44037e-05
-2.83354e-05
-2.59023e-05
-2.63698e-05
-2.72375e-05
-2.43478e-05
-2.82706e-05
-2.2276e-05
-2.90515e-05
-2.0133e-05
-2.97685e-05
-1.79686e-05
-3.04421e-05
-1.58214e-05
-1.37372e-05
-3.10448e-05
-1.28067e-06
-3.81019e-05
-2.6214e-06
-3.99278e-05
-3.96846e-06
-3.96988e-05
-5.33843e-06
-3.94379e-05
-6.73846e-06
-3.90756e-05
-8.17376e-06
-3.86111e-05
-9.64444e-06
-3.80379e-05
-1.11418e-05
-3.73496e-05
-1.26475e-05
-3.65395e-05
-1.41445e-05
-3.5597e-05
-1.56385e-05
-3.45095e-05
-1.71545e-05
-3.32779e-05
-1.86617e-05
-3.19161e-05
-2.01106e-05
-3.04323e-05
-2.14703e-05
-2.88187e-05
-2.27258e-05
-2.70813e-05
-2.38561e-05
-2.52399e-05
-2.49094e-05
-2.3295e-05
-2.5923e-05
-2.12628e-05
-2.68614e-05
-1.91948e-05
-2.76762e-05
-1.71537e-05
-2.83831e-05
-1.51145e-05
-1.30611e-05
-2.90579e-05
-1.19721e-06
-3.69045e-05
-2.45463e-06
-3.86703e-05
-3.71267e-06
-3.84407e-05
-4.98727e-06
-3.81633e-05
-6.27956e-06
-3.77833e-05
-7.59136e-06
-3.72993e-05
-8.92378e-06
-3.67055e-05
-1.02773e-05
-3.59961e-05
-1.16502e-05
-3.51665e-05
-1.30332e-05
-3.4214e-05
-1.44043e-05
-3.31384e-05
-1.57436e-05
-3.19385e-05
-1.70507e-05
-3.0609e-05
-1.83324e-05
-2.91504e-05
-1.95783e-05
-2.75739e-05
-2.0771e-05
-2.58886e-05
-2.19061e-05
-2.41055e-05
-2.29597e-05
-2.22421e-05
-2.39122e-05
-2.03107e-05
-2.47747e-05
-1.83325e-05
-2.55855e-05
-1.6343e-05
-2.63504e-05
-1.43493e-05
-1.23324e-05
-2.70783e-05
-1.11321e-06
-3.57915e-05
-2.2739e-06
-3.75096e-05
-3.43524e-06
-3.72793e-05
-4.61016e-06
-3.69883e-05
-5.80041e-06
-3.65931e-05
-7.00688e-06
-3.60928e-05
-8.22818e-06
-3.54842e-05
-9.46042e-06
-3.47639e-05
-1.06984e-05
-3.39286e-05
-1.19373e-05
-3.2975e-05
-1.31743e-05
-3.19013e-05
-1.44047e-05
-3.07081e-05
-1.56148e-05
-2.93989e-05
-1.67883e-05
-2.79773e-05
-1.79168e-05
-2.64451e-05
-1.89958e-05
-2.48105e-05
-2.0018e-05
-2.30838e-05
-2.09846e-05
-2.12761e-05
-2.18955e-05
-1.94002e-05
-2.27525e-05
-1.74758e-05
-2.35644e-05
-1.5531e-05
-2.43411e-05
-1.35726e-05
-1.15786e-05
-2.5094e-05
-1.01416e-06
-3.47771e-05
-2.0757e-06
-3.6448e-05
-3.1351e-06
-3.62199e-05
-4.20622e-06
-3.59172e-05
-5.29003e-06
-3.55093e-05
-6.38718e-06
-3.49957e-05
-7.49688e-06
-3.43745e-05
-8.61677e-06
-3.3644e-05
-9.74258e-06
-3.28027e-05
-1.08681e-05
-3.18495e-05
-1.19857e-05
-3.07837e-05
-1.30882e-05
-2.96055e-05
-1.41712e-05
-2.83159e-05
-1.52305e-05
-2.69179e-05
-1.62593e-05
-2.54173e-05
-1.72498e-05
-2.382e-05
-1.8199e-05
-2.21354e-05
-1.91027e-05
-2.0373e-05
-1.99602e-05
-1.85431e-05
-2.07778e-05
-1.66585e-05
-2.15689e-05
-1.47401e-05
-2.23422e-05
-1.27991e-05
-1.08183e-05
-2.3102e-05
-9.18046e-07
-3.38592e-05
-1.87644e-06
-3.54896e-05
-2.83263e-06
-3.52637e-05
-3.79914e-06
-3.49507e-05
-4.77612e-06
-3.45323e-05
-5.76376e-06
-3.40081e-05
-6.76118e-06
-3.33771e-05
-7.76606e-06
-3.26392e-05
-8.77508e-06
-3.17937e-05
-9.78412e-06
-3.08404e-05
-1.07886e-05
-2.97792e-05
-1.17832e-05
-2.86109e-05
-1.27617e-05
-2.73373e-05
-1.37186e-05
-2.59614e-05
-1.46486e-05
-2.44869e-05
-1.55495e-05
-2.29202e-05
-1.64178e-05
-2.12676e-05
-1.72534e-05
-1.95379e-05
-1.80574e-05
-1.77395e-05
-1.88343e-05
-1.5882e-05
-1.9594e-05
-1.39804e-05
-2.03461e-05
-1.20472e-05
-1.00702e-05
-2.10935e-05
-8.13119e-07
-3.30459e-05
-1.66563e-06
-3.46371e-05
-2.51568e-06
-3.44137e-05
-3.37573e-06
-3.40907e-05
-4.24573e-06
-3.36623e-05
-5.1259e-06
-3.31279e-05
-6.01571e-06
-3.24873e-05
-6.91297e-06
-3.17419e-05
-7.8142e-06
-3.08925e-05
-8.71517e-06
-2.99394e-05
-9.61134e-06
-2.8883e-05
-1.04983e-05
-2.77239e-05
-1.13723e-05
-2.64634e-05
-1.22294e-05
-2.51042e-05
-1.30668e-05
-2.36503e-05
-1.38811e-05
-2.21059e-05
-1.46717e-05
-2.04777e-05
-1.54384e-05
-1.87718e-05
-1.61832e-05
-1.69952e-05
-1.69105e-05
-1.5155e-05
-1.7629e-05
-1.32622e-05
-1.83476e-05
-1.13285e-05
-9.34834e-06
-1.90692e-05
-7.04243e-07
-3.23419e-05
-1.44884e-06
-3.38925e-05
-2.19146e-06
-3.36711e-05
-2.94384e-06
-3.33383e-05
-3.70553e-06
-3.29007e-05
-4.47695e-06
-3.23566e-05
-5.2586e-06
-3.17057e-05
-6.04891e-06
-3.09517e-05
-6.8446e-06
-3.00968e-05
-7.64152e-06
-2.91425e-05
-8.43525e-06
-2.80892e-05
-9.22179e-06
-2.69373e-05
-9.99785e-06
-2.56874e-05
-1.07604e-05
-2.43419e-05
-1.15069e-05
-2.29036e-05
-1.22366e-05
-2.13771e-05
-1.29486e-05
-1.97662e-05
-1.36441e-05
-1.80769e-05
-1.43256e-05
-1.63143e-05
-1.49973e-05
-1.44837e-05
-1.56666e-05
-1.25931e-05
-1.6342e-05
-1.06533e-05
-8.66367e-06
-1.70263e-05
-5.87662e-07
-3.1754e-05
-1.22546e-06
-3.32547e-05
-1.86121e-06
-3.30353e-05
-2.50507e-06
-3.26945e-05
-3.15642e-06
-3.22494e-05
-3.81571e-06
-3.16973e-05
-4.48615e-06
-3.10353e-05
-5.16805e-06
-3.02698e-05
-5.85898e-06
-2.94059e-05
-6.55529e-06
-2.84462e-05
-7.25189e-06
-2.73926e-05
-7.94395e-06
-2.62453e-05
-8.62837e-06
-2.5003e-05
-9.3014e-06
-2.36688e-05
-9.96165e-06
-2.22443e-05
-1.0608e-05
-2.07308e-05
-1.12417e-05
-1.91332e-05
-1.18637e-05
-1.74555e-05
-1.24775e-05
-1.57011e-05
-1.30876e-05
-1.3874e-05
-1.37011e-05
-1.198e-05
-1.43257e-05
-1.00287e-05
-8.02381e-06