/*--------------------------------*- C++ -*----------------------------------*\
| =========                 |                                                 |
| \\      /  F ield         | OpenFOAM: The Open Source CFD Toolbox           |
|  \\    /   O peration     | Version:  2.4.0                                 |
|   \\  /    A nd           | Web:      www.OpenFOAM.org                      |
|    \\/     M anipulation  |                                                 |
\*---------------------------------------------------------------------------*/
FoamFile
{
    version     2.0;
    format      ascii;
    class       volScalarField;
    location    "0.3";
    object      rho;
}
// * * * * * * * * * * * * * * * * * * * * * * * * * * * * * * * * * * * * * //

dimensions      [1 -3 0 0 0 0 0];

internalField   nonuniform List<scalar> 
2268
(
13529
13529
13529
13529
13529
13529
13529
13529
13529
13529
13529
13529
13529
13529
13529
13529
13529
13529
13529
13529
13529
13528.7
13527.9
13529
13529
13529
13529
13529
13529
13529
13529
13529
13529
13529
13529
13529
13529
13529
13529
13529
13529
13529
13529
13529
13528.7
13527.7
13529
13529
13529
13529
13529
13529
13529
13529
13529
13529
13529
13529
13529
13529
13529
13529
13529
13529
13528.9
13528.9
13528.9
13528.7
13527.4
13529
13529
13529
13529
13529
13529
13529
13529
13529
13529
13529
13529
13529
13528.9
13528.6
13528.4
13527.9
13527.6
13527.6
13527.8
13528.3
13528.4
13527.3
13529
13529
13529
13529
13529
13529
13529
13529
13529
13528.9
13528.8
13527.6
13521.7
13500.7
13445.2
13369.7
13215.4
13266.2
13340.2
13436.2
13505.6
13525.9
13527.1
13529
13529
13529
13528.9
13528.9
13528.5
13528.2
13526.1
13520
13508.2
13473.3
13371.5
13023.1
12255
10926.3
9270.87
7505.45
5376.19
6211
9238.57
12742.7
13492.6
13526.6
13518
13516.2
13512.2
13502.8
13493.5
13448
13409.4
13288.8
13029.7
12633
11921.8
10593.9
8036.5
5053.12
2727.31
1434.53
1050.97
1005.3
1168.09
2476.93
9779.81
13281.2
13524.5
12941.1
12893.8
12793.7
12608.3
12416.4
11876.9
11393.6
10524.9
9190.36
7630.11
5779.66
3671.24
1846.26
1132.24
1010.43
1002.48
999.791
996.385
987.695
1052.27
5172.89
12640.6
13516.7
500.167
500.417
500.585
500.843
501.23
501.75
502.327
502.423
502.333
502.169
500.782
500.21
500.302
500.351
498.409
498.363
498.508
497.729
497.172
500.103
500.242
500.228
500.279
500.565
501.09
501.845
502.689
502.901
502.475
502.362
503.185
505.413
505.767
501.916
499.61
498.513
458.53
471.15
500.035
500.175
500.228
500.252
500.515
501.101
501.904
502.787
503.122
503.358
505.254
511.024
516.189
514.643
506.983
500.577
499.086
442.797
442.797
500.024
500.171
500.154
500.203
500.567
501.24
502.735
505.602
507.945
511.523
517.363
527.117
528.175
519.292
508.071
500.878
499.778
450.61
464.243
500.052
500.119
500.056
500.097
500.496
501.097
503.439
510.978
520.659
539.836
553.689
558.251
542.258
519.967
506.123
500.662
499.73
481.17
490.377
500.073
498.728
474.408
407.993
492.536
500.268
504.983
526.375
555.669
613.188
636.028
601.957
549.229
514.016
503.051
500.38
498.809
496.163
498.428
500.068
497.142
211.759
21.2401
219.254
472.307
511.029
562.98
634.95
743.755
713.154
603.197
534.645
506.617
501.149
500.228
498.743
499.262
499.833
499.967
494.926
91.3535
1.4436
9.45041
264.027
524.859
627.876
764.948
857.183
602.361
323.062
392.088
497.259
500.423
500.216
499.435
499.864
499.986
7379.08
7227.13
6934.33
6486.45
5988.35
5176.37
4452.01
3604.91
2752.76
2047.14
1517.05
1191.7
1046.56
1007.78
1001.18
1000.52
999.951
998.545
992.557
974.267
1911.52
9554.4
13201.4
1331.73
1302.87
1255.32
1196.01
1138.88
1084.81
1046.32
1021.36
1008.49
1003.02
1001.09
1000.45
1000.13
1000.08
1000.05
1000.01
999.909
999.63
998.21
987.485
1020.58
3805.29
10467.9
1001.1
1000.98
1000.81
1000.62
1000.45
1000.31
1000.2
1000.12
1000.07
1000.04
1000.02
1000.02
1000.01
1000.01
999.996
999.961
999.859
999.545
998.543
995.503
985.564
1462.58
5690.95
1000.02
1000.02
1000.01
1000.01
1000.01
1000.01
1000.01
1000.01
1000
1000
1000
1000
999.998
999.972
999.855
999.515
998.899
997.496
995.612
992.772
985.997
1047.73
2432.62
1000
1000
1000
1000
1000
1000
1000
1000
1000
1000
1000
999.955
999.374
996.879
991.087
981.105
971.166
957.602
959.04
956.15
955.252
984.002
1455.32
1000
1000
1000
1000
1000
1000
1000
1000
1000
999.998
999.837
996.36
977.392
937.943
888.394
835.416
791.046
748.009
744.2
748.031
769.685
853.689
1050.7
999.999
999.999
999.999
999.999
999.998
999.996
999.994
999.991
999.989
999.752
992.404
942.137
830.971
720.45
644.669
592.399
555.033
525.862
524.834
533.387
555.742
641.343
779.289
999.074
998.975
998.805
998.51
998.041
997.305
996.209
995.116
995.399
991.026
924.532
755.526
601.684
538.753
516.705
506.542
502.382
500.719
500.659
500.745
502.87
517.902
577.083
913.117
908.1
899.709
886.246
867.245
841.42
808.537
780.097
797.386
849.402
734.443
526.008
488.85
496.613
498.579
499.596
499.892
499.978
499.997
500
500.028
500.29
505.859
267.523
254.647
234.179
205.084
170.32
132.564
94.8253
68.0305
77.1961
196.728
198.925
132.432
196.577
307.31
373.02
432.15
466.009
486.394
494.893
498.259
499.849
499.964
500.041
1.35692
1.28642
1.19653
1.10832
1.04886
1.01827
1.00868
1.07238
1.38111
2.20825
1.10299
1.07372
1.78256
8.18387
23.3678
68.381
133.664
226.152
301.966
370.913
449.638
475.583
489.091
1.00039
1.0003
1.00029
1.00031
1.00029
1.00031
1.00225
1.00253
1.00066
1.00093
1.00019
1.00004
1.00004
1.00016
1.00065
1.00436
1.06497
1.77649
4.65439
12.412
46.1542
95.9297
122.72
1.00011
1.00005
1.00004
1.00004
1.00006
1.00008
1.00008
1.00004
1.00001
1.00009
1
1
1
1.00001
1.00003
1.00005
1.00011
1.00023
1.00029
1.00029
1.00037
1.00036
1.00041
1.00005
1.00002
1.00001
1.00001
1.00001
1.00001
1
1
1
1
1
1
1.00001
1.00003
1.00009
1.00011
1.00011
1.00013
1.00018
1.00015
1.00017
1.00022
1.0002
1.00001
1
0.999999
0.999999
0.999999
0.999999
1
0.999999
0.999999
1
1
1
1.00003
1.00016
1.00036
1.00039
1.00029
1.00017
1.00005
1.00005
1.00004
1.00005
1.00008
0.999999
0.999999
0.999999
0.999999
0.999999
0.999999
0.999999
0.999999
0.999999
1
1
1
1.00005
1.00032
1.00039
1.0004
1.0004
1.00014
1.00003
1.00002
1.00003
1.00004
1.00004
0.999999
0.999999
0.999999
0.999999
0.999999
0.999999
0.999999
0.999999
1
1
1
1
1.00005
1.00027
1.0004
1.0004
1.00017
1.00004
1.00003
1.00002
1.00002
1.00002
1.00001
0.999999
0.999999
0.999999
0.999999
0.999999
0.999999
0.999999
1
1
1
1
1
1.00002
1.0001
1.00034
1.00029
1.00007
1.00006
1.00005
1.00004
1.00002
1.00001
1.00001
0.999999
0.999999
0.999999
0.999999
0.999999
0.999999
1
1
1
1
1
1
1.00001
1.00004
1.00009
1.00014
1.00016
1.00013
1.00009
1.00005
1.00002
1.00001
1
0.999999
0.999999
0.999999
0.999999
0.999999
1
1
1
1
1
1
1
1
1.00002
1.00005
1.00008
1.00013
1.00013
1.0001
1.00006
1.00003
1.00001
1
0.999999
0.999999
0.999999
0.999999
1
1
1
1
1
1
1
1
1
1.00001
1.00003
1.00006
1.00007
1.00008
1.00007
1.00005
1.00002
1.00001
1
0.999999
0.999999
0.999999
1
1
1
1
1
1
1
1
1
1
1
1
1.00001
1.00002
1.00003
1.00002
1.00002
1.00001
1.00001
1
0.999999
0.999999
0.999999
1
1
1
1
1
1
1
1
1
1
1
0.999999
1
1
1
1
1
1
1
1
0.999999
0.999999
1
1
1
1
1
1
1
1
1
1
1
1
0.999999
0.999999
0.999999
0.999999
0.999999
0.999999
0.999999
0.999999
0.999999
0.999999
0.999999
1
1
1
1
1
1
1
1
1
1
1
1
1
0.999999
0.999999
0.999999
0.999998
0.999998
0.999998
0.999998
0.999998
0.999999
1
1
1
1
1
1
1
1
1
1
1
1
1
1
0.999999
0.999999
0.999999
0.999998
0.999998
0.999998
0.999997
0.999997
1
1
1
1
1
1
1
1
1
1
1
1
1
1
1
1
0.999999
0.999999
0.999999
0.999998
0.999998
0.999998
0.999997
1
1
1
1
1
1
1
1
1
1
1
1
1
1
1
1
1
0.999999
0.999999
0.999999
0.999998
0.999998
0.999997
1
1
1
1
1
1
1
1
1
1
1
1
1
1
1
1
1
0.999999
0.999999
0.999999
0.999998
0.999998
0.999997
1
1
1
1
1
1
1
1
1
1
1
1
1
1
1
1
1
1
0.999999
0.999999
0.999999
0.999998
0.999998
1
1
1
1
1
1
1
1
1
1
1
1
1
1
1
1
1
1
1
0.999999
0.999999
0.999999
0.999998
1
1
1
1
1
1
1
1
1
1
1
1
1
1
1
1
1
1
1
1
0.999999
0.999999
0.999998
1
1
1
1
1
1
1
1
1
1
1
1
1
1
1
1
1
1
1
1
1
0.999999
0.999999
1
1
1
1
1
1
1
1
1
1
1
1
1
1
1
1
1
1
1
1
1
1
0.999999
1
1
1
1
1
1
1
1
1
1
1
1
1
1
1
1
1
1
1
1
1
1
1
1
1
1
1
1
1
1
1
1
1
1
1
1
1
1
1
1
1
1
1
1
1
1
1
1
1
1
1
1
1
1
1
1
1
1
1
1
1
1
1
1
1
1
1
1
1
1
1
1
1
1
1
1
1
1
1
1
1
1
1
1
1
1
1
1
1
1
1
1
1
1
1
1
1
1
1
1
1
1
1
1
1
1
1
1
1
1
1
1
1
1
1
1
1
1
1
1
1
1
1
1
1
1
1
1
1
1
1
0.999999
0.999999
0.999999
0.999999
1
1
1
1
1
1
1
1
1
1
1
1
1
1
1
1
1
1
1
1
1
1
0.999999
0.999999
1
1
1
1
1
1
1
1
1
1
1
1
1
1
1
1
1
1
1
1
1
1
1
1
1
12528.6
2089.06
576.533
455.988
11882
9291.46
5392.77
2168.94
9071.77
9358.63
8810.12
6421.77
4651.57
6631.17
7817.59
7629.02
2200.64
3248.85
4718.79
5957.87
1355.22
1791.29
2487.12
3403.46
889.005
999.807
1229.45
1701.23
624.869
657.556
697.095
775.636
513.776
520.983
527.37
533.944
500.164
500.372
500.65
500.996
492.341
496.075
498.498
498.648
119.78
104.599
88.4378
86.1931
1.00115
1.00194
1.00731
1.06149
1.00035
1.00007
1.00001
1.00002
1.00007
1.00003
1.00001
1.00001
1.00004
1.00002
1.00001
1
1.00001
1.00001
1
1
1
1
1
1
1
1
0.999999
0.999999
1
1
1
0.999999
1
1
1
1
1
1
1
1
1
1
1
1
1
1
1
1
0.999999
0.999999
0.999999
0.999999
0.999998
0.999998
0.999998
0.999998
0.999997
0.999997
0.999998
0.999998
0.999997
0.999997
0.999997
0.999997
0.999997
0.999997
0.999997
0.999997
0.999997
0.999997
0.999997
0.999997
0.999997
0.999997
0.999997
0.999997
0.999998
0.999998
0.999997
0.999997
0.999998
0.999998
0.999998
0.999998
0.999998
0.999998
0.999998
0.999998
0.999999
0.999999
0.999999
0.999998
0.999999
0.999999
0.999999
0.999999
0.999999
0.999999
0.999999
0.999999
1
0.999999
0.999999
0.999999
0.999999
0.999999
0.999999
0.999999
1
1
1
1
1
1
1
1
0.999999
1
1
1
517.865
254.429
7.94462
1.44345
1.44434
120.567
583.061
769.937
970.891
752.536
185.193
17.1461
13.2902
145.707
453.917
499.42
500.015
499.993
499.998
730.115
277.069
13.4347
1.45702
2.5601
220.957
732.063
986.305
1138.98
593.396
53.7165
1.31072
1.01579
3.13373
95.8703
440.905
498.815
500
500
1843.41
983.394
224.934
40.2544
183.152
802.424
1134.31
1168.09
1159.91
485.554
39.2995
1.27182
1.00635
1.00482
2.88798
143.173
482.326
499.928
500
4058.5
2402.26
1407.39
1190.8
1317.18
1443.72
1284.42
1271.98
1090.68
294.915
15.8647
1.095
1.01337
1.00315
1.00517
8.5543
391.701
498.428
499.997
5314.18
4033.8
3167.16
2736.89
2367.21
1899.16
1468.29
1320.48
618.137
65.2763
1.87969
1.01111
1.00124
1.00199
1.00212
1.0598
127.021
479.224
499.922
4134.58
3840.6
3359.6
2875.27
2296.61
1656.16
1341.77
937.944
210.892
9.49108
1.03688
1.00562
1.00118
1.00113
1.00197
1.00188
9.43489
409.96
499.233
2414.22
2638.88
2476.96
2129.03
1591.97
1232.02
938.635
363.133
33.6396
1.33185
1.00584
1.0016
1.0006
1.00083
1.00143
1.00184
1.15803
383.383
498.663
1001.81
1229.36
1188.42
1035.41
923.986
739.605
412.555
65.3572
2.56806
1.00628
1.00198
1.00055
1.00041
1.00061
1.00096
1.00167
1.0023
406.148
498.909
553.157
592.704
595.651
583.921
537.085
366.057
73.554
2.93403
1.00353
1.00071
1.00035
1.00026
1.00029
1.00049
1.00083
1.00162
1.0019
413.269
498.976
501.415
504.179
499.506
481.988
279.52
32.0301
1.25309
1.00122
1.00045
1.00029
1.0002
1.00016
1.00021
1.00041
1.00081
1.00166
1.00197
355
497.631
498.15
466.261
259.384
42.8906
1.59946
1.00088
1.00083
1.00031
1.00024
1.00016
1.00011
1.0001
1.00016
1.00035
1.00077
1.00169
1.00193
161.986
485.166
79.7709
19.1784
1.50853
1.1223
1.00171
1.00022
1.0002
1.00017
1.00013
1.00009
1.00006
1.00006
1.00013
1.00032
1.00075
1.00165
1.00191
33.0796
451.868
1.37008
1.08295
1.00093
1.00002
1.00012
1.00011
1.0001
1.00009
1.00006
1.00004
1.00003
1.00004
1.00011
1.00031
1.00074
1.00154
1.0019
17.6354
443.337
1.00008
1.00002
1.00001
1.00002
1.00005
1.00005
1.00005
1.00004
1.00003
1.00002
1.00002
1.00003
1.0001
1.0003
1.00074
1.00148
1.01503
22.9415
454.561
1.00001
1
1.00001
1.00001
1.00002
1.00002
1.00002
1.00002
1.00001
1.00001
1.00001
1.00002
1.00009
1.00028
1.00069
1.0015
1.12244
57.2764
479.028
1
1
1
1.00001
1.00001
1.00001
1.00001
1.00001
1.00001
1
1.00001
1.00002
1.00008
1.00026
1.00064
1.00126
1.0564
126.616
492.578
1
1
1
1
1
1
1
1
1
1
1
1.00002
1.00007
1.00024
1.00059
1.00108
1.00525
129.551
492.929
0.999999
0.999998
0.999998
0.999999
0.999999
1
1
1
1
1
1
1.00001
1.00006
1.00022
1.00056
1.00101
1.00162
83.4265
491.647
0.999999
0.999998
0.999998
0.999998
0.999998
0.999999
0.999999
0.999999
1
1
1
1.00001
1.00005
1.0002
1.00051
1.00093
1.00141
26.7728
472.765
0.999999
0.999998
0.999998
0.999998
0.999998
0.999998
0.999999
0.999999
0.999999
1
1
1.00001
1.00005
1.00018
1.00047
1.0009
1.00138
5.15601
425.493
1
0.999999
0.999998
0.999998
0.999998
0.999998
0.999998
0.999999
0.999999
1
1
1.00001
1.00004
1.00015
1.00042
1.00078
1.00144
1.33862
323.063
1
0.999999
0.999999
0.999999
0.999998
0.999998
0.999999
0.999999
0.999999
0.999999
1
1
1.00002
1.00012
1.0003
1.00067
1.00136
1.00673
148.449
1
1
0.999999
0.999999
0.999999
0.999999
0.999999
0.999999
0.999999
0.999999
1
1
1.00001
1.00004
1.00016
1.0005
1.00114
1.00317
28.2051
1
1
0.999999
0.999999
0.999999
0.999999
0.999999
0.999999
0.999999
1
1
1
1
1.00001
1.00007
1.00051
1.00278
1.10194
2.6386
0.999999
0.999999
0.999999
0.999999
0.999999
0.999999
0.999999
0.999999
1
1
1
1
1
1
1.00003
1.00093
1.02291
1.10148
1.05658
0.999998
0.999999
0.999999
0.999999
0.999999
0.999999
0.999999
0.999999
1
1
1
1
1
1
1.00001
1.0003
1.00626
1.01804
1.00214
0.999998
0.999998
0.999998
0.999999
0.999999
0.999999
0.999999
0.999999
1
1
1
1
1
1
1
1.00001
1.0001
1.00028
1.00025
0.999997
0.999998
0.999998
0.999998
0.999999
0.999999
0.999999
0.999999
1
1
1
1
1
1
1
1
1.00001
1.00003
1.00004
0.999997
0.999997
0.999998
0.999998
0.999999
0.999999
0.999999
0.999999
0.999999
1
1
1
1
1
1
1
1
1
1.00001
0.999997
0.999997
0.999997
0.999998
0.999998
0.999999
0.999999
0.999999
0.999999
1
1
1
1
1
1
1
1
1
1
0.999997
0.999997
0.999997
0.999998
0.999998
0.999999
0.999999
0.999999
0.999999
1
1
1
1
1
1
1
1
1
1
0.999997
0.999997
0.999997
0.999998
0.999998
0.999999
0.999999
0.999999
0.999999
1
1
1
1
1
1
1
1
1
1
0.999998
0.999997
0.999998
0.999998
0.999998
0.999999
0.999999
0.999999
0.999999
1
1
1
1
1
1
1
1
1
1
0.999998
0.999998
0.999998
0.999998
0.999998
0.999999
0.999999
0.999999
0.999999
1
1
1
1
1
1
1
1
1
1
0.999998
0.999998
0.999998
0.999998
0.999999
0.999999
0.999999
0.999999
0.999999
0.999999
1
1
1
1
1
1
1
1
1
0.999999
0.999998
0.999998
0.999999
0.999999
0.999999
0.999999
0.999999
0.999999
0.999999
1
1
1
1
1
1
1
1
1
0.999999
0.999999
0.999999
0.999999
0.999999
0.999999
0.999999
0.999999
0.999999
0.999999
0.999999
1
1
1
1
1
1
1
1
0.999999
0.999999
0.999999
0.999999
0.999999
0.999999
0.999999
0.999999
0.999999
0.999999
0.999999
0.999999
1
1
1
1
1
1
1
0.999999
0.999999
0.999999
0.999999
0.999999
0.999999
0.999999
0.999999
0.999999
0.999999
0.999999
0.999999
1
1
1
1
1
1
1
0.999999
0.999999
0.999999
0.999999
0.999999
0.999999
0.999999
0.999999
0.999999
0.999999
0.999999
0.999999
1
1
1
1
1
1
1
1
0.999999
0.999999
0.999999
0.999999
0.999999
0.999999
0.999999
0.999999
0.999999
0.999999
1
1
1
1
1
1
1
1
1
1
1
1
0.999999
0.999999
0.999999
0.999999
0.999999
0.999999
1
1
1
1
1
1
1
1
1
)
;

boundaryField
{
    leftWall
    {
        type            calculated;
        value           nonuniform List<scalar> 
50
(
13529
13529
13529
13529
13529
13529
13518
12941.1
7379.08
1331.73
1001.1
1000.02
1000
1000
999.999
999.074
913.117
267.523
1.35692
1.00039
1.00011
1.00005
1.00001
0.999999
0.999999
0.999999
0.999999
0.999999
0.999999
0.999999
0.999999
0.999999
0.999999
0.999999
1
1
1
1
1
1
1
1
1
1
1
1
1
1
1
1
)
;
    }
    rightWall
    {
        type            calculated;
        value           nonuniform List<scalar> 
50
(
497.172
471.15
442.797
464.243
490.377
498.428
499.833
499.986
499.998
500
500
499.997
499.922
499.233
498.663
498.909
498.976
497.631
485.166
451.868
443.337
454.561
479.028
492.578
492.929
491.647
472.765
425.493
323.063
148.449
28.2051
2.6386
1.05658
1.00214
1.00025
1.00004
1.00001
1
1
1
1
1
1
1
1
1
1
1
1
1
)
;
    }
    lowerWall
    {
        type            calculated;
        value           nonuniform List<scalar> 
62
(
13529
13529
13529
13529
13529
13529
13529
13529
13529
13529
13529
13529
13529
13529
13529
13529
13529
13529
13529
13529
13529
13528.7
13527.9
13527.9
13527.7
13527.4
13527.3
13527.1
13526.6
13524.5
13516.7
12528.6
2089.06
576.533
455.988
500.167
500.103
500.035
500.024
500.052
500.073
500.068
499.967
500.167
500.417
500.585
500.843
501.23
501.75
502.327
502.423
502.333
502.169
500.782
500.21
500.302
500.351
498.409
498.363
498.508
497.729
497.172
)
;
    }
    atmosphere
    {
        type            calculated;
        value           nonuniform List<scalar> 
46
(
1
1
1
1
1
1
1
1
1
1
1
1
1
1
1
1
1
1
1
1
1
1
1
1
1
1
1
1
1
1
1
0.999999
0.999999
0.999999
0.999999
0.999999
0.999999
1
1
1
1
1
1
1
1
1
)
;
    }
    defaultFaces
    {
        type            empty;
    }
}


// ************************************************************************* //
