/*--------------------------------*- C++ -*----------------------------------*\
| =========                 |                                                 |
| \\      /  F ield         | OpenFOAM: The Open Source CFD Toolbox           |
|  \\    /   O peration     | Version:  2.4.0                                 |
|   \\  /    A nd           | Web:      www.OpenFOAM.org                      |
|    \\/     M anipulation  |                                                 |
\*---------------------------------------------------------------------------*/
FoamFile
{
    version     2.0;
    format      ascii;
    class       volVectorField;
    location    "0.3";
    object      U;
}
// * * * * * * * * * * * * * * * * * * * * * * * * * * * * * * * * * * * * * //

dimensions      [0 1 -1 0 0 0 0];

internalField   nonuniform List<vector> 
2268
(
(0.0199971 -0.00940036 0)
(0.0593589 -0.00943875 0)
(0.100793 -0.00940773 0)
(0.137505 -0.00974637 0)
(0.184514 -0.00900536 0)
(0.216083 -0.0112501 0)
(0.270896 -0.00799408 0)
(0.296786 -0.0108987 0)
(0.347535 -0.0120069 0)
(0.405245 -0.0101371 0)
(0.441302 -0.00768614 0)
(0.463615 -0.0101836 0)
(0.513883 -0.00979621 0)
(0.563799 -0.0131158 0)
(0.614645 -0.0111606 0)
(0.651988 -0.00491654 0)
(0.659895 0.00261804 0)
(0.646462 0.00601084 0)
(0.60676 0.00982741 0)
(0.528573 0.0236155 0)
(0.402426 0.0279777 0)
(0.247403 0.0591616 0)
(0.0515043 0.0196254 0)
(0.0199951 -0.028214 0)
(0.0593803 -0.0283523 0)
(0.100826 -0.0281763 0)
(0.137371 -0.0296092 0)
(0.185008 -0.0260549 0)
(0.215991 -0.0356003 0)
(0.269405 -0.0222183 0)
(0.298943 -0.0324763 0)
(0.348522 -0.0377986 0)
(0.404887 -0.0307035 0)
(0.438522 -0.0233678 0)
(0.464557 -0.0262897 0)
(0.518619 -0.0348651 0)
(0.572494 -0.0388481 0)
(0.619235 -0.0313499 0)
(0.653614 -0.017474 0)
(0.659223 0.000928509 0)
(0.647469 0.0249454 0)
(0.607024 0.0519497 0)
(0.545226 0.0851778 0)
(0.423281 0.105332 0)
(0.2923 0.109494 0)
(0.0597353 0.116811 0)
(0.0199659 -0.0469976 0)
(0.0593535 -0.0472138 0)
(0.100625 -0.0469544 0)
(0.137284 -0.0490649 0)
(0.185033 -0.0446925 0)
(0.2155 -0.0559717 0)
(0.267579 -0.0404476 0)
(0.302642 -0.0543939 0)
(0.348279 -0.0607512 0)
(0.400036 -0.0487966 0)
(0.43514 -0.0408102 0)
(0.472877 -0.0491058 0)
(0.533107 -0.060492 0)
(0.570011 -0.0621252 0)
(0.620215 -0.0538046 0)
(0.64629 -0.0226305 0)
(0.657494 0.00173351 0)
(0.660243 0.0266991 0)
(0.635633 0.0576594 0)
(0.579907 0.100174 0)
(0.453391 0.159247 0)
(0.245156 0.201814 0)
(0.114257 0.191571 0)
(0.0199253 -0.0658348 0)
(0.0593243 -0.0660979 0)
(0.100259 -0.0658198 0)
(0.137486 -0.0687514 0)
(0.184236 -0.0627426 0)
(0.215559 -0.0774442 0)
(0.266316 -0.058708 0)
(0.303944 -0.0756159 0)
(0.348604 -0.082436 0)
(0.393466 -0.0689513 0)
(0.431029 -0.0619216 0)
(0.491453 -0.072852 0)
(0.536736 -0.0786152 0)
(0.574402 -0.082033 0)
(0.608898 -0.0649791 0)
(0.632666 -0.0372602 0)
(0.665918 -0.00157681 0)
(0.679552 0.0463044 0)
(0.693295 0.11782 0)
(0.65077 0.184105 0)
(0.538311 0.279957 0)
(0.310621 0.275682 0)
(0.0671301 0.289611 0)
(0.0198795 -0.0850322 0)
(0.0592447 -0.0853001 0)
(0.0998624 -0.0851562 0)
(0.137471 -0.0884926 0)
(0.183549 -0.0821023 0)
(0.214306 -0.0970865 0)
(0.267069 -0.0792842 0)
(0.302039 -0.0973122 0)
(0.350281 -0.100705 0)
(0.386071 -0.0859394 0)
(0.434364 -0.0902758 0)
(0.503029 -0.0942934 0)
(0.536687 -0.0985112 0)
(0.577323 -0.0898766 0)
(0.607663 -0.0810926 0)
(0.642085 -0.0443091 0)
(0.701513 -0.0319719 0)
(0.751563 -0.00690907 0)
(0.756682 0.0612779 0)
(0.689714 0.156542 0)
(0.588579 0.333086 0)
(0.361796 0.395245 0)
(0.132483 0.363384 0)
(0.0198538 -0.103329 0)
(0.0591666 -0.103531 0)
(0.0995455 -0.103457 0)
(0.137604 -0.107052 0)
(0.182374 -0.099507 0)
(0.214145 -0.115678 0)
(0.267363 -0.0986896 0)
(0.301776 -0.114472 0)
(0.34836 -0.118522 0)
(0.386958 -0.10865 0)
(0.444768 -0.117792 0)
(0.498494 -0.120673 0)
(0.541966 -0.127039 0)
(0.590069 -0.132786 0)
(0.6236 -0.124804 0)
(0.665967 -0.107828 0)
(0.683575 -0.0819154 0)
(0.663921 0.0403135 0)
(0.673233 0.162187 0)
(0.610896 0.247366 0)
(0.548247 0.402139 0)
(0.39747 0.475451 0)
(0.119066 0.508168 0)
(0.019942 -0.117901 0)
(0.0593373 -0.118237 0)
(0.0999014 -0.11873 0)
(0.138181 -0.123202 0)
(0.181552 -0.116378 0)
(0.217125 -0.136015 0)
(0.263555 -0.122035 0)
(0.310916 -0.140558 0)
(0.338521 -0.146599 0)
(0.398002 -0.150188 0)
(0.449937 -0.158845 0)
(0.493311 -0.157676 0)
(0.537086 -0.157923 0)
(0.560877 -0.102405 0)
(0.531434 -0.0428031 0)
(0.459726 0.0780689 0)
(0.31978 0.115119 0)
(0.221124 0.0464421 0)
(0.345174 0.166263 0)
(0.307929 0.403224 0)
(0.419276 0.476124 0)
(0.347378 0.559574 0)
(0.147698 0.586956 0)
(0.0201317 -0.143833 0)
(0.0597462 -0.1444 0)
(0.100719 -0.145335 0)
(0.138755 -0.150112 0)
(0.180145 -0.144367 0)
(0.222234 -0.162559 0)
(0.25778 -0.155158 0)
(0.316183 -0.158899 0)
(0.338249 -0.167671 0)
(0.398078 -0.158383 0)
(0.420429 -0.148667 0)
(0.43541 -0.119216 0)
(0.395759 -0.0630581 0)
(0.325047 -0.0498569 0)
(0.225749 -0.0743966 0)
(0.250472 -0.112918 0)
(0.311411 -0.0961304 0)
(0.365285 -0.023362 0)
(0.28902 0.0272241 0)
(0.283511 0.21608 0)
(0.155257 0.500597 0)
(0.285352 0.611705 0)
(0.11144 0.735784 0)
(-0.535944 0.181785 0)
(-1.11012 0.129686 0)
(-1.42246 0.0599892 0)
(-1.50985 0.0145381 0)
(-1.43349 -0.0645999 0)
(-1.23093 -0.0876916 0)
(-0.887186 -0.0666688 0)
(-0.617346 -0.0712488 0)
(-0.228713 -0.0892892 0)
(0.166686 -0.0853494 0)
(0.491577 -0.0560069 0)
(0.684823 -0.0438235 0)
(0.795871 -0.00970507 0)
(0.763291 0.00507968 0)
(0.669824 -0.0167047 0)
(0.460069 -0.0239576 0)
(0.283052 -0.0381931 0)
(-0.0528016 -0.100149 0)
(0.0107115 -0.0980351 0)
(-0.558194 0.495439 0)
(-1.07829 0.305833 0)
(-1.35483 0.132985 0)
(-1.40712 0.0137491 0)
(-1.29569 -0.06801 0)
(-1.16981 -0.155291 0)
(-0.819559 -0.183175 0)
(-0.481068 -0.247673 0)
(-0.131736 -0.231059 0)
(0.240108 -0.242843 0)
(0.588153 -0.152291 0)
(0.800845 -0.0845444 0)
(0.921879 -0.00492475 0)
(0.907589 0.0587201 0)
(0.821749 0.134562 0)
(0.601309 0.175497 0)
(0.424714 0.21056 0)
(0.0544243 0.192284 0)
(0.0365253 0.0578131 0)
(-0.493996 0.721351 0)
(-1.02332 0.46194 0)
(-1.27611 0.221162 0)
(-1.27037 -0.00536887 0)
(-1.25274 -0.158224 0)
(-1.14659 -0.289254 0)
(-0.673384 -0.385955 0)
(-0.464077 -0.364337 0)
(-0.056907 -0.409724 0)
(0.287695 -0.426164 0)
(0.663136 -0.29037 0)
(0.879111 -0.185217 0)
(0.986985 -0.0350984 0)
(0.965408 0.0560827 0)
(0.883385 0.147719 0)
(0.693863 0.185667 0)
(0.521638 0.221175 0)
(0.145871 0.17309 0)
(0.0900626 -0.0190398 0)
(-0.477156 1.07186 0)
(-0.869266 0.690271 0)
(-1.07956 0.228702 0)
(-1.05056 -0.00829133 0)
(-1.05821 -0.141068 0)
(-0.976641 -0.403906 0)
(-0.654067 -0.547279 0)
(-0.368855 -0.511073 0)
(0.0445378 -0.554357 0)
(0.390497 -0.58641 0)
(0.747393 -0.415126 0)
(0.958932 -0.238699 0)
(1.03744 -0.0307142 0)
(1.01482 0.0985144 0)
(0.954472 0.226549 0)
(0.749711 0.30392 0)
(0.592072 0.350405 0)
(0.271074 0.308482 0)
(0.176212 0.103732 0)
(-0.416184 1.25869 0)
(-0.734801 0.856014 0)
(-0.727973 0.344797 0)
(-0.748113 0.0100281 0)
(-0.803033 -0.135481 0)
(-0.691164 -0.469018 0)
(-0.512162 -0.680243 0)
(-0.256363 -0.670213 0)
(0.187693 -0.715285 0)
(0.527268 -0.719705 0)
(0.856203 -0.527489 0)
(1.02767 -0.305257 0)
(1.09832 -0.0287666 0)
(1.06205 0.126792 0)
(0.99512 0.282276 0)
(0.825648 0.35684 0)
(0.644898 0.434203 0)
(0.276344 0.402743 0)
(0.148733 0.193536 0)
(-0.382047 1.46661 0)
(-0.57821 0.834855 0)
(-0.267363 0.10192 0)
(-0.299157 -0.0882386 0)
(-0.407848 -0.209607 0)
(-0.397305 -0.411212 0)
(-0.298417 -0.723381 0)
(-0.0673007 -0.830098 0)
(0.351343 -0.885018 0)
(0.650017 -0.839509 0)
(0.933788 -0.570866 0)
(1.07996 -0.273272 0)
(1.18308 -0.0653831 0)
(1.14391 0.112208 0)
(1.0229 0.338244 0)
(0.81564 0.459854 0)
(0.672958 0.573702 0)
(0.368298 0.511939 0)
(0.130953 0.281294 0)
(-0.34492 1.63757 0)
(-0.296109 0.968695 0)
(0.0477554 0.292161 0)
(-0.676969 0.479607 0)
(-0.0908142 -0.198919 0)
(0.0290775 -0.561842 0)
(-0.0918371 -0.76617 0)
(0.107689 -0.961578 0)
(0.488848 -1.08061 0)
(0.763484 -1.04558 0)
(0.995512 -0.808074 0)
(1.08843 -0.473605 0)
(1.18477 -0.00325517 0)
(1.19689 0.244219 0)
(1.11752 0.413387 0)
(0.895425 0.500133 0)
(0.697398 0.623824 0)
(0.472649 0.64109 0)
(0.218472 0.407686 0)
(-0.317045 1.77122 0)
(0.0106697 0.722344 0)
(0.303201 0.232176 0)
(-0.220778 -0.338493 0)
(-1.43663 0.253208 0)
(0.149726 -0.582727 0)
(0.140348 -0.840872 0)
(0.265241 -1.08104 0)
(0.571139 -1.22243 0)
(0.817613 -1.17974 0)
(1.04097 -0.851156 0)
(1.16305 -0.477059 0)
(1.19255 -0.245582 0)
(1.15701 0.117104 0)
(1.08392 0.516762 0)
(0.929009 0.648081 0)
(0.724812 0.725627 0)
(0.433892 0.737915 0)
(0.224542 0.529684 0)
(0.020404 -0.185219 0)
(0.0602433 -0.184004 0)
(0.100456 -0.18122 0)
(0.135791 -0.176999 0)
(0.168896 -0.16892 0)
(0.211312 -0.160854 0)
(0.222354 -0.148295 0)
(0.262441 -0.125497 0)
(0.276408 -0.103645 0)
(0.269989 -0.0803487 0)
(0.262002 -0.0656272 0)
(0.264247 -0.0885305 0)
(0.282852 -0.153733 0)
(0.32208 -0.137022 0)
(0.374077 -0.0953302 0)
(0.413382 0.0108632 0)
(0.398857 0.0924865 0)
(0.38652 0.104121 0)
(0.311263 0.163677 0)
(0.381216 0.299811 0)
(0.139697 0.551621 0)
(0.323703 0.611305 0)
(0.235658 0.785063 0)
(0.010846 -0.0941119 0)
(0.0322292 -0.0946451 0)
(0.0544411 -0.0944313 0)
(0.0751855 -0.096476 0)
(0.0941387 -0.106327 0)
(0.118579 -0.118749 0)
(0.135536 -0.130357 0)
(0.162866 -0.162447 0)
(0.197856 -0.176181 0)
(0.228637 -0.192204 0)
(0.279731 -0.219184 0)
(0.343243 -0.216014 0)
(0.392218 -0.183081 0)
(0.430585 -0.14942 0)
(0.448378 -0.104717 0)
(0.492763 -0.107973 0)
(0.51883 -0.0759958 0)
(0.599063 0.0103001 0)
(0.529349 0.119627 0)
(0.626152 0.294771 0)
(0.476352 0.604483 0)
(0.481308 0.595086 0)
(0.390851 0.654387 0)
(0.0125302 -0.283328 0)
(0.0377499 -0.285375 0)
(0.0658252 -0.283084 0)
(0.0965671 -0.282976 0)
(0.128611 -0.279365 0)
(0.16306 -0.27645 0)
(0.197253 -0.264557 0)
(0.231779 -0.271246 0)
(0.273114 -0.249786 0)
(0.304415 -0.24002 0)
(0.355366 -0.236718 0)
(0.393184 -0.22516 0)
(0.432876 -0.203658 0)
(0.473026 -0.178681 0)
(0.523988 -0.151413 0)
(0.590228 -0.123117 0)
(0.629412 -0.0396809 0)
(0.680312 0.0295346 0)
(0.701458 0.162999 0)
(0.716974 0.289741 0)
(0.790823 0.576598 0)
(0.768423 0.759735 0)
(0.585859 0.692587 0)
(0.016665 -0.235136 0)
(0.0489239 -0.236033 0)
(0.0815652 -0.233887 0)
(0.113954 -0.233884 0)
(0.144529 -0.233154 0)
(0.176838 -0.236522 0)
(0.20794 -0.231862 0)
(0.238247 -0.250408 0)
(0.275933 -0.237545 0)
(0.302571 -0.249019 0)
(0.356114 -0.261238 0)
(0.390861 -0.262441 0)
(0.440068 -0.246424 0)
(0.491641 -0.238612 0)
(0.565964 -0.216068 0)
(0.631988 -0.193686 0)
(0.689567 -0.107744 0)
(0.743991 -0.0450094 0)
(0.810641 0.109911 0)
(0.833913 0.260352 0)
(0.874896 0.431186 0)
(1.03418 0.789129 0)
(0.877739 0.852212 0)
(0.0156796 -0.281196 0)
(0.047586 -0.283007 0)
(0.078901 -0.284681 0)
(0.110452 -0.285805 0)
(0.140903 -0.288712 0)
(0.170259 -0.291962 0)
(0.200722 -0.291206 0)
(0.226281 -0.306218 0)
(0.26347 -0.2943 0)
(0.28977 -0.32305 0)
(0.348172 -0.326523 0)
(0.383168 -0.321965 0)
(0.446919 -0.330212 0)
(0.520911 -0.325671 0)
(0.604469 -0.303294 0)
(0.655807 -0.270667 0)
(0.725049 -0.176939 0)
(0.778908 -0.101334 0)
(0.827784 0.0530316 0)
(0.864268 0.223131 0)
(0.877821 0.358869 0)
(1.03603 0.709955 0)
(1.03796 0.935541 0)
(0.0156057 -0.326832 0)
(0.0472453 -0.328091 0)
(0.0781706 -0.327481 0)
(0.108979 -0.326363 0)
(0.14017 -0.325132 0)
(0.168764 -0.324054 0)
(0.199014 -0.323981 0)
(0.225195 -0.331764 0)
(0.258804 -0.330817 0)
(0.288057 -0.366031 0)
(0.344319 -0.362268 0)
(0.386817 -0.379957 0)
(0.452947 -0.40588 0)
(0.510517 -0.399847 0)
(0.562675 -0.375509 0)
(0.576077 -0.330731 0)
(0.618178 -0.251581 0)
(0.621705 -0.155341 0)
(0.62307 0.0326202 0)
(0.707523 0.212134 0)
(0.720543 0.348385 0)
(0.909829 0.649552 0)
(1.02534 0.936539 0)
(0.0163605 -0.347554 0)
(0.0484044 -0.348758 0)
(0.0810964 -0.347175 0)
(0.112078 -0.345438 0)
(0.143172 -0.342931 0)
(0.171373 -0.34079 0)
(0.201269 -0.341031 0)
(0.216758 -0.343729 0)
(0.2455 -0.353431 0)
(0.257307 -0.394259 0)
(0.304932 -0.414816 0)
(0.338188 -0.456487 0)
(0.354319 -0.476389 0)
(0.33261 -0.435376 0)
(0.292121 -0.372661 0)
(0.232561 -0.307804 0)
(0.188897 -0.196481 0)
(0.154262 -0.0924709 0)
(0.213349 0.0201053 0)
(0.287212 0.0978485 0)
(0.39727 0.198232 0)
(0.547844 0.416137 0)
(0.880787 0.827644 0)
(0.0164788 -0.370562 0)
(0.0495033 -0.371633 0)
(0.0814632 -0.369878 0)
(0.113735 -0.366908 0)
(0.143744 -0.362723 0)
(0.17151 -0.358277 0)
(0.195518 -0.35179 0)
(0.20868 -0.343607 0)
(0.213119 -0.348483 0)
(0.206195 -0.383166 0)
(0.20581 -0.423663 0)
(0.160476 -0.43296 0)
(0.0693827 -0.376761 0)
(-0.0205196 -0.320819 0)
(-0.0574356 -0.268966 0)
(-0.0601295 -0.214886 0)
(-0.0448743 -0.165646 0)
(-0.0365032 -0.154539 0)
(0.0360728 -0.0789334 0)
(0.0916055 -0.0233978 0)
(0.185188 0.113777 0)
(0.252583 0.193215 0)
(0.519762 0.469374 0)
(0.0180163 -0.468561 0)
(0.0527405 -0.469918 0)
(0.0870282 -0.468952 0)
(0.119591 -0.466336 0)
(0.151682 -0.460787 0)
(0.179455 -0.450862 0)
(0.207939 -0.433449 0)
(0.221937 -0.414276 0)
(0.190124 -0.410184 0)
(0.113263 -0.458442 0)
(-0.0458279 -0.432279 0)
(-0.209504 -0.331577 0)
(-0.24127 -0.333225 0)
(-0.216881 -0.303119 0)
(-0.174601 -0.283681 0)
(-0.142317 -0.269612 0)
(-0.0811834 -0.223472 0)
(-0.0251772 -0.194499 0)
(0.0318551 -0.123595 0)
(0.0850602 -0.0925301 0)
(0.153652 0.00588974 0)
(0.223122 0.0284235 0)
(0.340646 0.194119 0)
(0.0167783 -0.500018 0)
(0.0471335 -0.495628 0)
(0.0774011 -0.483425 0)
(0.106577 -0.461281 0)
(0.13254 -0.42045 0)
(0.163246 -0.350667 0)
(0.190731 -0.225959 0)
(0.23535 -0.0169808 0)
(0.155867 0.0183946 0)
(-0.153179 -0.234496 0)
(-0.510503 -0.180761 0)
(-0.529542 -0.205533 0)
(-0.364468 -0.431284 0)
(-0.276093 -0.451418 0)
(-0.186329 -0.438846 0)
(-0.116364 -0.383433 0)
(-0.052056 -0.332919 0)
(0.00815296 -0.273724 0)
(0.0489193 -0.175464 0)
(0.129505 -0.121269 0)
(0.210898 0.00834029 0)
(0.294072 0.0543887 0)
(0.378247 0.166419 0)
(-0.0357069 0.24723 0)
(-0.108483 0.243425 0)
(-0.178478 0.225966 0)
(-0.243089 0.198008 0)
(-0.295056 0.139884 0)
(-0.314706 0.0238701 0)
(-0.271557 -0.158979 0)
(-0.260678 -0.295825 0)
(0.071395 0.12495 0)
(-0.13897 0.861161 0)
(-0.43254 0.681252 0)
(-0.100077 0.0710254 0)
(-0.0166447 0.127685 0)
(0.0446979 0.148755 0)
(0.057604 0.0211131 0)
(0.0620074 -0.328444 0)
(0.0683925 -0.413888 0)
(0.120617 -0.403045 0)
(0.147073 -0.365455 0)
(0.242949 -0.316277 0)
(0.281445 -0.223848 0)
(0.36151 -0.150137 0)
(0.471072 -0.0838828 0)
(-0.039146 -0.82256 0)
(-0.108788 -0.82586 0)
(-0.158503 -0.827545 0)
(-0.192776 -0.832285 0)
(-0.203558 -0.8358 0)
(-0.199249 -0.839808 0)
(-0.213893 -0.812901 0)
(-0.301159 -0.756921 0)
(-0.299024 -0.575307 0)
(-0.218793 -0.212052 0)
(0.187201 -0.77645 0)
(0.347466 -0.971579 0)
(0.36873 -0.970629 0)
(0.452584 -0.841679 0)
(0.573401 -0.571513 0)
(0.62656 -0.103482 0)
(0.577702 0.193541 0)
(0.476924 0.305781 0)
(0.391294 0.340033 0)
(0.304227 0.30419 0)
(0.331247 0.0404458 0)
(0.369151 -0.171271 0)
(0.40208 -0.180539 0)
(-0.0218022 -0.0175122 0)
(-0.0558019 -0.0362554 0)
(-0.0770526 -0.0619927 0)
(-0.0932313 -0.0994921 0)
(-0.103307 -0.144551 0)
(-0.111599 -0.196341 0)
(-0.123795 -0.223528 0)
(-0.146883 -0.17491 0)
(-0.139355 0.12528 0)
(-0.0821517 0.282919 0)
(0.135038 -0.114718 0)
(0.0552104 -0.394608 0)
(0.0353146 -0.4507 0)
(-0.00977877 -0.511692 0)
(-0.0383155 -0.589883 0)
(-0.0223283 -0.633806 0)
(0.0406332 -0.660315 0)
(0.101787 -0.620437 0)
(0.153996 -0.578613 0)
(0.165587 -0.515085 0)
(0.213869 -0.232825 0)
(0.0744313 0.0223008 0)
(0.104703 0.184556 0)
(-0.00760834 -0.389922 0)
(-0.0186865 -0.418187 0)
(-0.0282914 -0.445351 0)
(-0.0410781 -0.47708 0)
(-0.0577889 -0.509373 0)
(-0.0826108 -0.538669 0)
(-0.121987 -0.551506 0)
(-0.160387 -0.536742 0)
(-0.131988 -0.484508 0)
(0.0729373 -0.440312 0)
(0.22696 -0.585345 0)
(0.152049 -0.597075 0)
(0.0784461 -0.570167 0)
(0.0274328 -0.47697 0)
(0.00359516 -0.394967 0)
(0.00500725 -0.273094 0)
(0.00526041 -0.15454 0)
(-0.00628749 -0.0830854 0)
(0.00994104 -0.0758804 0)
(-0.0239607 -0.124201 0)
(-0.0769868 -0.224529 0)
(-0.121277 -0.307434 0)
(-0.0603899 -0.207433 0)
(0.00396961 -0.260786 0)
(0.0118145 -0.285379 0)
(0.0154728 -0.30401 0)
(0.0113976 -0.325012 0)
(0.000816157 -0.344243 0)
(-0.0170187 -0.357846 0)
(-0.040662 -0.356859 0)
(-0.0639285 -0.33061 0)
(-0.0701254 -0.279493 0)
(-0.0203297 -0.261817 0)
(-0.00382707 -0.381019 0)
(-0.0434765 -0.454118 0)
(-0.068154 -0.510251 0)
(-0.0770987 -0.526563 0)
(-0.0723397 -0.519833 0)
(-0.0611935 -0.478513 0)
(-0.0451449 -0.418822 0)
(-0.0377037 -0.350205 0)
(-0.0570633 -0.274177 0)
(-0.130477 -0.120647 0)
(-0.18156 0.109236 0)
(-0.362845 0.158045 0)
(-0.4583 0.21873 0)
(0.00250766 -0.252775 0)
(0.00709109 -0.279012 0)
(0.00934941 -0.297905 0)
(0.00605063 -0.320863 0)
(-0.00305949 -0.343353 0)
(-0.0197264 -0.360685 0)
(-0.0421316 -0.370112 0)
(-0.0677528 -0.372546 0)
(-0.0782759 -0.369869 0)
(-0.068637 -0.368909 0)
(-0.076132 -0.407951 0)
(-0.100954 -0.446116 0)
(-0.132399 -0.486683 0)
(-0.155558 -0.505257 0)
(-0.192683 -0.489079 0)
(-0.231055 -0.435281 0)
(-0.272124 -0.349699 0)
(-0.30903 -0.271671 0)
(-0.379694 -0.203699 0)
(-0.415843 -0.156566 0)
(-0.380825 -0.111316 0)
(-0.325401 -0.16687 0)
(-0.280399 -0.165726 0)
(0.00264347 -0.295638 0)
(0.00613238 -0.315747 0)
(0.00659948 -0.324477 0)
(0.00229014 -0.334814 0)
(-0.00955287 -0.344288 0)
(-0.0293144 -0.348758 0)
(-0.0519197 -0.349477 0)
(-0.074724 -0.348648 0)
(-0.0913163 -0.348375 0)
(-0.0945258 -0.356414 0)
(-0.107712 -0.39658 0)
(-0.13806 -0.428997 0)
(-0.174789 -0.447281 0)
(-0.233883 -0.434135 0)
(-0.289929 -0.402837 0)
(-0.329989 -0.342597 0)
(-0.366249 -0.245174 0)
(-0.392071 -0.147251 0)
(-0.405828 -0.0635088 0)
(-0.404783 0.00657268 0)
(-0.388193 0.0434326 0)
(-0.392221 0.0614996 0)
(-0.416724 0.0621529 0)
(0.000627338 -0.289531 0)
(-0.000484818 -0.308638 0)
(-0.00464625 -0.314853 0)
(-0.0159958 -0.320877 0)
(-0.0296241 -0.323936 0)
(-0.0461258 -0.326929 0)
(-0.0636905 -0.329497 0)
(-0.0803956 -0.330795 0)
(-0.0933331 -0.334439 0)
(-0.104581 -0.344676 0)
(-0.123765 -0.357745 0)
(-0.162305 -0.37672 0)
(-0.215209 -0.379794 0)
(-0.273404 -0.387545 0)
(-0.328241 -0.387702 0)
(-0.38453 -0.345207 0)
(-0.430899 -0.275266 0)
(-0.439617 -0.236596 0)
(-0.430358 -0.213672 0)
(-0.395922 -0.185978 0)
(-0.353451 -0.149319 0)
(-0.325471 -0.133947 0)
(-0.295064 -0.11868 0)
(-0.00167951 -0.286463 0)
(-0.00708078 -0.302564 0)
(-0.015787 -0.304586 0)
(-0.0260687 -0.307723 0)
(-0.037673 -0.311869 0)
(-0.04947 -0.314964 0)
(-0.061499 -0.317541 0)
(-0.0726763 -0.319238 0)
(-0.0828152 -0.320802 0)
(-0.0989316 -0.324932 0)
(-0.123115 -0.333494 0)
(-0.161557 -0.334159 0)
(-0.199735 -0.334263 0)
(-0.24225 -0.331486 0)
(-0.294232 -0.315476 0)
(-0.33812 -0.284746 0)
(-0.347841 -0.22488 0)
(-0.345612 -0.167896 0)
(-0.339136 -0.13633 0)
(-0.330167 -0.101088 0)
(-0.316027 -0.0542806 0)
(-0.309255 -0.0338561 0)
(-0.305821 -0.0280782 0)
(-0.00339773 -0.278187 0)
(-0.0114895 -0.293118 0)
(-0.0191771 -0.294659 0)
(-0.0279638 -0.298483 0)
(-0.0380774 -0.301625 0)
(-0.0487536 -0.303926 0)
(-0.0600307 -0.304949 0)
(-0.0715034 -0.306429 0)
(-0.0838175 -0.308473 0)
(-0.0986251 -0.310502 0)
(-0.121916 -0.308924 0)
(-0.142556 -0.30701 0)
(-0.164534 -0.302829 0)
(-0.193573 -0.291608 0)
(-0.225988 -0.276336 0)
(-0.258903 -0.258818 0)
(-0.284876 -0.240061 0)
(-0.295962 -0.21191 0)
(-0.300126 -0.190052 0)
(-0.298262 -0.172149 0)
(-0.28979 -0.145122 0)
(-0.272455 -0.112592 0)
(-0.269929 -0.0884171 0)
(-0.00329881 -0.27153 0)
(-0.0111127 -0.286077 0)
(-0.0196869 -0.287084 0)
(-0.0292701 -0.28862 0)
(-0.0396491 -0.290446 0)
(-0.05112 -0.292546 0)
(-0.0630018 -0.294514 0)
(-0.0752771 -0.295106 0)
(-0.0886042 -0.294072 0)
(-0.104828 -0.291739 0)
(-0.119956 -0.289209 0)
(-0.135951 -0.285876 0)
(-0.157774 -0.279086 0)
(-0.176363 -0.271644 0)
(-0.198022 -0.263205 0)
(-0.2169 -0.242489 0)
(-0.234733 -0.216669 0)
(-0.252394 -0.190743 0)
(-0.258726 -0.15876 0)
(-0.260275 -0.135051 0)
(-0.26244 -0.111946 0)
(-0.26402 -0.0774165 0)
(-0.266118 -0.0582512 0)
(-0.00395461 -0.262811 0)
(-0.0129309 -0.276275 0)
(-0.0222799 -0.276177 0)
(-0.0318973 -0.276967 0)
(-0.0421226 -0.27772 0)
(-0.0531381 -0.277953 0)
(-0.0651039 -0.277847 0)
(-0.0780671 -0.277331 0)
(-0.0925141 -0.276534 0)
(-0.107453 -0.275189 0)
(-0.123241 -0.271726 0)
(-0.141563 -0.264853 0)
(-0.158312 -0.257674 0)
(-0.17698 -0.249525 0)
(-0.195098 -0.234872 0)
(-0.209324 -0.215911 0)
(-0.222694 -0.195156 0)
(-0.23149 -0.176325 0)
(-0.239151 -0.166518 0)
(-0.248557 -0.150077 0)
(-0.24716 -0.120699 0)
(-0.249776 -0.0888636 0)
(-0.2472 -0.0754169 0)
(-0.00363628 -0.257126 0)
(-0.0117729 -0.269923 0)
(-0.0204279 -0.269874 0)
(-0.0296391 -0.270287 0)
(-0.0395248 -0.27032 0)
(-0.0500758 -0.27003 0)
(-0.0612898 -0.269222 0)
(-0.0734923 -0.267916 0)
(-0.0870292 -0.266132 0)
(-0.102467 -0.263531 0)
(-0.118506 -0.259009 0)
(-0.131371 -0.253678 0)
(-0.144789 -0.247475 0)
(-0.161532 -0.235185 0)
(-0.177887 -0.222602 0)
(-0.193029 -0.210701 0)
(-0.204033 -0.195069 0)
(-0.212236 -0.175326 0)
(-0.22169 -0.151475 0)
(-0.227939 -0.131966 0)
(-0.234241 -0.115525 0)
(-0.23433 -0.0906261 0)
(-0.228857 -0.0767761 0)
(-0.00398809 -0.246438 0)
(-0.0128599 -0.258492 0)
(-0.0218319 -0.2576 0)
(-0.031203 -0.257318 0)
(-0.041043 -0.25671 0)
(-0.0514468 -0.2557 0)
(-0.0624359 -0.254207 0)
(-0.0740437 -0.252129 0)
(-0.0861467 -0.249198 0)
(-0.0981701 -0.24516 0)
(-0.109967 -0.241511 0)
(-0.123762 -0.23605 0)
(-0.138868 -0.225865 0)
(-0.15141 -0.21709 0)
(-0.162705 -0.205715 0)
(-0.176359 -0.190276 0)
(-0.190531 -0.173931 0)
(-0.199611 -0.158813 0)
(-0.205916 -0.14757 0)
(-0.208929 -0.137133 0)
(-0.214025 -0.115371 0)
(-0.216957 -0.0904913 0)
(-0.213764 -0.0802747 0)
(-0.00397643 -0.240754 0)
(-0.0126876 -0.252428 0)
(-0.0214656 -0.251682 0)
(-0.0303655 -0.251229 0)
(-0.0394465 -0.250364 0)
(-0.0486593 -0.249089 0)
(-0.0580973 -0.247311 0)
(-0.0679286 -0.244957 0)
(-0.078453 -0.241893 0)
(-0.0898591 -0.237694 0)
(-0.102778 -0.231642 0)
(-0.116434 -0.223916 0)
(-0.129364 -0.217125 0)
(-0.142772 -0.207401 0)
(-0.155165 -0.195963 0)
(-0.164212 -0.186298 0)
(-0.170286 -0.176322 0)
(-0.179495 -0.162009 0)
(-0.186376 -0.143578 0)
(-0.193942 -0.121231 0)
(-0.201397 -0.106619 0)
(-0.201115 -0.0959639 0)
(-0.199573 -0.0820757 0)
(-0.00381226 -0.229953 0)
(-0.0121481 -0.241074 0)
(-0.0206388 -0.240049 0)
(-0.0293832 -0.239189 0)
(-0.0384852 -0.237871 0)
(-0.0480162 -0.236094 0)
(-0.0579907 -0.233795 0)
(-0.0683793 -0.230867 0)
(-0.0789685 -0.227093 0)
(-0.0894862 -0.22224 0)
(-0.0993257 -0.216258 0)
(-0.10878 -0.210875 0)
(-0.118586 -0.203143 0)
(-0.128077 -0.194228 0)
(-0.137846 -0.184516 0)
(-0.148357 -0.171628 0)
(-0.160492 -0.15659 0)
(-0.170939 -0.143 0)
(-0.176635 -0.131842 0)
(-0.180217 -0.123792 0)
(-0.182013 -0.108627 0)
(-0.186549 -0.0920564 0)
(-0.188701 -0.0808711 0)
(-0.00368023 -0.225223 0)
(-0.0115926 -0.236015 0)
(-0.0196134 -0.234934 0)
(-0.0277328 -0.23393 0)
(-0.0360562 -0.232446 0)
(-0.0446209 -0.230473 0)
(-0.0535129 -0.227952 0)
(-0.0627782 -0.224818 0)
(-0.0724076 -0.221005 0)
(-0.082301 -0.21641 0)
(-0.0924338 -0.210564 0)
(-0.102766 -0.202642 0)
(-0.113291 -0.1945 0)
(-0.123693 -0.185888 0)
(-0.133612 -0.176298 0)
(-0.141734 -0.16643 0)
(-0.147886 -0.156914 0)
(-0.152875 -0.145273 0)
(-0.158823 -0.13054 0)
(-0.165343 -0.114657 0)
(-0.171076 -0.102293 0)
(-0.174396 -0.0909391 0)
(-0.176695 -0.078958 0)
(-0.00354053 -0.214653 0)
(-0.0112562 -0.224919 0)
(-0.0190076 -0.223709 0)
(-0.0268701 -0.222436 0)
(-0.0348703 -0.220647 0)
(-0.0430032 -0.218322 0)
(-0.0512584 -0.215405 0)
(-0.059634 -0.21183 0)
(-0.0681535 -0.207523 0)
(-0.0768724 -0.202466 0)
(-0.0857497 -0.196928 0)
(-0.094519 -0.191202 0)
(-0.102848 -0.184058 0)
(-0.110915 -0.175433 0)
(-0.118789 -0.166041 0)
(-0.12685 -0.155815 0)
(-0.135034 -0.144305 0)
(-0.143034 -0.132924 0)
(-0.149369 -0.122247 0)
(-0.153793 -0.111628 0)
(-0.157711 -0.0995812 0)
(-0.162201 -0.0873096 0)
(-0.165722 -0.0758887 0)
(-0.00335261 -0.210066 0)
(-0.0104612 -0.220197 0)
(-0.0176917 -0.219023 0)
(-0.0249645 -0.21775 0)
(-0.0323949 -0.215955 0)
(-0.0400022 -0.213624 0)
(-0.0478041 -0.210695 0)
(-0.0557764 -0.207102 0)
(-0.0638418 -0.20276 0)
(-0.071882 -0.197568 0)
(-0.0798582 -0.191388 0)
(-0.0879202 -0.184263 0)
(-0.0960843 -0.176655 0)
(-0.104063 -0.168645 0)
(-0.111648 -0.159857 0)
(-0.118679 -0.150317 0)
(-0.125073 -0.140366 0)
(-0.130883 -0.129561 0)
(-0.136488 -0.117915 0)
(-0.141705 -0.106068 0)
(-0.146386 -0.0948277 0)
(-0.150847 -0.0837177 0)
(-0.154703 -0.0724389 0)
(-0.00311264 -0.201604 0)
(-0.00979872 -0.211188 0)
(-0.0165552 -0.209919 0)
(-0.0233421 -0.208415 0)
(-0.0302311 -0.206354 0)
(-0.0372173 -0.203741 0)
(-0.0443055 -0.200558 0)
(-0.0514981 -0.196789 0)
(-0.058799 -0.192429 0)
(-0.0661959 -0.187474 0)
(-0.0736059 -0.18191 0)
(-0.0808861 -0.175669 0)
(-0.0879693 -0.168559 0)
(-0.0949146 -0.160562 0)
(-0.101715 -0.151906 0)
(-0.108275 -0.142674 0)
(-0.114551 -0.132838 0)
(-0.12049 -0.122661 0)
(-0.125899 -0.112215 0)
(-0.130674 -0.101494 0)
(-0.135097 -0.0905878 0)
(-0.139667 -0.0796392 0)
(-0.143861 -0.06861 0)
(-0.00292765 -0.196478 0)
(-0.00907515 -0.205938 0)
(-0.015327 -0.204719 0)
(-0.0215794 -0.203219 0)
(-0.0279239 -0.201164 0)
(-0.0343505 -0.198543 0)
(-0.0408601 -0.195322 0)
(-0.0474388 -0.191465 0)
(-0.054062 -0.186938 0)
(-0.0607006 -0.181715 0)
(-0.0673366 -0.175792 0)
(-0.0739604 -0.169207 0)
(-0.0805262 -0.162034 0)
(-0.0869353 -0.154299 0)
(-0.0931194 -0.145948 0)
(-0.0990542 -0.137004 0)
(-0.104703 -0.12756 0)
(-0.110059 -0.117629 0)
(-0.115133 -0.107294 0)
(-0.119848 -0.0967203 0)
(-0.12426 -0.0861144 0)
(-0.128751 -0.0754583 0)
(-0.133062 -0.0645915 0)
(-0.00266856 -0.190164 0)
(-0.00827122 -0.199273 0)
(-0.0139879 -0.198031 0)
(-0.0196847 -0.196419 0)
(-0.0254637 -0.194242 0)
(-0.0313102 -0.191499 0)
(-0.0372259 -0.188183 0)
(-0.043203 -0.184285 0)
(-0.049225 -0.179797 0)
(-0.0552651 -0.174709 0)
(-0.0612858 -0.169008 0)
(-0.0672445 -0.162678 0)
(-0.0731095 -0.155705 0)
(-0.0788642 -0.148101 0)
(-0.0844779 -0.139923 0)
(-0.0899063 -0.131219 0)
(-0.0951231 -0.12203 0)
(-0.100115 -0.112428 0)
(-0.104869 -0.102464 0)
(-0.109349 -0.0922064 0)
(-0.113607 -0.0817777 0)
(-0.117962 -0.0712444 0)
(-0.122282 -0.0604854 0)
(-0.00243367 -0.185227 0)
(-0.00746843 -0.194149 0)
(-0.01264 -0.192931 0)
(-0.0177754 -0.191278 0)
(-0.0229875 -0.189058 0)
(-0.0282533 -0.186266 0)
(-0.0335747 -0.182893 0)
(-0.0389429 -0.178931 0)
(-0.044343 -0.174372 0)
(-0.0497556 -0.169211 0)
(-0.0551578 -0.163453 0)
(-0.0605241 -0.157105 0)
(-0.065824 -0.150186 0)
(-0.0710227 -0.142712 0)
(-0.0760925 -0.134695 0)
(-0.0810134 -0.126168 0)
(-0.0857686 -0.117173 0)
(-0.0903548 -0.107756 0)
(-0.0947788 -0.0979693 0)
(-0.099022 -0.0878745 0)
(-0.103099 -0.0775673 0)
(-0.107256 -0.0671074 0)
(-0.111473 -0.0563992 0)
(-0.0021638 -0.180428 0)
(-0.00661058 -0.189115 0)
(-0.0112241 -0.187906 0)
(-0.015784 -0.186191 0)
(-0.020424 -0.183907 0)
(-0.0251139 -0.181054 0)
(-0.0298583 -0.177629 0)
(-0.0346497 -0.173635 0)
(-0.0394729 -0.169073 0)
(-0.0443074 -0.163943 0)
(-0.0491297 -0.158245 0)
(-0.0539156 -0.151981 0)
(-0.0586431 -0.145155 0)
(-0.0632927 -0.137783 0)
(-0.0678452 -0.129891 0)
(-0.0722836 -0.121506 0)
(-0.0765979 -0.112665 0)
(-0.0807872 -0.103407 0)
(-0.084862 -0.0937709 0)
(-0.088821 -0.0838 0)
(-0.092669 -0.0735623 0)
(-0.0965846 -0.0631231 0)
(-0.100622 -0.0524218 0)
(-0.00187879 -0.176381 0)
(-0.0057237 -0.184868 0)
(-0.0097752 -0.183671 0)
(-0.0137518 -0.181902 0)
(-0.0178134 -0.179565 0)
(-0.0219202 -0.176655 0)
(-0.0260817 -0.17317 0)
(-0.0302961 -0.169125 0)
(-0.0345494 -0.16453 0)
(-0.038822 -0.159386 0)
(-0.0430906 -0.153697 0)
(-0.0473324 -0.147466 0)
(-0.0515276 -0.140698 0)
(-0.0556592 -0.133407 0)
(-0.0597129 -0.125611 0)
(-0.0636792 -0.117333 0)
(-0.0675532 -0.108602 0)
(-0.0713383 -0.0994491 0)
(-0.0750479 -0.0899074 0)
(-0.0786914 -0.0800089 0)
(-0.0822722 -0.0698024 0)
(-0.0859135 -0.0593477 0)
(-0.0897086 -0.0486167 0)
(-0.00155697 -0.172859 0)
(-0.00479488 -0.18111 0)
(-0.0082988 -0.179921 0)
(-0.011688 -0.178098 0)
(-0.0151629 -0.175712 0)
(-0.0186732 -0.17275 0)
(-0.0222331 -0.169214 0)
(-0.0258559 -0.165131 0)
(-0.029535 -0.160512 0)
(-0.0332563 -0.155362 0)
(-0.0369964 -0.149686 0)
(-0.0407261 -0.143486 0)
(-0.0444221 -0.136767 0)
(-0.048068 -0.129539 0)
(-0.0516488 -0.121815 0)
(-0.0551584 -0.113614 0)
(-0.0585978 -0.104961 0)
(-0.0619726 -0.0958815 0)
(-0.065299 -0.0863984 0)
(-0.0685956 -0.0765357 0)
(-0.0718724 -0.0663281 0)
(-0.0752128 -0.055829 0)
(-0.0787234 -0.0450365 0)
(-0.00119477 -0.169962 0)
(-0.00385701 -0.177891 0)
(-0.00687957 -0.176715 0)
(-0.00970735 -0.174863 0)
(-0.012604 -0.172457 0)
(-0.0155104 -0.169488 0)
(-0.018393 -0.165929 0)
(-0.0212696 -0.161782 0)
(-0.0242089 -0.157082 0)
(-0.027272 -0.151864 0)
(-0.0304803 -0.146164 0)
(-0.0337937 -0.139997 0)
(-0.0370763 -0.13332 0)
(-0.0403254 -0.126148 0)
(-0.0435157 -0.11849 0)
(-0.0466282 -0.110353 0)
(-0.0496663 -0.101761 0)
(-0.0526427 -0.0927311 0)
(-0.0555762 -0.0832731 0)
(-0.0584996 -0.0734109 0)
(-0.0614381 -0.0631715 0)
(-0.0644529 -0.0525985 0)
(-0.0676461 -0.041708 0)
(-0.000795204 -0.167822 0)
(-0.00301313 -0.17525 0)
(-0.00575294 -0.174101 0)
(-0.00814831 -0.172263 0)
(-0.0105829 -0.169879 0)
(-0.0129651 -0.166939 0)
(-0.0151816 -0.163353 0)
(-0.0173172 -0.159158 0)
(-0.0193877 -0.154344 0)
(-0.0214355 -0.148939 0)
(-0.023563 -0.143 0)
(-0.0259334 -0.136618 0)
(-0.0286542 -0.129865 0)
(-0.0316037 -0.122725 0)
(-0.0346787 -0.115201 0)
(-0.0377254 -0.107274 0)
(-0.0405369 -0.0988595 0)
(-0.0432133 -0.0899471 0)
(-0.0458026 -0.0805388 0)
(-0.0483557 -0.0706676 0)
(-0.0509335 -0.0603716 0)
(-0.053596 -0.0497096 0)
(-0.0564574 -0.0387054 0)
(-0.000437591 -0.166619 0)
(-0.00252025 -0.173273 0)
(-0.00534246 -0.172172 0)
(-0.00761681 -0.170406 0)
(-0.00990281 -0.168063 0)
(-0.0120618 -0.165161 0)
(-0.0142243 -0.161738 0)
(-0.0162777 -0.157693 0)
(-0.0181747 -0.153013 0)
(-0.0198623 -0.147684 0)
(-0.021293 -0.141687 0)
(-0.0225163 -0.135096 0)
(-0.0236493 -0.128 0)