/*--------------------------------*- C++ -*----------------------------------*\
| =========                 |                                                 |
| \\      /  F ield         | OpenFOAM: The Open Source CFD Toolbox           |
|  \\    /   O peration     | Version:  2.4.0                                 |
|   \\  /    A nd           | Web:      www.OpenFOAM.org                      |
|    \\/     M anipulation  |                                                 |
\*---------------------------------------------------------------------------*/
FoamFile
{
    version     2.0;
    format      ascii;
    class       volVectorField;
    location    "0.3";
    object      U.air;
}
// * * * * * * * * * * * * * * * * * * * * * * * * * * * * * * * * * * * * * //

dimensions      [0 1 -1 0 0 0 0];

internalField   nonuniform List<vector> 
2268
(
(0.0199972 -0.0094003 0)
(0.059359 -0.00943869 0)
(0.100793 -0.00940766 0)
(0.137505 -0.0097463 0)
(0.184514 -0.00900526 0)
(0.216084 -0.01125 0)
(0.270897 -0.00799399 0)
(0.296787 -0.0108986 0)
(0.347536 -0.0120068 0)
(0.405245 -0.010137 0)
(0.441303 -0.00768609 0)
(0.463616 -0.0101836 0)
(0.513884 -0.00979621 0)
(0.5638 -0.0131158 0)
(0.614646 -0.0111606 0)
(0.651989 -0.00491655 0)
(0.659896 0.00261808 0)
(0.646463 0.00601088 0)
(0.606761 0.00982746 0)
(0.528574 0.0236155 0)
(0.402427 0.0279777 0)
(0.247403 0.0591615 0)
(0.0515047 0.0196245 0)
(0.0199952 -0.0282138 0)
(0.0593805 -0.028352 0)
(0.100826 -0.0281761 0)
(0.137371 -0.0296089 0)
(0.185009 -0.0260546 0)
(0.215992 -0.0356 0)
(0.269406 -0.0222179 0)
(0.298944 -0.032476 0)
(0.348523 -0.0377982 0)
(0.404888 -0.0307032 0)
(0.438523 -0.0233675 0)
(0.464558 -0.0262895 0)
(0.51862 -0.034865 0)
(0.572495 -0.038848 0)
(0.619236 -0.0313498 0)
(0.653615 -0.0174739 0)
(0.659224 0.000928606 0)
(0.647469 0.0249455 0)
(0.607025 0.05195 0)
(0.545226 0.0851783 0)
(0.423281 0.105333 0)
(0.292301 0.109495 0)
(0.0597356 0.116811 0)
(0.0199659 -0.0469972 0)
(0.0593536 -0.0472134 0)
(0.100625 -0.046954 0)
(0.137285 -0.0490645 0)
(0.185034 -0.044692 0)
(0.215501 -0.0559711 0)
(0.26758 -0.0404471 0)
(0.302643 -0.0543934 0)
(0.34828 -0.0607507 0)
(0.400037 -0.0487961 0)
(0.435141 -0.0408097 0)
(0.472878 -0.0491054 0)
(0.533108 -0.0604917 0)
(0.570012 -0.062125 0)
(0.620216 -0.0538045 0)
(0.646291 -0.0226304 0)
(0.657495 0.00173356 0)
(0.660244 0.0266992 0)
(0.635634 0.0576597 0)
(0.579907 0.100175 0)
(0.453392 0.159248 0)
(0.245156 0.201816 0)
(0.114258 0.191572 0)
(0.0199253 -0.0658343 0)
(0.0593245 -0.0660973 0)
(0.100259 -0.0658192 0)
(0.137487 -0.0687508 0)
(0.184237 -0.0627419 0)
(0.21556 -0.0774435 0)
(0.266316 -0.0587072 0)
(0.303945 -0.0756152 0)
(0.348605 -0.0824353 0)
(0.393466 -0.0689506 0)
(0.43103 -0.061921 0)
(0.491454 -0.0728514 0)
(0.536736 -0.0786147 0)
(0.574402 -0.0820326 0)
(0.608898 -0.0649787 0)
(0.632667 -0.0372594 0)
(0.665919 -0.0015739 0)
(0.679552 0.0463093 0)
(0.693295 0.117825 0)
(0.65077 0.184109 0)
(0.538312 0.27996 0)
(0.310622 0.275684 0)
(0.0671307 0.289614 0)
(0.0198795 -0.0850315 0)
(0.0592449 -0.0852994 0)
(0.0998628 -0.0851554 0)
(0.137472 -0.0884917 0)
(0.18355 -0.0821014 0)
(0.214307 -0.0970855 0)
(0.26707 -0.0792833 0)
(0.30204 -0.0973114 0)
(0.350281 -0.100704 0)
(0.386071 -0.0859387 0)
(0.434364 -0.090275 0)
(0.503031 -0.0942888 0)
(0.536706 -0.0983743 0)
(0.577412 -0.0890584 0)
(0.607794 -0.0796862 0)
(0.642222 -0.0425961 0)
(0.701583 -0.0302794 0)
(0.751434 -0.0050179 0)
(0.756277 0.0633117 0)
(0.689203 0.158416 0)
(0.588202 0.333965 0)
(0.361788 0.395267 0)
(0.132484 0.363388 0)
(0.0198539 -0.103329 0)
(0.0591668 -0.10353 0)
(0.099546 -0.103456 0)
(0.137605 -0.107051 0)
(0.182375 -0.0995059 0)
(0.214146 -0.115676 0)
(0.267364 -0.0986874 0)
(0.301779 -0.114452 0)
(0.348381 -0.118329 0)
(0.387036 -0.108022 0)
(0.444923 -0.116667 0)
(0.498725 -0.119071 0)
(0.542094 -0.126172 0)
(0.589503 -0.136884 0)
(0.621928 -0.140978 0)
(0.663617 -0.14292 0)
(0.685144 -0.143932 0)
(0.67198 -0.0767964 0)
(0.690941 0.0490905 0)
(0.626132 0.197421 0)
(0.548702 0.401233 0)
(0.397005 0.476469 0)
(0.119067 0.508173 0)
(0.0199442 -0.117638 0)
(0.0593458 -0.117894 0)
(0.0999207 -0.11825 0)
(0.138221 -0.12247 0)
(0.18161 -0.11551 0)
(0.217228 -0.134735 0)
(0.263686 -0.120578 0)
(0.311079 -0.138973 0)
(0.338623 -0.145733 0)
(0.39783 -0.151468 0)
(0.448993 -0.165518 0)
(0.490327 -0.176854 0)
(0.529714 -0.210835 0)
(0.55802 -0.209598 0)
(0.540066 -0.211274 0)
(0.459578 -0.108598 0)
(0.336955 0.0318527 0)
(0.233111 0.0199705 0)
(0.421438 0.0538798 0)
(0.463769 0.210715 0)
(0.439669 0.444614 0)
(0.346475 0.561262 0)
(0.147697 0.586982 0)
(0.0201353 -0.143347 0)
(0.0597518 -0.14415 0)
(0.100709 -0.145627 0)
(0.138691 -0.151531 0)
(0.17998 -0.147081 0)
(0.221696 -0.169455 0)
(0.256732 -0.16614 0)
(0.314083 -0.178083 0)
(0.334096 -0.201676 0)
(0.390312 -0.214684 0)
(0.409373 -0.238035 0)
(0.423558 -0.259018 0)
(0.391212 -0.245532 0)
(0.333459 -0.168345 0)
(0.233919 -0.104313 0)
(0.252639 -0.119915 0)
(0.311478 -0.0962285 0)
(0.364932 -0.0223881 0)
(0.288336 0.0288446 0)
(0.342084 0.163975 0)
(0.241182 0.41244 0)
(0.286196 0.610021 0)
(0.111432 0.736101 0)
(-0.417724 0.281505 0)
(-0.9479 0.162164 0)
(-1.35171 0.0918034 0)
(-1.49726 0.0541902 0)
(-1.46656 -0.0332422 0)
(-1.27892 -0.0691605 0)
(-0.940173 -0.0527782 0)
(-0.668622 -0.0530193 0)
(-0.274716 -0.0646879 0)
(0.157828 -0.0514653 0)
(0.513785 -0.0154771 0)
(0.700273 -0.0175504 0)
(0.799709 -0.00107743 0)
(0.670687 0.0220976 0)
(0.427474 0.256151 0)
(0.186566 0.244696 0)
(0.104618 0.267442 0)
(-0.122473 0.245041 0)
(-0.0185284 0.219888 0)
(-0.431306 0.714272 0)
(-0.942662 0.338402 0)
(-1.33951 0.157733 0)
(-1.4053 0.0349658 0)
(-1.29573 -0.0499479 0)
(-1.16437 -0.148996 0)
(-0.804975 -0.188778 0)
(-0.460096 -0.258143 0)
(-0.114818 -0.243456 0)
(0.25124 -0.251216 0)
(0.595855 -0.158445 0)
(0.818881 -0.114735 0)
(0.95209 -0.0690764 0)
(0.872857 0.0036266 0)
(0.609488 0.436335 0)
(0.333076 0.447249 0)
(0.245288 0.505841 0)
(-0.034182 0.488061 0)
(-0.0137293 0.32679 0)
(-0.365648 1.055 0)
(-0.894913 0.482811 0)
(-1.27043 0.239908 0)
(-1.26943 0.00514506 0)
(-1.25123 -0.157522 0)
(-1.13914 -0.29502 0)
(-0.655669 -0.399522 0)
(-0.435398 -0.386225 0)
(-0.0345366 -0.435255 0)
(0.308945 -0.456689 0)
(0.69244 -0.344892 0)
(0.930757 -0.290885 0)
(1.05102 -0.181985 0)
(1.02033 -0.077961 0)
(0.894544 0.200358 0)
(0.544186 0.299024 0)
(0.312704 0.489606 0)
(0.0127047 0.386212 0)
(0.0274304 0.196852 0)
(-0.351574 1.41971 0)
(-0.741635 0.7069 0)
(-1.06799 0.249367 0)
(-1.04715 0.00730841 0)
(-1.05949 -0.128283 0)
(-0.966101 -0.406491 0)
(-0.622867 -0.559514 0)
(-0.310638 -0.541305 0)
(0.095032 -0.596118 0)
(0.448928 -0.646796 0)
(0.812311 -0.520564 0)
(1.0386 -0.405266 0)
(1.1213 -0.231825 0)
(1.08811 -0.0743954 0)
(1.00058 0.150201 0)
(0.682712 0.326393 0)
(0.427603 0.650079 0)
(0.132029 0.607145 0)
(0.121951 0.389746 0)
(-0.338195 1.53926 0)
(-0.655861 1.1236 0)
(-0.723305 0.719517 0)
(-0.747408 0.401814 0)
(-0.809328 0.0843389 0)
(-0.69765 -0.322243 0)
(-0.472363 -0.654457 0)
(-0.159569 -0.695873 0)
(0.271933 -0.764877 0)
(0.62851 -0.802579 0)
(0.960931 -0.639547 0)
(1.13285 -0.494451 0)
(1.19044 -0.264657 0)
(1.13303 -0.0531991 0)
(1.02943 0.200691 0)
(0.742314 0.356244 0)
(0.444576 0.7447 0)
(0.104627 0.718077 0)
(0.0783024 0.455082 0)
(-0.104232 1.64246 0)
(-0.143842 1.35458 0)
(-0.131587 0.602268 0)
(-0.345716 0.355726 0)
(-0.599039 0.33423 0)
(-0.729372 -0.0329406 0)
(-0.466591 -0.526028 0)
(0.0559587 -0.825499 0)
(0.462401 -0.909808 0)
(0.802934 -0.71588 0)
(1.12139 -0.434744 0)
(1.25848 -0.30795 0)
(1.28848 -0.178743 0)
(1.19569 -0.00921987 0)
(1.04197 0.291851 0)
(0.698789 0.459554 0)
(0.426756 0.933602 0)
(0.166478 0.844104 0)
(0.0399805 0.531413 0)
(-0.0534669 1.726 0)
(0.183756 1.25735 0)
(0.14723 0.371647 0)
(-0.718461 0.515597 0)
(-0.237076 0.0364986 0)
(-0.413534 -0.0834801 0)
(-0.50194 -0.368444 0)
(0.164265 -0.852658 0)
(0.563315 -0.859043 0)
(0.843397 -0.467401 0)
(1.09442 -0.0313377 0)
(1.08758 0.335394 0)
(1.06331 0.568464 0)
(1.12056 0.390629 0)
(1.09596 0.4087 0)
(0.773801 0.500654 0)
(0.439925 1.01117 0)
(0.247159 0.955482 0)
(0.122232 0.565355 0)
(-0.0374232 1.83217 0)
(0.430784 0.805185 0)
(0.353291 0.201616 0)
(-0.2214 -0.338666 0)
(-1.46887 0.271758 0)
(-0.186659 -0.332445 0)
(-0.472601 -0.432977 0)
(0.215056 -0.81109 0)
(0.526595 -0.754401 0)
(0.826383 -0.556435 0)
(1.12292 -0.350986 0)
(1.16629 -0.0918994 0)
(1.0618 0.300961 0)
(0.97141 0.967952 0)
(0.981472 0.776111 0)
(0.813693 0.768049 0)
(0.481436 1.11886 0)
(0.279803 0.939327 0)
(0.185336 0.591608 0)
(0.0199663 -0.245545 0)
(0.0589807 -0.246758 0)
(0.0986028 -0.248822 0)
(0.133706 -0.252381 0)
(0.16665 -0.253087 0)
(0.209749 -0.261736 0)
(0.220901 -0.265491 0)
(0.261885 -0.261963 0)
(0.275835 -0.26695 0)
(0.2664 -0.263136 0)
(0.267376 -0.2222 0)
(0.273433 -0.199287 0)
(0.288331 -0.210564 0)
(0.323483 -0.160097 0)
(0.374029 -0.0975825 0)
(0.413418 0.0104012 0)
(0.398852 0.0925066 0)
(0.386327 0.104599 0)
(0.310305 0.165562 0)
(0.386576 0.2956 0)
(0.216276 0.387635 0)
(0.325639 0.583249 0)
(0.90598 0.781921 0)
(0.0110473 -0.242922 0)
(0.0328018 -0.238449 0)
(0.0556167 -0.229049 0)
(0.0763101 -0.21738 0)
(0.0960363 -0.210501 0)
(0.1205 -0.202374 0)
(0.136699 -0.192804 0)
(0.163826 -0.203199 0)
(0.198174 -0.199986 0)
(0.228674 -0.201328 0)
(0.279651 -0.220823 0)
(0.343248 -0.216106 0)
(0.392226 -0.183067 0)
(0.430593 -0.149402 0)
(0.448385 -0.104701 0)
(0.492772 -0.107961 0)
(0.51884 -0.0759773 0)
(0.599053 0.0104576 0)
(0.528888 0.120544 0)
(0.625738 0.29793 0)
(0.469946 0.533526 0)
(0.481258 0.484786 0)
(0.483287 0.648795 0)
(0.0125292 -0.285109 0)
(0.037727 -0.286732 0)
(0.0658062 -0.283879 0)
(0.0965626 -0.283276 0)
(0.128618 -0.279438 0)
(0.163069 -0.27645 0)
(0.197261 -0.26454 0)
(0.231787 -0.271218 0)
(0.273122 -0.249754 0)
(0.304423 -0.239982 0)
(0.355374 -0.236671 0)
(0.393191 -0.225103 0)
(0.432883 -0.203607 0)
(0.473033 -0.178641 0)
(0.523998 -0.151386 0)
(0.590239 -0.123097 0)
(0.629423 -0.0396542 0)
(0.680314 0.0297489 0)
(0.701363 0.163766 0)
(0.71675 0.291487 0)
(0.78731 0.571727 0)
(0.742956 0.605474 0)
(0.524811 0.636394 0)
(0.0166659 -0.235076 0)
(0.0489265 -0.23597 0)
(0.0815693 -0.233824 0)
(0.113958 -0.233822 0)
(0.144534 -0.233091 0)
(0.176843 -0.236459 0)
(0.207945 -0.231795 0)
(0.238253 -0.25033 0)
(0.27594 -0.237456 0)
(0.30258 -0.248935 0)
(0.356124 -0.261161 0)
(0.390871 -0.262373 0)
(0.440079 -0.24637 0)
(0.491651 -0.238575 0)
(0.565976 -0.216039 0)
(0.632006 -0.193532 0)
(0.689588 -0.107242 0)
(0.744019 -0.04392 0)
(0.810757 0.111737 0)
(0.83402 0.262876 0)
(0.874978 0.434379 0)
(1.00113 0.70607 0)
(0.753408 0.751009 0)
(0.0156804 -0.281089 0)
(0.0475884 -0.282898 0)
(0.0789049 -0.284575 0)
(0.110457 -0.2857 0)
(0.140909 -0.288604 0)
(0.170265 -0.291839 0)
(0.200729 -0.291067 0)
(0.226288 -0.306055 0)
(0.263479 -0.294107 0)
(0.289781 -0.32291 0)
(0.348184 -0.32643 0)
(0.383178 -0.321907 0)
(0.446942 -0.330056 0)
(0.520935 -0.324832 0)
(0.604477 -0.301372 0)
(0.655652 -0.26763 0)
(0.724984 -0.173165 0)
(0.779047 -0.097065 0)
(0.8281 0.0574756 0)
(0.86472 0.22763 0)
(0.878428 0.363076 0)
(1.01565 0.664076 0)
(0.915213 0.826962 0)
(0.0156064 -0.326509 0)
(0.0472474 -0.327743 0)
(0.0781743 -0.327087 0)
(0.108985 -0.325872 0)
(0.140177 -0.324464 0)
(0.168773 -0.323056 0)
(0.199025 -0.322422 0)
(0.225205 -0.329462 0)
(0.258817 -0.328282 0)
(0.288075 -0.364163 0)
(0.344336 -0.361477 0)
(0.386783 -0.378381 0)
(0.45275 -0.402703 0)
(0.510183 -0.397045 0)
(0.562678 -0.375409 0)
(0.576632 -0.335072 0)
(0.618685 -0.260681 0)
(0.621959 -0.169396 0)
(0.621124 0.0180923 0)
(0.707226 0.198205 0)
(0.719753 0.33657 0)
(0.906039 0.636917 0)
(0.944075 0.853421 0)
(0.0163604 -0.249375 0)
(0.0484053 -0.245442 0)
(0.0811006 -0.24123 0)
(0.112092 -0.235281 0)
(0.143207 -0.227909 0)
(0.171442 -0.220086 0)
(0.201376 -0.215176 0)
(0.216837 -0.216925 0)
(0.245602 -0.23539 0)
(0.257589 -0.294227 0)
(0.305505 -0.334939 0)
(0.339827 -0.381446 0)
(0.358339 -0.39143 0)
(0.33663 -0.426111 0)
(0.293756 -0.387884 0)
(0.229919 -0.332791 0)
(0.179575 -0.217626 0)
(0.14853 -0.107092 0)
(0.211293 0.00584875 0)
(0.295247 0.0836962 0)
(0.40273 0.181581 0)
(0.561822 0.410198 0)
(0.86101 0.790783 0)
(0.0158023 -0.0694768 0)
(0.0479317 -0.0630437 0)
(0.0804127 -0.0578882 0)
(0.115222 -0.0501037 0)
(0.149964 -0.0406734 0)
(0.182893 -0.0304233 0)
(0.207833 -0.0173677 0)
(0.203181 0.00498432 0)
(0.18369 -0.00926058 0)
(0.215408 -0.0844415 0)
(0.274318 -0.0889834 0)
(0.222809 -0.0909346 0)
(0.12692 -0.0341102 0)
(0.0196583 -0.128264 0)
(-0.0529854 -0.148115 0)
(-0.0608079 -0.141043 0)
(-0.0452414 -0.127792 0)
(-0.0364427 -0.143257 0)
(0.0362697 -0.0780664 0)
(0.091962 -0.0225807 0)
(0.18731 0.110718 0)
(0.263973 0.193594 0)
(0.54599 0.487942 0)
(0.017698 -0.0840413 0)
(0.051928 -0.0837659 0)
(0.0856226 -0.0804987 0)
(0.117517 -0.0754695 0)
(0.149267 -0.0688271 0)
(0.177814 -0.0609403 0)
(0.214207 -0.0500213 0)
(0.226067 -0.0480427 0)
(0.170332 -0.0288136 0)
(0.110132 0.00280942 0)
(0.0143688 0.118308 0)
(-0.176246 0.193607 0)
(-0.272854 0.12574 0)
(-0.281545 0.0904009 0)
(-0.257353 0.0525052 0)
(-0.198063 0.00107927 0)
(-0.0907359 -0.0290466 0)
(-0.0229964 -0.0661042 0)
(0.0315568 -0.0315455 0)
(0.0850815 -0.0253832 0)
(0.153683 0.0118589 0)
(0.223232 0.0293515 0)
(0.351232 0.207157 0)
(0.0173015 -0.386124 0)
(0.0484031 -0.383461 0)
(0.0791387 -0.374161 0)
(0.108706 -0.356166 0)
(0.134927 -0.320762 0)
(0.166115 -0.257758 0)
(0.19373 -0.142011 0)
(0.237906 0.0537913 0)
(0.155935 0.097079 0)
(-0.144845 -0.059676 0)
(-0.517553 0.0305485 0)
(-0.534702 -0.0610335 0)
(-0.380329 -0.265503 0)
(-0.312261 -0.241037 0)
(-0.23931 -0.171631 0)
(-0.161441 -0.0480922 0)
(-0.0802762 0.0263057 0)
(-0.033322 0.0735083 0)
(-0.00885695 0.155944 0)
(0.040956 0.172848 0)
(0.150081 0.191609 0)
(0.285437 0.204674 0)
(0.37696 0.297047 0)
(-0.035727 0.247868 0)
(-0.108526 0.243942 0)
(-0.178526 0.226321 0)
(-0.243125 0.198205 0)
(-0.295076 0.13997 0)
(-0.314713 0.0238982 0)
(-0.271559 -0.158972 0)
(-0.260654 -0.295751 0)
(0.0718378 0.125742 0)
(-0.138338 0.864698 0)
(-0.432496 0.681602 0)
(-0.100021 0.0712357 0)
(-0.0162434 0.129905 0)
(0.0476513 0.166479 0)
(0.0599751 0.0698606 0)
(0.0602337 -0.230881 0)
(0.0630436 -0.283039 0)
(0.110577 -0.241325 0)
(0.127553 -0.167439 0)
(0.204414 -0.0799326 0)
(0.236841 0.096187 0)
(0.329341 0.216503 0)
(0.452599 0.319708 0)
(-0.039146 -0.822561 0)
(-0.108788 -0.825861 0)
(-0.158503 -0.827546 0)
(-0.192776 -0.832285 0)
(-0.203558 -0.8358 0)
(-0.199249 -0.839809 0)
(-0.213893 -0.812901 0)
(-0.301159 -0.75692 0)
(-0.299024 -0.575307 0)
(-0.218793 -0.212052 0)
(0.187202 -0.776451 0)
(0.347466 -0.971579 0)
(0.36873 -0.97063 0)
(0.452585 -0.841679 0)
(0.573402 -0.571513 0)
(0.626562 -0.103475 0)
(0.57775 0.193738 0)
(0.477356 0.307963 0)
(0.392311 0.349549 0)
(0.305241 0.331204 0)
(0.330726 0.112538 0)
(0.365823 -0.062696 0)
(0.397368 -0.0442972 0)
(-0.0218022 -0.0175122 0)
(-0.0558019 -0.0362555 0)
(-0.0770527 -0.0619928 0)
(-0.0932314 -0.0994923 0)
(-0.103308 -0.144551 0)
(-0.111599 -0.196341 0)
(-0.123795 -0.223528 0)
(-0.146884 -0.17491 0)
(-0.139355 0.12528 0)
(-0.0821517 0.282919 0)
(0.135038 -0.114718 0)
(0.0552105 -0.394609 0)
(0.0353146 -0.4507 0)
(-0.00977877 -0.511693 0)
(-0.0383155 -0.589883 0)
(-0.0223283 -0.633806 0)
(0.0406331 -0.660315 0)
(0.101787 -0.620437 0)
(0.153996 -0.578612 0)
(0.165587 -0.515085 0)
(0.213869 -0.232825 0)
(0.0744311 0.022301 0)
(0.104703 0.184556 0)
(-0.00760836 -0.389922 0)
(-0.0186865 -0.418188 0)
(-0.0282915 -0.445352 0)
(-0.0410781 -0.47708 0)
(-0.057789 -0.509374 0)
(-0.0826109 -0.53867 0)
(-0.121987 -0.551507 0)
(-0.160388 -0.536743 0)
(-0.131988 -0.484508 0)
(0.0729374 -0.440312 0)
(0.22696 -0.585346 0)
(0.152049 -0.597076 0)
(0.0784461 -0.570168 0)
(0.0274328 -0.47697 0)
(0.00359516 -0.394967 0)
(0.00500725 -0.273094 0)
(0.00526041 -0.15454 0)
(-0.00628749 -0.0830854 0)
(0.00994104 -0.0758804 0)
(-0.0239607 -0.124201 0)
(-0.0769868 -0.224529 0)
(-0.121277 -0.307434 0)
(-0.0603898 -0.207433 0)
(0.00396962 -0.260786 0)
(0.0118145 -0.285379 0)
(0.0154728 -0.304011 0)
(0.0113976 -0.325013 0)
(0.000816158 -0.344244 0)
(-0.0170188 -0.357846 0)
(-0.0406621 -0.35686 0)
(-0.0639285 -0.330611 0)
(-0.0701254 -0.279493 0)
(-0.0203297 -0.261817 0)
(-0.00382707 -0.381019 0)
(-0.0434766 -0.454118 0)
(-0.068154 -0.510252 0)
(-0.0770987 -0.526563 0)
(-0.0723397 -0.519834 0)
(-0.0611935 -0.478513 0)
(-0.0451449 -0.418822 0)
(-0.0377037 -0.350206 0)
(-0.0570633 -0.274177 0)
(-0.130477 -0.120647 0)
(-0.18156 0.109236 0)
(-0.362845 0.158045 0)
(-0.4583 0.21873 0)
(0.00250766 -0.252776 0)
(0.0070911 -0.279012 0)
(0.00934943 -0.297906 0)
(0.00605064 -0.320863 0)
(-0.00305949 -0.343354 0)
(-0.0197264 -0.360686 0)
(-0.0421317 -0.370113 0)
(-0.0677528 -0.372546 0)
(-0.0782759 -0.369869 0)
(-0.0686371 -0.368909 0)
(-0.076132 -0.407951 0)
(-0.100954 -0.446116 0)
(-0.132399 -0.486683 0)
(-0.155558 -0.505257 0)
(-0.192683 -0.489079 0)
(-0.231055 -0.435281 0)
(-0.272125 -0.349699 0)
(-0.30903 -0.271671 0)
(-0.379694 -0.203699 0)
(-0.415843 -0.156567 0)
(-0.380825 -0.111316 0)
(-0.325401 -0.16687 0)
(-0.280399 -0.165726 0)
(0.00264347 -0.295639 0)
(0.00613239 -0.315747 0)
(0.00659949 -0.324478 0)
(0.00229015 -0.334815 0)
(-0.00955288 -0.344288 0)
(-0.0293144 -0.348758 0)
(-0.0519197 -0.349477 0)
(-0.074724 -0.348648 0)
(-0.0913163 -0.348375 0)
(-0.0945258 -0.356414 0)
(-0.107712 -0.39658 0)
(-0.13806 -0.428997 0)
(-0.174789 -0.447281 0)
(-0.233883 -0.434135 0)
(-0.289929 -0.402837 0)
(-0.329989 -0.342597 0)
(-0.366249 -0.245174 0)
(-0.392071 -0.147251 0)
(-0.405828 -0.0635088 0)
(-0.404783 0.00657269 0)
(-0.388193 0.0434326 0)
(-0.392222 0.0614997 0)
(-0.416725 0.0621529 0)
(0.000627339 -0.289531 0)
(-0.000484818 -0.308638 0)
(-0.00464625 -0.314853 0)
(-0.0159958 -0.320877 0)
(-0.0296241 -0.323936 0)
(-0.0461258 -0.326929 0)
(-0.0636905 -0.329497 0)
(-0.0803956 -0.330795 0)
(-0.0933331 -0.33444 0)
(-0.104581 -0.344676 0)
(-0.123765 -0.357745 0)
(-0.162305 -0.37672 0)
(-0.215209 -0.379794 0)
(-0.273404 -0.387545 0)
(-0.328241 -0.387702 0)
(-0.38453 -0.345207 0)
(-0.430899 -0.275266 0)
(-0.439617 -0.236596 0)
(-0.430358 -0.213672 0)
(-0.395923 -0.185978 0)
(-0.353452 -0.149319 0)
(-0.325472 -0.133947 0)
(-0.295064 -0.11868 0)
(-0.00167951 -0.286464 0)
(-0.00708078 -0.302565 0)
(-0.015787 -0.304586 0)
(-0.0260687 -0.307724 0)
(-0.037673 -0.31187 0)
(-0.04947 -0.314964 0)
(-0.061499 -0.317541 0)
(-0.0726763 -0.319238 0)
(-0.0828152 -0.320802 0)
(-0.0989316 -0.324932 0)
(-0.123115 -0.333494 0)
(-0.161557 -0.334159 0)
(-0.199735 -0.334263 0)
(-0.24225 -0.331486 0)
(-0.294232 -0.315476 0)
(-0.33812 -0.284746 0)
(-0.347841 -0.22488 0)
(-0.345612 -0.167896 0)
(-0.339135 -0.13633 0)
(-0.330167 -0.101088 0)
(-0.316027 -0.0542806 0)
(-0.309255 -0.0338561 0)
(-0.305821 -0.0280782 0)
(-0.00339773 -0.278187 0)
(-0.0114895 -0.293118 0)
(-0.0191771 -0.294659 0)
(-0.0279638 -0.298483 0)
(-0.0380774 -0.301625 0)
(-0.0487536 -0.303926 0)
(-0.0600307 -0.304949 0)
(-0.0715034 -0.306429 0)
(-0.0838175 -0.308473 0)
(-0.0986251 -0.310502 0)
(-0.121916 -0.308924 0)
(-0.142556 -0.30701 0)
(-0.164534 -0.302829 0)
(-0.193573 -0.291608 0)
(-0.225988 -0.276336 0)
(-0.258903 -0.258818 0)
(-0.284876 -0.240061 0)
(-0.295961 -0.21191 0)
(-0.300125 -0.190052 0)
(-0.298262 -0.172149 0)
(-0.28979 -0.145122 0)
(-0.272455 -0.112592 0)
(-0.269929 -0.088417 0)
(-0.00329882 -0.271531 0)
(-0.0111127 -0.286078 0)
(-0.0196869 -0.287085 0)
(-0.0292701 -0.28862 0)
(-0.0396491 -0.290446 0)
(-0.05112 -0.292546 0)
(-0.0630018 -0.294514 0)
(-0.0752771 -0.295106 0)
(-0.0886042 -0.294072 0)
(-0.104828 -0.291739 0)
(-0.119956 -0.289208 0)
(-0.135951 -0.285876 0)
(-0.157775 -0.279086 0)
(-0.176364 -0.271644 0)
(-0.198022 -0.263205 0)
(-0.2169 -0.242489 0)
(-0.234733 -0.216669 0)
(-0.252394 -0.190742 0)
(-0.258726 -0.15876 0)
(-0.260274 -0.135051 0)
(-0.262439 -0.111946 0)
(-0.264019 -0.0774164 0)
(-0.266118 -0.0582511 0)
(-0.00395462 -0.262811 0)
(-0.0129309 -0.276275 0)
(-0.0222799 -0.276178 0)
(-0.0318973 -0.276967 0)
(-0.0421226 -0.27772 0)
(-0.0531381 -0.277953 0)
(-0.065104 -0.277847 0)
(-0.0780671 -0.277332 0)
(-0.0925141 -0.276534 0)
(-0.107453 -0.275189 0)
(-0.123241 -0.271726 0)
(-0.141563 -0.264853 0)
(-0.158312 -0.257674 0)
(-0.17698 -0.249525 0)
(-0.195099 -0.234873 0)
(-0.209324 -0.215911 0)
(-0.222694 -0.195156 0)
(-0.23149 -0.176325 0)
(-0.239151 -0.166518 0)
(-0.248557 -0.150077 0)
(-0.24716 -0.120699 0)
(-0.249775 -0.0888635 0)
(-0.2472 -0.0754168 0)
(-0.00363628 -0.257126 0)
(-0.0117729 -0.269923 0)
(-0.0204279 -0.269875 0)
(-0.0296391 -0.270287 0)
(-0.0395248 -0.27032 0)
(-0.0500758 -0.27003 0)
(-0.0612898 -0.269222 0)
(-0.0734924 -0.267916 0)
(-0.0870292 -0.266132 0)
(-0.102467 -0.26353 0)
(-0.118506 -0.259008 0)
(-0.131371 -0.253678 0)
(-0.144789 -0.247476 0)
(-0.161532 -0.235185 0)
(-0.177887 -0.222602 0)
(-0.193029 -0.210702 0)
(-0.204033 -0.19507 0)
(-0.212236 -0.175326 0)
(-0.22169 -0.151475 0)
(-0.227939 -0.131966 0)
(-0.234241 -0.115525 0)
(-0.23433 -0.090626 0)
(-0.228857 -0.0767761 0)
(-0.00398809 -0.246438 0)
(-0.0128599 -0.258492 0)
(-0.0218319 -0.2576 0)
(-0.0312031 -0.257318 0)
(-0.041043 -0.25671 0)
(-0.0514468 -0.2557 0)
(-0.0624359 -0.254207 0)
(-0.0740437 -0.252129 0)
(-0.0861467 -0.249198 0)
(-0.0981701 -0.24516 0)
(-0.109967 -0.241511 0)
(-0.123761 -0.23605 0)
(-0.138868 -0.225865 0)
(-0.15141 -0.21709 0)
(-0.162705 -0.205715 0)
(-0.176359 -0.190276 0)
(-0.190531 -0.173931 0)
(-0.199611 -0.158813 0)
(-0.205916 -0.14757 0)
(-0.20893 -0.137133 0)
(-0.214025 -0.115371 0)
(-0.216957 -0.0904914 0)
(-0.213764 -0.0802747 0)
(-0.00397643 -0.240754 0)
(-0.0126876 -0.252428 0)
(-0.0214656 -0.251683 0)
(-0.0303655 -0.251229 0)
(-0.0394465 -0.250364 0)
(-0.0486594 -0.249089 0)
(-0.0580973 -0.247311 0)
(-0.0679286 -0.244957 0)
(-0.078453 -0.241893 0)
(-0.0898591 -0.237694 0)
(-0.102778 -0.231642 0)
(-0.116434 -0.223916 0)
(-0.129364 -0.217125 0)
(-0.142772 -0.207401 0)
(-0.155165 -0.195963 0)
(-0.164213 -0.186298 0)
(-0.170286 -0.176323 0)
(-0.179495 -0.162009 0)
(-0.186376 -0.143579 0)
(-0.193942 -0.121231 0)
(-0.201397 -0.106619 0)
(-0.201115 -0.0959641 0)
(-0.199573 -0.0820758 0)
(-0.00381227 -0.229953 0)
(-0.0121481 -0.241074 0)
(-0.0206388 -0.24005 0)
(-0.0293832 -0.239189 0)
(-0.0384852 -0.237871 0)
(-0.0480162 -0.236094 0)
(-0.0579907 -0.233795 0)
(-0.0683793 -0.230867 0)
(-0.0789685 -0.227093 0)
(-0.0894862 -0.22224 0)
(-0.0993257 -0.216258 0)
(-0.10878 -0.210875 0)
(-0.118586 -0.203143 0)
(-0.128077 -0.194228 0)
(-0.137846 -0.184516 0)
(-0.148357 -0.171628 0)
(-0.160493 -0.15659 0)
(-0.170939 -0.143 0)
(-0.176636 -0.131842 0)
(-0.180218 -0.123792 0)
(-0.182013 -0.108628 0)
(-0.18655 -0.0920566 0)
(-0.188702 -0.0808714 0)
(-0.00368023 -0.225223 0)
(-0.0115926 -0.236015 0)
(-0.0196134 -0.234934 0)
(-0.0277328 -0.23393 0)
(-0.0360562 -0.232446 0)
(-0.0446209 -0.230473 0)
(-0.0535129 -0.227952 0)
(-0.0627782 -0.224818 0)
(-0.0724076 -0.221005 0)
(-0.082301 -0.21641 0)
(-0.0924338 -0.210564 0)
(-0.102766 -0.202642 0)
(-0.113291 -0.1945 0)
(-0.123693 -0.185888 0)
(-0.133612 -0.176298 0)
(-0.141734 -0.16643 0)
(-0.147886 -0.156914 0)
(-0.152875 -0.145273 0)
(-0.158823 -0.130541 0)
(-0.165343 -0.114657 0)
(-0.171076 -0.102293 0)
(-0.174397 -0.0909393 0)
(-0.176695 -0.0789582 0)
(-0.00354053 -0.214653 0)
(-0.0112562 -0.224919 0)
(-0.0190076 -0.223709 0)
(-0.0268701 -0.222436 0)
(-0.0348703 -0.220647 0)
(-0.0430033 -0.218322 0)
(-0.0512584 -0.215405 0)
(-0.059634 -0.21183 0)
(-0.0681535 -0.207523 0)
(-0.0768723 -0.202466 0)
(-0.0857497 -0.196928 0)
(-0.094519 -0.191202 0)
(-0.102848 -0.184058 0)
(-0.110915 -0.175433 0)
(-0.118789 -0.166041 0)
(-0.12685 -0.155815 0)
(-0.135034 -0.144305 0)
(-0.143034 -0.132924 0)
(-0.149369 -0.122248 0)
(-0.153793 -0.111628 0)
(-0.157711 -0.0995814 0)
(-0.162202 -0.0873098 0)
(-0.165723 -0.0758889 0)
(-0.00335261 -0.210067 0)
(-0.0104612 -0.220197 0)
(-0.0176917 -0.219023 0)
(-0.0249645 -0.21775 0)
(-0.0323949 -0.215955 0)
(-0.0400022 -0.213624 0)
(-0.0478041 -0.210695 0)
(-0.0557764 -0.207102 0)
(-0.0638418 -0.20276 0)
(-0.071882 -0.197568 0)
(-0.0798582 -0.191388 0)
(-0.0879202 -0.184263 0)
(-0.0960843 -0.176655 0)
(-0.104063 -0.168645 0)
(-0.111648 -0.159857 0)
(-0.118679 -0.150317 0)
(-0.125073 -0.140366 0)
(-0.130883 -0.129561 0)
(-0.136488 -0.117915 0)
(-0.141705 -0.106068 0)
(-0.146386 -0.0948278 0)
(-0.150847 -0.0837179 0)
(-0.154704 -0.0724391 0)
(-0.00311264 -0.201604 0)
(-0.00979872 -0.211188 0)
(-0.0165552 -0.209919 0)
(-0.0233421 -0.208415 0)
(-0.0302311 -0.206354 0)
(-0.0372173 -0.203741 0)
(-0.0443055 -0.200558 0)
(-0.0514981 -0.196789 0)
(-0.058799 -0.192429 0)
(-0.0661959 -0.187474 0)
(-0.0736059 -0.18191 0)
(-0.0808861 -0.175669 0)
(-0.0879693 -0.168559 0)
(-0.0949146 -0.160562 0)
(-0.101715 -0.151906 0)
(-0.108275 -0.142674 0)
(-0.114551 -0.132838 0)
(-0.12049 -0.122661 0)
(-0.125899 -0.112215 0)
(-0.130674 -0.101494 0)
(-0.135098 -0.0905879 0)
(-0.139667 -0.0796394 0)
(-0.143861 -0.0686102 0)
(-0.00292765 -0.196478 0)
(-0.00907515 -0.205939 0)
(-0.015327 -0.204719 0)
(-0.0215794 -0.203219 0)
(-0.0279239 -0.201164 0)
(-0.0343505 -0.198543 0)
(-0.0408601 -0.195322 0)
(-0.0474388 -0.191465 0)
(-0.054062 -0.186938 0)
(-0.0607006 -0.181715 0)
(-0.0673366 -0.175792 0)
(-0.0739604 -0.169207 0)
(-0.0805262 -0.162034 0)
(-0.0869353 -0.154299 0)
(-0.0931193 -0.145948 0)
(-0.0990542 -0.137004 0)
(-0.104703 -0.12756 0)
(-0.110059 -0.117629 0)
(-0.115133 -0.107294 0)
(-0.119848 -0.0967204 0)
(-0.12426 -0.0861145 0)
(-0.128751 -0.0754584 0)
(-0.133062 -0.0645916 0)
(-0.00266857 -0.190164 0)
(-0.00827123 -0.199273 0)
(-0.0139879 -0.198031 0)
(-0.0196847 -0.196419 0)
(-0.0254637 -0.194242 0)
(-0.0313102 -0.191499 0)
(-0.0372259 -0.188183 0)
(-0.043203 -0.184285 0)
(-0.049225 -0.179797 0)
(-0.0552651 -0.174709 0)
(-0.0612858 -0.169008 0)
(-0.0672445 -0.162678 0)
(-0.0731095 -0.155704 0)
(-0.0788642 -0.148101 0)
(-0.0844778 -0.139923 0)
(-0.0899063 -0.131219 0)
(-0.0951231 -0.12203 0)
(-0.100115 -0.112428 0)
(-0.104869 -0.102464 0)
(-0.109349 -0.0922065 0)
(-0.113607 -0.0817777 0)
(-0.117962 -0.0712445 0)
(-0.122282 -0.0604855 0)
(-0.00243367 -0.185227 0)
(-0.00746843 -0.194149 0)
(-0.01264 -0.192932 0)
(-0.0177754 -0.191278 0)
(-0.0229875 -0.189058 0)
(-0.0282533 -0.186266 0)
(-0.0335747 -0.182893 0)
(-0.0389429 -0.178931 0)
(-0.044343 -0.174372 0)
(-0.0497556 -0.169211 0)
(-0.0551578 -0.163453 0)
(-0.0605241 -0.157105 0)
(-0.0658239 -0.150186 0)
(-0.0710227 -0.142711 0)
(-0.0760925 -0.134695 0)
(-0.0810134 -0.126168 0)
(-0.0857686 -0.117173 0)
(-0.0903548 -0.107756 0)
(-0.0947788 -0.0979693 0)
(-0.099022 -0.0878745 0)
(-0.103099 -0.0775673 0)
(-0.107256 -0.0671074 0)
(-0.111473 -0.0563993 0)
(-0.0021638 -0.180428 0)
(-0.00661058 -0.189115 0)
(-0.0112241 -0.187906 0)
(-0.015784 -0.186191 0)
(-0.020424 -0.183907 0)
(-0.0251139 -0.181054 0)
(-0.0298583 -0.177629 0)
(-0.0346497 -0.173635 0)
(-0.0394729 -0.169073 0)
(-0.0443074 -0.163943 0)
(-0.0491297 -0.158245 0)
(-0.0539156 -0.15198 0)
(-0.0586431 -0.145154 0)
(-0.0632927 -0.137783 0)
(-0.0678452 -0.12989 0)
(-0.0722836 -0.121506 0)
(-0.0765979 -0.112665 0)
(-0.0807872 -0.103407 0)
(-0.084862 -0.0937709 0)
(-0.088821 -0.0838 0)
(-0.092669 -0.0735623 0)
(-0.0965846 -0.0631231 0)
(-0.100622 -0.0524219 0)
(-0.00187879 -0.176381 0)
(-0.0057237 -0.184868 0)
(-0.0097752 -0.183671 0)
(-0.0137518 -0.181902 0)
(-0.0178134 -0.179565 0)
(-0.0219202 -0.176655 0)
(-0.0260817 -0.17317 0)
(-0.0302961 -0.169125 0)
(-0.0345494 -0.16453 0)
(-0.0388219 -0.159386 0)
(-0.0430906 -0.153697 0)
(-0.0473323 -0.147466 0)
(-0.0515276 -0.140698 0)
(-0.0556592 -0.133407 0)
(-0.0597129 -0.125611 0)
(-0.0636792 -0.117333 0)
(-0.0675532 -0.108602 0)
(-0.0713382 -0.0994491 0)
(-0.0750479 -0.0899074 0)
(-0.0786914 -0.0800089 0)
(-0.0822722 -0.0698024 0)
(-0.0859135 -0.0593477 0)
(-0.0897086 -0.0486168 0)
(-0.00155697 -0.172859 0)
(-0.00479488 -0.18111 0)
(-0.0082988 -0.179921 0)
(-0.011688 -0.178098 0)
(-0.0151629 -0.175712 0)
(-0.0186732 -0.17275 0)
(-0.0222331 -0.169214 0)
(-0.0258559 -0.165131 0)
(-0.0295349 -0.160512 0)
(-0.0332563 -0.155362 0)
(-0.0369964 -0.149686 0)
(-0.0407261 -0.143486 0)
(-0.0444221 -0.136767 0)
(-0.048068 -0.129539 0)
(-0.0516488 -0.121815 0)
(-0.0551584 -0.113614 0)
(-0.0585978 -0.104961 0)
(-0.0619726 -0.0958815 0)
(-0.065299 -0.0863984 0)
(-0.0685956 -0.0765357 0)
(-0.0718724 -0.0663281 0)
(-0.0752128 -0.055829 0)
(-0.0787234 -0.0450365 0)
(-0.00119477 -0.169962 0)
(-0.00385701 -0.177891 0)
(-0.00687957 -0.176715 0)
(-0.00970735 -0.174863 0)
(-0.012604 -0.172457 0)
(-0.0155104 -0.169488 0)
(-0.018393 -0.165929 0)
(-0.0212696 -0.161782 0)
(-0.0242089 -0.157082 0)
(-0.027272 -0.151864 0)
(-0.0304803 -0.146164 0)
(-0.0337937 -0.139997 0)
(-0.0370762 -0.13332 0)
(-0.0403254 -0.126148 0)
(-0.0435157 -0.11849 0)
(-0.0466282 -0.110353 0)
(-0.0496663 -0.101761 0)
(-0.0526427 -0.0927311 0)
(-0.0555762 -0.0832731 0)
(-0.0584996 -0.0734109 0)
(-0.0614381 -0.0631715 0)
(-0.0644529 -0.0525985 0)
(-0.0676461 -0.041708 0)
(-0.000795204 -0.167822 0)
(-0.00301313 -0.17525 0)
(-0.00575294 -0.174101 0)
(-0.00814831 -0.172264 0)
(-0.0105829 -0.169879 0)
(-0.0129651 -0.166939 0)
(-0.0151816 -0.163353 0)
(-0.0173172 -0.159158 0)
(-0.0193877 -0.154344 0)
(-0.0214355 -0.148939 0)
(-0.023563 -0.143 0)
(-0.0259334 -0.136618 0)
(-0.0286542 -0.129865 0)
(-0.0316037 -0.122725 0)
(-0.0346787 -0.115201 0)
(-0.0377254 -0.107274 0)
(-0.0405369 -0.0988595 0)
(-0.0432133 -0.0899471 0)
(-0.0458026 -0.0805388 0)
(-0.0483557 -0.0706677 0)
(-0.0509335 -0.0603716 0)
(-0.053596 -0.0497096 0)
(-0.0564574 -0.0387054 0)
(-0.000437592 -0.166619 0)
(-0.00252025 -0.173273 0)
(-0.00534246 -0.172172 0)
(-0.00761681 -0.170406 0)
(-0.00990282 -0.168063 0)
(-0.0120618 -0.165161 0)
(-0.0142243 -0.161738 0)
(-0.0162777 -0.157693 0)
(-0.0181747 -0.153013 0)
(-0.0198623 -0.147684 0)
(-0.021293 -0.141687 0)
(-0.0225163 -0.135096 0)
(-0.0236493 -0.128 0)
(-0.0248306 -0.120477 0)
(-0.0262337 -0.112549 0)