/*--------------------------------*- C++ -*----------------------------------*\
| =========                 |                                                 |
| \\      /  F ield         | OpenFOAM: The Open Source CFD Toolbox           |
|  \\    /   O peration     | Version:  2.4.0                                 |
|   \\  /    A nd           | Web:      www.OpenFOAM.org                      |
|    \\/     M anipulation  |                                                 |
\*---------------------------------------------------------------------------*/
FoamFile
{
    version     2.0;
    format      ascii;
    class       volVectorField;
    location    "0.3";
    object      U.mercury;
}
// * * * * * * * * * * * * * * * * * * * * * * * * * * * * * * * * * * * * * //

dimensions      [0 1 -1 0 0 0 0];

internalField   nonuniform List<vector> 
2268
(
(0.0199971 -0.00940036 0)
(0.0593589 -0.00943876 0)
(0.100793 -0.00940773 0)
(0.137505 -0.00974638 0)
(0.184514 -0.00900536 0)
(0.216083 -0.0112501 0)
(0.270897 -0.00799408 0)
(0.296786 -0.0108987 0)
(0.347535 -0.0120069 0)
(0.405245 -0.0101371 0)
(0.441302 -0.00768614 0)
(0.463615 -0.0101836 0)
(0.513883 -0.00979621 0)
(0.563799 -0.0131158 0)
(0.614646 -0.0111606 0)
(0.651988 -0.00491654 0)
(0.659895 0.00261804 0)
(0.646462 0.00601084 0)
(0.60676 0.00982741 0)
(0.528573 0.0236155 0)
(0.402427 0.0279777 0)
(0.247403 0.0591612 0)
(0.0515049 0.0196218 0)
(0.0199951 -0.028214 0)
(0.0593803 -0.0283523 0)
(0.100826 -0.0281763 0)
(0.137371 -0.0296092 0)
(0.185008 -0.0260549 0)
(0.215991 -0.0356004 0)
(0.269405 -0.0222183 0)
(0.298943 -0.0324763 0)
(0.348522 -0.0377986 0)
(0.404887 -0.0307035 0)
(0.438522 -0.0233678 0)
(0.464557 -0.0262897 0)
(0.518619 -0.0348651 0)
(0.572494 -0.0388481 0)
(0.619235 -0.0313499 0)
(0.653614 -0.017474 0)
(0.659223 0.00092851 0)
(0.647469 0.0249454 0)
(0.607024 0.0519497 0)
(0.545226 0.0851778 0)
(0.423281 0.105332 0)
(0.2923 0.109494 0)
(0.0597359 0.116807 0)
(0.0199659 -0.0469976 0)
(0.0593535 -0.0472138 0)
(0.100625 -0.0469544 0)
(0.137284 -0.0490649 0)
(0.185033 -0.0446925 0)
(0.2155 -0.0559717 0)
(0.267579 -0.0404476 0)
(0.302642 -0.0543939 0)
(0.348279 -0.0607513 0)
(0.400036 -0.0487966 0)
(0.43514 -0.0408102 0)
(0.472877 -0.0491058 0)
(0.533107 -0.060492 0)
(0.570011 -0.0621252 0)
(0.620215 -0.0538046 0)
(0.64629 -0.0226305 0)
(0.657494 0.00173351 0)
(0.660243 0.0266991 0)
(0.635633 0.0576593 0)
(0.579907 0.100174 0)
(0.453391 0.159247 0)
(0.245156 0.201814 0)
(0.114258 0.191564 0)
(0.0199253 -0.0658348 0)
(0.0593243 -0.0660979 0)
(0.100259 -0.0658198 0)
(0.137486 -0.0687514 0)
(0.184236 -0.0627426 0)
(0.215559 -0.0774443 0)
(0.266316 -0.058708 0)
(0.303944 -0.0756159 0)
(0.348604 -0.082436 0)
(0.393466 -0.0689513 0)
(0.431029 -0.0619216 0)
(0.491453 -0.072852 0)
(0.536736 -0.0786152 0)
(0.574402 -0.0820332 0)
(0.608898 -0.06498 0)
(0.632666 -0.037262 0)
(0.665918 -0.0015814 0)
(0.679553 0.0462979 0)
(0.693297 0.117814 0)
(0.650771 0.184099 0)
(0.538312 0.279955 0)
(0.310621 0.275681 0)
(0.0671312 0.289604 0)
(0.0198795 -0.0850322 0)
(0.0592447 -0.0853001 0)
(0.0998625 -0.0851562 0)
(0.137471 -0.0884926 0)
(0.183549 -0.0821023 0)
(0.214306 -0.0970865 0)
(0.267069 -0.0792842 0)
(0.302039 -0.0973122 0)
(0.350281 -0.100705 0)
(0.386071 -0.0859395 0)
(0.434363 -0.0902763 0)
(0.503029 -0.0942995 0)
(0.536677 -0.0985887 0)
(0.577279 -0.0902789 0)
(0.607549 -0.0823238 0)
(0.641895 -0.0467183 0)
(0.701309 -0.037003 0)
(0.751868 -0.0113377 0)
(0.757343 0.0579587 0)
(0.69018 0.154827 0)
(0.588742 0.332706 0)
(0.361804 0.395227 0)
(0.132484 0.363375 0)
(0.0198538 -0.103329 0)
(0.0591666 -0.103531 0)
(0.0995455 -0.103457 0)
(0.137604 -0.107052 0)
(0.182374 -0.0995072 0)
(0.214145 -0.115679 0)
(0.267363 -0.0986924 0)
(0.301774 -0.114491 0)
(0.348349 -0.118625 0)
(0.386923 -0.108933 0)
(0.444662 -0.118569 0)
(0.498171 -0.122916 0)
(0.540875 -0.134485 0)
(0.587371 -0.152286 0)
(0.619267 -0.1667 0)
(0.660993 -0.182082 0)
(0.68652 -0.198283 0)
(0.678184 -0.167037 0)
(0.704277 -0.0360559 0)
(0.641138 0.148261 0)
(0.555376 0.38775 0)
(0.397726 0.4749 0)
(0.119068 0.508155 0)
(0.0199408 -0.118035 0)
(0.0593334 -0.118403 0)
(0.0998926 -0.118953 0)
(0.138163 -0.123551 0)
(0.18152 -0.116854 0)
(0.217038 -0.137116 0)
(0.263408 -0.123673 0)
(0.310573 -0.143913 0)
(0.33769 -0.153651 0)
(0.396251 -0.163204 0)
(0.446483 -0.183254 0)
(0.486012 -0.204579 0)
(0.522877 -0.259894 0)
(0.555725 -0.295595 0)
(0.548344 -0.37297 0)
(0.459286 -0.42879 0)
(0.431418 -0.427326 0)
(0.413131 -0.378436 0)
(0.629289 -0.250432 0)
(0.6083 0.0325338 0)
(0.462383 0.409501 0)
(0.34948 0.555683 0)
(0.147702 0.586921 0)
(0.0200708 -0.152231 0)
(0.0595539 -0.153495 0)
(0.100357 -0.15591 0)
(0.138149 -0.163453 0)
(0.179156 -0.160569 0)
(0.220307 -0.187197 0)
(0.254716 -0.187238 0)
(0.31109 -0.205399 0)
(0.329449 -0.23971 0)
(0.383307 -0.265453 0)
(0.400403 -0.310519 0)
(0.41346 -0.378098 0)
(0.385407 -0.478223 0)
(0.361181 -0.559238 0)
(0.358608 -0.561426 0)
(0.348141 -0.429881 0)
(0.337429 -0.196518 0)
(0.39113 -0.0843603 0)
(0.396095 -0.0848541 0)
(0.597861 -0.0621406 0)
(0.304458 0.347676 0)
(0.291986 0.598453 0)
(0.111446 0.735614 0)
(-0.730693 0.114026 0)
(-1.31316 0.00202655 0)
(-1.45958 -0.0824063 0)
(-1.39707 -0.173064 0)
(-1.17053 -0.262507 0)
(-0.899486 -0.33595 0)
(-0.517021 -0.361887 0)
(-0.272581 -0.427182 0)
(0.0100953 -0.441889 0)
(0.297075 -0.445461 0)
(0.526705 -0.294827 0)
(0.802522 -0.274882 0)
(1.06606 -0.395974 0)
(1.1174 -0.395688 0)
(0.934287 -0.215328 0)
(0.480695 -0.0311654 0)
(0.283572 -0.0390999 0)
(-0.0525021 -0.101633 0)
(0.0108686 -0.0997431 0)
(-0.701387 0.38353 0)
(-1.23633 0.179114 0)
(-1.41138 0.0166609 0)
(-1.35075 -0.130635 0)
(-1.13871 -0.275154 0)
(-0.870916 -0.458901 0)
(-0.405461 -0.603588 0)
(-0.0385073 -0.739455 0)
(0.200736 -0.753912 0)
(0.459565 -0.780968 0)
(0.737789 -0.649033 0)
(1.12169 -0.80776 0)
(1.3515 -0.887004 0)
(1.39596 -0.81089 0)
(1.3274 -0.567193 0)
(0.908562 -0.0961912 0)
(0.431668 0.206365 0)
(0.0619713 0.167086 0)
(0.0394282 0.0422753 0)
(-0.593358 0.586744 0)
(-1.14726 0.313926 0)
(-1.322 0.0744995 0)
(-1.20942 -0.161045 0)
(-1.06643 -0.363071 0)
(-0.785534 -0.591133 0)
(-0.156833 -0.78269 0)
(0.15428 -0.83632 0)
(0.405049 -0.93571 0)
(0.700416 -1.0194 0)
(1.07689 -1.06121 0)
(1.3426 -1.13381 0)
(1.45195 -1.09467 0)
(1.46024 -1.00306 0)
(1.39112 -0.737768 0)
(1.06646 -0.246481 0)
(0.570717 0.189552 0)
(0.162131 0.147036 0)
(0.0977159 -0.045421 0)
(-0.5572 0.930768 0)
(-0.974357 0.548966 0)
(-1.10665 0.109504 0)
(-0.9883 -0.136738 0)
(-0.836427 -0.338354 0)
(-0.518462 -0.65996 0)
(0.0346581 -0.851036 0)
(0.427514 -0.925846 0)
(0.630392 -1.03805 0)
(0.935165 -1.14898 0)
(1.22003 -1.18333 0)
(1.41141 -1.1849 0)
(1.49557 -1.12939 0)
(1.49319 -1.04032 0)
(1.41341 -0.768986 0)
(1.1071 -0.216434 0)
(0.713746 0.23051 0)
(0.289214 0.277068 0)
(0.18015 0.0829689 0)
(-0.484907 1.12041 0)
(-0.81927 0.740831 0)
(-0.733635 0.26627 0)
(-0.712337 -0.0836608 0)
(-0.614831 -0.316671 0)
(-0.258546 -0.650098 0)
(0.314344 -0.85088 0)
(0.648422 -0.917235 0)
(0.78343 -1.06577 0)
(1.0418 -1.1596 0)
(1.27243 -1.17644 0)
(1.43566 -1.16047 0)
(1.51453 -1.1139 0)
(1.51739 -1.02898 0)
(1.41799 -0.72887 0)
(1.09795 -0.105158 0)
(0.752846 0.310751 0)
(0.292205 0.388662 0)
(0.150038 0.188678 0)
(-0.439568 1.3404 0)
(-0.649296 0.774154 0)
(-0.285033 0.0613873 0)
(-0.272958 -0.219191 0)
(-0.300104 -0.304719 0)
(-0.0280219 -0.586815 0)
(0.634461 -0.81097 0)
(0.766614 -0.89995 0)
(0.859152 -1.06497 0)
(1.09666 -1.13708 0)
(1.30449 -1.13252 0)
(1.43778 -1.1309 0)
(1.51394 -1.09634 0)
(1.52374 -0.993096 0)
(1.38915 -0.550799 0)
(0.997457 0.144577 0)
(0.74225 0.479289 0)
(0.379807 0.506526 0)
(0.13123 0.280549 0)
(-0.39308 1.53268 0)
(-0.330625 0.926528 0)
(-0.0789227 0.19195 0)
(0.0618818 -0.196292 0)
(0.104071 -0.534395 0)
(0.113946 -0.659511 0)
(0.846083 -0.795494 0)
(0.831984 -0.895652 0)
(0.915371 -1.08349 0)
(1.14122 -1.13076 0)
(1.33481 -1.11871 0)
(1.44569 -1.12875 0)
(1.51001 -1.0933 0)
(1.48449 -0.900941 0)
(1.3273 -0.222587 0)
(1.00517 0.310119 0)
(0.754874 0.550753 0)
(0.496455 0.63044 0)
(0.218811 0.407894 0)
(-0.337997 1.69978 0)
(-0.0253901 0.735659 0)
(0.103251 0.355082 0)
(-0.0533017 -0.365526 0)
(-0.199311 -0.466526 0)
(0.409882 -0.797944 0)
(0.932804 -0.759743 0)
(0.890793 -0.882204 0)
(0.974642 -1.09574 0)
(1.1924 -1.12451 0)
(1.38024 -1.10638 0)
(1.46244 -1.11419 0)
(1.51614 -1.12238 0)
(1.45322 -0.84707 0)
(1.22981 0.101757 0)
(1.02708 0.501064 0)
(0.781175 0.658318 0)
(0.451654 0.729397 0)
(0.224686 0.529779 0)
(0.0195788 -0.298888 0)
(0.0578755 -0.301604 0)
(0.0970134 -0.3067 0)
(0.131961 -0.315291 0)
(0.164805 -0.322057 0)
(0.208479 -0.343364 0)
(0.219706 -0.361509 0)
(0.2614 -0.379837 0)
(0.275278 -0.42398 0)
(0.262222 -0.475542 0)
(0.276179 -0.478979 0)
(0.299101 -0.508992 0)
(0.323209 -0.572848 0)
(0.34995 -0.598115 0)
(0.368292 -0.321375 0)
(0.42037 -0.119914 0)
(0.417912 0.00206241 0)
(0.41433 0.0300828 0)
(0.339946 0.10505 0)
(0.55712 -0.00662261 0)
(0.304888 0.198759 0)
(0.328175 0.552999 0)
(0.232377 0.781717 0)
(0.0114553 -0.546296 0)
(0.0340206 -0.546488 0)
(0.0583683 -0.545716 0)
(0.0793534 -0.546822 0)
(0.102292 -0.55548 0)
(0.128908 -0.569992 0)
(0.143949 -0.584839 0)
(0.173432 -0.614209 0)
(0.203787 -0.630125 0)
(0.229856 -0.558136 0)
(0.269469 -0.413885 0)
(0.341309 -0.292123 0)
(0.390779 -0.220319 0)
(0.431737 -0.176132 0)
(0.4519 -0.125277 0)
(0.498765 -0.126244 0)
(0.522771 -0.0951268 0)
(0.597405 -0.00943217 0)
(0.532485 0.0986948 0)
(0.638046 0.255479 0)
(0.43661 0.168565 0)
(0.481525 0.394558 0)
(0.359096 0.648494 0)
(0.0122889 -0.487843 0)
(0.0342496 -0.469438 0)
(0.0612907 -0.433251 0)
(0.0925562 -0.391962 0)
(0.127497 -0.351017 0)
(0.164137 -0.323564 0)
(0.200673 -0.301047 0)
(0.233824 -0.298621 0)
(0.273918 -0.270258 0)
(0.304568 -0.255794 0)
(0.355262 -0.247261 0)
(0.39336 -0.233244 0)
(0.433013 -0.210317 0)
(0.473402 -0.184427 0)
(0.52418 -0.156702 0)
(0.590267 -0.128178 0)
(0.629625 -0.0448142 0)
(0.680784 0.0243374 0)
(0.701882 0.156799 0)
(0.721567 0.278173 0)
(0.728024 0.277351 0)
(0.703179 0.362675 0)
(0.487006 0.611918 0)
(0.0166985 -0.242984 0)
(0.0489906 -0.243541 0)
(0.0816778 -0.240856 0)
(0.114101 -0.240144 0)
(0.144692 -0.238682 0)
(0.177009 -0.241341 0)
(0.208078 -0.236058 0)
(0.238346 -0.253801 0)
(0.275982 -0.240372 0)
(0.302583 -0.251179 0)
(0.356082 -0.262954 0)
(0.390849 -0.263775 0)
(0.440055 -0.247583 0)
(0.49162 -0.239628 0)
(0.565946 -0.216942 0)
(0.63199 -0.194369 0)
(0.689572 -0.108229 0)
(0.743995 -0.0451812 0)
(0.810685 0.110109 0)
(0.834924 0.255827 0)
(0.839869 0.288879 0)
(0.864086 0.363205 0)
(0.631106 0.653276 0)
(0.0156805 -0.282 0)
(0.0475883 -0.283794 0)
(0.0789045 -0.28544 0)
(0.110456 -0.286525 0)
(0.140908 -0.289387 0)
(0.170264 -0.292583 0)
(0.200727 -0.291773 0)
(0.226285 -0.306698 0)
(0.263475 -0.29471 0)
(0.289774 -0.323376 0)
(0.348177 -0.326781 0)
(0.383173 -0.322136 0)
(0.44693 -0.330295 0)
(0.520925 -0.325407 0)
(0.604477 -0.302348 0)
(0.655722 -0.268988 0)
(0.725015 -0.174766 0)
(0.778994 -0.0988736 0)
(0.827981 0.0556286 0)
(0.86463 0.224582 0)
(0.862927 0.289098 0)
(0.873526 0.337237 0)
(0.726998 0.664235 0)
(0.0156063 -0.326838 0)
(0.047247 -0.328095 0)
(0.0781732 -0.327484 0)
(0.108983 -0.326366 0)
(0.140173 -0.325136 0)
(0.168768 -0.324059 0)
(0.199017 -0.323986 0)
(0.225198 -0.331768 0)
(0.258808 -0.330821 0)
(0.288061 -0.366034 0)
(0.344324 -0.362269 0)
(0.386797 -0.379624 0)
(0.452828 -0.404624 0)
(0.510379 -0.398835 0)
(0.56286 -0.376977 0)
(0.576798 -0.336399 0)
(0.618744 -0.261765 0)
(0.621972 -0.170166 0)
(0.621025 0.0173581 0)
(0.707313 0.197205 0)
(0.721323 0.317223 0)
(0.831852 0.344958 0)
(0.729499 0.641449 0)
(0.0163608 -0.347538 0)
(0.0484054 -0.348743 0)
(0.0810979 -0.347161 0)
(0.11208 -0.345426 0)
(0.143174 -0.34292 0)
(0.171375 -0.34078 0)
(0.201271 -0.341023 0)
(0.21676 -0.343723 0)
(0.245502 -0.353426 0)
(0.257309 -0.394252 0)
(0.304816 -0.414209 0)
(0.338051 -0.455478 0)
(0.35512 -0.482205 0)
(0.334399 -0.451903 0)
(0.293257 -0.396708 0)
(0.230192 -0.333679 0)
(0.180308 -0.216782 0)
(0.149165 -0.105629 0)
(0.211523 0.00742368 0)
(0.294511 0.0849699 0)
(0.403246 0.181616 0)
(0.656376 0.292969 0)
(0.702823 0.568616 0)
(0.0164796 -0.370823 0)
(0.0495052 -0.371932 0)
(0.0814649 -0.370232 0)
(0.113733 -0.36736 0)
(0.143733 -0.363331 0)
(0.171481 -0.359132 0)
(0.195473 -0.353022 0)
(0.208706 -0.345264 0)
(0.213248 -0.349966 0)
(0.205949 -0.383585 0)
(0.205681 -0.423796 0)
(0.162836 -0.44534 0)
(0.0703818 -0.401638 0)
(-0.0247137 -0.342307 0)
(-0.0593616 -0.281715 0)
(-0.0606637 -0.2205 0)
(-0.0448425 -0.168038 0)
(-0.0363956 -0.155353 0)
(0.0361951 -0.0796202 0)
(0.0918379 -0.024111 0)
(0.186784 0.110813 0)
(0.279771 0.188893 0)
(0.619011 0.435391 0)
(0.0180456 -0.503925 0)
(0.0528201 -0.507687 0)
(0.0871798 -0.510797 0)
(0.119848 -0.514812 0)
(0.152039 -0.51875 0)
(0.179754 -0.521836 0)
(0.206506 -0.521107 0)
(0.220813 -0.513915 0)
(0.194457 -0.503151 0)
(0.112247 -0.513677 0)
(-0.0467365 -0.481817 0)
(-0.211694 -0.395163 0)
(-0.239612 -0.363158 0)
(-0.215233 -0.312654 0)
(-0.173697 -0.287225 0)
(-0.142174 -0.270691 0)
(-0.0811693 -0.22362 0)
(-0.0251704 -0.194528 0)
(0.0318632 -0.12362 0)
(0.0850691 -0.0925595 0)
(0.153661 0.00578017 0)
(0.223896 0.0277353 0)
(0.376731 0.215649 0)
(0.0154288 -0.793777 0)
(0.0436389 -0.804339 0)
(0.0720746 -0.818338 0)
(0.0988802 -0.841152 0)
(0.121783 -0.869616 0)
(0.146086 -0.906391 0)
(0.165028 -0.945502 0)
(0.204618 -0.869598 0)
(0.150956 -0.793586 0)
(-0.137777 -0.723754 0)
(-0.494236 -0.597867 0)
(-0.517026 -0.574341 0)
(-0.341691 -0.668468 0)
(-0.254871 -0.575573 0)
(-0.169352 -0.524516 0)
(-0.109707 -0.432965 0)
(-0.0501231 -0.357522 0)
(0.00924334 -0.282856 0)
(0.0494814 -0.178693 0)
(0.1298 -0.122254 0)
(0.210922 0.00826765 0)
(0.294077 0.0541089 0)
(0.378308 0.165025 0)
(-0.0242288 -0.117267 0)
(-0.0815606 -0.0853431 0)
(-0.142901 -0.0412005 0)
(-0.209195 0.0106635 0)
(-0.271713 0.0348058 0)
(-0.304181 -0.0166837 0)
(-0.269286 -0.166838 0)
(-0.26871 -0.320241 0)
(-0.0383056 -0.0714813 0)
(-0.230678 0.257739 0)
(-0.454491 0.50526 0)
(-0.128123 -0.0328918 0)
(-0.0890654 -0.273151 0)
(-0.0802793 -0.601326 0)
(0.0189859 -0.773007 0)
(0.0717986 -0.866739 0)
(0.0817155 -0.739711 0)
(0.131918 -0.58504 0)
(0.159081 -0.487257 0)
(0.255582 -0.393758 0)
(0.286147 -0.257582 0)
(0.363059 -0.167799 0)
(0.471456 -0.0923685 0)
(-0.0391454 -0.822557 0)
(-0.108787 -0.825858 0)
(-0.158502 -0.827544 0)
(-0.192775 -0.832284 0)
(-0.203554 -0.8358 0)
(-0.199244 -0.83981 0)
(-0.213949 -0.813008 0)
(-0.301237 -0.757158 0)
(-0.299009 -0.575318 0)
(-0.218775 -0.212081 0)
(0.187223 -0.776448 0)
(0.347492 -0.971577 0)
(0.368762 -0.970627 0)
(0.452618 -0.841677 0)
(0.573423 -0.571524 0)
(0.625322 -0.107183 0)
(0.552556 0.0903376 0)
(0.398926 -0.0876459 0)
(0.320468 -0.323407 0)
(0.274625 -0.484327 0)
(0.335609 -0.561578 0)
(0.381673 -0.57962 0)
(0.415203 -0.559733 0)
(-0.0218018 -0.0175102 0)
(-0.0558006 -0.0362533 0)
(-0.0770504 -0.0619905 0)
(-0.0932279 -0.0994896 0)
(-0.103303 -0.144548 0)
(-0.111592 -0.196338 0)
(-0.123787 -0.223525 0)
(-0.146873 -0.174907 0)
(-0.139342 0.125284 0)
(-0.082136 0.282923 0)
(0.135057 -0.114714 0)
(0.0552343 -0.394605 0)
(0.0353436 -0.450698 0)
(-0.00974405 -0.511694 0)
(-0.0382766 -0.589888 0)
(-0.0222865 -0.633814 0)
(0.0406793 -0.660325 0)
(0.101839 -0.62045 0)
(0.154054 -0.578628 0)
(0.16565 -0.515103 0)
(0.213941 -0.232855 0)
(0.0745339 0.0222354 0)
(0.10484 0.184449 0)
(-0.00760799 -0.389918 0)
(-0.0186855 -0.418184 0)
(-0.0282896 -0.445348 0)
(-0.0410751 -0.477076 0)
(-0.0577846 -0.50937 0)
(-0.0826046 -0.538666 0)
(-0.121979 -0.551503 0)
(-0.160377 -0.536739 0)
(-0.131975 -0.484504 0)
(0.0729538 -0.440308 0)
(0.226979 -0.585341 0)
(0.152072 -0.597072 0)
(0.0784735 -0.570166 0)
(0.0274643 -0.476971 0)
(0.00363057 -0.394971 0)
(0.00504572 -0.273101 0)
(0.0053025 -0.154548 0)
(-0.00624078 -0.0830982 0)
(0.00999377 -0.0758964 0)
(-0.0239011 -0.124221 0)
(-0.0769169 -0.224552 0)
(-0.121194 -0.307463 0)
(-0.0602895 -0.207471 0)
(0.00397002 -0.260784 0)
(0.0118159 -0.285377 0)
(0.0154753 -0.304008 0)
(0.0114013 -0.325009 0)
(0.000821353 -0.34424 0)
(-0.0170118 -0.357842 0)
(-0.0406533 -0.356855 0)
(-0.0639177 -0.330605 0)
(-0.0701122 -0.279488 0)
(-0.0203137 -0.261812 0)
(-0.0038078 -0.381014 0)
(-0.0434539 -0.454115 0)
(-0.068128 -0.510251 0)
(-0.0770695 -0.526565 0)
(-0.0723074 -0.519839 0)
(-0.0611571 -0.478522 0)
(-0.0451048 -0.418834 0)
(-0.0376584 -0.350219 0)
(-0.0570127 -0.274194 0)
(-0.130421 -0.120666 0)
(-0.181495 0.109213 0)
(-0.362773 0.158016 0)
(-0.458212 0.218692 0)
(0.00250824 -0.25277 0)
(0.00709279 -0.279007 0)
(0.00935227 -0.2979 0)
(0.0060548 -0.320857 0)
(-0.0030539 -0.343348 0)
(-0.0197191 -0.360679 0)
(-0.0421226 -0.370106 0)
(-0.0677417 -0.372539 0)
(-0.0782626 -0.369863 0)
(-0.0686215 -0.368903 0)
(-0.0761137 -0.407945 0)
(-0.100933 -0.446113 0)
(-0.132376 -0.486681 0)
(-0.155532 -0.505259 0)
(-0.192654 -0.489086 0)
(-0.231024 -0.435291 0)
(-0.272087 -0.349713 0)
(-0.308988 -0.271688 0)
(-0.379646 -0.203719 0)
(-0.415789 -0.156589 0)
(-0.380765 -0.111343 0)
(-0.325335 -0.166902 0)
(-0.280321 -0.165766 0)
(0.00264397 -0.295632 0)
(0.00613406 -0.315741 0)
(0.00660254 -0.324471 0)
(0.00229467 -0.334808 0)
(-0.00954687 -0.344281 0)
(-0.0293068 -0.348751 0)
(-0.0519104 -0.349469 0)
(-0.0747128 -0.34864 0)
(-0.0913031 -0.348368 0)
(-0.0945106 -0.356408 0)
(-0.107695 -0.396574 0)
(-0.138041 -0.428993 0)
(-0.174768 -0.447279 0)
(-0.233861 -0.434136 0)
(-0.289905 -0.40284 0)
(-0.329961 -0.342604 0)
(-0.366216 -0.245184 0)
(-0.392032 -0.147265 0)
(-0.405784 -0.0635259 0)
(-0.404734 0.00655214 0)
(-0.388138 0.0434076 0)
(-0.392163 0.0614685 0)
(-0.416655 0.0621157 0)
(0.000628194 -0.289524 0)
(-0.000482542 -0.308631 0)
(-0.00464277 -0.314845 0)
(-0.015991 -0.320869 0)
(-0.0296178 -0.323928 0)
(-0.046118 -0.326921 0)
(-0.0636811 -0.329489 0)
(-0.0803846 -0.330787 0)
(-0.0933203 -0.334431 0)
(-0.104566 -0.344669 0)
(-0.123749 -0.357738 0)
(-0.162287 -0.376714 0)
(-0.215191 -0.37979 0)
(-0.273384 -0.387543 0)
(-0.32822 -0.387702 0)
(-0.384507 -0.345208 0)
(-0.430868 -0.27527 0)
(-0.439582 -0.236602 0)
(-0.430318 -0.213684 0)
(-0.395877 -0.185993 0)
(-0.353404 -0.149341 0)
(-0.325418 -0.133974 0)
(-0.295002 -0.118713 0)
(-0.00167898 -0.286454 0)
(-0.00707891 -0.302555 0)
(-0.0157836 -0.304577 0)
(-0.0260638 -0.307714 0)
(-0.0376666 -0.31186 0)
(-0.0494621 -0.314954 0)
(-0.0614896 -0.317531 0)
(-0.0726654 -0.319228 0)
(-0.0828028 -0.320792 0)
(-0.0989178 -0.324924 0)
(-0.1231 -0.333485 0)
(-0.161541 -0.334151 0)
(-0.199718 -0.334257 0)
(-0.242233 -0.33148 0)
(-0.294212 -0.315471 0)
(-0.338096 -0.284742 0)
(-0.347814 -0.224877 0)
(-0.345581 -0.167897 0)
(-0.3391 -0.136334 0)
(-0.330127 -0.101099 0)
(-0.315983 -0.0542965 0)
(-0.309207 -0.0338779 0)
(-0.305764 -0.0281062 0)
(-0.00339693 -0.278177 0)
(-0.0114872 -0.293108 0)
(-0.0191734 -0.294649 0)
(-0.0279587 -0.298473 0)
(-0.0380709 -0.301615 0)
(-0.0487457 -0.303916 0)
(-0.0600214 -0.304939 0)
(-0.0714927 -0.306418 0)
(-0.0838054 -0.308463 0)
(-0.0986118 -0.310493 0)
(-0.121901 -0.308915 0)
(-0.14254 -0.307002 0)
(-0.164517 -0.302821 0)
(-0.193555 -0.2916 0)
(-0.225969 -0.276328 0)
(-0.258882 -0.258811 0)
(-0.284851 -0.240056 0)
(-0.295935 -0.211909 0)
(-0.300095 -0.190054 0)
(-0.298228 -0.172157 0)
(-0.289752 -0.145134 0)
(-0.272413 -0.11261 0)
(-0.269879 -0.0884411 0)
(-0.00329817 -0.27152 0)
(-0.0111107 -0.286067 0)
(-0.0196833 -0.287074 0)
(-0.0292651 -0.288609 0)
(-0.0396426 -0.290435 0)
(-0.0511122 -0.292535 0)
(-0.0629926 -0.294504 0)
(-0.0752666 -0.295096 0)
(-0.0885924 -0.294062 0)
(-0.104815 -0.29173 0)
(-0.119942 -0.289199 0)
(-0.135936 -0.285867 0)
(-0.157758 -0.279077 0)
(-0.176346 -0.271635 0)
(-0.198003 -0.263196 0)
(-0.21688 -0.242482 0)
(-0.234712 -0.216663 0)
(-0.252371 -0.19074 0)
(-0.2587 -0.158761 0)
(-0.260246 -0.135056 0)
(-0.262407 -0.111956 0)
(-0.263983 -0.0774316 0)
(-0.266073 -0.0582716 0)
(-0.0039538 -0.2628 0)
(-0.0129286 -0.276265 0)
(-0.0222762 -0.276167 0)
(-0.0318922 -0.276957 0)
(-0.0421161 -0.27771 0)
(-0.0531303 -0.277943 0)
(-0.0650949 -0.277837 0)
(-0.0780568 -0.277322 0)
(-0.0925027 -0.276525 0)
(-0.10744 -0.27518 0)
(-0.123227 -0.271717 0)
(-0.141548 -0.264844 0)
(-0.158296 -0.257665 0)
(-0.176962 -0.249517 0)
(-0.195081 -0.234864 0)
(-0.209306 -0.215904 0)
(-0.222675 -0.19515 0)
(-0.23147 -0.176321 0)
(-0.239129 -0.166518 0)
(-0.248533 -0.15008 0)
(-0.247133 -0.120707 0)
(-0.249744 -0.0888764 0)
(-0.247161 -0.0754346 0)
(-0.00363565 -0.257116 0)
(-0.0117709 -0.269913 0)
(-0.0204243 -0.269864 0)
(-0.0296341 -0.270277 0)
(-0.0395185 -0.27031 0)
(-0.0500682 -0.27002 0)
(-0.0612809 -0.269212 0)
(-0.0734823 -0.267907 0)
(-0.0870181 -0.266123 0)
(-0.102455 -0.263522 0)
(-0.118492 -0.259 0)
(-0.131356 -0.25367 0)
(-0.144773 -0.247468 0)
(-0.161516 -0.235177 0)
(-0.177869 -0.222594 0)
(-0.193011 -0.210695 0)
(-0.204016 -0.195064 0)
(-0.212219 -0.175323 0)
(-0.221672 -0.151475 0)
(-0.227919 -0.131969 0)
(-0.234218 -0.115532 0)
(-0.234304 -0.0906372 0)
(-0.228823 -0.0767918 0)
(-0.0039873 -0.246428 0)
(-0.0128577 -0.258482 0)
(-0.0218284 -0.25759 0)
(-0.0311982 -0.257309 0)
(-0.0410369 -0.2567 0)
(-0.0514394 -0.25569 0)
(-0.0624273 -0.254198 0)
(-0.074034 -0.25212 0)
(-0.0861358 -0.24919 0)
(-0.0981581 -0.245152 0)
(-0.109954 -0.241503 0)
(-0.123747 -0.236043 0)
(-0.138852 -0.225857 0)
(-0.151393 -0.217084 0)
(-0.162688 -0.205708 0)
(-0.176343 -0.19027 0)
(-0.190515 -0.173927 0)
(-0.199596 -0.158811 0)
(-0.205901 -0.14757 0)
(-0.208913 -0.137136 0)
(-0.214006 -0.115377 0)
(-0.216935 -0.0905016 0)
(-0.213737 -0.0802891 0)
(-0.00397584 -0.240744 0)
(-0.0126857 -0.252418 0)
(-0.0214623 -0.251673 0)
(-0.0303608 -0.25122 0)
(-0.0394405 -0.250355 0)
(-0.0486522 -0.24908 0)
(-0.058089 -0.247303 0)
(-0.0679192 -0.244949 0)
(-0.0784425 -0.241885 0)
(-0.0898475 -0.237686 0)
(-0.102765 -0.231635 0)
(-0.11642 -0.22391 0)
(-0.129348 -0.217119 0)
(-0.142756 -0.207396 0)
(-0.155148 -0.195958 0)
(-0.164197 -0.186294 0)
(-0.170272 -0.176319 0)
(-0.179482 -0.162007 0)
(-0.186363 -0.143579 0)
(-0.193929 -0.121234 0)
(-0.201382 -0.106625 0)
(-0.201098 -0.0959736 0)
(-0.19955 -0.0820891 0)
(-0.00381152 -0.229944 0)
(-0.012146 -0.241065 0)
(-0.0206355 -0.240041 0)
(-0.0293786 -0.239181 0)
(-0.0384795 -0.237863 0)
(-0.0480093 -0.236086 0)
(-0.0579827 -0.233787 0)
(-0.0683703 -0.23086 0)
(-0.0789585 -0.227086 0)
(-0.089475 -0.222234 0)
(-0.0993131 -0.216252 0)
(-0.108766 -0.21087 0)
(-0.11857 -0.203138 0)
(-0.128061 -0.194224 0)
(-0.13783 -0.184512 0)
(-0.148342 -0.171625 0)
(-0.160479 -0.156587 0)
(-0.170927 -0.143 0)
(-0.176625 -0.131843 0)
(-0.180207 -0.123796 0)
(-0.182001 -0.108633 0)
(-0.186536 -0.0920655 0)
(-0.188683 -0.0808836 0)
(-0.00367969 -0.225215 0)
(-0.0115908 -0.236007 0)
(-0.0196103 -0.234926 0)
(-0.0277285 -0.233922 0)
(-0.0360508 -0.232438 0)
(-0.0446143 -0.230465 0)
(-0.0535053 -0.227945 0)
(-0.0627697 -0.224812 0)
(-0.072398 -0.220999 0)
(-0.0822903 -0.216405 0)
(-0.0924218 -0.210559 0)
(-0.102752 -0.202638 0)
(-0.113276 -0.194496 0)
(-0.123678 -0.185884 0)
(-0.133597 -0.176296 0)
(-0.14172 -0.166428 0)
(-0.147874 -0.156913 0)
(-0.152865 -0.145274 0)
(-0.158814 -0.130542 0)
(-0.165334 -0.114661 0)
(-0.171066 -0.102299 0)
(-0.174386 -0.0909478 0)
(-0.17668 -0.0789696 0)
(-0.00353985 -0.214646 0)
(-0.0112543 -0.224912 0)
(-0.0190046 -0.223702 0)
(-0.026866 -0.222429 0)
(-0.0348651 -0.22064 0)
(-0.0429971 -0.218316 0)
(-0.0512512 -0.215399 0)
(-0.0596259 -0.211824 0)
(-0.0681444 -0.207518 0)
(-0.0768621 -0.202461 0)
(-0.0857383 -0.196924 0)
(-0.0945062 -0.191198 0)
(-0.102834 -0.184055 0)
(-0.1109 -0.175431 0)
(-0.118775 -0.16604 0)
(-0.126837 -0.155814 0)
(-0.135023 -0.144306 0)
(-0.143025 -0.132925 0)
(-0.149361 -0.12225 0)
(-0.153786 -0.111632 0)
(-0.157704 -0.0995873 0)
(-0.162193 -0.087318 0)
(-0.165711 -0.0758997 0)
(-0.00335212 -0.21006 0)
(-0.0104596 -0.22019 0)
(-0.017689 -0.219017 0)
(-0.0249606 -0.217743 0)
(-0.03239 -0.215949 0)
(-0.0399964 -0.213618 0)
(-0.0477974 -0.21069 0)
(-0.0557687 -0.207097 0)
(-0.0638332 -0.202756 0)
(-0.0718723 -0.197564 0)
(-0.0798474 -0.191384 0)
(-0.087908 -0.18426 0)
(-0.0960708 -0.176653 0)
(-0.104049 -0.168644 0)
(-0.111634 -0.159856 0)
(-0.118667 -0.150317 0)
(-0.125063 -0.140367 0)
(-0.130875 -0.129563 0)
(-0.136482 -0.117918 0)
(-0.1417 -0.106073 0)
(-0.146381 -0.0948339 0)
(-0.150841 -0.0837259 0)
(-0.154694 -0.0724492 0)
(-0.00311202 -0.201598 0)
(-0.00979701 -0.211183 0)
(-0.0165525 -0.209914 0)
(-0.0233384 -0.208409 0)
(-0.0302265 -0.206349 0)
(-0.0372118 -0.203736 0)
(-0.0442991 -0.200553 0)
(-0.0514909 -0.196785 0)
(-0.0587909 -0.192426 0)
(-0.0661868 -0.187471 0)
(-0.0735956 -0.181908 0)
(-0.0808746 -0.175667 0)
(-0.0879568 -0.168558 0)
(-0.0949012 -0.160562 0)
(-0.101702 -0.151907 0)
(-0.108264 -0.142675 0)
(-0.114541 -0.13284 0)
(-0.120483 -0.122664 0)
(-0.125894 -0.112219 0)
(-0.13067 -0.101499 0)
(-0.135094 -0.0905941 0)
(-0.139663 -0.0796472 0)
(-0.143855 -0.0686197 0)
(-0.00292723 -0.196473 0)
(-0.00907378 -0.205934 0)
(-0.0153246 -0.204715 0)
(-0.021576 -0.203214 0)
(-0.0279196 -0.20116 0)
(-0.0343454 -0.198539 0)
(-0.0408542 -0.195318 0)
(-0.0474322 -0.191462 0)
(-0.0540544 -0.186936 0)
(-0.0606921 -0.181713 0)
(-0.067327 -0.175791 0)
(-0.0739495 -0.169206 0)
(-0.0805143 -0.162034 0)
(-0.0869232 -0.1543 0)
(-0.0931072 -0.14595 0)
(-0.0990433 -0.137007 0)
(-0.104695 -0.127563 0)
(-0.110053 -0.117633 0)
(-0.115129 -0.107299 0)
(-0.119845 -0.0967258 0)
(-0.124257 -0.086121 0)
(-0.128749 -0.0754661 0)
(-0.133057 -0.0646008 0)
(-0.00266803 -0.19016 0)
(-0.00826974 -0.199269 0)
(-0.0139855 -0.198028 0)
(-0.0196815 -0.196416 0)
(-0.0254597 -0.194238 0)
(-0.0313055 -0.191496 0)
(-0.0372205 -0.188181 0)
(-0.0431968 -0.184283 0)
(-0.049218 -0.179795 0)
(-0.0552571 -0.174708 0)
(-0.0612768 -0.169007 0)
(-0.0672344 -0.162679 0)
(-0.0730985 -0.155705 0)
(-0.0788523 -0.148102 0)
(-0.0844667 -0.139925 0)
(-0.0898965 -0.131222 0)
(-0.0951151 -0.122034 0)
(-0.100109 -0.112433 0)
(-0.104865 -0.102469 0)
(-0.109347 -0.0922123 0)
(-0.113605 -0.0817845 0)
(-0.117961 -0.0712523 0)
(-0.122279 -0.0604945 0)
(-0.00243333 -0.185224 0)
(-0.00746727 -0.194146 0)
(-0.012638 -0.192929 0)
(-0.0177726 -0.191276 0)
(-0.0229839 -0.189056 0)
(-0.028249 -0.186264 0)
(-0.0335697 -0.182892 0)
(-0.0389372 -0.17893 0)
(-0.0443366 -0.174371 0)
(-0.0497483 -0.169211 0)
(-0.0551495 -0.163453 0)
(-0.0605146 -0.157107 0)
(-0.0658135 -0.150188 0)
(-0.0710121 -0.142714 0)
(-0.0760818 -0.134699 0)
(-0.0810039 -0.126172 0)
(-0.0857616 -0.117178 0)
(-0.0903499 -0.107761 0)
(-0.094776 -0.0979751 0)
(-0.0990207 -0.0878809 0)
(-0.103098 -0.0775744 0)
(-0.107255 -0.0671153 0)
(-0.111471 -0.0564082 0)
(-0.00216334 -0.180426 0)
(-0.00660932 -0.189113 0)
(-0.0112221 -0.187904 0)
(-0.0157813 -0.186189 0)
(-0.0204207 -0.183906 0)
(-0.02511 -0.181053 0)
(-0.0298537 -0.177628 0)
(-0.0346445 -0.173634 0)
(-0.039467 -0.169073 0)
(-0.0443006 -0.163944 0)
(-0.049122 -0.158247 0)
(-0.0539069 -0.151982 0)
(-0.0586336 -0.145157 0)
(-0.0632824 -0.137786 0)
(-0.0678355 -0.129895 0)
(-0.0722752 -0.121511 0)
(-0.0765911 -0.112671 0)
(-0.0807828 -0.103413 0)
(-0.0848598 -0.0937774 0)
(-0.0888204 -0.083807 0)
(-0.0926692 -0.0735699 0)
(-0.0965849 -0.0631314 0)
(-0.100621 -0.0524308 0)
(-0.00187852 -0.176379 0)
(-0.00572277 -0.184866 0)
(-0.00977355 -0.183669 0)
(-0.0137495 -0.1819 0)
(-0.0178105 -0.179564 0)
(-0.0219167 -0.176655 0)
(-0.0260776 -0.17317 0)
(-0.0302914 -0.169126 0)
(-0.034544 -0.16453 0)
(-0.0388158 -0.159388 0)
(-0.0430835 -0.1537 0)
(-0.0473243 -0.147469 0)
(-0.0515187 -0.140701 0)
(-0.0556501 -0.133411 0)
(-0.0597037 -0.125616 0)
(-0.0636709 -0.117339 0)
(-0.0675472 -0.108608 0)
(-0.0713344 -0.099456 0)
(-0.0750461 -0.0899146 0)
(-0.0786912 -0.0800166 0)
(-0.0822729 -0.0698106 0)
(-0.0859144 -0.0593564 0)
(-0.0897083 -0.0486261 0)
(-0.00155658 -0.172858 0)
(-0.00479386 -0.181109 0)
(-0.00829727 -0.17992 0)
(-0.0116859 -0.178097 0)
(-0.0151603 -0.175712 0)
(-0.0186701 -0.17275 0)
(-0.0222295 -0.169214 0)
(-0.0258517 -0.165132 0)
(-0.0295301 -0.160514 0)
(-0.0332508 -0.155364 0)
(-0.03699 -0.149689 0)
(-0.0407188 -0.14349 0)
(-0.0444141 -0.136771 0)
(-0.0480592 -0.129544 0)
(-0.0516405 -0.121821 0)
(-0.0551511 -0.113621 0)
(-0.058592 -0.104968 0)
(-0.0619693 -0.0958893 0)
(-0.0652976 -0.0864066 0)
(-0.0685959 -0.0765443 0)
(-0.0718736 -0.0663372 0)
(-0.0752141 -0.0558384 0)
(-0.0787238 -0.0450464 0)
(-0.00119458 -0.169962 0)
(-0.00385633 -0.17789 0)
(-0.00687831 -0.176714 0)
(-0.00970558 -0.174863 0)
(-0.0126017 -0.172458 0)
(-0.0155077 -0.169489 0)
(-0.0183898 -0.16593 0)
(-0.0212659 -0.161784 0)
(-0.0242047 -0.157085 0)
(-0.0272671 -0.151867 0)
(-0.0304747 -0.146168 0)
(-0.0337873 -0.140001 0)
(-0.0370689 -0.133326 0)
(-0.0403178 -0.126154 0)
(-0.0435079 -0.118497 0)
(-0.0466212 -0.110361 0)
(-0.0496614 -0.101769 0)
(-0.0526397 -0.09274 0)
(-0.0555753 -0.0832825 0)
(-0.0585002 -0.0734206 0)
(-0.0614397 -0.0631816 0)
(-0.0644547 -0.0526089 0)
(-0.0676469 -0.0417188 0)
(-0.000794904 -0.167822 0)
(-0.00301236 -0.175251 0)
(-0.00575182 -0.174102 0)
(-0.00814682 -0.172264 0)
(-0.0105811 -0.16988 0)
(-0.0129629 -0.166941 0)
(-0.015179 -0.163355 0)
(-0.0173141 -0.15916 0)
(-0.0193841 -0.154348 0)
(-0.0214313 -0.148943 0)
(-0.0235582 -0.143004 0)
(-0.0259278 -0.136623 0)
(-0.0286479 -0.129872 0)
(-0.0315966 -0.122732 0)
(-0.0346719 -0.11521 0)
(-0.0377194 -0.107284 0)
(-0.0405322 -0.0988693 0)
(-0.0432108 -0.0899574 0)
(-0.0458021 -0.0805495 0)
(-0.0483567 -0.0706787 0)
(-0.0509355 -0.060383 0)
(-0.053598 -0.0497212 0)
(-0.0564587 -0.0387171 0)
(-0.000437486 -0.166619 0)
(-0.00251982 -0.173273 0)
(-0.00534164 -0.172173 0)
(-0.00761566 -0.170407 0)
(-0.00990135 -0.168065 0)
(-0.01206 -0.165163 0)
(-0.0142223 -0.16174 0)
(-0.0162753 -0.157696 0)
(-0.0181719 -0.153017 0)
(-0.0198589 -0.147688 0)
(-0.0212891 -0.141692 0)
(-0.0225117 -0.135102 0)
(-0.0236438 -0.128008 0)
(-0.0248249 -0.120486 0)
(-0.0262276 -0.112558 0)