/*--------------------------------*- C++ -*----------------------------------*\
| =========                 |                                                 |
| \\      /  F ield         | OpenFOAM: The Open Source CFD Toolbox           |
|  \\    /   O peration     | Version:  2.4.0                                 |
|   \\  /    A nd           | Web:      www.OpenFOAM.org                      |
|    \\/     M anipulation  |                                                 |
\*---------------------------------------------------------------------------*/
FoamFile
{
    version     2.0;
    format      ascii;
    class       volVectorField;
    location    "0.3";
    object      U.oil;
}
// * * * * * * * * * * * * * * * * * * * * * * * * * * * * * * * * * * * * * //

dimensions      [0 1 -1 0 0 0 0];

internalField   nonuniform List<vector> 
2268
(
(0.0199972 -0.0094003 0)
(0.059359 -0.00943869 0)
(0.100793 -0.00940766 0)
(0.137505 -0.0097463 0)
(0.184514 -0.00900526 0)
(0.216084 -0.01125 0)
(0.270897 -0.00799399 0)
(0.296787 -0.0108986 0)
(0.347536 -0.0120068 0)
(0.405245 -0.010137 0)
(0.441303 -0.00768593 0)
(0.463616 -0.0101813 0)
(0.513884 -0.00978729 0)
(0.563801 -0.0130972 0)
(0.614647 -0.0111313 0)
(0.651989 -0.00487254 0)
(0.659891 0.00268723 0)
(0.646428 0.00616295 0)
(0.606588 0.0102421 0)
(0.52783 0.0245641 0)
(0.398271 0.0305601 0)
(0.238464 0.0753374 0)
(0.0454481 0.0617671 0)
(0.0199952 -0.0282138 0)
(0.0593805 -0.028352 0)
(0.100826 -0.0281761 0)
(0.137371 -0.0296089 0)
(0.185009 -0.0260546 0)
(0.215992 -0.0356 0)
(0.269406 -0.0222179 0)
(0.298944 -0.032476 0)
(0.348523 -0.0377982 0)
(0.404888 -0.0307032 0)
(0.438523 -0.0233669 0)
(0.464559 -0.0262818 0)
(0.518623 -0.0348326 0)
(0.572499 -0.0387699 0)
(0.61924 -0.0312154 0)
(0.653615 -0.0172568 0)
(0.659202 0.0013913 0)
(0.647355 0.0259108 0)
(0.606668 0.0541108 0)
(0.544322 0.0884839 0)
(0.418707 0.109531 0)
(0.283305 0.12716 0)
(0.0537909 0.164226 0)
(0.0199659 -0.0469972 0)
(0.0593536 -0.0472134 0)
(0.100625 -0.046954 0)
(0.137285 -0.0490645 0)
(0.185034 -0.044692 0)
(0.215501 -0.0559711 0)
(0.26758 -0.0404471 0)
(0.302643 -0.0543934 0)
(0.34828 -0.0607507 0)
(0.400037 -0.0487961 0)
(0.435141 -0.0408083 0)
(0.472881 -0.0490854 0)
(0.533119 -0.0603161 0)
(0.570032 -0.0613773 0)
(0.620241 -0.0522447 0)
(0.646306 -0.0204252 0)
(0.657388 0.00442839 0)
(0.659641 0.0316658 0)
(0.63369 0.0652359 0)
(0.576338 0.109706 0)
(0.446671 0.168048 0)
(0.234613 0.222743 0)
(0.107185 0.245383 0)
(0.0199253 -0.0658343 0)
(0.0593245 -0.0660973 0)
(0.100259 -0.0658192 0)
(0.137487 -0.0687508 0)
(0.184237 -0.0627419 0)
(0.21556 -0.0774435 0)
(0.266316 -0.0587072 0)
(0.303945 -0.0756152 0)
(0.348605 -0.0824353 0)
(0.393466 -0.0689506 0)
(0.431031 -0.061919 0)
(0.491474 -0.0728011 0)
(0.536845 -0.0779147 0)
(0.574647 -0.0788424 0)
(0.609222 -0.057166 0)
(0.632762 -0.0240265 0)
(0.665438 0.0196755 0)
(0.677847 0.0744111 0)
(0.689081 0.149423 0)
(0.644149 0.214044 0)
(0.528872 0.303082 0)
(0.298067 0.301597 0)
(0.0588041 0.349302 0)
(0.0198795 -0.0850315 0)
(0.0592449 -0.0852994 0)
(0.0998628 -0.0851554 0)
(0.137472 -0.0884917 0)
(0.18355 -0.0821014 0)
(0.214307 -0.0970856 0)
(0.26707 -0.0792833 0)
(0.30204 -0.0973114 0)
(0.350281 -0.100704 0)
(0.386071 -0.0859387 0)
(0.434368 -0.0902729 0)
(0.503096 -0.0942013 0)
(0.537066 -0.0971865 0)
(0.578335 -0.0821809 0)
(0.609556 -0.0546023 0)
(0.645105 0.010077 0)
(0.70368 0.0495979 0)
(0.74614 0.0867422 0)
(0.739397 0.179704 0)
(0.665641 0.27993 0)
(0.563079 0.420101 0)
(0.342319 0.44194 0)
(0.123502 0.431414 0)
(0.0198539 -0.103329 0)
(0.0591668 -0.10353 0)
(0.099546 -0.103456 0)
(0.137605 -0.107051 0)
(0.182375 -0.0995059 0)
(0.214146 -0.115676 0)
(0.267364 -0.0986881 0)
(0.301778 -0.11446 0)
(0.348373 -0.118401 0)
(0.387008 -0.10825 0)
(0.44489 -0.116939 0)
(0.49874 -0.119339 0)
(0.542581 -0.125719 0)
(0.591629 -0.130742 0)
(0.627239 -0.109017 0)
(0.671859 -0.0481391 0)
(0.688447 0.0280513 0)
(0.654014 0.194474 0)
(0.649101 0.341101 0)
(0.554313 0.452203 0)
(0.436016 0.62384 0)
(0.336453 0.58816 0)
(0.106595 0.590341 0)
(0.0199434 -0.117735 0)
(0.0593428 -0.11802 0)
(0.0999138 -0.118425 0)
(0.138207 -0.122724 0)
(0.181594 -0.115748 0)
(0.217204 -0.13503 0)
(0.263658 -0.120892 0)
(0.311046 -0.139302 0)
(0.338588 -0.146029 0)
(0.397801 -0.151684 0)
(0.448988 -0.165571 0)
(0.490396 -0.176565 0)
(0.530343 -0.207262 0)
(0.558536 -0.194319 0)
(0.537283 -0.180328 0)
(0.439472 -0.0582797 0)
(0.279239 0.157315 0)
(0.20181 0.119919 0)
(0.336733 0.277076 0)
(0.206355 0.581298 0)
(0.309572 0.647092 0)
(0.239275 0.753917 0)
(0.132015 0.688897 0)
(0.0201332 -0.143629 0)
(0.059746 -0.144423 0)
(0.100701 -0.145879 0)
(0.138682 -0.151742 0)
(0.17997 -0.147249 0)
(0.221693 -0.169499 0)
(0.256739 -0.16607 0)
(0.314113 -0.177808 0)
(0.334185 -0.200949 0)
(0.390825 -0.210963 0)
(0.410519 -0.228776 0)
(0.425084 -0.241023 0)
(0.391757 -0.219226 0)
(0.331079 -0.144188 0)
(0.22857 -0.0916756 0)
(0.232558 -0.083606 0)
(0.299212 -0.0196593 0)
(0.334976 0.0558295 0)
(0.251752 0.0991849 0)
(0.240147 0.281585 0)
(0.0512711 0.616839 0)
(0.196079 0.795035 0)
(0.104968 0.88226 0)
(-0.535956 0.181772 0)
(-1.11012 0.129688 0)
(-1.42246 0.0599945 0)
(-1.50986 0.0145488 0)
(-1.43351 -0.0645819 0)
(-1.23097 -0.0876584 0)
(-0.88725 -0.0666161 0)
(-0.617409 -0.0711827 0)
(-0.228754 -0.0892265 0)
(0.166664 -0.0852903 0)
(0.491573 -0.0559941 0)
(0.684819 -0.0438202 0)
(0.795864 -0.00969606 0)
(0.763282 0.0050904 0)
(0.670635 -0.0176203 0)
(0.460969 -0.0248428 0)
(0.283587 -0.0391106 0)
(-0.0524826 -0.101727 0)
(0.0108783 -0.0998481 0)
(-0.558218 0.495393 0)
(-1.07829 0.305834 0)
(-1.35483 0.132987 0)
(-1.40712 0.0137521 0)
(-1.29569 -0.068001 0)
(-1.16983 -0.155265 0)
(-0.819618 -0.183115 0)
(-0.481159 -0.247571 0)
(-0.13181 -0.230942 0)
(0.240066 -0.242741 0)
(0.588125 -0.152201 0)
(0.800766 -0.0843676 0)
(0.921701 -0.00455815 0)
(0.907373 0.0591087 0)
(0.821899 0.134345 0)
(0.601591 0.175211 0)
(0.42525 0.209677 0)
(0.0624556 0.165473 0)
(0.0396091 0.0413064 0)
(-0.494028 0.721264 0)
(-1.02331 0.461941 0)
(-1.27611 0.221164 0)
(-1.27037 -0.00536587 0)
(-1.25275 -0.158216 0)
(-1.14662 -0.289229 0)
(-0.673459 -0.385897 0)
(-0.464209 -0.364236 0)
(-0.0570177 -0.409598 0)
(0.287588 -0.426011 0)
(0.662969 -0.290059 0)
(0.878718 -0.184414 0)
(0.986407 -0.0337802 0)
(0.96485 0.0572764 0)
(0.883109 0.148192 0)
(0.693863 0.185674 0)
(0.522023 0.22068 0)
(0.163113 0.145494 0)
(0.0981721 -0.0469938 0)
(-0.477187 1.07176 0)
(-0.869264 0.690272 0)
(-1.07956 0.228703 0)
(-1.05056 -0.00828937 0)
(-1.05822 -0.141059 0)
(-0.976683 -0.403881 0)
(-0.654211 -0.547215 0)
(-0.369197 -0.510895 0)
(0.0441803 -0.554061 0)
(0.390015 -0.585911 0)
(0.746762 -0.414101 0)
(0.957988 -0.236725 0)
(1.03644 -0.0283332 0)
(1.01411 0.100203 0)
(0.954187 0.227166 0)
(0.749687 0.303955 0)
(0.592168 0.350229 0)
(0.286348 0.275672 0)
(0.1804 0.0816541 0)
(-0.416196 1.25864 0)
(-0.734799 0.85601 0)
(-0.727972 0.34479 0)
(-0.748111 0.0100117 0)
(-0.803038 -0.13548 0)
(-0.691199 -0.469002 0)
(-0.51238 -0.680197 0)
(-0.257126 -0.670004 0)
(0.186747 -0.714728 0)
(0.52569 -0.718355 0)
(0.854481 -0.524803 0)
(1.02584 -0.301416 0)
(1.09696 -0.0252357 0)
(1.06135 0.128566 0)
(0.994921 0.282752 0)
(0.825634 0.356863 0)
(0.645049 0.433967 0)
(0.283078 0.390376 0)
(0.150118 0.188393 0)
(-0.382077 1.46659 0)
(-0.579382 0.83345 0)
(-0.274706 0.0748556 0)
(-0.288627 -0.188643 0)
(-0.404879 -0.218051 0)
(-0.397012 -0.411558 0)
(-0.29876 -0.723365 0)
(-0.0689926 -0.829956 0)
(0.349164 -0.884246 0)
(0.6461 -0.836903 0)
(0.929819 -0.56497 0)
(1.07711 -0.266495 0)
(1.18182 -0.06147 0)
(1.1435 0.113398 0)
(1.02281 0.338452 0)
(0.815634 0.459863 0)
(0.673593 0.572773 0)
(0.369863 0.509362 0)
(0.131241 0.280503 0)
(-0.344935 1.63756 0)
(-0.298917 0.967003 0)
(-0.0882932 0.183447 0)
(0.304772 -0.371949 0)
(0.0974207 -0.501892 0)
(0.0551823 -0.590054 0)
(-0.0918097 -0.767017 0)
(0.104166 -0.961903 0)
(0.484379 -1.08059 0)
(0.75604 -1.04531 0)
(0.986025 -0.827691 0)
(1.08503 -0.495198 0)
(1.1845 -0.00325273 0)
(1.19675 0.244788 0)
(1.1175 0.413443 0)
(0.895423 0.500136 0)
(0.698091 0.622781 0)
(0.472987 0.640618 0)
(0.218504 0.407632 0)
(-0.317063 1.77121 0)
(0.0063454 0.721489 0)
(0.0766457 0.370385 0)
(0.480836 -0.141242 0)
(0.43579 -0.824024 0)
(0.451518 -0.807268 0)
(0.148205 -0.847658 0)
(0.259048 -1.08311 0)
(0.562809 -1.22614 0)
(0.804767 -1.22327 0)
(0.969815 -1.19117 0)
(1.15288 -0.982636 0)
(1.23677 -0.4314 0)
(1.15886 0.108542 0)
(1.08392 0.516768 0)
(0.929007 0.648083 0)
(0.725135 0.725105 0)
(0.433936 0.737856 0)
(0.224543 0.529682 0)
(0.0199974 -0.241275 0)
(0.0590739 -0.242129 0)
(0.0987506 -0.243437 0)
(0.133891 -0.2457 0)
(0.166871 -0.244835 0)
(0.209929 -0.250141 0)
(0.221093 -0.250078 0)
(0.261958 -0.244212 0)
(0.275911 -0.245502 0)
(0.266899 -0.237739 0)
(0.266511 -0.196973 0)
(0.271609 -0.177332 0)
(0.286952 -0.19576 0)
(0.323527 -0.151554 0)
(0.374786 -0.0868031 0)
(0.412543 0.0495109 0)
(0.37232 0.180027 0)
(0.35234 0.183503 0)
(0.264392 0.253776 0)
(0.367879 0.397647 0)
(0.0906689 0.687639 0)
(0.332804 0.749787 0)
(0.361523 0.90441 0)
(0.0110125 -0.217066 0)
(0.0327009 -0.212967 0)
(0.0554018 -0.204314 0)
(0.0760933 -0.19391 0)
(0.0956433 -0.188828 0)
(0.120064 -0.183285 0)
(0.136406 -0.17692 0)
(0.163548 -0.191308 0)
(0.198068 -0.191874 0)
(0.228661 -0.197408 0)
(0.279702 -0.219884 0)
(0.34326 -0.216042 0)
(0.392174 -0.182859 0)
(0.430313 -0.147673 0)
(0.446348 -0.0987345 0)
(0.489034 -0.0926053 0)
(0.507163 -0.038811 0)
(0.585028 0.0977148 0)
(0.474186 0.22482 0)
(0.6108 0.405714 0)
(0.469134 0.719899 0)
(0.492672 0.705368 0)
(0.487873 0.683606 0)
(0.0125303 -0.284107 0)
(0.0377422 -0.285935 0)
(0.0658211 -0.283388 0)
(0.0965694 -0.283092 0)
(0.128618 -0.279403 0)
(0.163068 -0.276459 0)
(0.19726 -0.264559 0)
(0.231786 -0.271244 0)
(0.273121 -0.249784 0)
(0.304421 -0.240017 0)
(0.355373 -0.236707 0)
(0.393189 -0.225105 0)
(0.432851 -0.202998 0)
(0.472913 -0.175522 0)
(0.52377 -0.14287 0)
(0.590371 -0.10211 0)
(0.626014 0.00794492 0)
(0.674856 0.129962 0)
(0.685728 0.272544 0)
(0.701573 0.400393 0)
(0.777539 0.706453 0)
(0.796795 0.878981 0)
(0.640084 0.778368 0)
(0.016666 -0.235125 0)
(0.0489269 -0.236022 0)
(0.0815699 -0.233877 0)
(0.113959 -0.233875 0)
(0.144535 -0.233146 0)
(0.176845 -0.236516 0)
(0.207946 -0.231857 0)
(0.238253 -0.250404 0)
(0.275939 -0.237542 0)
(0.302578 -0.249013 0)
(0.356122 -0.261145 0)
(0.390891 -0.260745 0)
(0.440356 -0.24271 0)
(0.493348 -0.225856 0)
(0.571367 -0.179824 0)
(0.636182 -0.113135 0)
(0.691619 -0.00712445 0)
(0.745405 0.061223 0)
(0.817135 0.226484 0)
(0.838116 0.378545 0)
(0.88145 0.548753 0)
(1.05526 0.931905 0)
(0.950419 0.958548 0)
(0.0156804 -0.281183 0)
(0.0475884 -0.282994 0)
(0.0789047 -0.284669 0)
(0.110456 -0.285795 0)
(0.140908 -0.288703 0)
(0.170264 -0.291954 0)
(0.200727 -0.2912 0)
(0.226286 -0.306214 0)
(0.263476 -0.294296 0)
(0.289785 -0.322816 0)
(0.348432 -0.32423 0)
(0.385005 -0.305869 0)
(0.454121 -0.265118 0)
(0.522367 -0.246729 0)
(0.604458 -0.215218 0)
(0.650677 -0.175717 0)
(0.722992 -0.0748957 0)
(0.782164 0.00826692 0)
(0.835477 0.166387 0)
(0.875412 0.338455 0)
(0.893278 0.469422 0)
(1.0638 0.82535 0)
(1.0968 1.04605 0)
(0.0156063 -0.326818 0)
(0.047247 -0.328076 0)
(0.0781732 -0.327468 0)
(0.108983 -0.326351 0)
(0.140173 -0.325122 0)
(0.168768 -0.324045 0)
(0.199017 -0.323974 0)
(0.225198 -0.331758 0)
(0.258827 -0.330665 0)
(0.288314 -0.363713 0)
(0.342922 -0.330471 0)
(0.381419 -0.309099 0)
(0.445329 -0.329042 0)
(0.498998 -0.318802 0)
(0.552899 -0.295024 0)
(0.566595 -0.2553 0)
(0.614292 -0.180305 0)
(0.620608 -0.0913805 0)
(0.631604 0.095789 0)
(0.70894 0.274993 0)
(0.725249 0.416998 0)
(0.910407 0.717627 0)
(1.05692 1.01303 0)
(0.0163608 -0.347538 0)
(0.0484054 -0.348743 0)
(0.0810979 -0.347161 0)
(0.11208 -0.345426 0)
(0.143174 -0.34292 0)
(0.171375 -0.34078 0)
(0.201271 -0.341022 0)
(0.216762 -0.343689 0)
(0.245432 -0.351683 0)
(0.248315 -0.356971 0)
(0.291074 -0.344563 0)
(0.327476 -0.379195 0)
(0.344581 -0.405248 0)
(0.326736 -0.380953 0)
(0.290261 -0.333052 0)
(0.234928 -0.28206 0)
(0.194454 -0.183369 0)
(0.156345 -0.0871117 0)
(0.21409 0.0251996 0)
(0.28378 0.103895 0)
(0.393905 0.208503 0)
(0.526456 0.424747 0)
(0.867918 0.847411 0)
(0.0164796 -0.370823 0)
(0.0495052 -0.371932 0)
(0.0814649 -0.370232 0)
(0.113733 -0.36736 0)
(0.143733 -0.363331 0)
(0.171481 -0.359131 0)
(0.195476 -0.352988 0)
(0.208478 -0.344489 0)
(0.188493 -0.356182 0)
(0.169108 -0.341685 0)
(0.18234 -0.360491 0)
(0.149169 -0.376752 0)
(0.0681272 -0.350172 0)
(-0.018413 -0.310034 0)
(-0.0568108 -0.264856 0)
(-0.0600025 -0.213574 0)
(-0.0448786 -0.165206 0)
(-0.0365187 -0.154413 0)
(0.0360546 -0.078825 0)
(0.0915685 -0.0232841 0)
(0.184894 0.114211 0)
(0.249192 0.193093 0)
(0.499856 0.454947 0)
(0.0180456 -0.503925 0)
(0.0528201 -0.507687 0)
(0.0871798 -0.510797 0)
(0.119848 -0.514812 0)
(0.152039 -0.51875 0)
(0.179752 -0.521852 0)
(0.206502 -0.521498 0)
(0.216034 -0.519515 0)
(0.0529449 -0.551442 0)
(0.0327013 -0.474115 0)
(-0.0746029 -0.421123 0)
(-0.212508 -0.357065 0)
(-0.239893 -0.351655 0)
(-0.216078 -0.308103 0)
(-0.174189 -0.285376 0)
(-0.142224 -0.270003 0)
(-0.0811799 -0.223552 0)
(-0.0251774 -0.194509 0)
(0.0318551 -0.123596 0)
(0.0850602 -0.0925307 0)
(0.153652 0.0058902 0)
(0.223101 0.0284022 0)
(0.338966 0.19207 0)
(0.0154288 -0.793777 0)
(0.0436389 -0.804339 0)
(0.0720745 -0.818338 0)
(0.0988777 -0.841147 0)
(0.121761 -0.869587 0)
(0.145757 -0.905936 0)
(0.155766 -0.936343 0)
(0.0316367 -0.894654 0)
(-0.310485 -0.890009 0)
(-0.337336 -0.649754 0)
(-0.499817 -0.545552 0)
(-0.514917 -0.610867 0)
(-0.339849 -0.688809 0)
(-0.253287 -0.583925 0)
(-0.168229 -0.530117 0)
(-0.109268 -0.436225 0)
(-0.0499929 -0.359182 0)
(0.00931563 -0.283458 0)
(0.0495167 -0.178891 0)
(0.129815 -0.122299 0)
(0.210917 0.00828429 0)
(0.294073 0.0543764 0)
(0.378245 0.166416 0)
(-0.0242288 -0.117267 0)
(-0.0815605 -0.0853433 0)
(-0.1429 -0.0412085 0)
(-0.209136 0.0103414 0)
(-0.270637 0.0321108 0)
(-0.298099 -0.0207344 0)
(-0.287532 -0.295642 0)
(-0.440297 -0.816806 0)
(-0.51579 -0.922294 0)
(-0.514422 -0.83065 0)
(-0.68188 -1.15024 0)
(-0.490487 -1.37524 0)
(-0.272646 -1.2889 0)
(-0.15761 -1.06525 0)
(0.00707097 -1.01778 0)
(0.0733697 -0.953419 0)
(0.0831628 -0.775215 0)
(0.132829 -0.599742 0)
(0.159917 -0.495749 0)
(0.256396 -0.398754 0)
(0.286452 -0.259774 0)
(0.363164 -0.169 0)
(0.471484 -0.0929036 0)
(-0.0391454 -0.822557 0)
(-0.108788 -0.825858 0)
(-0.158511 -0.827553 0)
(-0.193145 -0.833128 0)
(-0.206659 -0.842452 0)
(-0.211874 -0.865812 0)
(-0.291704 -0.941896 0)
(-0.377052 -0.960129 0)
(-0.277333 -0.644759 0)
(-0.204188 -0.322947 0)
(0.211519 -0.789477 0)
(0.34953 -0.976967 0)
(0.36489 -0.975792 0)
(0.41266 -0.847944 0)
(0.480091 -0.612179 0)
(0.351754 -0.89509 0)
(0.206713 -1.32641 0)
(0.199198 -1.09444 0)
(0.253529 -0.949913 0)
(0.260867 -0.850001 0)
(0.336484 -0.684152 0)
(0.383315 -0.633424 0)
(0.416687 -0.602834 0)
(-0.0218018 -0.0175102 0)
(-0.0558006 -0.0362538 0)
(-0.0770445 -0.0620154 0)
(-0.0931494 -0.0997149 0)
(-0.102865 -0.145542 0)
(-0.110425 -0.197844 0)
(-0.122935 -0.224959 0)
(-0.14683 -0.175871 0)
(-0.139243 0.124672 0)
(-0.0849526 0.281704 0)
(0.134816 -0.115158 0)
(0.0552471 -0.394937 0)
(0.0353475 -0.451457 0)
(-0.00969452 -0.513705 0)
(-0.0374909 -0.59318 0)
(-0.0227893 -0.634541 0)
(0.045345 -0.661575 0)
(0.10928 -0.61737 0)
(0.16012 -0.584731 0)
(0.160042 -0.532953 0)
(0.212423 -0.327488 0)
(0.164636 -0.198147 0)
(0.216818 -0.112338 0)
(-0.00760799 -0.389918 0)
(-0.0186855 -0.418184 0)
(-0.0282915 -0.44535 0)
(-0.0410905 -0.477107 0)
(-0.0578359 -0.509555 0)
(-0.0826461 -0.539174 0)
(-0.122004 -0.55204 0)
(-0.160395 -0.5371 0)
(-0.131977 -0.484675 0)
(0.0729373 -0.440865 0)
(0.226965 -0.585358 0)
(0.152047 -0.597076 0)
(0.0781881 -0.570321 0)
(0.0265811 -0.478029 0)
(0.000409336 -0.399146 0)
(0.000759462 -0.280168 0)
(0.000636431 -0.164808 0)
(-0.0105278 -0.0944837 0)
(0.00590814 -0.0916383 0)
(-0.0249422 -0.139451 0)
(-0.0727739 -0.24128 0)
(-0.111664 -0.324725 0)
(-0.0528434 -0.220284 0)
(0.00397002 -0.260784 0)
(0.0118159 -0.285377 0)
(0.0154754 -0.30401 0)
(0.0114015 -0.325021 0)
(0.000821698 -0.344275 0)
(-0.0170118 -0.357876 0)
(-0.0406535 -0.356873 0)
(-0.0639181 -0.330623 0)
(-0.0701127 -0.279518 0)
(-0.0203143 -0.261841 0)
(-0.00380896 -0.381029 0)
(-0.0434592 -0.454169 0)
(-0.0683518 -0.51141 0)
(-0.078115 -0.53192 0)
(-0.0749934 -0.528989 0)
(-0.0620989 -0.486142 0)
(-0.0440783 -0.42149 0)
(-0.0362629 -0.349148 0)
(-0.0564325 -0.273829 0)
(-0.13049 -0.119379 0)
(-0.182289 0.109607 0)
(-0.365149 0.157904 0)
(-0.45995 0.217218 0)
(0.00250824 -0.25277 0)
(0.00709279 -0.279007 0)
(0.00935227 -0.2979 0)
(0.00605481 -0.320858 0)
(-0.00305387 -0.343349 0)
(-0.0197191 -0.360681 0)
(-0.0421225 -0.370107 0)
(-0.0677417 -0.37254 0)
(-0.0782627 -0.369865 0)
(-0.0686225 -0.368907 0)
(-0.0761163 -0.407952 0)
(-0.10095 -0.44616 0)
(-0.132948 -0.488225 0)
(-0.158902 -0.514658 0)
(-0.197758 -0.500987 0)
(-0.236238 -0.448963 0)
(-0.275485 -0.365436 0)
(-0.310577 -0.278994 0)
(-0.380124 -0.205674 0)
(-0.415794 -0.158083 0)
(-0.380515 -0.113201 0)
(-0.324906 -0.168775 0)
(-0.280054 -0.166904 0)
(0.00264397 -0.295632 0)
(0.00613406 -0.315741 0)
(0.00660254 -0.324471 0)
(0.00229467 -0.334808 0)
(-0.00954687 -0.344282 0)
(-0.0293068 -0.348751 0)
(-0.0519104 -0.34947 0)
(-0.0747129 -0.348641 0)
(-0.0913033 -0.34837 0)
(-0.0945113 -0.356414 0)
(-0.107696 -0.396583 0)
(-0.138056 -0.429044 0)
(-0.17521 -0.448688 0)
(-0.23664 -0.441528 0)
(-0.294132 -0.413534 0)
(-0.334456 -0.352319 0)
(-0.367655 -0.248591 0)
(-0.39238 -0.148531 0)
(-0.405908 -0.064271 0)
(-0.404803 0.00617075 0)
(-0.388272 0.0429721 0)
(-0.392318 0.0609352 0)
(-0.41673 0.0615609 0)
(0.000628194 -0.289524 0)
(-0.000482542 -0.308631 0)
(-0.00464277 -0.314845 0)
(-0.015991 -0.320869 0)
(-0.0296178 -0.323928 0)
(-0.046118 -0.326921 0)
(-0.0636811 -0.329489 0)
(-0.0803846 -0.330787 0)
(-0.0933205 -0.334434 0)
(-0.104567 -0.344674 0)
(-0.12375 -0.357748 0)
(-0.162295 -0.376753 0)
(-0.21532 -0.380469 0)
(-0.274546 -0.390712 0)
(-0.330995 -0.397456 0)
(-0.386983 -0.353861 0)
(-0.431404 -0.277564 0)
(-0.439572 -0.238139 0)
(-0.430389 -0.215052 0)
(-0.396 -0.187017 0)
(-0.353491 -0.149999 0)
(-0.325462 -0.134328 0)
(-0.295029 -0.118917 0)
(-0.00167898 -0.286454 0)
(-0.00707891 -0.302555 0)
(-0.0157836 -0.304577 0)
(-0.0260638 -0.307714 0)
(-0.0376666 -0.31186 0)
(-0.0494621 -0.314954 0)
(-0.0614896 -0.317531 0)
(-0.0726654 -0.319229 0)
(-0.082803 -0.320794 0)
(-0.0989185 -0.324929 0)
(-0.123102 -0.333497 0)
(-0.161548 -0.33418 0)
(-0.199808 -0.334602 0)
(-0.242595 -0.332908 0)
(-0.294899 -0.318361 0)
(-0.339232 -0.289018 0)
(-0.348968 -0.228998 0)
(-0.346456 -0.171292 0)
(-0.339622 -0.13883 0)
(-0.3304 -0.102632 0)
(-0.316117 -0.0550723 0)
(-0.309263 -0.0342158 0)
(-0.30578 -0.0282496 0)
(-0.00339693 -0.278177 0)
(-0.0114872 -0.293108 0)
(-0.0191734 -0.294649 0)
(-0.0279587 -0.298473 0)
(-0.0380709 -0.301615 0)
(-0.0487457 -0.303916 0)
(-0.0600214 -0.304939 0)
(-0.0714927 -0.306419 0)
(-0.0838055 -0.308464 0)
(-0.0986122 -0.310497 0)
(-0.121902 -0.308924 0)
(-0.142542 -0.307017 0)
(-0.164538 -0.302962 0)
(-0.193694 -0.292311 0)
(-0.226277 -0.278059 0)
(-0.259346 -0.261409 0)
(-0.285666 -0.243836 0)
(-0.29674 -0.215498 0)
(-0.300663 -0.192736 0)
(-0.298526 -0.173771 0)
(-0.289898 -0.145906 0)
(-0.272461 -0.112899 0)
(-0.269894 -0.0885334 0)
(-0.00329817 -0.27152 0)
(-0.0111107 -0.286067 0)
(-0.0196833 -0.287074 0)
(-0.0292651 -0.288609 0)
(-0.0396426 -0.290435 0)
(-0.0511122 -0.292535 0)
(-0.0629926 -0.294504 0)
(-0.0752666 -0.295096 0)
(-0.0885924 -0.294063 0)
(-0.104816 -0.291731 0)
(-0.119942 -0.289203 0)
(-0.135936 -0.285873 0)
(-0.157759 -0.279107 0)
(-0.176382 -0.271903 0)
(-0.198159 -0.264137 0)
(-0.2172 -0.244267 0)
(-0.235106 -0.218939 0)
(-0.252792 -0.193128 0)
(-0.259065 -0.160779 0)
(-0.260498 -0.136399 0)
(-0.262528 -0.112647 0)
(-0.264023 -0.0776853 0)
(-0.266083 -0.0583376 0)
(-0.0039538 -0.2628 0)
(-0.0129286 -0.276265 0)
(-0.0222762 -0.276167 0)
(-0.0318922 -0.276957 0)
(-0.0421161 -0.27771 0)
(-0.0531303 -0.277943 0)
(-0.0650949 -0.277837 0)
(-0.0780568 -0.277322 0)
(-0.0925027 -0.276525 0)
(-0.10744 -0.27518 0)
(-0.123227 -0.271718 0)
(-0.141548 -0.264845 0)
(-0.158296 -0.257667 0)
(-0.176965 -0.249576 0)
(-0.195107 -0.235158 0)
(-0.209388 -0.216546 0)
(-0.2228 -0.196004 0)
(-0.231603 -0.177253 0)
(-0.239249 -0.167381 0)
(-0.248621 -0.150701 0)
(-0.247178 -0.121054 0)
(-0.249765 -0.0890153 0)
(-0.247167 -0.0754696 0)
(-0.00363565 -0.257116 0)
(-0.0117709 -0.269913 0)
(-0.0204243 -0.269864 0)
(-0.0296341 -0.270277 0)
(-0.0395185 -0.27031 0)
(-0.0500682 -0.27002 0)
(-0.0612809 -0.269212 0)
(-0.0734823 -0.267907 0)
(-0.0870181 -0.266123 0)
(-0.102455 -0.263522 0)
(-0.118492 -0.259 0)
(-0.131356 -0.25367 0)
(-0.144773 -0.247468 0)
(-0.161516 -0.235181 0)
(-0.17787 -0.222637 0)
(-0.193015 -0.210834 0)
(-0.20403 -0.195292 0)
(-0.212243 -0.175603 0)
(-0.221696 -0.151747 0)
(-0.227933 -0.132157 0)
(-0.234227 -0.115647 0)
(-0.234309 -0.0906898 0)
(-0.228825 -0.0768059 0)
(-0.0039873 -0.246428 0)
(-0.0128577 -0.258482 0)
(-0.0218284 -0.25759 0)
(-0.0311982 -0.257309 0)
(-0.0410369 -0.2567 0)
(-0.0514394 -0.25569 0)
(-0.0624273 -0.254198 0)
(-0.074034 -0.25212 0)
(-0.0861358 -0.24919 0)
(-0.0981581 -0.245152 0)
(-0.109954 -0.241503 0)
(-0.123747 -0.236043 0)
(-0.138852 -0.225858 0)
(-0.151393 -0.217084 0)
(-0.162688 -0.205709 0)
(-0.176343 -0.190279 0)
(-0.190516 -0.173955 0)
(-0.199599 -0.158864 0)
(-0.205904 -0.147629 0)
(-0.208915 -0.13717 0)
(-0.214007 -0.115398 0)
(-0.216935 -0.0905117 0)
(-0.213737 -0.0802921 0)
(-0.00397584 -0.240744 0)
(-0.0126857 -0.252418 0)
(-0.0214623 -0.251673 0)
(-0.0303608 -0.25122 0)
(-0.0394405 -0.250355 0)
(-0.0486522 -0.24908 0)
(-0.058089 -0.247303 0)
(-0.0679192 -0.244949 0)
(-0.0784425 -0.241885 0)
(-0.0898475 -0.237686 0)
(-0.102765 -0.231635 0)
(-0.11642 -0.22391 0)
(-0.129348 -0.217119 0)
(-0.142756 -0.207396 0)
(-0.155148 -0.195958 0)
(-0.164197 -0.186294 0)
(-0.170272 -0.176322 0)
(-0.179482 -0.162014 0)
(-0.186364 -0.143588 0)
(-0.193929 -0.121239 0)
(-0.201382 -0.106627 0)
(-0.201098 -0.0959742 0)
(-0.19955 -0.0820894 0)
(-0.00381152 -0.229944 0)
(-0.012146 -0.241065 0)
(-0.0206355 -0.240041 0)
(-0.0293786 -0.239181 0)
(-0.0384795 -0.237863 0)
(-0.0480093 -0.236086 0)
(-0.0579827 -0.233787 0)
(-0.0683703 -0.23086 0)
(-0.0789585 -0.227086 0)
(-0.089475 -0.222234 0)
(-0.0993131 -0.216252 0)
(-0.108766 -0.21087 0)
(-0.11857 -0.203138 0)
(-0.128061 -0.194224 0)
(-0.13783 -0.184512 0)
(-0.148342 -0.171625 0)
(-0.160479 -0.156588 0)
(-0.170927 -0.143 0)
(-0.176625 -0.131844 0)
(-0.180207 -0.123796 0)
(-0.182001 -0.108634 0)
(-0.186536 -0.0920658 0)
(-0.188683 -0.0808837 0)
(-0.00367969 -0.225215 0)
(-0.0115908 -0.236007 0)
(-0.0196103 -0.234926 0)
(-0.0277285 -0.233922 0)
(-0.0360508 -0.232438 0)
(-0.0446143 -0.230465 0)
(-0.0535053 -0.227945 0)
(-0.0627697 -0.224812 0)
(-0.072398 -0.220999 0)
(-0.0822903 -0.216405 0)
(-0.0924218 -0.210559 0)
(-0.102752 -0.202638 0)
(-0.113276 -0.194496 0)
(-0.123678 -0.185884 0)
(-0.133597 -0.176296 0)
(-0.14172 -0.166428 0)
(-0.147874 -0.156913 0)
(-0.152865 -0.145274 0)
(-0.158814 -0.130542 0)
(-0.165334 -0.114661 0)
(-0.171066 -0.102299 0)
(-0.174386 -0.0909479 0)
(-0.17668 -0.0789697 0)
(-0.00353985 -0.214646 0)
(-0.0112543 -0.224912 0)
(-0.0190046 -0.223702 0)
(-0.026866 -0.222429 0)
(-0.0348651 -0.22064 0)
(-0.0429971 -0.218316 0)
(-0.0512512 -0.215399 0)
(-0.0596259 -0.211824 0)
(-0.0681444 -0.207518 0)
(-0.0768621 -0.202461 0)
(-0.0857383 -0.196924 0)
(-0.0945062 -0.191198 0)
(-0.102834 -0.184055 0)
(-0.1109 -0.175431 0)
(-0.118775 -0.16604 0)
(-0.126837 -0.155814 0)
(-0.135023 -0.144306 0)
(-0.143025 -0.132925 0)
(-0.149361 -0.12225 0)
(-0.153786 -0.111632 0)
(-0.157704 -0.0995873 0)
(-0.162193 -0.087318 0)
(-0.165711 -0.0758997 0)
(-0.00335212 -0.21006 0)
(-0.0104596 -0.22019 0)
(-0.017689 -0.219017 0)
(-0.0249606 -0.217743 0)
(-0.03239 -0.215949 0)
(-0.0399964 -0.213618 0)
(-0.0477974 -0.21069 0)
(-0.0557687 -0.207097 0)
(-0.0638332 -0.202756 0)
(-0.0718723 -0.197564 0)
(-0.0798474 -0.191384 0)
(-0.087908 -0.18426 0)
(-0.0960708 -0.176653 0)
(-0.104049 -0.168644 0)
(-0.111634 -0.159856 0)
(-0.118667 -0.150317 0)
(-0.125063 -0.140367 0)
(-0.130875 -0.129563 0)
(-0.136482 -0.117918 0)
(-0.1417 -0.106073 0)
(-0.146381 -0.0948339 0)
(-0.150841 -0.0837259 0)
(-0.154694 -0.0724492 0)
(-0.00311202 -0.201598 0)
(-0.00979701 -0.211183 0)
(-0.0165525 -0.209914 0)
(-0.0233384 -0.208409 0)
(-0.0302265 -0.206349 0)
(-0.0372118 -0.203736 0)
(-0.0442991 -0.200553 0)
(-0.0514909 -0.196785 0)
(-0.0587909 -0.192426 0)
(-0.0661868 -0.187471 0)
(-0.0735956 -0.181908 0)
(-0.0808746 -0.175667 0)
(-0.0879568 -0.168558 0)
(-0.0949012 -0.160562 0)
(-0.101702 -0.151907 0)
(-0.108264 -0.142675 0)
(-0.114541 -0.13284 0)
(-0.120483 -0.122664 0)
(-0.125894 -0.112219 0)
(-0.13067 -0.101499 0)
(-0.135094 -0.0905941 0)
(-0.139663 -0.0796472 0)
(-0.143855 -0.0686197 0)
(-0.00292723 -0.196473 0)
(-0.00907378 -0.205934 0)
(-0.0153246 -0.204715 0)
(-0.021576 -0.203214 0)
(-0.0279196 -0.20116 0)
(-0.0343454 -0.198539 0)
(-0.0408542 -0.195318 0)
(-0.0474322 -0.191462 0)
(-0.0540544 -0.186936 0)
(-0.0606921 -0.181713 0)
(-0.067327 -0.175791 0)
(-0.0739495 -0.169206 0)
(-0.0805143 -0.162034 0)
(-0.0869232 -0.1543 0)
(-0.0931072 -0.14595 0)
(-0.0990433 -0.137007 0)
(-0.104695 -0.127563 0)
(-0.110053 -0.117633 0)
(-0.115129 -0.107299 0)
(-0.119845 -0.0967258 0)
(-0.124257 -0.086121 0)
(-0.128749 -0.0754661 0)
(-0.133057 -0.0646008 0)
(-0.00266803 -0.19016 0)
(-0.00826974 -0.199269 0)
(-0.0139855 -0.198028 0)
(-0.0196815 -0.196416 0)
(-0.0254597 -0.194238 0)
(-0.0313055 -0.191496 0)
(-0.0372205 -0.188181 0)
(-0.0431968 -0.184283 0)
(-0.049218 -0.179795 0)
(-0.0552571 -0.174708 0)
(-0.0612768 -0.169007 0)
(-0.0672344 -0.162679 0)
(-0.0730985 -0.155705 0)
(-0.0788523 -0.148102 0)
(-0.0844667 -0.139925 0)
(-0.0898965 -0.131222 0)
(-0.0951151 -0.122034 0)
(-0.100109 -0.112433 0)
(-0.104865 -0.102469 0)
(-0.109347 -0.0922123 0)
(-0.113605 -0.0817845 0)
(-0.117961 -0.0712523 0)
(-0.122279 -0.0604945 0)
(-0.00243333 -0.185224 0)
(-0.00746727 -0.194146 0)
(-0.012638 -0.192929 0)
(-0.0177726 -0.191276 0)
(-0.0229839 -0.189056 0)
(-0.028249 -0.186264 0)
(-0.0335697 -0.182892 0)
(-0.0389372 -0.17893 0)
(-0.0443366 -0.174371 0)
(-0.0497483 -0.169211 0)
(-0.0551495 -0.163453 0)
(-0.0605146 -0.157107 0)
(-0.0658135 -0.150188 0)
(-0.0710121 -0.142714 0)
(-0.0760818 -0.134699 0)
(-0.0810039 -0.126172 0)
(-0.0857616 -0.117178 0)
(-0.0903499 -0.107761 0)
(-0.094776 -0.0979751 0)
(-0.0990207 -0.0878809 0)
(-0.103098 -0.0775744 0)
(-0.107255 -0.0671153 0)
(-0.111471 -0.0564082 0)
(-0.00216334 -0.180426 0)
(-0.00660932 -0.189113 0)
(-0.0112221 -0.187904 0)
(-0.0157813 -0.186189 0)
(-0.0204207 -0.183906 0)
(-0.02511 -0.181053 0)
(-0.0298537 -0.177628 0)
(-0.0346445 -0.173634 0)
(-0.039467 -0.169073 0)
(-0.0443006 -0.163944 0)
(-0.049122 -0.158247 0)
(-0.0539069 -0.151982 0)
(-0.0586336 -0.145157 0)
(-0.0632824 -0.137786 0)
(-0.0678355 -0.129895 0)
(-0.0722752 -0.121511 0)
(-0.0765911 -0.112671 0)
(-0.0807828 -0.103413 0)
(-0.0848598 -0.0937774 0)
(-0.0888204 -0.083807 0)
(-0.0926692 -0.0735699 0)
(-0.0965849 -0.0631314 0)
(-0.100621 -0.0524308 0)
(-0.00187852 -0.176379 0)
(-0.00572277 -0.184866 0)
(-0.00977355 -0.183669 0)
(-0.0137495 -0.1819 0)
(-0.0178105 -0.179564 0)
(-0.0219167 -0.176655 0)
(-0.0260776 -0.17317 0)
(-0.0302914 -0.169126 0)
(-0.034544 -0.16453 0)
(-0.0388158 -0.159388 0)
(-0.0430835 -0.1537 0)
(-0.0473243 -0.147469 0)
(-0.0515187 -0.140701 0)
(-0.0556501 -0.133411 0)
(-0.0597037 -0.125616 0)
(-0.0636709 -0.117339 0)
(-0.0675472 -0.108608 0)
(-0.0713344 -0.099456 0)
(-0.0750461 -0.0899146 0)
(-0.0786912 -0.0800166 0)
(-0.0822729 -0.0698106 0)
(-0.0859144 -0.0593564 0)
(-0.0897083 -0.0486261 0)
(-0.00155658 -0.172858 0)
(-0.00479386 -0.181109 0)
(-0.00829727 -0.17992 0)
(-0.0116859 -0.178097 0)
(-0.0151603 -0.175712 0)
(-0.0186701 -0.17275 0)
(-0.0222295 -0.169214 0)
(-0.0258517 -0.165132 0)
(-0.0295301 -0.160514 0)
(-0.0332508 -0.155364 0)
(-0.03699 -0.149689 0)
(-0.0407188 -0.14349 0)
(-0.0444141 -0.136771 0)
(-0.0480592 -0.129544 0)
(-0.0516405 -0.121821 0)
(-0.0551511 -0.113621 0)
(-0.058592 -0.104968 0)
(-0.0619693 -0.0958893 0)
(-0.0652976 -0.0864066 0)
(-0.0685959 -0.0765443 0)
(-0.0718736 -0.0663372 0)
(-0.0752141 -0.0558384 0)
(-0.0787238 -0.0450464 0)
(-0.00119458 -0.169962 0)
(-0.00385633 -0.17789 0)
(-0.00687831 -0.176714 0)
(-0.00970558 -0.174863 0)
(-0.0126017 -0.172458 0)
(-0.0155077 -0.169489 0)
(-0.0183898 -0.16593 0)
(-0.0212659 -0.161784 0)
(-0.0242047 -0.157085 0)
(-0.0272671 -0.151867 0)
(-0.0304747 -0.146168 0)
(-0.0337873 -0.140001 0)
(-0.0370689 -0.133326 0)
(-0.0403178 -0.126154 0)
(-0.0435079 -0.118497 0)
(-0.0466212 -0.110361 0)
(-0.0496614 -0.101769 0)
(-0.0526397 -0.09274 0)
(-0.0555753 -0.0832825 0)
(-0.0585002 -0.0734206 0)
(-0.0614397 -0.0631816 0)
(-0.0644547 -0.0526089 0)
(-0.0676469 -0.0417188 0)
(-0.000794904 -0.167822 0)
(-0.00301236 -0.175251 0)
(-0.00575182 -0.174102 0)
(-0.00814682 -0.172264 0)
(-0.0105811 -0.16988 0)
(-0.0129629 -0.166941 0)
(-0.015179 -0.163355 0)
(-0.0173141 -0.15916 0)
(-0.0193841 -0.154348 0)
(-0.0214313 -0.148943 0)
(-0.0235582 -0.143004 0)
(-0.0259278 -0.136623 0)
(-0.0286479 -0.129872 0)
(-0.0315966 -0.122732 0)
(-0.0346719 -0.11521 0)
(-0.0377194 -0.107284 0)
(-0.0405322 -0.0988693 0)
(-0.0432108 -0.0899574 0)
(-0.0458021 -0.0805495 0)
(-0.0483567 -0.0706787 0)
(-0.0509355 -0.060383 0)
(-0.053598 -0.0497212 0)
(-0.0564587 -0.0387171 0)
(-0.000437486 -0.166619 0)
(-0.00251982 -0.173273 0)
(-0.00534164 -0.172173 0)
(-0.00761566 -0.170407 0)
(-0.00990135 -0.168065 0)
(-0.01206 -0.165163 0)
(-0.0142223 -0.16174 0)
(-0.0162753 -0.157696 0)
(-0.0181719 -0.153017 0)
(-0.0198589 -0.147688 0)
(-0.0212891 -0.141692 0)
(-0.0225117 -0.135102 0)
(-0.0236438 -0.128008 0)
(-0.0248249 -0.120486 0)