/*--------------------------------*- C++ -*----------------------------------*\
| =========                 |                                                 |
| \\      /  F ield         | OpenFOAM: The Open Source CFD Toolbox           |
|  \\    /   O peration     | Version:  2.4.0                                 |
|   \\  /    A nd           | Web:      www.OpenFOAM.org                      |
|    \\/     M anipulation  |                                                 |
\*---------------------------------------------------------------------------*/
FoamFile
{
    version     2.0;
    format      ascii;
    class       volVectorField;
    location    "0.3";
    object      U.water;
}
// * * * * * * * * * * * * * * * * * * * * * * * * * * * * * * * * * * * * * //

dimensions      [0 1 -1 0 0 0 0];

internalField   nonuniform List<vector> 
2268
(
(0.0199972 -0.00940016 0)
(0.059359 -0.00943859 0)
(0.100793 -0.00940758 0)
(0.137505 -0.00974621 0)
(0.184514 -0.00900517 0)
(0.216084 -0.0112498 0)
(0.270897 -0.00799382 0)
(0.296787 -0.010898 0)
(0.347536 -0.0120056 0)
(0.405245 -0.0101353 0)
(0.441303 -0.00768266 0)
(0.463617 -0.0101767 0)
(0.513884 -0.0097864 0)
(0.563801 -0.0131055 0)
(0.614647 -0.011151 0)
(0.651989 -0.00490915 0)
(0.659896 0.00262256 0)
(0.646463 0.00601442 0)
(0.60676 0.00983413 0)
(0.528573 0.0236306 0)
(0.402426 0.0279936 0)
(0.247403 0.0591691 0)
(0.0515047 0.0196253 0)
(0.0199952 -0.028213 0)
(0.0593805 -0.0283515 0)
(0.100826 -0.0281756 0)
(0.137371 -0.0296084 0)
(0.185009 -0.026054 0)
(0.215992 -0.0355987 0)
(0.269406 -0.0222164 0)
(0.298944 -0.0324714 0)
(0.348523 -0.0377902 0)
(0.404888 -0.0306921 0)
(0.438525 -0.023349 0)
(0.464561 -0.0262595 0)
(0.518623 -0.0348301 0)
(0.572497 -0.0388162 0)
(0.619237 -0.0313207 0)
(0.653615 -0.0174448 0)
(0.659223 0.000973203 0)
(0.647466 0.0250878 0)
(0.607011 0.0525331 0)
(0.545199 0.0863226 0)
(0.423248 0.106379 0)
(0.292282 0.11016 0)
(0.0597331 0.116932 0)
(0.0199659 -0.0469934 0)
(0.0593536 -0.0472107 0)
(0.100625 -0.0469512 0)
(0.137285 -0.0490609 0)
(0.185034 -0.0446875 0)
(0.215501 -0.0559617 0)
(0.26758 -0.0404359 0)
(0.302645 -0.0543677 0)
(0.348283 -0.0607126 0)
(0.400041 -0.0487463 0)
(0.435147 -0.0407493 0)
(0.472887 -0.0489944 0)
(0.533116 -0.0600286 0)
(0.570018 -0.0602498 0)
(0.62022 -0.0491762 0)
(0.646293 -0.01616 0)
(0.657481 0.00964532 0)
(0.660107 0.0357121 0)
(0.635013 0.0682839 0)
(0.578585 0.111586 0)
(0.451749 0.167934 0)
(0.244113 0.206225 0)
(0.114053 0.192267 0)
(0.0199254 -0.0658122 0)
(0.0593246 -0.0660814 0)
(0.10026 -0.0658015 0)
(0.137488 -0.0687292 0)
(0.184238 -0.0627174 0)
(0.215562 -0.0774042 0)
(0.26632 -0.0586603 0)
(0.303952 -0.075462 0)
(0.348616 -0.0819066 0)
(0.39348 -0.0677004 0)
(0.431049 -0.0581662 0)
(0.491516 -0.0634952 0)
(0.536995 -0.06251 0)
(0.575123 -0.0605355 0)
(0.610172 -0.034005 0)
(0.633092 0.00185905 0)
(0.663925 0.0533568 0)
(0.673526 0.110235 0)
(0.681601 0.180606 0)
(0.635338 0.242402 0)
(0.525281 0.322747 0)
(0.30428 0.296796 0)
(0.0660508 0.29481 0)
(0.0198799 -0.0845914 0)
(0.059246 -0.0847658 0)
(0.0998647 -0.0843491 0)
(0.137475 -0.086982 0)
(0.183554 -0.0799686 0)
(0.214313 -0.0915617 0)
(0.267085 -0.0721095 0)
(0.302099 -0.0852646 0)
(0.350484 -0.0841894 0)
(0.386752 -0.066476 0)
(0.436867 -0.0623635 0)
(0.510108 -0.0379897 0)
(0.553836 0.0347172 0)
(0.596666 0.0882378 0)
(0.624642 0.102494 0)
(0.656971 0.143588 0)
(0.709497 0.16477 0)
(0.737268 0.200776 0)
(0.713067 0.279794 0)
(0.626174 0.389398 0)
(0.497786 0.543616 0)
(0.322383 0.480056 0)
(0.127752 0.380039 0)
(0.0198675 -0.0864387 0)
(0.0592116 -0.0860573 0)
(0.0996645 -0.0851833 0)
(0.137878 -0.0865757 0)
(0.183033 -0.0770657 0)
(0.215986 -0.0798366 0)
(0.270649 -0.0546681 0)
(0.310177 -0.0325596 0)
(0.363446 0.0241601 0)
(0.408058 0.0620831 0)
(0.468635 0.0561814 0)
(0.52386 0.055512 0)
(0.567905 0.0499498 0)
(0.613913 0.0395097 0)
(0.640132 0.035065 0)
(0.675637 0.0365515 0)
(0.680367 0.0438443 0)
(0.656272 0.151462 0)
(0.651127 0.303027 0)
(0.552731 0.437612 0)
(0.44183 0.617102 0)
(0.306175 0.67404 0)
(0.109901 0.545592 0)
(0.0212331 0.0344153 0)
(0.0632292 0.0437605 0)
(0.10643 0.0473048 0)
(0.146984 0.0437465 0)
(0.192604 0.0511534 0)
(0.230586 0.0333623 0)
(0.278792 0.0479356 0)
(0.328473 0.0310434 0)
(0.358521 0.0233003 0)
(0.420735 0.018793 0)
(0.47341 0.00703225 0)
(0.517169 -0.00436023 0)
(0.555289 -0.027286 0)
(0.563342 -0.0100171 0)
(0.528728 0.0100292 0)
(0.459759 0.0964224 0)
(0.319433 0.117279 0)
(0.221171 0.0460001 0)
(0.341127 0.16959 0)
(0.269384 0.449035 0)
(0.318465 0.631865 0)
(0.243154 0.75295 0)
(0.138724 0.681517 0)
(0.0213684 0.026741 0)
(0.0633464 0.0258888 0)
(0.106523 0.0242767 0)
(0.146393 0.0180908 0)
(0.190289 0.0218895 0)
(0.234921 -0.000347953 0)
(0.272693 0.000989912 0)
(0.332333 -0.0114685 0)
(0.35486 -0.0316757 0)
(0.414681 -0.0380407 0)
(0.43278 -0.0488396 0)
(0.441358 -0.0490651 0)
(0.396509 -0.0329846 0)
(0.324662 -0.0444225 0)
(0.225638 -0.0739891 0)
(0.250458 -0.112862 0)
(0.311435 -0.0962838 0)
(0.365528 -0.0239984 0)
(0.29 0.0253294 0)
(0.284051 0.213892 0)
(0.0828004 0.573896 0)
(0.198264 0.785055 0)
(0.10526 0.92466 0)
(-0.536266 0.181665 0)
(-1.11084 0.129243 0)
(-1.42257 0.0595815 0)
(-1.5092 0.0134246 0)
(-1.43061 -0.066784 0)
(-1.22539 -0.0918756 0)
(-0.878907 -0.0733239 0)
(-0.60921 -0.0797318 0)
(-0.223683 -0.0968329 0)
(0.169113 -0.0922288 0)
(0.491743 -0.0574405 0)
(0.685005 -0.0442388 0)
(0.796997 -0.0113393 0)
(0.765197 0.0029134 0)
(0.67078 -0.0177142 0)
(0.460911 -0.0247884 0)
(0.283554 -0.0390558 0)
(-0.0525022 -0.101633 0)
(0.0108686 -0.099743 0)
(-0.558397 0.495257 0)
(-1.07856 0.305623 0)
(-1.35489 0.132873 0)
(-1.40705 0.013551 0)
(-1.29499 -0.0689643 0)
(-1.16636 -0.158837 0)
(-0.810858 -0.192071 0)
(-0.46818 -0.262087 0)
(-0.121821 -0.246785 0)
(0.245763 -0.256875 0)
(0.591668 -0.164111 0)
(0.812307 -0.110445 0)
(0.945452 -0.0533561 0)
(0.935731 0.0085963 0)
(0.838142 0.111797 0)
(0.602103 0.174757 0)
(0.425216 0.209729 0)
(0.0619715 0.167087 0)
(0.0394281 0.0422755 0)
(-0.494119 0.721144 0)
(-1.02346 0.46177 0)
(-1.27617 0.220994 0)
(-1.2703 -0.0055747 0)
(-1.25193 -0.159132 0)
(-1.14209 -0.293031 0)
(-0.661698 -0.39497 0)
(-0.444231 -0.379553 0)
(-0.0415578 -0.427313 0)
(0.302351 -0.447346 0)
(0.684429 -0.330133 0)
(0.918824 -0.26655 0)
(1.03771 -0.150713 0)
(1.0166 -0.0534973 0)
(0.916448 0.0900411 0)
(0.697312 0.181668 0)
(0.522 0.220708 0)
(0.162118 0.147085 0)
(0.0977159 -0.0454208 0)
(-0.477253 1.07165 0)
(-0.86938 0.690122 0)
(-1.07958 0.228626 0)
(-1.05052 -0.00840402 0)
(-1.05707 -0.142081 0)
(-0.969923 -0.407656 0)
(-0.632557 -0.556776 0)
(-0.326107 -0.53339 0)
(0.081715 -0.58515 0)
(0.434526 -0.631984 0)
(0.797855 -0.49723 0)
(1.02267 -0.372035 0)
(1.10506 -0.192922 0)
(1.07309 -0.040225 0)
(0.98754 0.154807 0)
(0.754225 0.297343 0)
(0.592207 0.350193 0)
(0.285415 0.277676 0)
(0.180151 0.0829692 0)
(-0.416246 1.25854 0)
(-0.73485 0.855939 0)
(-0.727976 0.344771 0)
(-0.748105 0.00997685 0)
(-0.802236 -0.136267 0)
(-0.685737 -0.471279 0)
(-0.480597 -0.686754 0)
(-0.182094 -0.690531 0)
(0.252557 -0.753545 0)
(0.607127 -0.788075 0)
(0.933573 -0.648199 0)
(1.10995 -0.477763 0)
(1.17325 -0.224145 0)
(1.11862 -0.0168124 0)
(1.02085 0.220748 0)
(0.82812 0.352641 0)
(0.645101 0.43391 0)
(0.282652 0.39116 0)
(0.150041 0.188678 0)
(-0.38211 1.46651 0)
(-0.579306 0.833544 0)
(-0.274196 0.0767383 0)
(-0.289303 -0.18219 0)
(-0.405002 -0.217518 0)
(-0.393873 -0.41307 0)
(-0.251008 -0.727851 0)
(0.0415582 -0.83926 0)
(0.439436 -0.916346 0)
(0.758735 -0.912042 0)
(1.03588 -0.725701 0)
(1.17238 -0.494849 0)
(1.24624 -0.262191 0)
(1.18217 0.000861072 0)
(1.03658 0.305031 0)
(0.816417 0.458502 0)
(0.673576 0.572799 0)
(0.369764 0.509523 0)
(0.131225 0.280544 0)
(-0.344943 1.63751 0)
(-0.298725 0.967118 0)
(-0.0779348 0.191726 0)
(0.0682931 -0.166923 0)
(0.0828094 -0.47851 0)
(0.0534652 -0.588137 0)
(-0.00946071 -0.769517 0)
(0.250155 -0.948645 0)
(0.595362 -1.08144 0)
(0.882253 -1.07337 0)
(1.10153 -0.923755 0)
(1.18416 -0.669005 0)
(1.24017 -0.189683 0)
(1.21575 0.16916 0)
(1.12087 0.403226 0)
(0.895602 0.499821 0)
(0.698061 0.622829 0)
(0.472966 0.640645 0)
(0.218502 0.407633 0)
(-0.31706 1.77105 0)
(0.0066196 0.721542 0)
(0.104002 0.353668 0)
(-0.0902257 -0.302004 0)
(-0.212765 -0.451132 0)
(0.429589 -0.791051 0)
(0.263754 -0.834643 0)
(0.431182 -1.02836 0)
(0.703918 -1.18149 0)
(0.95951 -1.18345 0)
(1.14693 -1.14958 0)
(1.25378 -1.00762 0)
(1.27196 -0.516361 0)
(1.16825 0.0781475 0)
(1.08474 0.514425 0)
(0.929132 0.647895 0)
(0.725131 0.725117 0)
(0.433934 0.737858 0)
(0.224543 0.52968 0)
(0.0212601 -0.0673148 0)
(0.062583 -0.0677985 0)
(0.103554 -0.0683037 0)
(0.138775 -0.0692634 0)
(0.171602 -0.0676159 0)
(0.212729 -0.069598 0)
(0.223361 -0.0672084 0)
(0.262714 -0.0587365 0)
(0.276592 -0.0515428 0)
(0.270697 -0.0443074 0)
(0.261392 -0.0478347 0)
(0.263705 -0.0819974 0)
(0.282701 -0.15217 0)
(0.322063 -0.136735 0)
(0.374078 -0.0953089 0)
(0.413382 0.0108613 0)
(0.398881 0.0924089 0)
(0.386645 0.103831 0)
(0.311994 0.162273 0)
(0.381996 0.293783 0)
(0.129565 0.570208 0)
(0.310864 0.735854 0)
(0.3583 0.912743 0)
(0.0108294 -0.0818137 0)
(0.0321848 -0.0834519 0)
(0.0543594 -0.0850436 0)
(0.0751193 -0.0893187 0)
(0.0940473 -0.101292 0)
(0.118509 -0.115674 0)
(0.135505 -0.12867 0)
(0.162848 -0.161675 0)
(0.197852 -0.175874 0)
(0.228637 -0.192116 0)
(0.279732 -0.219167 0)
(0.343243 -0.216012 0)
(0.392218 -0.183081 0)
(0.430585 -0.14942 0)
(0.448378 -0.104717 0)
(0.492764 -0.107975 0)
(0.518834 -0.0760068 0)
(0.599075 0.0102255 0)
(0.529554 0.119237 0)
(0.626552 0.291882 0)
(0.477163 0.597025 0)
(0.479756 0.647453 0)
(0.490159 0.670898 0)
(0.0125302 -0.28331 0)
(0.0377502 -0.28536 0)
(0.0658255 -0.283074 0)
(0.0965673 -0.282971 0)
(0.128611 -0.279363 0)
(0.16306 -0.276449 0)
(0.197253 -0.264557 0)
(0.231779 -0.271246 0)
(0.273114 -0.249786 0)
(0.304415 -0.24002 0)
(0.355366 -0.236718 0)
(0.393184 -0.22516 0)
(0.432876 -0.203658 0)
(0.473026 -0.178681 0)
(0.523988 -0.151413 0)
(0.590228 -0.123119 0)
(0.629413 -0.039695 0)
(0.680317 0.0294417 0)
(0.701504 0.162677 0)
(0.717115 0.288729 0)
(0.791389 0.571453 0)
(0.768562 0.766028 0)
(0.646569 0.73641 0)
(0.016665 -0.235136 0)
(0.0489239 -0.236033 0)
(0.0815652 -0.233887 0)
(0.113954 -0.233884 0)
(0.144529 -0.233154 0)
(0.176839 -0.236522 0)
(0.20794 -0.231862 0)
(0.238247 -0.250408 0)
(0.275933 -0.237545 0)
(0.302571 -0.249019 0)
(0.356114 -0.261238 0)
(0.390861 -0.262441 0)
(0.440068 -0.246424 0)
(0.491641 -0.238612 0)
(0.565962 -0.216079 0)
(0.631984 -0.193765 0)
(0.689562 -0.107966 0)
(0.743984 -0.0455441 0)
(0.810583 0.108878 0)
(0.833851 0.258615 0)
(0.874695 0.42753 0)
(1.03372 0.780673 0)
(0.905784 0.868736 0)
(0.0156796 -0.281196 0)
(0.047586 -0.283007 0)
(0.078901 -0.284681 0)
(0.110452 -0.285805 0)
(0.140903 -0.288712 0)
(0.170259 -0.291962 0)
(0.200722 -0.291206 0)
(0.226281 -0.306218 0)
(0.26347 -0.2943 0)
(0.28977 -0.32305 0)
(0.348172 -0.326523 0)
(0.383168 -0.321966 0)
(0.44691 -0.330294 0)
(0.520902 -0.326167 0)
(0.604469 -0.304892 0)
(0.656008 -0.274396 0)
(0.725175 -0.183184 0)
(0.778607 -0.111489 0)
(0.827098 0.0429169 0)
(0.863197 0.212043 0)
(0.876285 0.34788 0)
(1.03335 0.697845 0)
(1.04427 0.931688 0)
(0.0156057 -0.326832 0)
(0.0472453 -0.328091 0)
(0.0781706 -0.327481 0)
(0.108979 -0.326363 0)
(0.14017 -0.325132 0)
(0.168764 -0.324054 0)
(0.199014 -0.323981 0)
(0.225195 -0.331764 0)
(0.258804 -0.330817 0)
(0.288057 -0.366031 0)
(0.34432 -0.362279 0)
(0.386856 -0.380476 0)
(0.453307 -0.409519 0)
(0.512149 -0.411331 0)
(0.565484 -0.398637 0)
(0.58073 -0.367743 0)
(0.620968 -0.302752 0)
(0.62282 -0.220328 0)
(0.61413 -0.0335494 0)
(0.706083 0.148277 0)
(0.71652 0.289727 0)
(0.909657 0.618875 0)
(1.02048 0.916971 0)
(0.0163604 -0.347554 0)
(0.0484044 -0.348758 0)
(0.0810964 -0.347175 0)
(0.112078 -0.345439 0)
(0.143172 -0.342932 0)
(0.171373 -0.34079 0)
(0.201269 -0.341032 0)
(0.216758 -0.343731 0)
(0.2455 -0.353432 0)
(0.257312 -0.394277 0)
(0.305145 -0.415899 0)
(0.339589 -0.466602 0)
(0.359293 -0.51272 0)
(0.340058 -0.504388 0)
(0.29669 -0.469947 0)
(0.222122 -0.421371 0)
(0.143962 -0.302493 0)
(0.116061 -0.190724 0)
(0.199183 -0.0773673 0)
(0.335184 0.0133404 0)
(0.424091 0.116351 0)
(0.602848 0.394026 0)
(0.895537 0.808174 0)
(0.0164794 -0.370841 0)
(0.0495049 -0.37195 0)
(0.0814644 -0.370252 0)
(0.113732 -0.367381 0)
(0.143732 -0.363356 0)
(0.17148 -0.359164 0)
(0.195471 -0.353064 0)
(0.208707 -0.34532 0)
(0.213257 -0.350013 0)
(0.206674 -0.384432 0)
(0.209849 -0.435113 0)
(0.171138 -0.487025 0)
(0.0738951 -0.482071 0)
(-0.045633 -0.449352 0)
(-0.0754683 -0.387847 0)
(-0.0696895 -0.313782 0)
(-0.0439782 -0.257659 0)
(-0.0257721 -0.24187 0)
(0.0498469 -0.161053 0)
(0.116408 -0.0995262 0)
(0.236108 0.0386544 0)
(0.344247 0.196516 0)
(0.634561 0.552757 0)
(0.0180466 -0.505188 0)
(0.0528229 -0.509039 0)
(0.0871851 -0.512301 0)
(0.119857 -0.516562 0)
(0.152052 -0.520856 0)
(0.179764 -0.524437 0)
(0.206453 -0.524358 0)
(0.220772 -0.517643 0)
(0.195563 -0.506328 0)
(0.121666 -0.519959 0)
(-0.0330953 -0.513098 0)
(-0.210168 -0.480599 0)
(-0.236671 -0.468709 0)
(-0.197178 -0.410566 0)
(-0.149537 -0.378452 0)
(-0.135212 -0.365033 0)
(-0.0769855 -0.267218 0)
(-0.0256389 -0.205524 0)
(0.0318671 -0.12635 0)
(0.0849192 -0.0955863 0)
(0.15755 -0.00232129 0)
(0.259875 0.065161 0)
(0.484064 0.368933 0)
(0.0153404 -0.81303 0)
(0.0434026 -0.825235 0)
(0.0716944 -0.842274 0)
(0.0982823 -0.870713 0)
(0.120843 -0.908929 0)
(0.144332 -0.963236 0)
(0.1618 -1.03583 0)
(0.19998 -1.00061 0)
(0.184398 -0.904819 0)
(-0.00895359 -0.801528 0)
(-0.481718 -0.757556 0)
(-0.546199 -0.838748 0)
(-0.308667 -0.793649 0)
(-0.278966 -0.675845 0)
(-0.177872 -0.564103 0)
(-0.110012 -0.442648 0)
(-0.0502047 -0.360233 0)
(0.00926479 -0.283614 0)
(0.0494717 -0.179165 0)
(0.129733 -0.122853 0)
(0.211015 0.00683639 0)
(0.293583 0.0507918 0)
(0.403968 0.20338 0)
(0.0204646 -1.53673 0)
(0.0390553 -1.55846 0)
(0.0619499 -1.57979 0)
(0.0850363 -1.61602 0)
(0.096319 -1.62256 0)
(0.0868175 -1.5247 0)
(0.0304305 -1.18559 0)
(-0.122372 -0.684897 0)
(0.0167355 -0.4663 0)
(-0.0180754 -0.741459 0)
(-0.250866 -0.407937 0)
(-0.208295 -0.0716537 0)
(-0.133273 -0.356555 0)
(-0.0760151 -0.716192 0)
(0.0169102 -0.810814 0)
(0.0683939 -0.869717 0)
(0.081329 -0.739957 0)
(0.131887 -0.585158 0)
(0.159079 -0.487258 0)
(0.255583 -0.393763 0)
(0.286144 -0.257677 0)
(0.363042 -0.16804 0)
(0.471208 -0.0910864 0)
(-0.0342395 -0.803855 0)
(-0.119515 -0.821033 0)
(-0.174116 -0.828454 0)
(-0.212237 -0.832621 0)
(-0.22016 -0.83439 0)
(-0.201386 -0.839322 0)
(-0.214391 -0.81445 0)
(-0.301724 -0.759856 0)
(-0.299143 -0.58146 0)
(-0.213344 -0.232694 0)
(0.187657 -0.780019 0)
(0.347799 -0.973268 0)
(0.369031 -0.972101 0)
(0.45341 -0.843065 0)
(0.573676 -0.571392 0)
(0.62508 -0.107319 0)
(0.552504 0.0901097 0)
(0.398925 -0.0876731 0)
(0.320466 -0.32342 0)
(0.274624 -0.484331 0)
(0.335609 -0.561579 0)
(0.381673 -0.579621 0)
(0.415202 -0.559838 0)
(-0.0214909 -0.0266291 0)
(-0.0553773 -0.0403821 0)
(-0.0765466 -0.0649328 0)
(-0.0925508 -0.102172 0)
(-0.102557 -0.146774 0)
(-0.111432 -0.196712 0)
(-0.12377 -0.223617 0)
(-0.146873 -0.174987 0)
(-0.139339 0.125084 0)
(-0.0823132 0.282598 0)
(0.13504 -0.114853 0)
(0.0552367 -0.394661 0)
(0.0353434 -0.450746 0)
(-0.00974334 -0.5118 0)
(-0.0382749 -0.590004 0)
(-0.0222831 -0.633874 0)
(0.0406802 -0.660337 0)
(0.101839 -0.620451 0)
(0.154054 -0.578629 0)
(0.16565 -0.515103 0)
(0.213941 -0.232855 0)
(0.0745339 0.0222354 0)
(0.10484 0.184449 0)
(-0.00778789 -0.388857 0)
(-0.0189002 -0.417907 0)
(-0.0284842 -0.445324 0)
(-0.0413224 -0.477194 0)
(-0.0579751 -0.509652 0)
(-0.0826504 -0.538773 0)
(-0.121988 -0.551535 0)
(-0.160377 -0.536744 0)
(-0.131975 -0.484512 0)
(0.0729514 -0.440345 0)
(0.226974 -0.585342 0)
(0.152066 -0.597073 0)
(0.0784681 -0.570168 0)
(0.0274605 -0.476974 0)
(0.0036304 -0.394972 0)
(0.00504571 -0.273102 0)
(0.0053025 -0.154548 0)
(-0.00624079 -0.0830982 0)
(0.00999377 -0.0758964 0)
(-0.0239011 -0.124221 0)
(-0.0769169 -0.224552 0)
(-0.121194 -0.307463 0)
(-0.0602895 -0.207471 0)
(0.00398752 -0.262215 0)
(0.0118232 -0.285736 0)
(0.0154784 -0.304178 0)
(0.0114035 -0.325167 0)
(0.000822766 -0.34437 0)
(-0.0170118 -0.357901 0)
(-0.0406551 -0.356896 0)
(-0.0639187 -0.330615 0)
(-0.0701125 -0.279493 0)
(-0.0203141 -0.261819 0)
(-0.0038081 -0.381023 0)
(-0.0434543 -0.454125 0)
(-0.0681299 -0.51026 0)
(-0.0770706 -0.526569 0)
(-0.0723074 -0.519839 0)
(-0.0611571 -0.478522 0)
(-0.0451048 -0.418834 0)
(-0.0376584 -0.350219 0)
(-0.0570127 -0.274194 0)
(-0.130421 -0.120666 0)
(-0.181495 0.109213 0)
(-0.362773 0.158016 0)
(-0.458212 0.218692 0)
(0.00250822 -0.252897 0)
(0.00709292 -0.279038 0)
(0.00935239 -0.29791 0)
(0.00605488 -0.320864 0)
(-0.00305386 -0.343354 0)
(-0.0197191 -0.360685 0)
(-0.0421225 -0.370113 0)
(-0.0677417 -0.372542 0)
(-0.0782627 -0.369864 0)
(-0.0686219 -0.368905 0)
(-0.0761147 -0.407948 0)
(-0.100934 -0.446117 0)
(-0.132377 -0.486685 0)
(-0.155533 -0.505261 0)
(-0.192654 -0.489086 0)
(-0.231024 -0.435291 0)
(-0.272087 -0.349713 0)
(-0.308988 -0.271688 0)
(-0.379646 -0.203719 0)
(-0.415789 -0.156589 0)
(-0.380765 -0.111343 0)
(-0.325335 -0.166902 0)
(-0.280321 -0.165766 0)
(0.00264398 -0.295642 0)
(0.00613407 -0.315749 0)
(0.00660255 -0.324473 0)
(0.00229468 -0.334809 0)
(-0.00954686 -0.344282 0)
(-0.0293068 -0.348751 0)
(-0.0519104 -0.34947 0)
(-0.0747128 -0.348641 0)
(-0.0913032 -0.348369 0)
(-0.0945106 -0.356409 0)
(-0.107695 -0.396576 0)
(-0.138041 -0.428994 0)
(-0.174769 -0.44728 0)
(-0.233861 -0.434136 0)
(-0.289905 -0.40284 0)
(-0.329961 -0.342604 0)
(-0.366216 -0.245184 0)
(-0.392032 -0.147265 0)
(-0.405784 -0.0635259 0)
(-0.404734 0.00655214 0)
(-0.388138 0.0434076 0)
(-0.392163 0.0614685 0)
(-0.416655 0.0621157 0)
(0.000628195 -0.289524 0)
(-0.000482539 -0.308632 0)
(-0.00464277 -0.314846 0)
(-0.015991 -0.32087 0)
(-0.0296178 -0.323928 0)
(-0.046118 -0.326921 0)
(-0.0636811 -0.329489 0)
(-0.0803846 -0.330787 0)
(-0.0933203 -0.334432 0)
(-0.104566 -0.344669 0)
(-0.123749 -0.357738 0)
(-0.162287 -0.376715 0)
(-0.215191 -0.37979 0)
(-0.273384 -0.387543 0)
(-0.32822 -0.387702 0)
(-0.384507 -0.345208 0)
(-0.430868 -0.27527 0)
(-0.439582 -0.236602 0)
(-0.430318 -0.213684 0)
(-0.395877 -0.185993 0)
(-0.353404 -0.149341 0)
(-0.325418 -0.133974 0)
(-0.295002 -0.118713 0)
(-0.00167898 -0.286455 0)
(-0.00707891 -0.302556 0)
(-0.0157836 -0.304577 0)
(-0.0260638 -0.307714 0)
(-0.0376666 -0.31186 0)
(-0.0494621 -0.314954 0)
(-0.0614896 -0.317531 0)
(-0.0726654 -0.319229 0)
(-0.0828028 -0.320793 0)
(-0.0989178 -0.324924 0)
(-0.1231 -0.333486 0)
(-0.161541 -0.334151 0)
(-0.199718 -0.334257 0)
(-0.242233 -0.33148 0)
(-0.294212 -0.315471 0)
(-0.338096 -0.284742 0)
(-0.347814 -0.224877 0)
(-0.345581 -0.167897 0)
(-0.3391 -0.136334 0)
(-0.330127 -0.101099 0)
(-0.315983 -0.0542965 0)
(-0.309207 -0.0338779 0)
(-0.305764 -0.0281062 0)
(-0.00339693 -0.278177 0)
(-0.0114872 -0.293108 0)
(-0.0191734 -0.294649 0)
(-0.0279587 -0.298473 0)
(-0.0380709 -0.301615 0)
(-0.0487457 -0.303916 0)
(-0.0600214 -0.304939 0)
(-0.0714927 -0.306418 0)
(-0.0838054 -0.308463 0)
(-0.0986118 -0.310493 0)
(-0.121901 -0.308915 0)
(-0.14254 -0.307002 0)
(-0.164517 -0.302821 0)
(-0.193555 -0.2916 0)
(-0.225969 -0.276328 0)
(-0.258882 -0.258811 0)
(-0.284851 -0.240056 0)
(-0.295935 -0.211909 0)
(-0.300095 -0.190054 0)
(-0.298228 -0.172157 0)
(-0.289752 -0.145134 0)
(-0.272413 -0.11261 0)
(-0.269879 -0.0884411 0)
(-0.00329817 -0.27152 0)
(-0.0111107 -0.286067 0)
(-0.0196833 -0.287074 0)
(-0.0292651 -0.288609 0)
(-0.0396426 -0.290435 0)
(-0.0511122 -0.292535 0)
(-0.0629926 -0.294504 0)
(-0.0752666 -0.295096 0)
(-0.0885924 -0.294062 0)
(-0.104815 -0.29173 0)
(-0.119942 -0.289199 0)
(-0.135936 -0.285867 0)
(-0.157758 -0.279077 0)
(-0.176346 -0.271635 0)
(-0.198003 -0.263196 0)
(-0.21688 -0.242482 0)
(-0.234712 -0.216663 0)
(-0.252371 -0.19074 0)
(-0.2587 -0.158761 0)
(-0.260246 -0.135056 0)
(-0.262407 -0.111956 0)
(-0.263983 -0.0774316 0)
(-0.266073 -0.0582716 0)
(-0.0039538 -0.2628 0)
(-0.0129286 -0.276265 0)
(-0.0222762 -0.276167 0)
(-0.0318922 -0.276957 0)
(-0.0421161 -0.27771 0)
(-0.0531303 -0.277943 0)
(-0.0650949 -0.277837 0)
(-0.0780568 -0.277322 0)
(-0.0925027 -0.276525 0)
(-0.10744 -0.27518 0)
(-0.123227 -0.271717 0)
(-0.141548 -0.264844 0)
(-0.158296 -0.257665 0)
(-0.176962 -0.249517 0)
(-0.195081 -0.234864 0)
(-0.209306 -0.215904 0)
(-0.222675 -0.19515 0)
(-0.23147 -0.176321 0)
(-0.239129 -0.166518 0)
(-0.248533 -0.15008 0)
(-0.247133 -0.120707 0)
(-0.249744 -0.0888764 0)
(-0.247161 -0.0754346 0)
(-0.00363565 -0.257116 0)
(-0.0117709 -0.269913 0)
(-0.0204243 -0.269864 0)
(-0.0296341 -0.270277 0)
(-0.0395185 -0.27031 0)
(-0.0500682 -0.27002 0)
(-0.0612809 -0.269212 0)
(-0.0734823 -0.267907 0)
(-0.0870181 -0.266123 0)
(-0.102455 -0.263522 0)
(-0.118492 -0.259 0)
(-0.131356 -0.25367 0)
(-0.144773 -0.247468 0)
(-0.161516 -0.235177 0)
(-0.177869 -0.222594 0)
(-0.193011 -0.210695 0)
(-0.204016 -0.195064 0)
(-0.212219 -0.175323 0)
(-0.221672 -0.151475 0)
(-0.227919 -0.131969 0)
(-0.234218 -0.115532 0)
(-0.234304 -0.0906372 0)
(-0.228823 -0.0767918 0)
(-0.0039873 -0.246428 0)
(-0.0128577 -0.258482 0)
(-0.0218284 -0.25759 0)
(-0.0311982 -0.257309 0)
(-0.0410369 -0.2567 0)
(-0.0514394 -0.25569 0)
(-0.0624273 -0.254198 0)
(-0.074034 -0.25212 0)
(-0.0861358 -0.24919 0)
(-0.0981581 -0.245152 0)
(-0.109954 -0.241503 0)
(-0.123747 -0.236043 0)
(-0.138852 -0.225857 0)
(-0.151393 -0.217084 0)
(-0.162688 -0.205708 0)
(-0.176343 -0.19027 0)
(-0.190515 -0.173927 0)
(-0.199596 -0.158811 0)
(-0.205901 -0.14757 0)
(-0.208913 -0.137136 0)
(-0.214006 -0.115377 0)
(-0.216935 -0.0905016 0)
(-0.213737 -0.0802891 0)
(-0.00397584 -0.240744 0)
(-0.0126857 -0.252418 0)
(-0.0214623 -0.251673 0)
(-0.0303608 -0.25122 0)
(-0.0394405 -0.250355 0)
(-0.0486522 -0.24908 0)
(-0.058089 -0.247303 0)
(-0.0679192 -0.244949 0)
(-0.0784425 -0.241885 0)
(-0.0898475 -0.237686 0)
(-0.102765 -0.231635 0)
(-0.11642 -0.22391 0)
(-0.129348 -0.217119 0)
(-0.142756 -0.207396 0)
(-0.155148 -0.195958 0)
(-0.164197 -0.186294 0)
(-0.170272 -0.176319 0)
(-0.179482 -0.162007 0)
(-0.186363 -0.143579 0)
(-0.193929 -0.121234 0)
(-0.201382 -0.106625 0)
(-0.201098 -0.0959736 0)
(-0.19955 -0.0820891 0)
(-0.00381152 -0.229944 0)
(-0.012146 -0.241065 0)
(-0.0206355 -0.240041 0)
(-0.0293786 -0.239181 0)
(-0.0384795 -0.237863 0)
(-0.0480093 -0.236086 0)
(-0.0579827 -0.233787 0)
(-0.0683703 -0.23086 0)
(-0.0789585 -0.227086 0)
(-0.089475 -0.222234 0)
(-0.0993131 -0.216252 0)
(-0.108766 -0.21087 0)
(-0.11857 -0.203138 0)
(-0.128061 -0.194224 0)
(-0.13783 -0.184512 0)
(-0.148342 -0.171625 0)
(-0.160479 -0.156587 0)
(-0.170927 -0.143 0)
(-0.176625 -0.131843 0)
(-0.180207 -0.123796 0)
(-0.182001 -0.108633 0)
(-0.186536 -0.0920655 0)
(-0.188683 -0.0808836 0)
(-0.00367969 -0.225215 0)
(-0.0115908 -0.236007 0)
(-0.0196103 -0.234926 0)
(-0.0277285 -0.233922 0)
(-0.0360508 -0.232438 0)
(-0.0446143 -0.230465 0)
(-0.0535053 -0.227945 0)
(-0.0627697 -0.224812 0)
(-0.072398 -0.220999 0)
(-0.0822903 -0.216405 0)
(-0.0924218 -0.210559 0)
(-0.102752 -0.202638 0)
(-0.113276 -0.194496 0)
(-0.123678 -0.185884 0)
(-0.133597 -0.176296 0)
(-0.14172 -0.166428 0)
(-0.147874 -0.156913 0)
(-0.152865 -0.145274 0)
(-0.158814 -0.130542 0)
(-0.165334 -0.114661 0)
(-0.171066 -0.102299 0)
(-0.174386 -0.0909478 0)
(-0.17668 -0.0789696 0)
(-0.00353985 -0.214646 0)
(-0.0112543 -0.224912 0)
(-0.0190046 -0.223702 0)
(-0.026866 -0.222429 0)
(-0.0348651 -0.22064 0)
(-0.0429971 -0.218316 0)
(-0.0512512 -0.215399 0)
(-0.0596259 -0.211824 0)
(-0.0681444 -0.207518 0)
(-0.0768621 -0.202461 0)
(-0.0857383 -0.196924 0)
(-0.0945062 -0.191198 0)
(-0.102834 -0.184055 0)
(-0.1109 -0.175431 0)
(-0.118775 -0.16604 0)
(-0.126837 -0.155814 0)
(-0.135023 -0.144306 0)
(-0.143025 -0.132925 0)
(-0.149361 -0.12225 0)
(-0.153786 -0.111632 0)
(-0.157704 -0.0995873 0)
(-0.162193 -0.087318 0)
(-0.165711 -0.0758997 0)
(-0.00335212 -0.21006 0)
(-0.0104596 -0.22019 0)
(-0.017689 -0.219017 0)
(-0.0249606 -0.217743 0)
(-0.03239 -0.215949 0)
(-0.0399964 -0.213618 0)
(-0.0477974 -0.21069 0)
(-0.0557687 -0.207097 0)
(-0.0638332 -0.202756 0)
(-0.0718723 -0.197564 0)
(-0.0798474 -0.191384 0)
(-0.087908 -0.18426 0)
(-0.0960708 -0.176653 0)
(-0.104049 -0.168644 0)
(-0.111634 -0.159856 0)
(-0.118667 -0.150317 0)
(-0.125063 -0.140367 0)
(-0.130875 -0.129563 0)
(-0.136482 -0.117918 0)
(-0.1417 -0.106073 0)
(-0.146381 -0.0948339 0)
(-0.150841 -0.0837259 0)
(-0.154694 -0.0724492 0)
(-0.00311202 -0.201598 0)
(-0.00979701 -0.211183 0)
(-0.0165525 -0.209914 0)
(-0.0233384 -0.208409 0)
(-0.0302265 -0.206349 0)
(-0.0372118 -0.203736 0)
(-0.0442991 -0.200553 0)
(-0.0514909 -0.196785 0)
(-0.0587909 -0.192426 0)
(-0.0661868 -0.187471 0)
(-0.0735956 -0.181908 0)
(-0.0808746 -0.175667 0)
(-0.0879568 -0.168558 0)
(-0.0949012 -0.160562 0)
(-0.101702 -0.151907 0)
(-0.108264 -0.142675 0)
(-0.114541 -0.13284 0)
(-0.120483 -0.122664 0)
(-0.125894 -0.112219 0)
(-0.13067 -0.101499 0)
(-0.135094 -0.0905941 0)
(-0.139663 -0.0796472 0)
(-0.143855 -0.0686197 0)
(-0.00292723 -0.196473 0)
(-0.00907378 -0.205934 0)
(-0.0153246 -0.204715 0)
(-0.021576 -0.203214 0)
(-0.0279196 -0.20116 0)
(-0.0343454 -0.198539 0)
(-0.0408542 -0.195318 0)
(-0.0474322 -0.191462 0)
(-0.0540544 -0.186936 0)
(-0.0606921 -0.181713 0)
(-0.067327 -0.175791 0)
(-0.0739495 -0.169206 0)
(-0.0805143 -0.162034 0)
(-0.0869232 -0.1543 0)
(-0.0931072 -0.14595 0)
(-0.0990433 -0.137007 0)
(-0.104695 -0.127563 0)
(-0.110053 -0.117633 0)
(-0.115129 -0.107299 0)
(-0.119845 -0.0967258 0)
(-0.124257 -0.086121 0)
(-0.128749 -0.0754661 0)
(-0.133057 -0.0646008 0)
(-0.00266803 -0.19016 0)
(-0.00826974 -0.199269 0)
(-0.0139855 -0.198028 0)
(-0.0196815 -0.196416 0)
(-0.0254597 -0.194238 0)
(-0.0313055 -0.191496 0)
(-0.0372205 -0.188181 0)
(-0.0431968 -0.184283 0)
(-0.049218 -0.179795 0)
(-0.0552571 -0.174708 0)
(-0.0612768 -0.169007 0)
(-0.0672344 -0.162679 0)
(-0.0730985 -0.155705 0)
(-0.0788523 -0.148102 0)
(-0.0844667 -0.139925 0)
(-0.0898965 -0.131222 0)
(-0.0951151 -0.122034 0)
(-0.100109 -0.112433 0)
(-0.104865 -0.102469 0)
(-0.109347 -0.0922123 0)
(-0.113605 -0.0817845 0)
(-0.117961 -0.0712523 0)
(-0.122279 -0.0604945 0)
(-0.00243333 -0.185224 0)
(-0.00746727 -0.194146 0)
(-0.012638 -0.192929 0)
(-0.0177726 -0.191276 0)
(-0.0229839 -0.189056 0)
(-0.028249 -0.186264 0)
(-0.0335697 -0.182892 0)
(-0.0389372 -0.17893 0)
(-0.0443366 -0.174371 0)
(-0.0497483 -0.169211 0)
(-0.0551495 -0.163453 0)
(-0.0605146 -0.157107 0)
(-0.0658135 -0.150188 0)
(-0.0710121 -0.142714 0)
(-0.0760818 -0.134699 0)
(-0.0810039 -0.126172 0)
(-0.0857616 -0.117178 0)
(-0.0903499 -0.107761 0)
(-0.094776 -0.0979751 0)
(-0.0990207 -0.0878809 0)
(-0.103098 -0.0775744 0)
(-0.107255 -0.0671153 0)
(-0.111471 -0.0564082 0)
(-0.00216334 -0.180426 0)
(-0.00660932 -0.189113 0)
(-0.0112221 -0.187904 0)
(-0.0157813 -0.186189 0)
(-0.0204207 -0.183906 0)
(-0.02511 -0.181053 0)
(-0.0298537 -0.177628 0)
(-0.0346445 -0.173634 0)
(-0.039467 -0.169073 0)
(-0.0443006 -0.163944 0)
(-0.049122 -0.158247 0)
(-0.0539069 -0.151982 0)
(-0.0586336 -0.145157 0)
(-0.0632824 -0.137786 0)
(-0.0678355 -0.129895 0)
(-0.0722752 -0.121511 0)
(-0.0765911 -0.112671 0)
(-0.0807828 -0.103413 0)
(-0.0848598 -0.0937774 0)
(-0.0888204 -0.083807 0)
(-0.0926692 -0.0735699 0)
(-0.0965849 -0.0631314 0)
(-0.100621 -0.0524308 0)
(-0.00187852 -0.176379 0)
(-0.00572277 -0.184866 0)
(-0.00977355 -0.183669 0)
(-0.0137495 -0.1819 0)
(-0.0178105 -0.179564 0)
(-0.0219167 -0.176655 0)
(-0.0260776 -0.17317 0)
(-0.0302914 -0.169126 0)
(-0.034544 -0.16453 0)
(-0.0388158 -0.159388 0)
(-0.0430835 -0.1537 0)
(-0.0473243 -0.147469 0)
(-0.0515187 -0.140701 0)
(-0.0556501 -0.133411 0)
(-0.0597037 -0.125616 0)
(-0.0636709 -0.117339 0)
(-0.0675472 -0.108608 0)
(-0.0713344 -0.099456 0)
(-0.0750461 -0.0899146 0)
(-0.0786912 -0.0800166 0)
(-0.0822729 -0.0698106 0)
(-0.0859144 -0.0593564 0)
(-0.0897083 -0.0486261 0)
(-0.00155658 -0.172858 0)
(-0.00479386 -0.181109 0)
(-0.00829727 -0.17992 0)
(-0.0116859 -0.178097 0)
(-0.0151603 -0.175712 0)
(-0.0186701 -0.17275 0)
(-0.0222295 -0.169214 0)
(-0.0258517 -0.165132 0)
(-0.0295301 -0.160514 0)
(-0.0332508 -0.155364 0)
(-0.03699 -0.149689 0)
(-0.0407188 -0.14349 0)
(-0.0444141 -0.136771 0)
(-0.0480592 -0.129544 0)
(-0.0516405 -0.121821 0)
(-0.0551511 -0.113621 0)
(-0.058592 -0.104968 0)
(-0.0619693 -0.0958893 0)
(-0.0652976 -0.0864066 0)
(-0.0685959 -0.0765443 0)
(-0.0718736 -0.0663372 0)
(-0.0752141 -0.0558384 0)
(-0.0787238 -0.0450464 0)
(-0.00119458 -0.169962 0)
(-0.00385633 -0.17789 0)
(-0.00687831 -0.176714 0)
(-0.00970558 -0.174863 0)
(-0.0126017 -0.172458 0)
(-0.0155077 -0.169489 0)
(-0.0183898 -0.16593 0)
(-0.0212659 -0.161784 0)
(-0.0242047 -0.157085 0)
(-0.0272671 -0.151867 0)
(-0.0304747 -0.146168 0)
(-0.0337873 -0.140001 0)
(-0.0370689 -0.133326 0)
(-0.0403178 -0.126154 0)
(-0.0435079 -0.118497 0)
(-0.0466212 -0.110361 0)
(-0.0496614 -0.101769 0)
(-0.0526397 -0.09274 0)
(-0.0555753 -0.0832825 0)
(-0.0585002 -0.0734206 0)
(-0.0614397 -0.0631816 0)
(-0.0644547 -0.0526089 0)
(-0.0676469 -0.0417188 0)
(-0.000794904 -0.167822 0)
(-0.00301236 -0.175251 0)
(-0.00575182 -0.174102 0)
(-0.00814682 -0.172264 0)
(-0.0105811 -0.16988 0)
(-0.0129629 -0.166941 0)
(-0.015179 -0.163355 0)
(-0.0173141 -0.15916 0)
(-0.0193841 -0.154348 0)
(-0.0214313 -0.148943 0)
(-0.0235582 -0.143004 0)
(-0.0259278 -0.136623 0)
(-0.0286479 -0.129872 0)
(-0.0315966 -0.122732 0)
(-0.0346719 -0.11521 0)
(-0.0377194 -0.107284 0)
(-0.0405322 -0.0988693 0)
(-0.0432108 -0.0899574 0)
(-0.0458021 -0.0805495 0)
(-0.0483567 -0.0706787 0)
(-0.0509355 -0.060383 0)
(-0.053598 -0.0497212 0)
(-0.0564587 -0.0387171 0)
(-0.000437486 -0.166619 0)
(-0.00251982 -0.173273 0)
(-0.00534164 -0.172173 0)
(-0.00761566 -0.170407 0)
(-0.00990135 -0.168065 0)
(-0.01206 -0.165163 0)
(-0.0142223 -0.16174 0)
(-0.0162753 -0.157696 0)
(-0.0181719 -0.153017 0)
(-0.0198589 -0.147688 0)
(-0.0212891 -0.141692 0)
(-0.0225117 -0.135102 0)
(-0.0236438 -0.128008 0)