/*--------------------------------*- C++ -*----------------------------------*\
| =========                 |                                                 |
| \\      /  F ield         | OpenFOAM: The Open Source CFD Toolbox           |
|  \\    /   O peration     | Version:  2.4.0                                 |
|   \\  /    A nd           | Web:      www.OpenFOAM.org                      |
|    \\/     M anipulation  |                                                 |
\*---------------------------------------------------------------------------*/
FoamFile
{
    version     2.0;
    format      ascii;
    class       volScalarField;
    location    "0.45";
    object      alpha.water;
}
// * * * * * * * * * * * * * * * * * * * * * * * * * * * * * * * * * * * * * //

dimensions      [0 0 0 0 0 0 0];

internalField   nonuniform List<scalar> 
575
(
1.39563e-09
1.28878e-09
1.10258e-09
1.73225e-09
1.18892e-09
1.5988e-09
2.4824e-09
2.23389e-09
2.13208e-09
2.63952e-09
4.03245e-09
4.85099e-09
4.79312e-09
4.2363e-09
3.11638e-09
2.6855e-09
2.70662e-09
2.7534e-09
2.73619e-09
2.50791e-09
1.69558e-09
5.00574e-10
1.24483e-08
1.14127e-08
1.02276e-08
1.42371e-08
1.12247e-08
1.38538e-08
1.93294e-08
1.81565e-08
1.82012e-08
2.12889e-08
2.77603e-08
3.08085e-08
3.0572e-08
2.81098e-08
2.34416e-08
1.93827e-08
1.69897e-08
1.50365e-08
1.24763e-08
8.60872e-09
4.25374e-09
9.54663e-10
5.14677e-08
4.63239e-08
4.15985e-08
5.5451e-08
4.64813e-08
5.6316e-08
8.23295e-08
7.75041e-08
8.43391e-08
1.19474e-07
2.81291e-07
3.09351e-07
3.4253e-07
2.47836e-07
1.27227e-07
7.26552e-08
6.06863e-08
4.8489e-08
3.68985e-08
2.43337e-08
1.11533e-08
5.29622e-09
1.60185e-05
1.86219e-05
1.53655e-05
3.86755e-05
2.15241e-05
4.22952e-05
9.04001e-05
8.31075e-05
0.000125485
0.000208588
0.000414403
0.000467891
0.000578985
0.000434077
0.000227223
6.65736e-05
1.81664e-05
5.36949e-06
2.16916e-06
7.88677e-07
1.31418e-07
4.4945e-08
0.0072023
0.00785286
0.00741363
0.0114976
0.00949307
0.0135407
0.0201593
0.0216307
0.0286835
0.0382962
0.0543151
0.062838
0.074814
0.069987
0.0571706
0.0232968
0.00454703
0.00047689
4.34841e-05
4.11119e-06
3.90459e-07
2.08694e-07
0.250655
0.260356
0.260298
0.304758
0.297638
0.342005
0.402916
0.434493
0.491217
0.553912
0.630184
0.683776
0.729689
0.75164
0.766008
0.716061
0.540029
0.207906
0.0232409
0.000807111
1.25638e-05
8.74172e-07
0.919407
0.924596
0.927331
0.945086
0.947552
0.962407
0.977007
0.984269
0.991129
0.995794
0.998329
0.999362
0.999745
0.999884
0.999945
0.999549
0.983627
0.832331
0.273211
0.0198183
0.000355869
4.01328e-06
0.999698
0.99972
0.99975
0.999798
0.999833
0.999879
0.999913
0.999937
0.999956
0.999969
0.999978
0.999984
0.999988
0.999989
0.999989
0.99998
0.999928
0.99463
0.765968
0.125585
0.00372701
4.71894e-05
0.999953
0.999955
0.999958
0.999962
0.999967
0.999972
0.999976
0.99998
0.999984
0.999986
0.999987
0.999988
0.999988
0.999989
0.999988
0.999984
0.999949
0.999596
0.975578
0.645578
0.105132
0.00819478
0.999998
0.999998
0.999998
0.999998
0.999998
0.999998
0.999998
0.999999
0.999998
0.999998
0.999998
0.999998
0.999998
0.999997
0.999997
0.999995
0.999973
0.999803
0.998767
0.968492
0.635408
0.204913
0.999999
0.999999
0.999999
0.999999
0.999999
1
1
0.999999
0.999989
0.999893
0.999751
0.999706
0.999779
0.999765
0.999845
0.999931
0.999959
0.999914
0.999563
0.996942
0.955896
0.788282
0.999927
0.999933
0.999949
0.999967
0.999985
0.999996
0.999999
0.999835
0.996975
0.98624
0.977519
0.975631
0.978395
0.977735
0.982765
0.990764
0.995387
0.997783
0.999046
0.998728
0.996222
0.982085
0.974352
0.975874
0.979647
0.984612
0.990594
0.996598
0.999323
0.990942
0.923637
0.802768
0.740794
0.721491
0.71754
0.696915
0.703538
0.745196
0.816241
0.885589
0.939664
0.967833
0.986189
0.98618
0.425943
0.436894
0.465664
0.516046
0.609604
0.773589
0.922436
0.890393
0.64071
0.379927
0.27624
0.225425
0.186957
0.140674
0.117405
0.110705
0.163034
0.278946
0.445162
0.556175
0.675708
0.765822
0.000200056
0.000232931
0.000352662
0.000725411
0.00220882
0.0140556
0.130577
0.248983
0.0949172
0.0265971
0.0197204
0.0110696
0.00413868
0.00193564
0.0013998
0.00133381
0.00164921
0.00315141
0.0221606
0.0237617
0.079913
0.143646
3.21541e-07
1.54473e-07
9.66283e-08
3.30665e-08
4.35884e-07
7.78941e-06
5.2102e-05
0.000644804
4.60353e-06
1.17917e-05
3.59482e-05
5.56427e-05
5.75779e-05
4.99685e-05
3.94561e-05
3.03938e-05
2.62277e-05
2.60478e-05
4.61665e-05
0.000141468
0.00120639
0.00252521
1.13299e-07
5.90538e-08
4.29752e-08
7.95534e-09
1.57737e-09
1.04427e-08
3.19239e-08
7.54865e-08
1.06794e-08
2.08357e-08
2.77197e-08
2.87638e-08
7.39156e-08
1.35582e-07
2.28949e-07
4.27045e-07
5.3499e-07
4.54207e-07
4.67031e-07
8.12321e-07
6.10898e-06
1.26777e-05
3.01163e-05
5.60879e-08
3.38695e-08
2.81021e-08
9.15621e-09
1.28441e-09
5.60379e-10
8.94909e-10
2.41993e-09
1.04571e-08
1.18288e-08
4.87322e-09
1.81922e-09
7.11845e-10
4.15858e-10
2.17734e-10
7.41752e-11
4.76733e-11
3.15051e-11
2.27628e-11
1.48818e-11
1.99901e-11
7.60447e-10
1.26872e-08
5.11952e-08
2.91316e-08
2.25e-08
1.23004e-08
2.16342e-09
5.59142e-10
6.42304e-10
1.9251e-09
8.55863e-09
1.54888e-08
6.23917e-09
1.65932e-09
3.4344e-10
1.04578e-10
3.50906e-11
1.6201e-11
1.10177e-11
1.4148e-11
2.15614e-11
1.47786e-11
6.88008e-12
2.32837e-12
1.41261e-12
4.46622e-08
1.78902e-08
8.49068e-09
3.34644e-09
1.1186e-09
4.84675e-10
6.60943e-10
2.09522e-09
6.41646e-09
1.54809e-08
7.32889e-09
2.47181e-09
3.3828e-10
9.14702e-11
3.17497e-11
1.44021e-11
7.57551e-12
4.49211e-12
2.78044e-12
2.08489e-12
1.36039e-12
6.95024e-13
4.0402e-13
9.68602e-09
3.65362e-09
8.54987e-10
2.35731e-10
1.71489e-10
1.3436e-10
8.82828e-11
7.56297e-11
1.70502e-10
1.38031e-09
4.35448e-10
5.65024e-11
2.32549e-11
9.96074e-12
5.87182e-12
3.35694e-12
1.65947e-12
8.54935e-13
4.97584e-13
2.98162e-13
1.74139e-13
1.10702e-13
9.94695e-14
9.66048e-10
3.64583e-10
5.92899e-11
2.88838e-11
2.36229e-11
3.00486e-11
4.14119e-11
3.39317e-11
2.35282e-11
2.84631e-11
1.74491e-11
1.33003e-11
9.06029e-12
2.80038e-12
6.18114e-13
1.29699e-13
3.52374e-14
1.6128e-14
1.82091e-14
2.82855e-14
4.40581e-14
5.6236e-14
5.75236e-14
3.97902e-11
5.83797e-11
2.37968e-11
1.25416e-11
9.48109e-12
1.0573e-11
1.34313e-11
1.76227e-11
1.71529e-11
1.66753e-11
1.22112e-11
7.30871e-12
2.99126e-12
6.08682e-13
4.26565e-14
1.65047e-15
2.984e-15
6.27593e-15
1.18161e-14
1.80336e-14
2.14802e-14
1.91655e-14
1.28503e-14
1.16479e-11
1.74382e-11
8.99369e-12
5.16961e-12
3.78036e-12
3.72422e-12
4.54446e-12
5.95848e-12
6.22575e-12
6.01807e-12
4.05647e-12
2.27737e-12
8.25059e-13
1.7047e-13
1.246e-14
3.58251e-16
7.50821e-16
1.44416e-15
2.43619e-15
3.4121e-15
3.8575e-15
3.40353e-15
2.20102e-15
3.13024e-12
4.48164e-12
2.37404e-12
1.51923e-12
1.13883e-12
1.11233e-12
1.39752e-12
1.78123e-12
1.84026e-12
1.65415e-12
1.24384e-12
6.89075e-13
2.46755e-13
5.32186e-14
4.39943e-15
3.91045e-17
8.18951e-17
1.57694e-16
2.71901e-16
3.99957e-16
4.69141e-16
4.38943e-16
3.4936e-16
5.91573e-13
7.86605e-13
3.99859e-13
2.60315e-13
1.94884e-13
2.015e-13
2.88282e-13
3.94208e-13
4.31829e-13
3.90713e-13
3.07197e-13
1.81094e-13
6.97845e-14
1.62928e-14
1.45611e-15
1.58426e-18
)
;

boundaryField
{
    leftWall
    {
        type            zeroGradient;
    }
    rightWall
    {
        type            zeroGradient;
    }
    lowerWall
    {
        type            zeroGradient;
    }
    atmosphere
    {
        type            inletOutlet;
        inletValue      nonuniform 0();
        value           nonuniform 0();
    }
    defaultFaces
    {
        type            empty;
    }
    procBoundary0to1
    {
        type            processor;
        value           nonuniform List<scalar> 
26
(
1.28027e-10
3.67919e-10
3.39811e-09
1.6145e-08
6.97379e-08
1.73639e-07
2.22762e-06
6.75988e-06
0.000378966
0.0409766
0.47693
0.934708
0.985426
0.824142
0.246601
0.0042615
0.0042615
4.01063e-05
3.18179e-08
9.58751e-13
3.21107e-13
1.01915e-13
7.25916e-14
9.34967e-15
1.17384e-15
2.9147e-16
)
;
    }
    procBoundary0to2
    {
        type            processor;
        value           nonuniform List<scalar> 
24
(
3.62617e-18
7.60955e-18
1.44188e-17
2.46475e-17
3.64691e-17
4.72311e-17
5.83878e-17
3.93086e-14
5.9263e-14
3.03246e-14
1.90858e-14
1.20713e-14
1.59712e-14
3.25704e-14
5.21606e-14
6.04861e-14
5.47481e-14
4.38965e-14
2.76128e-14
1.12823e-14
2.72929e-15
2.4419e-16
3.62617e-18
8.15158e-20
)
;
    }
}


// ************************************************************************* //
