/*--------------------------------*- C++ -*----------------------------------*\
| =========                 |                                                 |
| \\      /  F ield         | OpenFOAM: The Open Source CFD Toolbox           |
|  \\    /   O peration     | Version:  2.4.0                                 |
|   \\  /    A nd           | Web:      www.OpenFOAM.org                      |
|    \\/     M anipulation  |                                                 |
\*---------------------------------------------------------------------------*/
FoamFile
{
    version     2.0;
    format      ascii;
    class       volScalarField;
    location    "0.45";
    object      alphas;
}
// * * * * * * * * * * * * * * * * * * * * * * * * * * * * * * * * * * * * * //

dimensions      [0 0 0 0 0 0 0];

internalField   nonuniform List<scalar> 
575
(
2
2
2
2
2
2
2
2
2
2
2
2
2
2
2
2
2
2
2
2
2
2
2
2
2
2
2
2
2
2
2
2
2
2
2
2
2
2
2
2
2
2
2
2
2
2
2
2
2
2
2
2
2
2
2
2
2
2
2
2
2
2
2
2
2
2
1.99997
1.99996
1.99997
1.99992
1.99996
1.99992
1.99982
1.99983
1.99975
1.99958
1.99917
1.99906
1.99884
1.99913
1.99955
1.99987
1.99996
1.99999
2
2
2
2
1.9856
1.98429
1.98517
1.977
1.98101
1.97292
1.95968
1.95674
1.94263
1.92341
1.89137
1.87432
1.85037
1.86003
1.88566
1.95341
1.99091
1.99905
1.99991
1.99999
2
2
1.49869
1.47929
1.4794
1.39048
1.40472
1.31599
1.19417
1.13101
1.01757
0.892176
0.739631
0.632447
0.540622
0.49672
0.467984
0.567876
0.919933
1.58414
1.95349
1.99838
1.99997
2
0.161186
0.150807
0.145338
0.109828
0.104896
0.0751849
0.0459858
0.0314614
0.0177424
0.00841191
0.00334158
0.00127506
0.000510578
0.000232742
0.000110573
0.000899815
0.0327366
0.335271
1.45345
1.96031
1.99928
1.99999
0.000603831
0.000560639
0.000500112
0.000404297
0.000334437
0.000241089
0.000173278
0.000124972
8.71422e-05
6.19024e-05
4.48601e-05
3.23675e-05
2.44194e-05
2.13353e-05
2.18342e-05
3.06492e-05
0.000108887
0.0106894
0.467692
1.74864
1.99252
1.9999
9.35162e-05
8.94802e-05
8.30094e-05
7.60497e-05
6.63809e-05
5.53061e-05
4.80481e-05
3.9451e-05
3.28799e-05
2.87733e-05
2.6576e-05
2.42405e-05
2.34139e-05
2.12845e-05
2.37848e-05
2.92626e-05
6.45639e-05
0.000597905
0.0481248
0.707003
1.78873
1.98348
3.79271e-06
3.6997e-06
3.59473e-06
3.47662e-06
3.28543e-06
2.98614e-06
2.92546e-06
2.73106e-06
2.80838e-06
3.07208e-06
3.42159e-06
3.70455e-06
3.91057e-06
4.25157e-06
4.6137e-06
6.68509e-06
3.13504e-05
0.000202319
0.00155963
0.0597174
0.724874
1.58691
1.31047e-06
1.26924e-06
1.21764e-06
1.1495e-06
1.05788e-06
9.31412e-07
9.10263e-07
9.06273e-07
1.0914e-05
0.000107219
0.000249049
0.000293795
0.000221534
0.000235667
0.000155469
6.94295e-05
4.20448e-05
8.72388e-05
0.000439812
0.00394661
0.0839322
0.414312
0.000219378
0.000201806
0.00015242
9.78342e-05
4.54334e-05
1.06011e-05
2.5839e-06
0.000166014
0.00302581
0.0137614
0.0224813
0.0243695
0.0216056
0.0222654
0.0172351
0.00923585
0.00461317
0.00221733
0.000953894
0.00128913
0.00491088
0.0303333
0.0769436
0.0723789
0.0610583
0.0461623
0.0282185
0.0102054
0.00180908
0.00982343
0.0773613
0.198305
0.259483
0.278543
0.282467
0.303087
0.296463
0.254805
0.18376
0.114411
0.0603362
0.0321683
0.013948
0.0156664
1.72217
1.68932
1.60301
1.45186
1.17119
0.679229
0.229867
0.208006
0.474429
0.726648
0.761369
0.784672
0.816255
0.860653
0.883079
0.889421
0.836979
0.721056
0.554838
0.443825
0.324294
0.234206
2.9994
2.9993
2.99894
2.99782
2.99337
2.95783
2.60447
2.07587
2.07011
1.78831
1.37852
1.15302
1.05956
1.0277
1.01377
1.0068
1.00578
1.00126
0.979635
0.979176
0.92192
0.858428
3
3
3
3
3
2.99997
2.99971
2.9961
2.99672
2.96949
2.85818
2.6213
2.30343
2.01401
1.76491
1.50865
1.30822
1.17324
1.08709
1.09752
1.06945
1.06723
3
3
3
3
2.99999
2.99999
3
3
2.99999
2.99999
3
2.99999
2.99997
2.99975
2.99729
2.97894
2.91541
2.78384
2.58539
2.54052
2.26358
2.30046
2.17285
3
3
3
3
3
3
3
3
3
3
3
3
3
3
3
3
3
3
3
2.99999
2.99996
2.99985
2.99957
3
3
3
3
3
3
3
3
3
3
3
3
3
3
3
3
3
3
3
3
3
3
3
3
3
3
3
3
3
3
3
3
3
3
3
3
3
3
3
3
3
3
3
3
3
3
3
3
3
3
3
3
3
3
3
3
3
3
3
3
3
3
3
3
3
3
3
3
3
3
3
3
3
3
3
3
3
3
3
3
3
3
3
3
3
3
3
3
3
3
3
3
3
3
3
3
3
3
3
3
3
3
3
3
3
3
3
3
3
3
3
3
3
3
3
3
3
3
3
3
3
3
3
3
3
3
3
3
3
3
3
3
3
3
3
3
3
3
3
3
3
3
3
3
3
3
3
3
3
3
3
3
3
3
3
3
3
3
3
3
3
3
3
3
3
3
3
3
3
3
3
3
3
3
3
3
3
)
;

boundaryField
{
    leftWall
    {
        type            zeroGradient;
    }
    rightWall
    {
        type            zeroGradient;
    }
    lowerWall
    {
        type            zeroGradient;
    }
    atmosphere
    {
        type            zeroGradient;
    }
    defaultFaces
    {
        type            empty;
    }
    procBoundary0to1
    {
        type            processor;
        value           nonuniform List<scalar> 
26
(
1.99998
1.99998
1.99998
1.99998
1.99998
1.99997
1.99997
1.99996
1.9992
1.91655
1.03697
0.122517
0.0175716
0.175956
0.755085
1.06025
1.06025
2.1946
2.99956
3
3
3
3
3
3
3
)
;
    }
    procBoundary0to2
    {
        type            processor;
        value           nonuniform List<scalar> 
24
(
3
3
3
3
3
3
3
3
3
3
3
3
3
3
3
3
3
3
3
3
3
3
3
3
)
;
    }
}


// ************************************************************************* //
