/*--------------------------------*- C++ -*----------------------------------*\
| =========                 |                                                 |
| \\      /  F ield         | OpenFOAM: The Open Source CFD Toolbox           |
|  \\    /   O peration     | Version:  2.4.0                                 |
|   \\  /    A nd           | Web:      www.OpenFOAM.org                      |
|    \\/     M anipulation  |                                                 |
\*---------------------------------------------------------------------------*/
FoamFile
{
    version     2.0;
    format      ascii;
    class       volScalarField;
    location    "0.45";
    object      alpha.air;
}
// * * * * * * * * * * * * * * * * * * * * * * * * * * * * * * * * * * * * * //

dimensions      [0 0 0 0 0 0 0];

internalField   nonuniform List<scalar> 
575
(
1.30183e-14
1.35274e-14
1.12446e-14
1.88387e-14
1.11088e-14
1.58744e-14
2.02827e-14
1.65118e-14
1.38608e-14
1.57435e-14
2.44022e-14
2.80144e-14
2.42403e-14
1.74734e-14
1.06025e-14
7.37096e-15
6.09648e-15
5.44127e-15
4.61199e-15
3.4163e-15
2.07827e-15
9.08658e-16
1.56488e-13
1.60896e-13
1.3914e-13
2.06128e-13
1.36713e-13
1.77232e-13
2.08758e-13
1.7608e-13
1.58435e-13
1.75114e-13
2.31714e-13
2.47791e-13
2.23851e-13
1.76799e-13
1.2567e-13
9.28372e-14
7.42474e-14
6.09546e-14
4.71636e-14
3.22494e-14
1.74173e-14
6.67796e-15
9.3206e-13
9.49758e-13
8.57273e-13
1.15176e-12
8.40861e-13
9.9424e-13
1.07172e-12
9.07223e-13
8.36737e-13
8.81538e-13
1.00671e-12
1.01586e-12
9.64588e-13
8.52125e-13
6.96935e-13
5.42736e-13
4.29709e-13
3.31549e-13
2.41208e-13
1.5208e-13
7.74417e-14
2.89373e-14
3.96655e-12
4.06e-12
3.86425e-12
4.91909e-12
3.83837e-12
4.22878e-12
4.1638e-12
3.28957e-12
2.80132e-12
2.66621e-12
2.71019e-12
2.64853e-12
2.60646e-12
2.4423e-12
2.18762e-12
1.79769e-12
1.44892e-12
1.10541e-12
7.77412e-13
4.66205e-13
2.19248e-13
7.34426e-14
1.58014e-11
1.68811e-11
1.72458e-11
2.21794e-11
1.86248e-11
1.99231e-11
1.83241e-11
1.25958e-11
7.47736e-12
5.91651e-12
5.38798e-12
5.0601e-12
5.10513e-12
5.07967e-12
4.75886e-12
3.97127e-12
3.17197e-12
2.41537e-12
1.67563e-12
1.0102e-12
4.89226e-13
1.63315e-13
1.46094e-10
1.61846e-10
1.7604e-10
1.98823e-10
1.91062e-10
1.90278e-10
1.50133e-10
8.25081e-11
1.82354e-11
1.13218e-11
9.45071e-12
8.58745e-12
9.36327e-12
1.08507e-11
1.11168e-11
7.81895e-12
5.50208e-12
3.91091e-12
2.65309e-12
1.63569e-12
8.47239e-13
3.17991e-13
2.57299e-10
2.78417e-10
3.01191e-10
3.00794e-10
2.98656e-10
2.70102e-10
1.8399e-10
8.71128e-11
2.26475e-11
2.17052e-11
1.76224e-11
1.7202e-11
2.23307e-11
3.44206e-11
4.33748e-11
2.14879e-11
1.00907e-11
5.56881e-12
3.42332e-12
2.08199e-12
1.15171e-12
5.03349e-13
2.25921e-10
2.2315e-10
2.20408e-10
2.14528e-10
1.98693e-10
1.50657e-10
9.86557e-11
5.12446e-11
2.48643e-11
8.66217e-11
2.04776e-10
3.23022e-10
4.58705e-10
7.97445e-10
5.68601e-10
2.11201e-10
3.22638e-11
7.5475e-12
4.1312e-12
2.30216e-12
1.32492e-12
6.64744e-13
4.05499e-10
4.3585e-10
5.0196e-10
5.51754e-10
6.00291e-10
6.79367e-10
6.86145e-10
7.78217e-10
1.24016e-09
1.81268e-09
2.68676e-09
3.65572e-09
4.51785e-09
6.1848e-09
5.91282e-09
4.60457e-09
2.11061e-09
3.71832e-10
3.26029e-11
1.35281e-11
3.29796e-12
1.54794e-12
2.09789e-09
2.16244e-09
2.27431e-09
2.38115e-09
2.61455e-09
3.2547e-09
6.06521e-09
4.67408e-09
5.10218e-09
4.85266e-09
5.99644e-09
7.93486e-09
9.78489e-09
1.27172e-08
1.28525e-08
1.28515e-08
8.81121e-09
3.02771e-09
7.15054e-10
1.77589e-10
5.84082e-11
1.11153e-11
1.97169e-07
1.91109e-07
1.79247e-07
1.63698e-07
1.43061e-07
1.30329e-07
1.19064e-07
2.87395e-08
9.68632e-09
6.53517e-09
6.15159e-09
6.38798e-09
7.19108e-09
6.89211e-09
7.87283e-09
1.23687e-08
1.26133e-08
1.14712e-08
5.50766e-09
1.28821e-09
4.73535e-10
2.08128e-10
7.31149e-05
6.72581e-05
5.07962e-05
3.2601e-05
1.51343e-05
3.52445e-06
6.10651e-07
4.48372e-07
4.1549e-07
5.2449e-07
1.25548e-07
1.50488e-08
9.09243e-09
6.4126e-09
3.32145e-09
3.23896e-09
3.77356e-09
4.79418e-09
4.08339e-09
2.39577e-09
1.22635e-09
7.64865e-10
0.0256479
0.0241263
0.0203528
0.0153874
0.00940618
0.00340176
0.00056592
0.000382724
0.000498981
0.000536157
0.000138669
1.72375e-05
3.83949e-06
1.21804e-06
2.18882e-07
2.59412e-08
9.34636e-09
4.71943e-09
2.91136e-09
2.13879e-09
1.23276e-09
1.06855e-09
0.574056
0.563105
0.534336
0.483954
0.390396
0.226409
0.0761516
0.0491996
0.0575697
0.0532873
0.0188042
0.00504838
0.00160596
0.000663272
0.000241889
6.32217e-05
6.37793e-06
8.28925e-07
1.91775e-07
4.1506e-08
7.97625e-09
1.54344e-08
0.9998
0.999767
0.999647
0.999274
0.997791
0.985943
0.867524
0.662425
0.582515
0.407456
0.199122
0.0820432
0.031849
0.0148165
0.00758345
0.00406504
0.00371665
0.002207
0.000897942
0.00146886
0.000916537
0.00103635
0.999999
0.999999
0.999999
0.999999
0.999998
0.99999
0.999881
0.998371
0.998363
0.984753
0.929108
0.810677
0.651745
0.507029
0.382473
0.254342
0.154121
0.0866332
0.0435677
0.0488327
0.0353273
0.0348756
0.999999
0.999999
0.999999
0.999999
0.999997
0.999996
0.999998
0.999999
0.999997
0.999998
0.999998
0.999997
0.999987
0.999873
0.998643
0.989469
0.957705
0.891921
0.792694
0.770262
0.631795
0.650237
0.586441
0.999999
0.999999
0.999999
0.999998
0.999998
0.999999
0.999999
1
1
1
1
0.999999
0.999999
0.999999
0.999999
0.999999
0.999999
0.999999
0.999999
0.999996
0.999983
0.999927
0.999783
0.999999
0.999999
0.999999
0.999999
0.999999
0.999999
0.999999
0.999999
1
1
1
1
0.999999
0.999999
0.999999
0.999999
0.999999
0.999999
0.999999
0.999999
0.999999
0.999999
1
0.999999
0.999999
0.999999
0.999999
0.999999
0.999999
0.999999
0.999999
0.999999
1
1
1
0.999999
0.999999
0.999999
0.999999
0.999999
0.999999
0.999999
1
1
1
0.999999
0.999998
0.999998
0.999999
0.999999
0.999999
0.999999
0.999999
0.999999
0.999999
1
1
1
0.999999
0.999999
0.999999
0.999999
0.999999
1
1
1
1
0.999999
0.999999
0.999999
0.999999
0.999999
0.999999
0.999999
0.999999
0.999999
0.999999
1
1
1
1
0.999999
0.999999
0.999999
1
1
1
1
1
0.999999
1
0.999999
0.999999
0.999999
0.999999
0.999999
0.999999
0.999999
0.999999
1
1
1
1
1
1
1
1
1
1
1
1
1
1
0.999999
0.999999
0.999999
0.999999
0.999999
0.999999
0.999999
0.999999
1
1
1
1
1
1
1
1
1
1
1
1
1
1
1
0.999999
0.999999
0.999999
0.999999
0.999999
0.999999
0.999999
1
1
1
1
1
1
1
1
1
1
1
1
1
1
1
1
0.999999
0.999999
0.999999
0.999999
0.999999
0.999999
1
1
1
1
1
1
1
1
1
1
1
1
)
;

boundaryField
{
    leftWall
    {
        type            alphaContactAngle;
        thetaProperties 
6
(

(
water
mercury
)
 90 0 0 0

(
water
air
)
 90 0 0 0

(
water
oil
)
 90 0 0 0

(
mercury
air
)
 90 0 0 0

(
oil
mercury
)
 90 0 0 0

(
oil
air
)
 90 0 0 0
);
        value           nonuniform List<scalar> 
26
(
1.30183e-14
1.56488e-13
9.3206e-13
3.96655e-12
1.58014e-11
1.46094e-10
2.57299e-10
2.25921e-10
4.05499e-10
2.09789e-09
1.97169e-07
7.31149e-05
0.0256479
0.574056
0.9998
0.999999
0.999999
0.999999
0.999999
0.999999
0.999998
0.999999
0.999999
0.999999
0.999999
0.999999
)
;
    }
    rightWall
    {
        type            alphaContactAngle;
        thetaProperties 
6
(

(
water
mercury
)
 90 0 0 0

(
water
air
)
 90 0 0 0

(
water
oil
)
 90 0 0 0

(
mercury
air
)
 90 0 0 0

(
oil
mercury
)
 90 0 0 0

(
oil
air
)
 90 0 0 0
);
        value           nonuniform 0();
    }
    lowerWall
    {
        type            alphaContactAngle;
        thetaProperties 
6
(

(
water
mercury
)
 90 0 0 0

(
water
air
)
 90 0 0 0

(
water
oil
)
 90 0 0 0

(
mercury
air
)
 90 0 0 0

(
oil
mercury
)
 90 0 0 0

(
oil
air
)
 90 0 0 0
);
        value           nonuniform List<scalar> 
22
(
1.30183e-14
1.35274e-14
1.12446e-14
1.88387e-14
1.11088e-14
1.58744e-14
2.02827e-14
1.65118e-14
1.38608e-14
1.57435e-14
2.44022e-14
2.80144e-14
2.42403e-14
1.74734e-14
1.06025e-14
7.37096e-15
6.09648e-15
5.44127e-15
4.61199e-15
3.4163e-15
2.07827e-15
9.08658e-16
)
;
    }
    atmosphere
    {
        type            inletOutlet;
        inletValue      nonuniform 0();
        value           nonuniform 0();
    }
    defaultFaces
    {
        type            empty;
    }
    procBoundary0to1
    {
        type            processor;
        value           nonuniform List<scalar> 
26
(
1.87102e-16
1.50972e-15
7.54213e-15
1.54133e-14
3.51831e-14
6.7895e-14
1.35608e-13
2.22378e-13
4.4995e-13
2.75122e-12
7.36158e-11
3.3949e-10
6.73707e-10
6.7176e-08
0.000840593
0.0322573
0.0322573
0.597319
0.99978
0.999999
0.999999
0.999999
0.999999
0.999999
0.999999
0.999999
)
;
    }
    procBoundary0to2
    {
        type            processor;
        value           nonuniform List<scalar> 
24
(
1
1
1
1
1
1
0.999999
0.999999
0.999999
0.999999
1
1
1
1
1
1
1
1
1
1
0.999999
1
1
1
)
;
    }
}


// ************************************************************************* //
