/*--------------------------------*- C++ -*----------------------------------*\
| =========                 |                                                 |
| \\      /  F ield         | OpenFOAM: The Open Source CFD Toolbox           |
|  \\    /   O peration     | Version:  2.4.0                                 |
|   \\  /    A nd           | Web:      www.OpenFOAM.org                      |
|    \\/     M anipulation  |                                                 |
\*---------------------------------------------------------------------------*/
FoamFile
{
    version     2.0;
    format      ascii;
    class       volScalarField;
    location    "0.45";
    object      alpha.oil;
}
// * * * * * * * * * * * * * * * * * * * * * * * * * * * * * * * * * * * * * //

dimensions      [0 0 0 0 0 0 0];

internalField   nonuniform List<scalar> 
575
(
1.83899e-21
1.25933e-20
4.10964e-20
3.63969e-19
2.4304e-19
1.08436e-18
2.3458e-18
2.7306e-18
2.46446e-17
7.91489e-15
1.30387e-12
1.34762e-11
6.62796e-11
2.18468e-10
5.31858e-10
1.11227e-09
1.9767e-09
3.10739e-09
4.57962e-09
7.01897e-09
1.67852e-08
1.16375e-06
4.87972e-20
3.16122e-19
1.12406e-18
7.13349e-18
5.96676e-18
2.01284e-17
3.97534e-17
5.62365e-17
3.28653e-16
2.96732e-14
3.3084e-12
3.65009e-11
2.01362e-10
7.12228e-10
2.25802e-09
5.17341e-09
8.79752e-09
1.22697e-08
1.49432e-08
1.67983e-08
2.6228e-08
1.20832e-06
6.32765e-19
3.89416e-18
1.51646e-17
6.89333e-17
7.21092e-17
1.87922e-16
3.38322e-16
6.23713e-16
2.95963e-15
5.63428e-14
2.97925e-12
2.63082e-11
2.8438e-10
9.02421e-10
2.88815e-09
8.36435e-09
2.25507e-08
4.80565e-08
6.00503e-08
5.47756e-08
5.4169e-08
1.10867e-06
5.34382e-18
3.15638e-17
1.33323e-16
4.4209e-16
5.58445e-16
1.17469e-15
1.98888e-15
5.03749e-15
1.98759e-14
1.08969e-13
1.46328e-12
1.44866e-11
5.75084e-11
3.92997e-10
2.94349e-09
1.77767e-08
8.40011e-08
3.10399e-07
4.20963e-07
3.46133e-07
1.79165e-07
1.26722e-06
3.30638e-17
1.90115e-16
8.5311e-16
2.12993e-15
3.10739e-15
5.49925e-15
9.35978e-15
3.26593e-14
9.98804e-14
3.02769e-13
1.45008e-12
1.90842e-11
3.32857e-10
2.97169e-09
2.67938e-08
1.21941e-07
4.79849e-07
1.08892e-06
1.23509e-06
1.01273e-06
4.76991e-07
1.60171e-06
1.59915e-16
9.11609e-16
4.19915e-15
8.37736e-15
1.2926e-14
2.06211e-14
4.13438e-14
1.62688e-13
3.77926e-13
8.32683e-13
2.05821e-12
4.68133e-11
7.65844e-10
8.23983e-09
1.07087e-07
1.22972e-06
8.80606e-06
4.28547e-05
2.51436e-05
8.60024e-06
1.54705e-06
2.29193e-06
6.31781e-16
3.64824e-15
1.64846e-14
2.8416e-14
4.22908e-14
6.46013e-14
1.90753e-13
6.2324e-13
9.86204e-13
1.62638e-12
4.12868e-12
1.28173e-11
1.07969e-10
4.32571e-09
1.07038e-07
1.34418e-06
8.76814e-06
6.76888e-05
0.000131714
5.42741e-05
8.58467e-06
3.40498e-06
2.14437e-15
1.27689e-14
5.42178e-14
8.59842e-14
1.18113e-13
1.77149e-13
8.60433e-13
2.121e-12
1.25627e-12
1.5277e-12
1.79859e-12
2.06994e-12
2.34281e-12
1.57993e-08
4.66945e-07
8.76833e-06
3.54448e-05
5.04848e-05
0.000372479
0.000184951
2.95409e-05
5.27921e-06
6.76236e-15
4.12095e-14
1.60721e-13
2.28303e-13
3.00311e-13
4.5528e-13
2.56926e-12
1.40417e-11
1.2132e-09
2.01592e-09
2.96558e-09
5.44079e-09
1.2306e-08
4.40573e-08
2.02542e-07
2.61672e-06
3.80176e-05
0.000210456
0.00072
0.00184047
0.00100686
0.000130529
3.29067e-14
2.10512e-13
7.28067e-13
9.06634e-13
1.10817e-12
2.15477e-12
2.42972e-10
1.35065e-08
2.62615e-07
5.69661e-07
8.74375e-07
1.08246e-06
1.09054e-06
1.30098e-06
1.44397e-06
2.55039e-06
2.23337e-05
0.00019097
0.000906141
0.00329808
0.00430917
0.00326446
1.37347e-13
9.43949e-13
2.78292e-12
3.06196e-12
3.62803e-12
1.46868e-11
3.31237e-08
4.10006e-07
1.05588e-05
0.000106927
0.00024878
0.000293539
0.000221255
0.000235377
0.000155138
6.8996e-05
4.06305e-05
8.57349e-05
0.000433663
0.00216865
0.00427531
0.0091234
4.86509e-13
3.66724e-12
8.72581e-12
8.42756e-12
1.37354e-11
8.88835e-10
7.27398e-07
0.000164651
0.00302455
0.0137598
0.0224809
0.0243694
0.0216056
0.0222654
0.017235
0.00923583
0.0046131
0.0022171
0.000953489
0.00125459
0.00264471
0.00549566
1.45696e-12
1.33669e-11
2.01924e-10
2.46234e-10
1.28572e-09
1.3839e-07
0.000111321
0.00867526
0.0758644
0.196696
0.259067
0.278492
0.282456
0.303084
0.296462
0.254804
0.18376
0.114411
0.0603362
0.0321656
0.0136739
0.0119734
3.66003e-12
8.40055e-11
1.60939e-09
3.12757e-09
1.82945e-08
1.49484e-06
0.00141245
0.0604074
0.30172
0.566786
0.704956
0.769527
0.811437
0.858663
0.882353
0.889232
0.83696
0.721053
0.554838
0.443825
0.324289
0.234151
7.40663e-12
1.1227e-10
2.51323e-09
9.18611e-09
4.20703e-08
1.51636e-06
0.00189843
0.0885918
0.322567
0.565947
0.781158
0.906887
0.964012
0.983248
0.991017
0.994601
0.994634
0.994642
0.976942
0.974769
0.91917
0.855317
1.21109e-11
5.00895e-10
1.18636e-08
7.05057e-08
3.30773e-07
1.40568e-06
6.64297e-05
0.000983613
0.00163257
0.0152348
0.0708559
0.189268
0.348198
0.492921
0.617488
0.745627
0.845853
0.913341
0.956386
0.951026
0.963466
0.962599
1.75767e-11
1.15608e-09
2.75997e-08
2.9407e-07
1.94485e-06
3.15264e-06
9.60122e-07
8.56392e-07
2.25313e-06
2.13203e-06
1.66159e-06
2.72244e-06
1.29043e-05
0.000126697
0.00135597
0.0105305
0.0422941
0.108078
0.207305
0.229737
0.368199
0.34975
0.413529
1.13487e-11
6.74608e-10
2.44821e-08
3.44966e-07
9.26013e-07
4.28827e-07
1.43575e-08
3.43772e-08
1.375e-07
1.70129e-07
6.70259e-08
1.97284e-08
1.81793e-08
1.8228e-08
5.68276e-08
1.1687e-07
1.7552e-07
1.6113e-07
3.39963e-07
3.59957e-06
1.67738e-05
7.27242e-05
0.000216568
8.79506e-12
4.02805e-10
8.39285e-09
2.50664e-08
1.98841e-08
5.2551e-09
6.43583e-09
2.48109e-08
1.37218e-07
2.14871e-07
7.97611e-08
2.1364e-08
1.9249e-08
7.94462e-08
2.94593e-07
4.09619e-07
3.10707e-07
1.4492e-07
7.51022e-08
7.51502e-08
7.51055e-08
8.30427e-08
1.62389e-07
8.62668e-12
1.76874e-10
1.55415e-09
1.1838e-09
1.38946e-10
4.29786e-10
4.32958e-09
2.63531e-08
8.60984e-08
2.14863e-07
9.55102e-08
2.84067e-08
7.43766e-08
4.69562e-07
6.90519e-07
7.32995e-07
7.2669e-07
5.3416e-07
1.08486e-07
7.5061e-08
1.17024e-07
2.07782e-07
1.23732e-07
8.10515e-13
9.79327e-12
6.91767e-11
4.47571e-11
2.75686e-11
3.59152e-11
1.6029e-10
7.64389e-10
3.42648e-09
4.21765e-08
7.4812e-09
1.12549e-08
2.63621e-07
7.33306e-07
7.34328e-07
6.50514e-07
4.93121e-07
2.52901e-07
8.85515e-08
7.50998e-08
1.33018e-07
1.61459e-07
1.03015e-07
6.58046e-14
6.76794e-13
6.16973e-12
1.14033e-11
1.75317e-11
2.37605e-11
3.43439e-11
6.85361e-11
1.2221e-10
2.03002e-10
3.7334e-10
1.72194e-08
3.71007e-07
7.35579e-07
4.34729e-07
8.18435e-08
5.02189e-08
5.08634e-08
4.69519e-08
8.69163e-08
1.11594e-07
9.93321e-08
4.89601e-08
8.71341e-15
1.26801e-13
1.22488e-12
5.17327e-12
1.10145e-11
1.6591e-11
3.16322e-11
7.90194e-11
1.68371e-10
1.9725e-10
1.00765e-09
2.95672e-08
1.17692e-07
2.18246e-07
9.24662e-08
6.32814e-08
5.61699e-08
4.71059e-08
4.71032e-08
5.19783e-08
6.54074e-08
4.30432e-08
1.66211e-08
7.85101e-16
1.83981e-14
3.05929e-13
2.21973e-12
5.9403e-12
9.88966e-12
2.25914e-11
6.71207e-11
1.75704e-10
2.92138e-10
1.62595e-09
1.66096e-08
2.77666e-08
4.95643e-08
1.17621e-07
1.1989e-07
9.32941e-08
7.49201e-08
3.8868e-08
2.3015e-08
1.21127e-08
8.22021e-09
6.51941e-09
1.62461e-16
7.38998e-15
1.29875e-13
8.94298e-13
2.5058e-12
4.95849e-12
1.40544e-11
4.73089e-11
1.30575e-10
2.85097e-10
8.68319e-10
5.36624e-09
2.15549e-08
5.60944e-08
1.28586e-07
1.40553e-07
1.17229e-07
8.35659e-08
5.05255e-08
1.80528e-08
7.09927e-09
3.30828e-09
2.07811e-09
1.13242e-16
4.1681e-15
5.35245e-14
2.9104e-13
8.18896e-13
2.0404e-12
7.36953e-12
2.73233e-11
7.59015e-11
2.2481e-10
3.63227e-10
2.81055e-09
2.17682e-08
6.26657e-08
1.13061e-07
1.3709e-07
)
;

boundaryField
{
    leftWall
    {
        type            zeroGradient;
    }
    rightWall
    {
        type            zeroGradient;
    }
    lowerWall
    {
        type            zeroGradient;
    }
    atmosphere
    {
        type            inletOutlet;
        inletValue      nonuniform 0();
        value           nonuniform 0();
    }
    defaultFaces
    {
        type            empty;
    }
    procBoundary0to1
    {
        type            processor;
        value           nonuniform List<scalar> 
26
(
1.78179e-05
2.05651e-05
1.98051e-05
2.10013e-05
2.31045e-05
2.74849e-05
2.91719e-05
2.86541e-05
4.19735e-05
0.00149974
0.00917118
0.00806701
0.0115761
0.175761
0.752554
0.96348
0.96348
0.402641
0.000218855
1.34756e-07
1.1919e-07
4.61453e-08
1.58572e-08
4.66065e-09
3.3033e-09
1.83384e-09
)
;
    }
    procBoundary0to2
    {
        type            processor;
        value           nonuniform List<scalar> 
24
(
1.19746e-07
8.74808e-08
5.31857e-08
2.66426e-08
1.02005e-08
3.23554e-09
1.41113e-09
5.17345e-17
1.25833e-15
1.26748e-14
6.31965e-14
2.04387e-13
7.40106e-13
3.49479e-12
1.44772e-11
4.63603e-11
1.31895e-10
2.36304e-10
6.39537e-10
1.39289e-08
5.05453e-08
8.70957e-08
1.19746e-07
1.03207e-07
)
;
    }
}


// ************************************************************************* //
