/*--------------------------------*- C++ -*----------------------------------*\
| =========                 |                                                 |
| \\      /  F ield         | OpenFOAM: The Open Source CFD Toolbox           |
|  \\    /   O peration     | Version:  2.4.0                                 |
|   \\  /    A nd           | Web:      www.OpenFOAM.org                      |
|    \\/     M anipulation  |                                                 |
\*---------------------------------------------------------------------------*/
FoamFile
{
    version     2.0;
    format      ascii;
    class       volScalarField;
    location    "0.45";
    object      p;
}
// * * * * * * * * * * * * * * * * * * * * * * * * * * * * * * * * * * * * * //

dimensions      [1 -1 -2 0 0 0 0];

internalField   nonuniform List<scalar> 
575
(
5252.91
5247.49
5234.75
5227.6
5187.07
5161.5
5120.74
5062.67
5017.84
4982.38
4950.36
4935.07
4947.53
5003.38
5116.65
5337
5698.02
6182.96
6756.59
7368.94
7917.02
8286.96
4450.67
4445.07
4433.32
4423.69
4387.61
4359.4
4315.77
4258.6
4215.33
4178.66
4144.47
4125.03
4133.03
4186.27
4329.45
4531.06
4873.73
5358.32
5943.88
6566.17
7123.94
7490.22
3642.68
3636.87
3626.81
3613.75
3584.18
3552.34
3503.41
3447.62
3406.12
3368.48
3330.4
3306.53
3305.35
3327.9
3404.79
3628.18
3980.22
4487.87
5102.14
5760.13
6324.87
6698.03
2830.22
2824.21
2816.17
2799.87
2777.44
2741.4
2683.64
2628.9
2587.49
2545.23
2508.34
2485.99
2500.08
2567.59
2693.88
2834.91
3106.88
3588.9
4226.85
4944.3
5528.21
5912.48
2006.36
1998.41
1995.03
1966.59
1957.26
1912.83
1837.32
1788.22
1731.89
1668.27
1597.23
1545.66
1513.05
1515.29
1542.1
1710.81
2090.96
2650.79
3340.02
4122.77
4743.09
5114.15
1146.74
1145.46
1150.08
1141.62
1152.75
1132.55
1083.14
1062.82
1040.39
1018.48
996.463
981.721
968.338
967.068
988.204
1053.98
1163.08
1493.59
2382.49
3299.24
3970.24
4353.5
806.201
808.777
812.696
818.732
826.399
835.653
851.896
865.001
876.685
889.268
903.602
919.597
938.997
958.544
977.658
987.209
992.962
1055.46
1450.82
2467.83
3196.55
3623.66
812.616
817.52
824.016
838.494
850.566
863.262
875.272
877.22
875.468
874.8
874.073
877.63
884.145
895.732
909.567
928.086
953.272
968.017
1030.6
1708.4
2450.24
2896.75
670.953
672.739
676.216
681.368
688.443
695.971
702.54
709.52
718.472
729.3
740.649
753.213
766.576
781.494
797.156
813.885
834.363
865.776
857.897
888.818
1405.2
1815.74
533.853
536.291
541.067
548.585
559.167
572.978
590.277
606.139
618.266
628.24
636.14
645.576
657.85
672.176
686.653
698.225
714.905
718.621
716.166
672.273
654.008
787.198
401.778
403.95
408.573
416.258
428.065
443.19
460.16
474.36
483.375
487.015
489.633
493.765
497.296
504.663
515.707
533.482
552.786
561.522
552.2
523.113
439.563
353.837
259.68
261.743
266.322
274.967
289.884
309.285
330.499
347.294
351.84
346.629
344.571
348.657
358.348
370.972
383.574
396.15
406.267
412.688
410.153
388.56
325.812
240.612
93.3021
96.4827
103.637
116.706
140.104
182.268
226.594
240.493
227.267
206.826
196.038
195.876
200.839
208.645
220.228
235.667
254.712
269.448
279.047
272.865
248.301
213.646
21.2917
21.5818
22.3767
23.5758
26.6946
38.0984
55.9296
74.9657
74.6446
76.0567
83.0303
96.8711
106.903
113.267
119.512
126.64
134.662
147.124
163.973
171.198
166.364
158.325
3.50062
3.51311
3.53202
3.57482
3.63125
3.73939
4.91725
5.6926
6.1137
11.2515
17.3893
22.9988
31.5247
45.2415
59.6247
76.895
96.7005
113.562
126
125.806
117.13
112.921
5.53857
5.5233
5.48955
5.43819
5.29225
4.92661
4.52654
4.32908
4.16834
4.06776
4.20639
4.25453
4.11262
6.49529
9.3886
13.6084
20.1553
25.1468
29.5087
29.9077
34.1792
33.5436
4.13291
4.14738
4.17553
4.21946
4.27132
4.29196
4.36317
4.61643
4.57756
4.49648
4.49223
4.40681
4.31936
4.04788
3.87296
3.84472
4.01565
4.33915
4.61228
3.74936
4.55316
6.61342
8.26065
4.64008
4.60024
4.54357
4.47382
4.39972
4.32053
4.32818
4.47165
4.35242
4.2468
4.21735
4.28346
4.45594
4.64675
4.69052
4.60464
4.4522
4.2799
4.1203
4.05456
3.9578
3.72681
3.6283
4.24293
4.24747
4.2526
4.25738
4.24865
4.22875
4.25427
4.2899
4.25799
4.19783
4.14271
4.12472
4.10598
4.07957
4.05514
4.04619
4.07066
4.0768
4.07804
4.11052
4.30035
4.40856
4.42383
4.1093
4.10954
4.10991
4.1088
4.10216
4.09168
4.09117
4.08741
4.07796
4.06654
4.06513
4.05282
4.0639
4.07186
4.05898
4.02196
3.97496
3.93563
3.88805
3.85043
3.83022
3.81602
3.80455
3.98087
3.97924
3.97749
3.97449
3.97011
3.96689
3.96946
3.97281
3.96772
3.95492
3.94283
3.92674
3.91755
3.90581
3.8855
3.85914
3.83126
3.81316
3.81463
3.84406
3.87973
3.88689
3.87665
3.833
3.83303
3.8322
3.83026
3.82769
3.82604
3.82568
3.82436
3.82011
3.8167
3.81049
3.79909
3.78815
3.77525
3.75485
3.72985
3.70621
3.68716
3.67378
3.66762
3.66766
3.66681
3.66039
3.69705
3.69613
3.69463
3.69283
3.69082
3.68907
3.68704
3.68419
3.68002
3.67576
3.66788
3.65832
3.64784
3.63543
3.61988
3.60246
3.58598
3.57236
3.56335
3.55842
3.55346
3.5433
3.53106
3.55793
3.55733
3.55613
3.55459
3.55285
3.55069
3.54817
3.54515
3.54107
3.53644
3.52939
3.52126
3.51138
3.49974
3.48628
3.47216
3.45886
3.44698
3.43733
3.42951
3.42141
3.41139
3.39884
3.41964
3.41903
3.41796
3.41654
3.41477
3.41258
3.40996
3.4067
3.40251
3.39777
3.39149
3.38404
3.37543
3.36569
3.35447
3.34263
3.33125
3.32055
3.31103
3.302
3.29237
3.28151
3.26941
3.28187
3.28132
3.28035
3.27901
3.27727
3.2751
3.27235
3.269
3.26497
3.26031
3.25451
3.24785
3.24028
3.23193
3.22239
3.21233
)
;

boundaryField
{
    leftWall
    {
        type            fixedFluxPressure;
        gradient        uniform 0;
        value           nonuniform List<scalar> 
26
(
5252.91
4450.67
3642.68
2830.22
2006.36
1146.74
806.201
812.616
670.953
533.853
401.778
259.68
93.3021
21.2917
3.50062
5.53857
4.13291
4.64008
4.24293
4.1093
3.98087
3.833
3.69705
3.55793
3.41964
3.28187
)
;
    }
    rightWall
    {
        type            fixedFluxPressure;
        gradient        nonuniform 0();
        value           nonuniform 0();
    }
    lowerWall
    {
        type            fixedFluxPressure;
        gradient        nonuniform List<scalar> 
22
(
132719
132719
132719
132719
132719
132719
132719
132719
132719
132719
132719
132719
132719
132719
132719
132719
132719
132719
132719
132719
132719
132719
)
;
        value           nonuniform List<scalar> 
22
(
5651.06
5645.64
5632.9
5625.75
5585.22
5559.65
5518.89
5460.82
5415.99
5380.53
5348.51
5333.22
5345.68
5401.53
5514.8
5735.15
6096.17
6581.11
7154.74
7767.09
8315.16
8685.11
)
;
    }
    atmosphere
    {
        type            totalPressure;
        U               U.air;
        phi             phi.air;
        rho             rho;
        psi             none;
        gamma           1;
        p0              nonuniform 0();
        value           nonuniform 0();
    }
    defaultFaces
    {
        type            empty;
    }
    procBoundary0to1
    {
        type            processor;
        value           nonuniform List<scalar> 
26
(
8437.96
7642.62
6878.48
6084.68
5271.47
4475.03
3712.42
2964.65
1715.08
1044.22
308.832
158.654
173.892
145.838
105.972
36.463
36.463
7.70644
3.67884
4.36244
3.80808
3.85204
3.65071
3.51955
3.38742
3.25881
)
;
    }
    procBoundary0to2
    {
        type            processor;
        value           nonuniform List<scalar> 
24
(
3.20235
3.19255
3.18339
3.1742
3.16459
3.15426
3.14267
3.14465
3.14418
3.14328
3.14196
3.14022
3.13803
3.13537
3.13215
3.1283
3.12375
3.11838
3.11223
3.10533
3.09779
3.08953
3.20235
3.08107
)
;
    }
}


// ************************************************************************* //
