/*--------------------------------*- C++ -*----------------------------------*\
| =========                 |                                                 |
| \\      /  F ield         | OpenFOAM: The Open Source CFD Toolbox           |
|  \\    /   O peration     | Version:  2.4.0                                 |
|   \\  /    A nd           | Web:      www.OpenFOAM.org                      |
|    \\/     M anipulation  |                                                 |
\*---------------------------------------------------------------------------*/
FoamFile
{
    version     2.0;
    format      ascii;
    class       surfaceScalarField;
    location    "0.45";
    object      phi;
}
// * * * * * * * * * * * * * * * * * * * * * * * * * * * * * * * * * * * * * //

dimensions      [0 3 -1 0 0 0 0];

internalField   nonuniform List<scalar> 
1101
(
2.98581e-06
-2.98581e-06
6.07854e-06
-3.09273e-06
8.69148e-06
-2.61294e-06
1.24983e-05
-3.8068e-06
1.47792e-05
-2.28097e-06
1.78016e-05
-3.0223e-06
2.15252e-05
-3.72362e-06
2.45669e-05
-3.04173e-06
2.69894e-05
-2.42251e-06
2.90281e-05
-2.03864e-06
3.20893e-05
-3.06127e-06
3.53264e-05
-3.23706e-06
3.77595e-05
-2.4331e-06
3.91637e-05
-1.40421e-06
3.89952e-05
1.68539e-07
3.75121e-05
1.48307e-06
3.45217e-05
2.99042e-06
3.03696e-05
4.15204e-06
2.53389e-05
5.0307e-06
2.01287e-05
5.21019e-06
1.35577e-05
6.57104e-06
8.27787e-06
2.98768e-06
-5.97349e-06
6.08106e-06
-6.18611e-06
8.74478e-06
-5.27666e-06
1.23888e-05
-7.45081e-06
1.48124e-05
-4.70456e-06
1.79322e-05
-6.14213e-06
2.1533e-05
-7.32444e-06
2.4431e-05
-5.93969e-06
2.69929e-05
-4.98441e-06
2.94443e-05
-4.49001e-06
3.26632e-05
-6.2802e-06
3.55296e-05
-6.10352e-06
3.7743e-05
-4.64647e-06
3.88461e-05
-2.50731e-06
3.94349e-05
-4.20205e-07
3.7929e-05
2.98891e-06
3.54056e-05
5.51382e-06
3.10751e-05
8.48253e-06
2.63784e-05
9.72738e-06
2.03101e-05
1.12786e-05
1.38214e-05
1.30597e-05
1.57874e-05
2.99527e-06
-8.96876e-06
6.05007e-06
-9.24091e-06
8.85521e-06
-8.0818e-06
1.22106e-05
-1.08062e-05
1.49498e-05
-7.44368e-06
1.81398e-05
-9.3322e-06
2.13898e-05
-1.05744e-05
2.40978e-05
-8.64768e-06
2.70023e-05
-7.88895e-06
3.02143e-05
-7.70201e-06
3.33411e-05
-9.40704e-06
3.53183e-05
-8.08066e-06
3.72711e-05
-6.59929e-06
3.90897e-05
-4.32587e-06
3.97526e-05
-1.08312e-06
3.918e-05
3.56145e-06
3.6731e-05
7.96289e-06
3.26843e-05
1.25292e-05
2.72023e-05
1.52094e-05
2.14388e-05
1.7042e-05
1.54889e-05
1.90097e-05
2.19213e-05
3.00498e-06
-1.19737e-05
6.01802e-06
-1.22539e-05
9.01678e-06
-1.10806e-05
1.20473e-05
-1.38367e-05
1.50438e-05
-1.04402e-05
1.82527e-05
-1.25411e-05
2.13438e-05
-1.36655e-05
2.38783e-05
-1.11822e-05
2.73086e-05
-1.13192e-05
3.07573e-05
-1.11507e-05
3.33048e-05
-1.19546e-05
3.49714e-05
-9.74722e-06
3.7129e-05
-8.75687e-06
3.8517e-05
-5.71396e-06
4.02074e-05
-2.77344e-06
4.1595e-05
2.17385e-06
3.94346e-05
1.01232e-05
3.52051e-05
1.67587e-05
2.76621e-05
2.27524e-05
1.96037e-05
2.51004e-05
1.30033e-05
2.56101e-05
2.77995e-05
3.01116e-06
-1.49849e-05
5.95895e-06
-1.52017e-05
9.25151e-06
-1.43731e-05
1.16388e-05
-1.6224e-05
1.52735e-05
-1.40749e-05
1.83849e-05
-1.56526e-05
2.08026e-05
-1.60832e-05
2.40539e-05
-1.44335e-05
2.76165e-05
-1.48818e-05
3.08273e-05
-1.43615e-05
3.29662e-05
-1.40935e-05
3.53298e-05
-1.21107e-05
3.78026e-05
-1.12297e-05
4.03146e-05
-8.226e-06
4.20664e-05
-4.52517e-06
4.19088e-05
2.33143e-06
4.0312e-05
1.172e-05
3.56932e-05
2.13776e-05
2.82431e-05
3.02025e-05
1.95889e-05
3.37546e-05
1.12691e-05
3.39299e-05
3.25325e-05
2.9112e-06
-1.78961e-05
5.70345e-06
-1.7994e-05
9.14608e-06
-1.78157e-05
1.0961e-05
-1.80389e-05
1.45858e-05
-1.76997e-05
1.75603e-05
-1.8627e-05
1.96064e-05
-1.81293e-05
2.27091e-05
-1.75362e-05
2.55033e-05
-1.7676e-05
2.79622e-05
-1.68204e-05
2.98951e-05
-1.60264e-05
3.24224e-05
-1.46381e-05
3.38421e-05
-1.26494e-05
3.57313e-05
-1.01152e-05
3.68858e-05
-5.67958e-06
3.80295e-05
1.18769e-06
3.6365e-05
1.33845e-05
3.18557e-05
2.58869e-05
2.68823e-05
3.51758e-05
2.01835e-05
4.04534e-05
1.14483e-05
4.26651e-05
3.90016e-05
2.19291e-06
-2.0089e-05
4.23042e-06
-2.00315e-05
6.77504e-06
-2.03603e-05
7.84152e-06
-1.91054e-05
9.79016e-06
-1.96484e-05
1.16008e-05
-2.04377e-05
1.25065e-05
-1.9035e-05
1.35409e-05
-1.85706e-05
1.49739e-05
-1.91089e-05
1.61003e-05
-1.79469e-05
1.6864e-05
-1.67901e-05
1.69234e-05
-1.46974e-05
1.64139e-05
-1.214e-05
1.559e-05
-9.29122e-06
1.5805e-05
-5.89461e-06
1.97705e-05
-2.77776e-06
2.55033e-05
7.65172e-06
2.33367e-05
2.80535e-05
2.03135e-05
3.8199e-05
1.86088e-05
4.21581e-05
1.25416e-05
4.87322e-05
4.49067e-05
4.68179e-07
-2.05572e-05
1.06201e-06
-2.06253e-05
1.41425e-06
-2.07126e-05
2.57552e-06
-2.02666e-05
3.14603e-06
-2.02189e-05
4.23275e-06
-2.15244e-05
5.87573e-06
-2.0678e-05
8.21501e-06
-2.09099e-05
1.05708e-05
-2.14647e-05
1.29861e-05
-2.03622e-05
1.42851e-05
-1.8089e-05
1.55791e-05
-1.59914e-05
1.61905e-05
-1.27514e-05
1.63938e-05
-9.49458e-06
1.39233e-05
-3.42407e-06
1.14638e-05
-3.18289e-07
1.60041e-05
3.11149e-06
1.74393e-05
2.66182e-05
9.94789e-06
4.56905e-05
1.27147e-05
3.93913e-05
1.25776e-05
4.88694e-05
4.86354e-05
1.95667e-06
-2.25138e-05
4.06323e-06
-2.27319e-05
6.27091e-06
-2.29203e-05
8.53208e-06
-2.25278e-05
1.13962e-05
-2.3083e-05
1.49442e-05
-2.50724e-05
1.80498e-05
-2.37835e-05
2.2951e-05
-2.58111e-05
2.81694e-05
-2.66831e-05
3.25985e-05
-2.47913e-05
3.62028e-05
-2.16933e-05
3.97544e-05
-1.95429e-05
4.1998e-05
-1.49951e-05
4.40972e-05
-1.15937e-05
4.49376e-05
-4.26446e-06
4.26099e-05
2.0094e-06
2.92117e-05
1.65097e-05
2.42422e-05
3.15877e-05
2.27279e-05
4.72048e-05
1.21233e-05
4.99958e-05
2.09091e-05
4.00837e-05
3.71919e-05
2.07996e-06
-2.45938e-05
4.31741e-06
-2.49693e-05
6.4e-06
-2.50028e-05
8.90867e-06
-2.50365e-05
1.11787e-05
-2.5353e-05
1.37386e-05
-2.76323e-05
1.67577e-05
-2.68026e-05
2.11613e-05
-3.02147e-05
2.53908e-05
-3.09126e-05
3.01156e-05
-2.95161e-05
3.48833e-05
-2.6461e-05
3.85044e-05
-2.31641e-05
3.93183e-05
-1.5809e-05
3.90229e-05
-1.12983e-05
3.89142e-05
-4.15575e-06
3.83681e-05
2.55547e-06
3.99386e-05
1.49392e-05
4.10468e-05
3.04795e-05
4.36334e-05
4.46182e-05
3.06456e-05
6.29835e-05
1.98835e-05
5.08458e-05
2.87976e-05
2.57811e-06
-2.71719e-05
5.08332e-06
-2.74745e-05
7.36213e-06
-2.72816e-05
9.68867e-06
-2.7363e-05
1.19565e-05
-2.76209e-05
1.38857e-05
-2.95616e-05
1.74929e-05
-3.04098e-05
2.29486e-05
-3.56703e-05
2.90895e-05
-3.70535e-05
3.7133e-05
-3.75596e-05
4.46855e-05
-3.40136e-05
5.08888e-05
-2.93674e-05
5.55249e-05
-2.04451e-05
5.95601e-05
-1.53335e-05
5.97974e-05
-4.39308e-06
5.69926e-05
5.3603e-06
5.4154e-05
1.77777e-05
5.7178e-05
2.74555e-05
6.17038e-05
4.00925e-05
7.31757e-05
5.15116e-05
6.18323e-05
6.21892e-05
4.31003e-05
2.72183e-06
-2.98937e-05
5.23845e-06
-2.99911e-05
7.21055e-06
-2.92537e-05
8.73662e-06
-2.88891e-05
1.01891e-05
-2.90734e-05
1.18151e-05
-3.11875e-05
1.48035e-05
-3.33983e-05
2.07759e-05
-4.16427e-05
2.96324e-05
-4.59101e-05
3.90499e-05
-4.6977e-05
4.63062e-05
-4.12699e-05
5.03516e-05
-3.34127e-05
5.33838e-05
-2.34774e-05
5.49694e-05
-1.69191e-05
5.72242e-05
-6.64788e-06
6.03641e-05
2.22038e-06
6.50132e-05
1.31287e-05
6.94088e-05
2.30598e-05
7.63506e-05
3.31507e-05
9.23671e-05
3.54951e-05
0.000111359
4.31976e-05
3.66959e-05
2.82516e-06
-3.27189e-05
4.97728e-06
-3.21433e-05
6.16942e-06
-3.04459e-05
6.00655e-06
-2.87262e-05
5.37166e-06
-2.84385e-05
6.93826e-06
-3.27541e-05
1.0219e-05
-3.6679e-05
1.47882e-05
-4.62119e-05
2.44725e-05
-5.55944e-05
3.27977e-05
-5.53022e-05
3.76857e-05
-4.61579e-05
4.14507e-05
-3.71778e-05
4.61838e-05
-2.82104e-05
4.96918e-05
-2.04271e-05
5.50414e-05
-1.19974e-05
5.93873e-05
-2.12551e-06
6.43715e-05
8.1444e-06
7.0855e-05
1.65763e-05
8.05576e-05
2.34481e-05
9.37099e-05
2.23428e-05
0.000111992
2.49152e-05
1.6946e-05
4.95305e-06
-3.76719e-05
8.88523e-06
-3.60754e-05
1.2876e-05
-3.44366e-05
1.48415e-05
-3.06917e-05
1.20949e-05
-2.56919e-05
4.54375e-06
-2.52029e-05
-7.53669e-06
-2.45986e-05
-1.16246e-05
-4.2124e-05
-1.5452e-05
-5.1767e-05
-1.4407e-05
-5.63472e-05
-1.22117e-05
-4.83532e-05
-1.19894e-05
-3.74e-05
-1.28231e-05
-2.73768e-05
-1.05298e-05
-2.27203e-05
-2.78704e-06
-1.97402e-05
1.01182e-05
-1.50307e-05
2.5871e-05
-7.60839e-06
4.30228e-05
-5.75526e-07
5.80589e-05
8.41206e-06
7.76887e-05
2.71306e-06
9.40582e-05
8.54558e-06
-1.24139e-06
2.26148e-06
-3.99334e-05
3.00059e-06
-3.68145e-05
2.39261e-06
-3.38286e-05
-8.17622e-07
-2.74814e-05
-4.6696e-06
-2.18398e-05
-1.96739e-07
-2.96757e-05
-7.45116e-07
-2.40502e-05
-5.19377e-05
9.06859e-06
-9.01162e-05
-1.35885e-05
-8.78477e-05
-5.86156e-05
-7.80486e-05
-5.81523e-05
-7.05641e-05
-4.48845e-05
-6.53678e-05
-3.25731e-05
-6.0911e-05
-2.71771e-05
-5.5134e-05
-2.55173e-05
-4.62396e-05
-2.39251e-05
-3.0712e-05
-2.3136e-05
-1.0409e-05
-2.08785e-05
1.15553e-05
-1.35523e-05
3.31313e-05
-1.8863e-05
5.16427e-05
-9.96575e-06
-1.64769e-05
1.07513e-06
-4.10085e-05
6.81478e-06
-4.25541e-05
1.8329e-05
-4.53427e-05
4.07459e-05
-4.98983e-05
8.00565e-05
-6.11505e-05
0.000116147
-6.5766e-05
8.43847e-05
7.7119e-06
-7.48277e-06
0.000100936
-7.43042e-05
5.32329e-05
-9.41874e-05
-3.87324e-05
-8.74074e-05
-6.49324e-05
-7.16822e-05
-6.06097e-05
-6.7399e-05
-3.68563e-05
-5.81069e-05
-3.64691e-05
-5.17236e-05
-3.19006e-05
-4.52488e-05
-3.03998e-05
-3.80803e-05
-3.03045e-05
-3.26113e-05
-2.63476e-05
-2.51844e-05
-2.09791e-05
-1.71632e-05
-2.68841e-05
-2.29051e-07
-2.68999e-05
-3.50947e-05
-1.66596e-05
-2.43488e-05
-2.82262e-05
-3.09875e-05
-3.58057e-05
-3.77632e-05
-3.81526e-05
-4.75513e-05
-3.93841e-05
-5.9919e-05
-4.12626e-05
-6.38873e-05
-8.22697e-06
-2.53237e-05
5.58163e-05
3.68929e-05
8.7881e-05
2.11682e-05
7.5214e-05
-2.60654e-05
5.56298e-05
-4.53482e-05
4.60245e-05
-5.10044e-05
2.86123e-05
-1.94441e-05
-7.10506e-06
-7.51752e-07
-2.91133e-05
-9.8924e-06
-3.2845e-05
-2.66681e-05
-2.48973e-05
-3.82522e-05
-1.41384e-05
-3.71064e-05
-3.16962e-06
-3.19479e-05
-1.15775e-05
-1.84762e-05
-4.89069e-06
-3.35867e-05
1.06557e-05
-5.0641e-05
-5.62309e-05
-1.25023e-06
-2.30986e-05
-2.59599e-06
-2.96416e-05
-4.03432e-06
-3.63248e-05
-6.85186e-06
-4.47337e-05
-1.38002e-05
-5.29706e-05
-2.14789e-05
-5.62086e-05
-1.29849e-05
-3.38177e-05
2.64744e-05
-2.56635e-06
1.72787e-05
3.0364e-05
-1.97828e-05
1.09962e-05
-3.25975e-05
-3.25335e-05
-2.88223e-05
-5.47796e-05
3.66202e-06
-5.19283e-05
5.25071e-05
-4.95968e-05
9.37912e-05
-5.11764e-05
0.000117488
-5.03651e-05
0.000122745
-4.3509e-05
0.000134819
-4.91807e-05
0.000138314
-3.54427e-05
0.00013575
-1.5912e-05
0.000110832
-8.66908e-06
9.57567e-05
-3.55655e-05
-4.38774e-05
-1.16829e-06
-2.19302e-05
-1.97647e-06
-2.88334e-05
-3.26096e-06
-3.50403e-05
-6.12006e-06
-4.18746e-05
-1.17613e-05
-4.73294e-05
-1.94847e-05
-4.84851e-05
-1.44056e-05
-3.88968e-05
1.61086e-05
-3.30805e-05
4.36828e-05
2.78976e-06
3.52204e-05
1.94586e-05
2.45091e-05
-2.18222e-05
2.67351e-05
-5.70055e-05
3.11883e-05
-5.63815e-05
3.52813e-05
-5.36898e-05
3.66132e-05
-5.25084e-05
3.8617e-05
-5.23689e-05
4.09677e-05
-4.58597e-05
3.35925e-05
-4.18054e-05
3.04983e-05
-3.23485e-05
4.08334e-05
-2.62472e-05
7.25189e-05
-4.03545e-05
9.04499e-05
-5.34963e-05
-5.38077e-05
-9.93062e-07
-2.09372e-05
-1.18875e-06
-2.86377e-05
-2.19243e-06
-3.40366e-05
-4.62515e-06
-3.94418e-05
-8.86122e-06
-4.30933e-05
-1.39967e-05
-4.33496e-05
-1.43626e-05
-3.85309e-05
-1.34893e-05
-3.39538e-05
2.71957e-06
-1.34191e-05
2.52375e-05
-3.05935e-06
3.32627e-05
-2.98473e-05
2.8971e-05
-5.27138e-05
3.09042e-05
-5.83147e-05
3.76609e-05
-6.04465e-05
4.49517e-05
-5.97992e-05
4.89144e-05
-5.63315e-05
5.38369e-05
-5.07822e-05
5.60261e-05
-4.39947e-05
5.63101e-05
-3.26324e-05
5.3216e-05
-2.3153e-05
4.15344e-05
-2.86729e-05
3.23268e-05
-4.42887e-05
-4.62672e-05
2.87667e-06
-2.38138e-05
4.14931e-06
-2.99103e-05
3.612e-06
-3.34992e-05
1.01574e-06
-3.68455e-05
-3.14435e-06
-3.89331e-05
-7.70183e-06
-3.8792e-05
-9.74631e-06
-3.64864e-05
-1.12376e-05
-3.24625e-05
-1.17944e-07
-2.45387e-05
1.52307e-05
-1.84079e-05
2.0291e-05
-3.49076e-05
1.58098e-05
-4.82327e-05
1.09605e-05
-5.34654e-05
7.83965e-06
-5.73256e-05
6.54026e-06
-5.84998e-05
6.03402e-06
-5.58253e-05
6.1264e-06
-5.08746e-05
8.03579e-06
-4.59041e-05
1.49153e-05
-3.95119e-05
2.57696e-05
-3.40073e-05
2.96842e-05
-3.25875e-05
2.1201e-05
-3.58055e-05
-3.65743e-05
2.13329e-06
-2.59471e-05
3.62548e-06
-3.14025e-05
3.73533e-06
-3.36091e-05
2.06373e-06
-3.51739e-05
-9.9751e-07
-3.58719e-05
-4.33708e-06
-3.54525e-05
-6.58693e-06
-3.42365e-05
-7.11939e-06
-3.193e-05
-1.94654e-06
-2.97115e-05
6.89452e-06
-2.7249e-05
7.96224e-06
-3.59753e-05
2.73272e-06
-4.30031e-05
-1.94405e-06
-4.87886e-05
-5.81504e-06
-5.34546e-05
-9.45033e-06
-5.48645e-05
-1.31102e-05
-5.21655e-05
-1.58898e-05
-4.80949e-05
-1.79306e-05
-4.38633e-05
-1.90901e-05
-3.83524e-05
-1.82433e-05
-3.48541e-05
-1.6144e-05
-3.46868e-05
-1.49415e-05
-3.7008e-05
-3.77711e-05
1.54029e-06
-2.74873e-05
2.48651e-06
-3.23487e-05
2.25337e-06
-3.33759e-05
8.54229e-07
-3.37747e-05
-1.25724e-06
-3.37604e-05
-3.2501e-06
-3.34596e-05
-4.66626e-06
-3.28204e-05
-4.71914e-06
-3.18771e-05
-2.93828e-06
-3.14923e-05
2.6877e-07
-3.0456e-05
-7.01061e-07
-3.50054e-05
-4.67715e-06
-3.9027e-05
-8.93209e-06
-4.45336e-05
-1.34011e-05
-4.89855e-05
-1.78881e-05
-5.03776e-05
-2.15173e-05
-4.85363e-05
-2.41415e-05
-4.54707e-05
-2.5501e-05
-4.25038e-05
-2.5329e-05
-3.85245e-05
-2.36785e-05
-3.65045e-05
-2.20377e-05
-3.63277e-05
-2.20916e-05
-3.6954e-05
-3.6439e-05
6.95432e-07
-2.81827e-05
6.13356e-07
-3.22666e-05
-2.3593e-07
-3.25266e-05
-1.25032e-06
-3.27603e-05
-2.14738e-06
-3.28633e-05
-2.92761e-06
-3.26793e-05
-3.45021e-06
-3.22977e-05
-3.27514e-06
-3.20521e-05
-2.67433e-06
-3.20931e-05
-1.54063e-06
-3.15897e-05
-2.8641e-06
-3.36819e-05
-5.92411e-06
-3.5967e-05
-1.04696e-05
-3.99881e-05
-1.55775e-05
-4.38777e-05
-2.02147e-05
-4.57403e-05
-2.33433e-05
-4.54078e-05
-2.52309e-05
-4.35831e-05
-2.57973e-05
-4.19375e-05
-2.52998e-05
-3.9022e-05
-2.44397e-05
-3.73646e-05
-2.3792e-05
-3.69753e-05
-2.38212e-05
-3.69249e-05
-3.58322e-05
2.57109e-08
-2.82084e-05
-4.70874e-07
-3.177e-05
-1.13096e-06
-3.18665e-05
-1.77736e-06
-3.21139e-05
-2.32289e-06
-3.23177e-05
-2.65575e-06
-3.23464e-05
-2.66252e-06
-3.22909e-05
-2.45315e-06
-3.22615e-05
-2.24245e-06
-3.23038e-05
-1.80973e-06
-3.20224e-05
-2.48985e-06
-3.30018e-05
-3.83646e-06
-3.46203e-05
-6.60442e-06
-3.72201e-05
-1.10186e-05
-3.94635e-05
-1.5659e-05
-4.10999e-05
-1.89508e-05
-4.21159e-05
-2.07139e-05
-2.16787e-05
-2.19862e-05
-2.29047e-05
-2.40128e-05
-2.49707e-05
-2.16911e-07
-6.73228e-07
-1.08568e-06
-1.4654e-06
-1.85873e-06
-2.1277e-06
-2.25817e-06
-2.2434e-06
-2.26265e-06
-1.98173e-06
-2.16367e-06
-2.74261e-06
-4.32797e-06
-6.87144e-06
-9.70047e-06
)
;

boundaryField
{
    leftWall
    {
        type            calculated;
        value           uniform 0;
    }
    rightWall
    {
        type            calculated;
        value           nonuniform 0();
    }
    lowerWall
    {
        type            calculated;
        value           nonuniform List<scalar> 
22
(
-4.30546e-23
-1.93151e-22
6.90141e-23
6.01103e-23
-2.23974e-23
3.74242e-22
2.21379e-22
4.59362e-22
-1.01426e-22
-4.08815e-22
2.35409e-24
-3.40131e-22
2.21808e-24
2.40961e-22
2.1093e-22
-1.14769e-22
-1.68302e-23
4.48902e-22
-1.73914e-22
1.82346e-23
2.34245e-22
3.64421e-22
)
;
    }
    atmosphere
    {
        type            calculated;
        value           nonuniform 0();
    }
    defaultFaces
    {
        type            empty;
        value           nonuniform 0();
    }
    procBoundary0to1
    {
        type            processor;
        value           nonuniform List<scalar> 
26
(
5.27983e-06
6.31184e-06
9.35503e-06
7.12509e-06
6.53605e-06
4.97927e-06
6.63641e-06
8.84889e-06
3.23526e-05
2.82778e-05
4.75296e-05
0.000117763
0.000131742
0.000112246
6.68782e-05
1.83887e-05
3.84857e-05
2.84009e-05
8.34032e-05
0.00010038
2.47863e-05
1.1508e-05
-1.37446e-05
-2.34238e-05
-2.4428e-05
-2.56853e-05
)
;
    }
    procBoundary0to2
    {
        type            processor;
        value           nonuniform List<scalar> 
24
(
-4.182e-05
-4.09726e-05
-3.87146e-05
-3.64461e-05
-3.58673e-05
-3.5967e-05
-3.51176e-05
-2.79915e-05
-3.13136e-05
-3.1454e-05
-3.17342e-05
-3.19244e-05
-3.20774e-05
-3.21604e-05
-3.22762e-05
-3.22845e-05
-3.23033e-05
-3.28198e-05
-3.40414e-05
-3.56347e-05
-3.692e-05
-3.82709e-05
-1.26732e-05
-3.91432e-05
)
;
    }
}


// ************************************************************************* //
