/*--------------------------------*- C++ -*----------------------------------*\
| =========                 |                                                 |
| \\      /  F ield         | OpenFOAM: The Open Source CFD Toolbox           |
|  \\    /   O peration     | Version:  2.4.0                                 |
|   \\  /    A nd           | Web:      www.OpenFOAM.org                      |
|    \\/     M anipulation  |                                                 |
\*---------------------------------------------------------------------------*/
FoamFile
{
    version     2.0;
    format      ascii;
    class       surfaceScalarField;
    location    "0.45";
    object      phi.air;
}
// * * * * * * * * * * * * * * * * * * * * * * * * * * * * * * * * * * * * * //

dimensions      [0 3 -1 0 0 0 0];

internalField   nonuniform List<scalar> 
1101
(
2.98583e-06
-2.9858e-06
6.07857e-06
-3.09271e-06
8.69151e-06
-2.61295e-06
1.24983e-05
-3.80681e-06
1.47793e-05
-2.28097e-06
1.78016e-05
-3.02227e-06
2.15252e-05
-3.72356e-06
2.4567e-05
-3.04167e-06
2.69895e-05
-2.42245e-06
2.90281e-05
-2.03857e-06
3.20894e-05
-3.06119e-06
3.53264e-05
-3.237e-06
3.77595e-05
-2.43302e-06
3.91637e-05
-1.40413e-06
3.89953e-05
1.68556e-07
3.75123e-05
1.48306e-06
3.45218e-05
2.99044e-06
3.03697e-05
4.15198e-06
2.53391e-05
5.03064e-06
2.01289e-05
5.21016e-06
1.35578e-05
6.57107e-06
8.278e-06
2.98769e-06
-5.97347e-06
6.08109e-06
-6.1861e-06
8.74481e-06
-5.27667e-06
1.23888e-05
-7.45085e-06
1.48124e-05
-4.70459e-06
1.79322e-05
-6.14212e-06
2.15331e-05
-7.32443e-06
2.4431e-05
-5.93969e-06
2.69929e-05
-4.98441e-06
2.94443e-05
-4.48999e-06
3.26632e-05
-6.28017e-06
3.55297e-05
-6.10351e-06
3.77431e-05
-4.64644e-06
3.88462e-05
-2.50727e-06
3.9435e-05
-4.20208e-07
3.79291e-05
2.98891e-06
3.54057e-05
5.5139e-06
3.10752e-05
8.48259e-06
2.63786e-05
9.72737e-06
2.03102e-05
1.12786e-05
1.38215e-05
1.30599e-05
1.57877e-05
2.99528e-06
-8.96871e-06
6.05009e-06
-9.24089e-06
8.85523e-06
-8.0818e-06
1.22107e-05
-1.08063e-05
1.49498e-05
-7.44371e-06
1.81399e-05
-9.33214e-06
2.13898e-05
-1.05742e-05
2.40978e-05
-8.6475e-06
2.70023e-05
-7.88854e-06
3.02143e-05
-7.70089e-06
3.33412e-05
-9.40231e-06
3.53183e-05
-8.07466e-06
3.72711e-05
-6.59037e-06
3.90897e-05
-4.32101e-06
3.97526e-05
-1.08182e-06
3.91801e-05
3.5616e-06
3.6731e-05
7.96303e-06
3.26844e-05
1.25292e-05
2.72024e-05
1.52094e-05
2.1439e-05
1.70419e-05
1.54891e-05
1.90098e-05
2.19217e-05
3.00499e-06
-1.18212e-05
6.01804e-06
-1.20917e-05
9.0168e-06
-1.09266e-05
1.20473e-05
-1.36266e-05
1.50438e-05
-1.02605e-05
1.82527e-05
-1.23138e-05
2.13439e-05
-1.33758e-05
2.38784e-05
-1.08875e-05
2.73086e-05
-1.09809e-05
3.07573e-05
-1.07597e-05
3.3305e-05
-1.14885e-05
3.49714e-05
-9.2539e-06
3.71286e-05
-8.23067e-06
3.85166e-05
-5.17716e-06
4.02072e-05
-2.2467e-06
4.1595e-05
2.50536e-06
3.94346e-05
1.02186e-05
3.52051e-05
1.67646e-05
2.76623e-05
2.27523e-05
1.9604e-05
2.51003e-05
1.30036e-05
2.56102e-05
2.78e-05
3.01164e-06
-1.54295e-05
5.95913e-06
-1.57395e-05
9.25343e-06
-1.4888e-05
1.16392e-05
-1.72285e-05
1.52762e-05
-1.49264e-05
1.839e-05
-1.69986e-05
2.08062e-05
-1.83013e-05
2.40574e-05
-1.70194e-05
2.76196e-05
-1.83306e-05
3.08293e-05
-1.88256e-05
3.29659e-05
-2.00081e-05
3.53286e-05
-1.89716e-05
3.78031e-05
-1.91732e-05
4.03158e-05
-1.65322e-05
4.20586e-05
-1.29335e-05
4.18788e-05
-4.60996e-06
4.02835e-05
7.97879e-06
3.56909e-05
2.15319e-05
2.82433e-05
3.03921e-05
1.95892e-05
3.37639e-05
1.12694e-05
3.39299e-05
3.2533e-05
2.9128e-06
-3.22282e-05
5.71831e-06
-3.26678e-05
9.14659e-06
-3.24948e-05
1.10055e-05
-3.43467e-05
1.45956e-05
-3.37954e-05
1.75371e-05
-3.57911e-05
1.96204e-05
-3.70184e-05
2.27524e-05
-3.73347e-05
2.55959e-05
-3.9716e-05
2.80762e-05
-4.1806e-05
3.01049e-05
-4.46876e-05
3.27152e-05
-4.60571e-05
3.428e-05
-4.36493e-05
3.63648e-05
-3.6546e-05
3.79575e-05
-2.62416e-05
3.91579e-05
-2.19073e-05
3.75613e-05
-6.67057e-06
3.20138e-05
1.45732e-05
2.68107e-05
3.39817e-05
2.01783e-05
4.07498e-05
1.14488e-05
4.26666e-05
3.9002e-05
2.2988e-06
-5.16038e-05
4.46982e-06
-5.09452e-05
7.09935e-06
-5.04711e-05
8.341e-06
-4.68385e-05
1.02389e-05
-4.60041e-05
1.22978e-05
-4.21738e-05
1.34796e-05
-3.48758e-05
1.44415e-05
-3.02097e-05
1.57473e-05
-2.69523e-05
1.68339e-05
-2.30621e-05
1.74176e-05
-1.97421e-05
1.7253e-05
-1.62755e-05
1.65686e-05
-1.28219e-05
1.56314e-05
-9.50586e-06
1.59516e-05
-5.93389e-06
2.26524e-05
-3.19359e-06
3.18519e-05
-6.06392e-07
2.67783e-05
3.56303e-06
2.05869e-05
2.81327e-05
1.85425e-05
4.2071e-05
1.25413e-05
4.88015e-05
4.49069e-05
5.00657e-07
-2.23516e-05
1.11371e-06
-2.22725e-05
1.48431e-06
-2.21435e-05
2.63553e-06
-2.13385e-05
3.19435e-06
-2.10246e-05
4.25716e-06
-2.19733e-05
5.87884e-06
-2.08812e-05
8.213e-06
-2.09861e-05
1.05701e-05
-2.14871e-05
1.2986e-05
-2.037e-05
1.42854e-05
-1.80919e-05
1.55795e-05
-1.59922e-05
1.6191e-05
-1.27514e-05
1.63945e-05
-9.49392e-06
1.39241e-05
-3.42373e-06
1.14672e-05
-3.18685e-07
1.68061e-05
3.09448e-06
2.42035e-05
1.87953e-05
1.2567e-05
2.62557e-05
1.2655e-05
3.59831e-05
1.25575e-05
4.92862e-05
4.86303e-05
1.95671e-06
-2.2513e-05
4.06345e-06
-2.27304e-05
6.27126e-06
-2.29182e-05
8.53261e-06
-2.25253e-05
1.13971e-05
-2.308e-05
1.49452e-05
-2.50687e-05
1.80507e-05
-2.37794e-05
2.29519e-05
-2.58075e-05
2.81703e-05
-2.66797e-05
3.25994e-05
-2.47882e-05
3.62036e-05
-2.16901e-05
3.97551e-05
-1.95391e-05
4.19988e-05
-1.49908e-05
4.4098e-05
-1.15884e-05
4.49388e-05
-4.25947e-06
4.26118e-05
2.01387e-06
2.92872e-05
1.65119e-05
2.99606e-05
3.12235e-05
3.12305e-05
3.27923e-05
1.49732e-05
3.2926e-05
2.08592e-05
3.60254e-05
3.69562e-05
2.07998e-06
-2.45469e-05
4.31745e-06
-2.49229e-05
6.40004e-06
-2.49562e-05
8.90872e-06
-2.49895e-05
1.11788e-05
-2.53064e-05
1.37387e-05
-2.75838e-05
1.67578e-05
-2.67571e-05
2.11615e-05
-3.02019e-05
2.53911e-05
-3.09066e-05
3.01159e-05
-2.95113e-05
3.48835e-05
-2.64553e-05
3.85046e-05
-2.31571e-05
3.93183e-05
-1.58014e-05
3.90229e-05
-1.12893e-05
3.89147e-05
-4.14667e-06
3.83689e-05
2.56581e-06
3.99405e-05
1.49471e-05
4.09008e-05
3.04837e-05
4.27805e-05
4.40389e-05
3.15762e-05
4.62084e-05
2.14173e-05
3.44162e-05
2.21666e-05
2.57704e-06
-2.18687e-05
5.08099e-06
-2.25244e-05
7.35806e-06
-2.33955e-05
9.68197e-06
-2.47455e-05
1.19468e-05
-2.63364e-05
1.38744e-05
-2.92283e-05
1.74876e-05
-3.03155e-05
2.29481e-05
-3.56023e-05
2.90897e-05
-3.70127e-05
3.71332e-05
-3.75686e-05
4.46858e-05
-3.39629e-05
5.08891e-05
-2.91703e-05
5.55252e-05
-2.02497e-05
5.95603e-05
-1.51384e-05
5.97974e-05
-4.27298e-06
5.69928e-05
5.40211e-06
5.41553e-05
1.77811e-05
5.71784e-05
2.74578e-05
6.05766e-05
4.0102e-05
6.57365e-05
4.97201e-05
5.55969e-05
4.32497e-05
2.44842e-05
2.62965e-06
2.58658e-05
5.06166e-06
2.5171e-05
6.96838e-06
2.48068e-05
8.48788e-06
2.34674e-05
1.00539e-05
2.10872e-05
1.17732e-05
1.37551e-05
1.47926e-05
-1.11495e-05
2.07812e-05
-2.46812e-05
2.96504e-05
-2.38135e-05
3.9062e-05
-2.29988e-05
4.63032e-05
-3.31833e-05
5.03186e-05
-3.26582e-05
5.33437e-05
-2.39632e-05
5.49389e-05
-1.80021e-05
5.72029e-05
-7.18363e-06
6.03583e-05
2.53369e-06
6.50143e-05
1.38345e-05
6.94126e-05
2.36385e-05
7.6349e-05
3.3494e-05
9.02923e-05
3.57046e-05
0.000103178
4.09175e-05
2.63092e-05
1.74571e-06
3.54996e-05
2.54977e-06
3.70787e-05
1.71653e-06
4.03404e-05
-2.1021e-06
4.43072e-05
-1.01342e-05
4.48945e-05
-1.04395e-05
3.20239e-05
6.45454e-06
1.41442e-05
1.80358e-05
5.27688e-06
2.98475e-05
1.43018e-05
3.5128e-05
4.39681e-05
3.83795e-05
4.97915e-05
4.22027e-05
4.14277e-05
4.70602e-05
2.33789e-05
5.0445e-05
1.00036e-05
5.53765e-05
1.99267e-06
5.94543e-05
1.58113e-06
6.43389e-05
6.50158e-06
7.08252e-05
1.51697e-05
8.05833e-05
2.22911e-05
9.36258e-05
2.14914e-05
0.000109646
2.42886e-05
1.51269e-05
4.75248e-06
-3.81816e-07
8.35374e-06
2.14041e-06
1.21107e-05
5.36874e-06
1.30562e-05
1.20091e-05
6.66511e-06
2.29837e-05
-2.09263e-06
3.22596e-05
-1.29656e-05
4.94728e-05
-1.08884e-05
5.02673e-05
-1.48522e-05
5.54815e-05
-1.91896e-05
2.88114e-05
-2.52473e-05
1.92775e-05
-2.23884e-05
2.24199e-05
-1.75001e-05
2.62531e-05
-1.29477e-05
2.55645e-05
-3.63634e-06
2.34521e-05
1.08385e-05
2.19794e-05
2.82461e-05
2.30962e-05
4.5416e-05
2.53353e-05
5.94247e-05
2.94913e-05
7.82476e-05
3.23366e-05
9.40864e-05
3.34169e-05
2.32915e-05
2.25992e-06
-3.99238e-05
2.997e-06
-3.6804e-05
2.38224e-06
-3.38138e-05
-8.56735e-07
-2.74535e-05
-4.94707e-06
-2.17461e-05
-2.27519e-06
-2.90223e-05
-6.7273e-07
-1.65636e-05
-5.18226e-05
3.85354e-05
-9.69266e-05
1.92876e-05
-9.41059e-05
-3.39925e-05
-8.27677e-05
-2.59511e-05
-7.67552e-05
6.51136e-06
-7.47594e-05
3.5974e-05
-7.12161e-05
4.67632e-05
-6.85231e-05
4.8397e-05
-6.32616e-05
4.63975e-05
-4.62594e-05
4.07432e-05
-2.21517e-05
3.95556e-05
1.19673e-05
4.51151e-05
4.1532e-05
4.06979e-05
5.63605e-05
4.72943e-05
4.12321e-05
1.07513e-06
-4.10085e-05
6.81479e-06
-4.25541e-05
1.8329e-05
-4.53428e-05
4.07459e-05
-4.98983e-05
8.00568e-05
-6.11505e-05
0.000116153
-6.57661e-05
8.44826e-05
7.71551e-06
-7.37179e-06
0.00010107
-7.40338e-05
5.33459e-05
-9.38736e-05
-3.84327e-05
-8.75869e-05
-6.46523e-05
-7.17743e-05
-5.74968e-05
-7.16036e-05
-2.12595e-05
-6.19373e-05
-2.70054e-06
-5.63771e-05
1.07236e-05
-5.10509e-05
1.67899e-05
-4.16547e-05
2.17614e-05
-3.53403e-05
3.64581e-05
-2.53955e-05
5.37494e-05
-1.9842e-05
4.52927e-05
1.44461e-07
4.18011e-05
2.89729e-05
-1.66596e-05
-2.43489e-05
-2.82262e-05
-3.09875e-05
-3.58057e-05
-3.77632e-05
-3.81527e-05
-4.75513e-05
-3.93841e-05
-5.9919e-05
-4.12627e-05
-6.38874e-05
-8.22697e-06
-2.53238e-05
5.58163e-05
3.68929e-05
8.7881e-05
2.11683e-05
7.5214e-05
-2.60653e-05
5.56299e-05
-4.53482e-05
4.6025e-05
-5.10044e-05
2.8617e-05
-1.94439e-05
-7.07901e-06
-7.4712e-07
-2.90916e-05
-9.84587e-06
-3.30586e-05
-2.64292e-05
-2.55255e-05
-3.77116e-05
-1.4482e-05
-3.55074e-05
-1.59977e-06
-2.50962e-05
-1.31624e-05
-1.02986e-05
-8.19692e-06
-1.15321e-05
8.24092e-06
-2.45894e-05
-2.68401e-05
-1.25023e-06
-2.30986e-05
-2.59599e-06
-2.96417e-05
-4.03433e-06
-3.63249e-05
-6.85187e-06
-4.47338e-05
-1.38002e-05
-5.29707e-05
-2.1479e-05
-5.62086e-05
-1.29849e-05
-3.38178e-05
2.64744e-05
-2.56635e-06
1.72787e-05
3.0364e-05
-1.97829e-05
1.09962e-05
-3.25975e-05
-3.25335e-05
-2.88223e-05
-5.47796e-05
3.66202e-06
-5.19283e-05
5.25071e-05
-4.95969e-05
9.37912e-05
-5.11765e-05
0.000117488
-5.03652e-05
0.000122745
-4.3509e-05
0.000134819
-4.91807e-05
0.000138314
-3.54427e-05
0.000135751
-1.5912e-05
0.000110835
-8.6686e-06
9.57628e-05
-3.55629e-05
-4.38704e-05
-1.1683e-06
-2.19303e-05
-1.97648e-06
-2.88335e-05
-3.26096e-06
-3.50403e-05
-6.12007e-06
-4.18746e-05
-1.17613e-05
-4.73294e-05
-1.94847e-05
-4.84852e-05
-1.44056e-05
-3.88968e-05
1.61086e-05
-3.30805e-05
4.36828e-05
2.78976e-06
3.52204e-05
1.94586e-05
2.45091e-05
-2.18222e-05
2.67351e-05
-5.70056e-05
3.11883e-05
-5.63815e-05
3.52813e-05
-5.36898e-05
3.66132e-05
-5.25084e-05
3.8617e-05
-5.23689e-05
4.09677e-05
-4.58597e-05
3.35925e-05
-4.18055e-05
3.04983e-05
-3.23485e-05
4.08335e-05
-2.62472e-05
7.2519e-05
-4.03546e-05
9.04499e-05
-5.34963e-05
-5.38077e-05
-9.93063e-07
-2.09372e-05
-1.18875e-06
-2.86378e-05
-2.19244e-06
-3.40366e-05
-4.62516e-06
-3.94419e-05
-8.86123e-06
-4.30933e-05
-1.39968e-05
-4.33496e-05
-1.43626e-05
-3.8531e-05
-1.34893e-05
-3.39538e-05
2.71957e-06
-1.34191e-05
2.52375e-05
-3.05935e-06
3.32627e-05
-2.98473e-05
2.8971e-05
-5.27139e-05
3.09042e-05
-5.83147e-05
3.76609e-05
-6.04465e-05
4.49518e-05
-5.97993e-05
4.89144e-05
-5.63316e-05
5.38369e-05
-5.07822e-05
5.60261e-05
-4.39947e-05
5.63101e-05
-3.26324e-05
5.3216e-05
-2.3153e-05
4.15344e-05
-2.86729e-05
3.23268e-05
-4.42887e-05
-4.62672e-05
2.87668e-06
-2.38138e-05
4.14932e-06
-2.99104e-05
3.61201e-06
-3.34993e-05
1.01574e-06
-3.68456e-05
-3.14435e-06
-3.89332e-05
-7.70184e-06
-3.87921e-05
-9.74632e-06
-3.64864e-05
-1.12376e-05
-3.24625e-05
-1.17944e-07
-2.45387e-05
1.52307e-05
-1.84079e-05
2.0291e-05
-3.49076e-05
1.58098e-05
-4.82327e-05
1.09605e-05
-5.34654e-05
7.83966e-06
-5.73256e-05
6.54026e-06
-5.84998e-05
6.03402e-06
-5.58253e-05
6.1264e-06
-5.08746e-05
8.03579e-06
-4.59041e-05
1.49153e-05
-3.9512e-05
2.57696e-05
-3.40073e-05
2.96842e-05
-3.25875e-05
2.1201e-05
-3.58055e-05
-3.65743e-05
2.1333e-06
-2.59471e-05
3.62548e-06
-3.14025e-05
3.73533e-06
-3.36091e-05
2.06373e-06
-3.51739e-05
-9.97511e-07
-3.58719e-05
-4.33708e-06
-3.54525e-05
-6.58694e-06
-3.42366e-05
-7.11939e-06
-3.193e-05
-1.94654e-06
-2.97115e-05
6.89452e-06
-2.7249e-05
7.96225e-06
-3.59753e-05
2.73273e-06
-4.30031e-05
-1.94405e-06
-4.87886e-05
-5.81504e-06
-5.34546e-05
-9.45033e-06
-5.48645e-05
-1.31102e-05
-5.21655e-05
-1.58898e-05
-4.80949e-05
-1.79306e-05
-4.38633e-05
-1.90901e-05
-3.83524e-05
-1.82433e-05
-3.48541e-05
-1.6144e-05
-3.46868e-05
-1.49415e-05
-3.7008e-05
-3.77712e-05
1.54029e-06
-2.74874e-05
2.48652e-06
-3.23487e-05
2.25337e-06
-3.33759e-05
8.5423e-07
-3.37748e-05
-1.25724e-06
-3.37604e-05
-3.25011e-06
-3.34596e-05
-4.66626e-06
-3.28204e-05
-4.71914e-06
-3.18771e-05
-2.93828e-06
-3.14923e-05
2.6877e-07
-3.0456e-05
-7.01061e-07
-3.50054e-05
-4.67715e-06
-3.9027e-05
-8.93209e-06
-4.45336e-05
-1.34011e-05
-4.89855e-05
-1.78881e-05
-5.03776e-05
-2.15173e-05
-4.85363e-05
-2.41415e-05
-4.54707e-05
-2.5501e-05
-4.25038e-05
-2.5329e-05
-3.85245e-05
-2.36785e-05
-3.65045e-05
-2.20377e-05
-3.63277e-05
-2.20917e-05
-3.69541e-05
-3.6439e-05
6.95433e-07
-2.81828e-05
6.13357e-07
-3.22666e-05
-2.35931e-07
-3.25266e-05
-1.25033e-06
-3.27603e-05
-2.14738e-06
-3.28633e-05
-2.92761e-06
-3.26793e-05
-3.45021e-06
-3.22977e-05
-3.27514e-06
-3.20521e-05
-2.67433e-06
-3.20931e-05
-1.54063e-06
-3.15897e-05
-2.8641e-06
-3.36819e-05
-5.92411e-06
-3.5967e-05
-1.04696e-05
-3.99881e-05
-1.55775e-05
-4.38777e-05
-2.02147e-05
-4.57403e-05
-2.33433e-05
-4.54077e-05
-2.52309e-05
-4.35831e-05
-2.57973e-05
-4.19375e-05
-2.52998e-05
-3.9022e-05
-2.44397e-05
-3.73646e-05
-2.3792e-05
-3.69753e-05
-2.38212e-05
-3.69249e-05
-3.58322e-05
2.57109e-08
-2.82085e-05
-4.70874e-07
-3.177e-05
-1.13096e-06
-3.18665e-05
-1.77736e-06
-3.21139e-05
-2.32289e-06
-3.23178e-05
-2.65575e-06
-3.23464e-05
-2.66252e-06
-3.22909e-05
-2.45315e-06
-3.22615e-05
-2.24245e-06
-3.23038e-05
-1.80973e-06
-3.20224e-05
-2.48985e-06
-3.30018e-05
-3.83646e-06
-3.46204e-05
-6.60442e-06
-3.72201e-05
-1.10186e-05
-3.94635e-05
-1.5659e-05
-4.10999e-05
-1.89508e-05
-4.21159e-05
-2.07139e-05
-2.16787e-05
-2.19862e-05
-2.29047e-05
-2.40128e-05
-2.49707e-05
-2.16911e-07
-6.73229e-07
-1.08568e-06
-1.4654e-06
-1.85874e-06
-2.1277e-06
-2.25817e-06
-2.2434e-06
-2.26265e-06
-1.98173e-06
-2.16367e-06
-2.74261e-06
-4.32798e-06
-6.87144e-06
-9.70047e-06
)
;

boundaryField
{
    leftWall
    {
        type            fixedValue;
        value           uniform 0;
    }
    rightWall
    {
        type            fixedValue;
        value           nonuniform 0();
    }
    lowerWall
    {
        type            fixedValue;
        value           uniform 0;
    }
    atmosphere
    {
        type            calculated;
        value           nonuniform 0();
    }
    defaultFaces
    {
        type            empty;
        value           nonuniform 0();
    }
    procBoundary0to1
    {
        type            processor;
        value           nonuniform List<scalar> 
26
(
5.27994e-06
6.31194e-06
9.35518e-06
7.1253e-06
6.53634e-06
4.97965e-06
6.63688e-06
8.84985e-06
3.23427e-05
2.85061e-05
4.64842e-05
0.000105648
0.000128731
0.000111875
7.33244e-05
1.6269e-05
-2.09954e-05
2.98843e-05
8.3409e-05
0.00010038
2.47864e-05
1.15081e-05
-1.37446e-05
-2.34238e-05
-2.4428e-05
-2.56853e-05
)
;
    }
    procBoundary0to2
    {
        type            processor;
        value           nonuniform List<scalar> 
24
(
-4.182e-05
-4.09726e-05
-3.87146e-05
-3.64461e-05
-3.58673e-05
-3.5967e-05
-3.51176e-05
-2.79915e-05
-3.13137e-05
-3.1454e-05
-3.17342e-05
-3.19244e-05
-3.20774e-05
-3.21604e-05
-3.22762e-05
-3.22845e-05
-3.23033e-05
-3.28198e-05
-3.40414e-05
-3.56347e-05
-3.692e-05
-3.82709e-05
-1.26732e-05
-3.91431e-05
)
;
    }
}


// ************************************************************************* //
