/*--------------------------------*- C++ -*----------------------------------*\
| =========                 |                                                 |
| \\      /  F ield         | OpenFOAM: The Open Source CFD Toolbox           |
|  \\    /   O peration     | Version:  2.4.0                                 |
|   \\  /    A nd           | Web:      www.OpenFOAM.org                      |
|    \\/     M anipulation  |                                                 |
\*---------------------------------------------------------------------------*/
FoamFile
{
    version     2.0;
    format      ascii;
    class       surfaceScalarField;
    location    "0.45";
    object      phi.mercury;
}
// * * * * * * * * * * * * * * * * * * * * * * * * * * * * * * * * * * * * * //

dimensions      [0 3 -1 0 0 0 0];

internalField   nonuniform List<scalar> 
1101
(
2.98581e-06
-2.98581e-06
6.07854e-06
-3.09273e-06
8.69148e-06
-2.61294e-06
1.24983e-05
-3.8068e-06
1.47792e-05
-2.28097e-06
1.78016e-05
-3.0223e-06
2.15252e-05
-3.72362e-06
2.45669e-05
-3.04173e-06
2.69894e-05
-2.42251e-06
2.90281e-05
-2.03865e-06
3.20893e-05
-3.06127e-06
3.53264e-05
-3.23706e-06
3.77595e-05
-2.4331e-06
3.91637e-05
-1.40421e-06
3.89952e-05
1.68539e-07
3.75121e-05
1.48307e-06
3.45217e-05
2.99042e-06
3.03696e-05
4.15204e-06
2.53389e-05
5.0307e-06
2.01287e-05
5.21019e-06
1.35577e-05
6.57104e-06
8.27787e-06
2.98768e-06
-5.97349e-06
6.08106e-06
-6.18611e-06
8.74478e-06
-5.27666e-06
1.23888e-05
-7.45081e-06
1.48124e-05
-4.70456e-06
1.79322e-05
-6.14213e-06
2.1533e-05
-7.32444e-06
2.4431e-05
-5.93969e-06
2.69929e-05
-4.98441e-06
2.94443e-05
-4.49001e-06
3.26632e-05
-6.2802e-06
3.55297e-05
-6.10352e-06
3.7743e-05
-4.64647e-06
3.88461e-05
-2.50731e-06
3.94349e-05
-4.20205e-07
3.7929e-05
2.98891e-06
3.54056e-05
5.51382e-06
3.10751e-05
8.48253e-06
2.63784e-05
9.72738e-06
2.03101e-05
1.12786e-05
1.38214e-05
1.30597e-05
1.57874e-05
2.99527e-06
-8.96877e-06
6.05007e-06
-9.24092e-06
8.85521e-06
-8.08181e-06
1.22106e-05
-1.08063e-05
1.49498e-05
-7.4437e-06
1.81398e-05
-9.33226e-06
2.13898e-05
-1.05746e-05
2.40978e-05
-8.64789e-06
2.70023e-05
-7.88938e-06
3.02143e-05
-7.70299e-06
3.33411e-05
-9.41016e-06
3.53183e-05
-8.0844e-06
3.72711e-05
-6.60433e-06
3.90897e-05
-4.32884e-06
3.97526e-05
-1.08408e-06
3.918e-05
3.56133e-06
3.6731e-05
7.96288e-06
3.26843e-05
1.25292e-05
2.72023e-05
1.52094e-05
2.14388e-05
1.7042e-05
1.54889e-05
1.90097e-05
2.19213e-05
3.00498e-06
-1.20719e-05
6.01802e-06
-1.23615e-05
9.01678e-06
-1.11808e-05
1.20473e-05
-1.39975e-05
1.50438e-05
-1.05685e-05
1.82527e-05
-1.27285e-05
2.13438e-05
-1.39521e-05
2.38783e-05
-1.14852e-05
2.73086e-05
-1.1726e-05
3.07573e-05
-1.17151e-05
3.33048e-05
-1.28253e-05
3.49714e-05
-1.07932e-05
3.71292e-05
-1.00711e-05
3.85174e-05
-6.95749e-06
4.02076e-05
-3.77769e-06
4.1595e-05
1.83218e-06
3.94346e-05
1.00735e-05
3.52051e-05
1.67557e-05
2.76621e-05
2.27523e-05
1.96037e-05
2.51004e-05
1.30033e-05
2.56101e-05
2.77995e-05
3.01073e-06
-2.00566e-05
5.95881e-06
-2.04949e-05
9.24948e-06
-1.96372e-05
1.16384e-05
-2.25771e-05
1.52701e-05
-2.01438e-05
1.83761e-05
-2.28125e-05
2.07948e-05
-2.49156e-05
2.40443e-05
-2.4021e-05
2.76027e-05
-2.60686e-05
3.0803e-05
-2.74878e-05
3.2943e-05
-3.00105e-05
3.53121e-05
-3.01127e-05
3.78049e-05
-3.15689e-05
4.03289e-05
-2.98561e-05
4.21231e-05
-2.7316e-05
4.19491e-05
-1.94197e-05
4.03273e-05
-3.81053e-06
3.56944e-05
1.72311e-05
2.82431e-05
3.00035e-05
1.95889e-05
3.37498e-05
1.12691e-05
3.39299e-05
3.25325e-05
2.91474e-06
-5.26174e-05
5.73813e-06
-5.35748e-05
9.14642e-06
-5.36262e-05
1.10597e-05
-5.77846e-05
1.46062e-05
-5.7553e-05
1.75109e-05
-6.11717e-05
1.96329e-05
-6.34964e-05
2.27915e-05
-6.41752e-05
2.5676e-05
-6.69371e-05
2.81714e-05
-6.9534e-05
3.02784e-05
-7.29828e-05
3.29588e-05
-7.45118e-05
3.46486e-05
-6.99039e-05
3.6901e-05
-5.75482e-05
3.88386e-05
-4.18163e-05
4.007e-05
-3.9255e-05
3.88602e-05
-2.71662e-05
3.28558e-05
8.00851e-07
2.69584e-05
2.94876e-05
2.01863e-05
4.01543e-05
1.14483e-05
4.26637e-05
3.90016e-05
2.43009e-06
-9.6352e-05
4.77302e-06
-9.58634e-05
7.53819e-06
-9.44846e-05
9.06732e-06
-9.21383e-05
1.09485e-05
-8.91733e-05
1.36393e-05
-8.32849e-05
1.58519e-05
-7.33812e-05
1.72627e-05
-6.5017e-05
1.92112e-05
-6.01911e-05
2.20551e-05
-5.76044e-05
2.43609e-05
-5.62636e-05
2.48281e-05
-5.43705e-05
2.33869e-05
-4.74324e-05
1.9558e-05
-3.48688e-05
2.18087e-05
-2.10116e-05
3.19615e-05
-2.10879e-05
3.89931e-05
-2.52391e-05
3.06066e-05
-2.20041e-05
2.17548e-05
1.78116e-05
1.86763e-05
4.00243e-05
1.25421e-05
4.86922e-05
4.49067e-05
1.52059e-06
-8.66234e-05
2.85918e-06
-8.5149e-05
4.17559e-06
-8.2565e-05
5.38786e-06
-7.67615e-05
5.98573e-06
-7.15503e-05
6.28347e-06
-6.32175e-05
6.25303e-06
-5.12985e-05
7.53334e-06
-4.23186e-05
9.82005e-06
-3.62594e-05
1.22019e-05
-3.16239e-05
1.38043e-05
-2.71439e-05
1.53003e-05
-2.33656e-05
1.61984e-05
-1.89516e-05
1.66812e-05
-1.51716e-05
1.43855e-05
-8.96232e-06
1.37875e-05
-5.87337e-06
2.1997e-05
-1.01687e-05
3.0849e-05
-2.89494e-05
1.60764e-05
7.98687e-06
1.31811e-05
3.07059e-05
1.25893e-05
4.78977e-05
4.86386e-05
1.93594e-06
-2.39925e-05
4.10372e-06
-2.37785e-05
6.35383e-06
-2.33924e-05
8.70446e-06
-2.24675e-05
1.17907e-05
-2.21551e-05
1.53452e-05
-2.25499e-05
1.84064e-05
-2.09782e-05
2.32627e-05
-2.15753e-05
2.86232e-05
-2.15828e-05
3.31623e-05
-1.97334e-05
3.67935e-05
-1.71024e-05
4.03885e-05
-1.53172e-05
4.26285e-05
-1.20738e-05
4.48426e-05
-9.80482e-06
4.57194e-05
-4.28495e-06
4.34992e-05
3.15363e-07
3.51685e-05
1.47907e-05
4.46861e-05
1.81513e-06
4.03446e-05
-4.14925e-06
1.88976e-05
1.51714e-05
2.14489e-05
3.06024e-05
3.47397e-05
2.10137e-06
-2.33127e-05
4.36079e-06
-2.36885e-05
6.47088e-06
-2.37785e-05
8.9996e-06
-2.38378e-05
1.12869e-05
-2.42164e-05
1.38921e-05
-2.64673e-05
1.68878e-05
-2.55892e-05
2.12347e-05
-2.87093e-05
2.54615e-05
-2.94886e-05
3.01667e-05
-2.81506e-05
3.49326e-05
-2.54021e-05
3.85611e-05
-2.26601e-05
3.94014e-05
-1.62659e-05
3.9109e-05
-1.22308e-05
3.89166e-05
-6.12107e-06
3.74618e-05
-1.0244e-06
4.02133e-05
7.50456e-06
3.16973e-05
2.13339e-05
4.07247e-05
7.31789e-06
3.26415e-05
2.50669e-06
2.31772e-05
1.56397e-05
1.39195e-05
2.58132e-06
-2.71485e-05
5.09416e-06
-2.7458e-05
7.38136e-06
-2.72801e-05
9.71707e-06
-2.73654e-05
1.1987e-05
-2.76098e-05
1.39232e-05
-2.95365e-05
1.75029e-05
-3.0333e-05
2.29289e-05
-3.55661e-05
2.90783e-05
-3.69504e-05
3.71261e-05
-3.74074e-05
4.46867e-05
-3.38927e-05
5.08973e-05
-2.92542e-05
5.55385e-05
-2.03223e-05
5.95708e-05
-1.52041e-05
5.98304e-05
-4.26801e-06
5.59518e-05
5.54722e-06
5.41768e-05
1.76386e-05
5.40077e-05
2.69573e-05
3.46604e-05
3.36606e-05
5.02116e-05
8.26138e-06
4.82532e-05
2.29317e-06
7.26671e-07
2.72191e-06
-3.0578e-05
5.23908e-06
-3.06286e-05
7.21184e-06
-2.97819e-05
8.73891e-06
-2.92792e-05
1.01921e-05
-2.93098e-05
1.1818e-05
-3.12767e-05
1.48048e-05
-3.34195e-05
2.07697e-05
-4.16204e-05
2.96214e-05
-4.57956e-05
3.90392e-05
-4.673e-05
4.62918e-05
-4.10109e-05
5.03303e-05
-3.31815e-05
5.33619e-05
-2.32535e-05
5.49544e-05
-1.67231e-05
5.72192e-05
-6.40002e-06
6.03635e-05
2.6e-06
6.50779e-05
1.34826e-05
6.93329e-05
2.33903e-05
4.93762e-05
3.34629e-05
5.31521e-05
2.13555e-05
6.92309e-05
1.44069e-06
-1.58619e-05
2.85187e-06
-6.07882e-05
5.03079e-06
-5.97952e-05
6.24799e-06
-5.65752e-05
6.1053e-06
-5.21289e-05
5.46879e-06
-4.61141e-05
6.9723e-06
-4.08779e-05
1.02108e-05
-3.86332e-05
1.47275e-05
-4.74162e-05
2.44342e-05
-5.77284e-05
3.28829e-05
-5.91067e-05
3.78341e-05
-4.89645e-05
4.16205e-05
-3.94989e-05
4.63685e-05
-3.04824e-05
4.98709e-05
-2.29615e-05
5.51533e-05
-1.44872e-05
5.94256e-05
-4.41063e-06
6.43711e-05
6.22745e-06
7.08472e-05
1.56671e-05
7.87103e-05
2.30938e-05
5.34666e-05
2.27605e-05
7.8164e-05
6.97168e-06
-1.81573e-05
5.2051e-06
-0.000163212
9.50204e-06
-0.000160571
1.36344e-05
-0.000153715
1.61705e-05
-0.000142043
1.4426e-05
-0.000125866
5.68516e-06
-0.000106104
-7.22024e-06
-8.72388e-05
-1.1634e-05
-9.13243e-05
-1.47741e-05
-0.000102738
-1.281e-05
-8.62338e-05
-1.05304e-05
-6.01783e-05
-1.0528e-05
-4.36051e-05
-1.16437e-05
-3.19566e-05
-9.68092e-06
-2.64778e-05
-2.0451e-06
-2.3036e-05
1.1059e-05
-1.82113e-05
2.73408e-05
-1.1168e-05
4.42403e-05
-4.20454e-06
5.85985e-05
6.48774e-06
7.63047e-05
4.62491e-07
6.89687e-05
7.75797e-06
-5.1967e-06
3.41285e-06
-5.07318e-05
5.30287e-06
-4.79445e-05
7.23059e-06
-4.71788e-05
9.14772e-06
-4.53938e-05
1.6337e-05
-5.34389e-05
2.21029e-05
-9.0488e-05
-2.22052e-07
-0.00011555
-5.08977e-05
-0.000121592
-8.51105e-05
-0.000131323
-8.64509e-05
-0.000112093
-7.73157e-05
-9.59157e-05
-7.00667e-05
-8.2953e-05
-6.50741e-05
-6.57041e-05
-6.07548e-05
-5.15973e-05
-5.50274e-05
-4.23145e-05
-4.61498e-05
-3.3724e-05
-3.06017e-05
-2.82746e-05
-9.71871e-06
-2.35198e-05
1.25974e-05
-1.49144e-05
3.46437e-05
-2.06466e-05
5.22136e-05
-1.29064e-05
-1.90586e-05
1.07973e-06
-4.1008e-05
6.82212e-06
-4.25538e-05
1.83366e-05
-4.53434e-05
4.07521e-05
-4.98996e-05
7.99561e-05
-6.11526e-05
0.000111966
-6.57402e-05
5.26695e-05
5.01878e-06
-2.869e-05
5.01931e-05
-9.03001e-05
2.01725e-05
-9.93172e-05
-5.98904e-05
-8.63903e-05
-7.0628e-05
-7.14668e-05
-8.57441e-05
-6.20516e-05
-0.000102435
-5.52438e-05
-0.000127939
-4.96861e-05
-0.000114401
-4.3851e-05
-9.73982e-05
-3.76222e-05
-8.78117e-05
-3.24338e-05
-8.06613e-05
-2.51738e-05
-7.01595e-05
-1.69568e-05
-7.29233e-05
2.34888e-07
-5.84156e-05
-6.19012e-05
-1.66555e-05
-2.43486e-05
-2.82198e-05
-3.09876e-05
-3.57992e-05
-3.77642e-05
-3.81455e-05
-4.75534e-05
-3.93785e-05
-5.99218e-05
-4.12611e-05
-6.38899e-05
-8.23044e-06
-2.5326e-05
5.58174e-05
3.68978e-05
8.78768e-05
2.11652e-05
7.52077e-05
-2.60674e-05
5.56112e-05
-4.53447e-05
4.57934e-05
-5.10005e-05
2.55046e-05
-1.95275e-05
-1.42553e-05
-4.00899e-06
-3.08195e-05
-2.44697e-05
-2.74473e-05
-4.9362e-05
-1.86718e-05
-5.58283e-05
-1.2544e-05
-5.95838e-05
-8.17148e-06
-8.27295e-05
-8.2258e-06
-7.28375e-05
5.88614e-07
-0.000120191
1.44593e-05
-0.000156055
-0.00014736
-1.24731e-06
-2.30979e-05
-2.59171e-06
-2.96418e-05
-4.0301e-06
-3.63259e-05
-6.84831e-06
-4.47362e-05
-1.37973e-05
-5.29733e-05
-2.14775e-05
-5.62109e-05
-1.29852e-05
-3.38191e-05
2.6477e-05
-2.56488e-06
1.72842e-05
3.03626e-05
-1.97784e-05
1.09954e-05
-3.25902e-05
-3.25327e-05
-2.88142e-05
-5.47799e-05
3.67217e-06
-5.19285e-05
5.25204e-05
-4.95949e-05
9.38042e-05
-5.11732e-05
0.000117504
-5.03617e-05
0.000122761
-4.35059e-05
0.000134831
-4.91722e-05
0.000138292
-3.54388e-05
0.000135231
-1.59333e-05
0.000108875
-9.07098e-06
9.26624e-05
-3.76187e-05
-4.81144e-05
-1.16567e-06
-2.19304e-05
-1.97249e-06
-2.88342e-05
-3.25649e-06
-3.50418e-05
-6.11618e-06
-4.1877e-05
-1.1758e-05
-4.73323e-05
-1.94816e-05
-4.84879e-05
-1.44023e-05
-3.88992e-05
1.6114e-05
-3.30822e-05
4.36876e-05
2.78761e-06
3.52245e-05
1.94581e-05
2.45147e-05
-2.1823e-05
2.6742e-05
-5.70063e-05
3.11964e-05
-5.63821e-05
3.52927e-05
-5.36897e-05
3.66284e-05
-5.25078e-05
3.86362e-05
-5.23681e-05
4.09877e-05
-4.58589e-05
3.36183e-05
-4.18048e-05
3.05301e-05
-3.23521e-05
4.08556e-05
-2.62584e-05
7.25456e-05
-4.03656e-05
9.04976e-05
-5.35114e-05
-5.38416e-05
-9.9118e-07
-2.09376e-05
-1.18576e-06
-2.86388e-05
-2.18908e-06
-3.40384e-05
-4.62191e-06
-3.94443e-05
-8.85811e-06
-4.30961e-05
-1.39934e-05
-4.33525e-05
-1.43587e-05
-3.85338e-05
-1.34846e-05
-3.39567e-05
2.72438e-06
-1.34218e-05
2.52431e-05
-3.06141e-06
3.32695e-05
-2.98493e-05
2.89793e-05
-5.27156e-05
3.09145e-05
-5.83162e-05
3.76736e-05
-6.04479e-05
4.49676e-05
-5.98008e-05
4.89325e-05
-5.63338e-05
5.38569e-05
-5.07851e-05
5.60473e-05
-4.39993e-05
5.63314e-05
-3.26407e-05
5.32353e-05
-2.31655e-05
4.1559e-05
-2.86891e-05
3.23557e-05
-4.43128e-05
-4.63021e-05
2.87802e-06
-2.38151e-05
4.15164e-06
-2.99119e-05
3.61479e-06
-3.35013e-05
1.01875e-06
-3.6848e-05
-3.14108e-06
-3.8936e-05
-7.69805e-06
-3.8795e-05
-9.7419e-06
-3.64895e-05
-1.12327e-05
-3.24656e-05
-1.12667e-07
-2.45417e-05
1.52367e-05
-1.84108e-05
2.0298e-05
-3.49104e-05
1.58183e-05
-4.82355e-05
1.0971e-05
-5.34683e-05
7.85263e-06
-5.7329e-05
6.5559e-06
-5.85038e-05
6.05146e-06
-5.58303e-05
6.14473e-06
-5.08812e-05
8.05421e-06
-4.59129e-05
1.49333e-05
-3.95238e-05
2.57867e-05
-3.40223e-05
2.97018e-05
-3.26066e-05
2.12186e-05
-3.58302e-05
-3.6608e-05
2.1344e-06
-2.59486e-05
3.62736e-06
-3.14043e-05
3.73774e-06
-3.36113e-05
2.06651e-06
-3.51764e-05
-9.94318e-07
-3.58747e-05
-4.33334e-06
-3.54554e-05
-6.58259e-06
-3.42396e-05
-7.11442e-06
-3.19332e-05
-1.94099e-06
-2.97148e-05
6.90084e-06
-2.72523e-05
7.9694e-06
-3.59788e-05
2.74119e-06
-4.30068e-05
-1.93392e-06
-4.87926e-05
-5.80283e-06
-5.34593e-05
-9.43619e-06
-5.48703e-05
-1.30948e-05
-5.21729e-05
-1.58742e-05
-4.81041e-05
-1.79158e-05
-4.38751e-05
-1.90764e-05
-3.83664e-05
-1.82315e-05
-3.48712e-05
-1.61328e-05
-3.47068e-05
-1.49332e-05
-3.70328e-05
-3.78004e-05
1.5411e-06
-2.74893e-05
2.48807e-06
-3.23508e-05
2.2555e-06
-3.33782e-05
8.56815e-07
-3.37772e-05
-1.25419e-06
-3.37631e-05
-3.24651e-06
-3.34624e-05
-4.66205e-06
-3.28233e-05
-4.71429e-06
-3.18802e-05
-2.93279e-06
-3.14957e-05
2.74934e-07
-3.04596e-05
-6.94125e-07
-3.50093e-05
-4.6692e-06
-3.90313e-05
-8.92284e-06
-4.45386e-05
-1.33903e-05
-4.89914e-05
-1.7876e-05
-5.03849e-05
-2.1504e-05
-4.85454e-05
-2.41288e-05
-4.54822e-05
-2.54885e-05
-4.25171e-05
-2.53184e-05
-3.85406e-05
-2.36695e-05
-3.65223e-05
-2.20312e-05
-3.63481e-05
-2.2088e-05
-3.6977e-05
-3.64647e-05
6.96161e-07
-2.81848e-05
6.1472e-07
-3.22687e-05
-2.34029e-07
-3.25289e-05
-1.24794e-06
-3.27628e-05
-2.1445e-06
-3.28659e-05
-2.92416e-06
-3.26821e-05
-3.44617e-06
-3.23007e-05
-3.27052e-06
-3.20553e-05
-2.66913e-06
-3.20965e-05
-1.53482e-06
-3.15934e-05
-2.85763e-06
-3.36861e-05
-5.91687e-06
-3.59718e-05
-1.04614e-05
-3.99936e-05
-1.55683e-05
-4.38844e-05
-2.02044e-05
-4.57486e-05
-2.33325e-05
-4.54179e-05
-2.52198e-05
-4.35951e-05
-2.57878e-05
-4.19521e-05
-2.5291e-05
-3.90379e-05
-2.44335e-05
-3.73829e-05
-2.37878e-05
-3.69949e-05
-2.38201e-05
-3.69459e-05
-3.58542e-05
2.63199e-08
-2.82108e-05
-4.69676e-07
-3.17723e-05
-1.12923e-06
-3.18688e-05
-1.77513e-06
-3.21164e-05
-2.32016e-06
-3.23203e-05
-2.65252e-06
-3.23492e-05
-2.65879e-06
-3.22939e-05
-2.44889e-06
-3.22647e-05
-2.23767e-06
-3.23073e-05
-1.80439e-06
-3.20263e-05
-2.484e-06
-3.30062e-05
-3.83005e-06
-3.46254e-05
-6.59743e-06
-3.7226e-05
-1.10111e-05
-3.94706e-05
-1.56506e-05
-4.11081e-05
-1.8942e-05
-4.21262e-05
-2.07055e-05
-2.16705e-05
-2.198e-05
-2.28999e-05
-2.40103e-05
-2.49704e-05
-2.16293e-07
-6.72094e-07
-1.08405e-06
-1.46329e-06
-1.85616e-06
-2.12466e-06
-2.25467e-06
-2.23944e-06
-2.25822e-06
-1.97688e-06
-2.15841e-06
-2.73696e-06
-4.32205e-06
-6.86502e-06
-9.69412e-06
)
;

boundaryField
{
    leftWall
    {
        type            fixedValue;
        value           uniform 0;
    }
    rightWall
    {
        type            fixedValue;
        value           nonuniform 0();
    }
    lowerWall
    {
        type            fixedValue;
        value           uniform 0;
    }
    atmosphere
    {
        type            calculated;
        value           nonuniform 0();
    }
    defaultFaces
    {
        type            empty;
        value           nonuniform 0();
    }
    procBoundary0to1
    {
        type            processor;
        value           nonuniform List<scalar> 
26
(
5.27983e-06
6.31184e-06
9.35504e-06
7.1251e-06
6.53606e-06
4.97927e-06
6.63642e-06
8.84889e-06
3.23636e-05
2.93081e-05
4.5449e-05
8.21959e-05
0.000102104
9.89799e-05
6.1991e-05
1.9748e-05
5.10446e-05
2.65054e-05
8.09535e-05
0.000100442
2.48275e-05
1.15283e-05
-1.37344e-05
-2.34206e-05
-2.44274e-05
-2.56852e-05
)
;
    }
    procBoundary0to2
    {
        type            processor;
        value           nonuniform List<scalar> 
24
(
-4.18322e-05
-4.09859e-05
-3.87304e-05
-3.64628e-05
-3.58858e-05
-3.59863e-05
-3.51371e-05
-2.79936e-05
-3.13159e-05
-3.14564e-05
-3.17367e-05
-3.1927e-05
-3.20802e-05
-3.21634e-05
-3.22795e-05
-3.22881e-05
-3.23073e-05
-3.28244e-05
-3.40466e-05
-3.56407e-05
-3.69269e-05
-3.82794e-05
-1.26663e-05
-3.91525e-05
)
;
    }
}


// ************************************************************************* //
