/*--------------------------------*- C++ -*----------------------------------*\
| =========                 |                                                 |
| \\      /  F ield         | OpenFOAM: The Open Source CFD Toolbox           |
|  \\    /   O peration     | Version:  2.4.0                                 |
|   \\  /    A nd           | Web:      www.OpenFOAM.org                      |
|    \\/     M anipulation  |                                                 |
\*---------------------------------------------------------------------------*/
FoamFile
{
    version     2.0;
    format      ascii;
    class       surfaceScalarField;
    location    "0.45";
    object      phi.water;
}
// * * * * * * * * * * * * * * * * * * * * * * * * * * * * * * * * * * * * * //

dimensions      [0 3 -1 0 0 0 0];

internalField   nonuniform List<scalar> 
1101
(
2.98583e-06
-2.98249e-06
6.07857e-06
-3.08968e-06
8.69152e-06
-2.61022e-06
1.24983e-05
-3.80304e-06
1.47793e-05
-2.27797e-06
1.78016e-05
-3.01857e-06
2.15252e-05
-3.71839e-06
2.4567e-05
-3.03677e-06
2.69895e-05
-2.41755e-06
2.90281e-05
-2.03272e-06
3.20894e-05
-3.05352e-06
3.53264e-05
-3.22838e-06
3.77595e-05
-2.42435e-06
3.91637e-05
-1.39602e-06
3.89952e-05
1.75159e-07
3.75121e-05
1.48883e-06
3.45216e-05
2.99572e-06
3.03695e-05
4.15692e-06
2.53388e-05
5.03473e-06
2.01287e-05
5.21314e-06
1.35578e-05
6.57259e-06
8.27838e-06
2.98769e-06
-5.95996e-06
6.08109e-06
-6.1742e-06
8.74487e-06
-5.26565e-06
1.23888e-05
-7.43839e-06
1.48125e-05
-4.69309e-06
1.79324e-05
-6.12991e-06
2.15332e-05
-7.3095e-06
2.44311e-05
-5.92541e-06
2.69931e-05
-4.97058e-06
2.94445e-05
-4.47314e-06
3.26634e-05
-6.24722e-06
3.55296e-05
-6.06748e-06
3.77428e-05
-4.60745e-06
3.88456e-05
-2.47565e-06
3.94344e-05
-3.98579e-07
3.79283e-05
3.00486e-06
3.54046e-05
5.53097e-06
3.10742e-05
8.49896e-06
2.63777e-05
9.74071e-06
2.03099e-05
1.12872e-05
1.38215e-05
1.30639e-05
1.57894e-05
2.99524e-06
-7.62395e-06
6.05011e-06
-7.70737e-06
8.8553e-06
-6.79433e-06
1.22108e-05
-7.96862e-06
1.49499e-05
-5.74076e-06
1.81401e-05
-6.32422e-06
2.13901e-05
-5.13516e-06
2.4098e-05
-3.5882e-06
2.70025e-05
-1.07122e-06
3.02144e-05
1.71426e-06
3.33416e-05
5.64216e-06
3.53184e-05
7.86667e-06
3.72705e-05
1.07993e-05
3.90882e-05
9.34305e-06
3.9751e-05
7.35558e-06
3.91788e-05
7.22014e-06
3.67282e-05
9.28649e-06
3.2681e-05
1.30257e-05
2.71999e-05
1.5556e-05
2.14381e-05
1.72394e-05
1.54888e-05
1.90476e-05
2.1935e-05
3.01366e-06
1.51196e-05
6.01547e-06
1.49586e-05
9.04784e-06
1.57977e-05
1.20187e-05
1.38826e-05
1.50905e-05
1.64061e-05
1.83312e-05
1.48711e-05
2.14353e-05
1.43571e-05
2.3958e-05
1.64267e-05
2.74281e-05
1.65153e-05
3.06161e-05
1.76038e-05
3.34615e-05
1.89949e-05
3.49301e-05
2.22511e-05
3.66774e-05
2.47931e-05
3.74954e-05
2.83596e-05
3.89383e-05
3.1215e-05
4.10896e-05
3.10807e-05
3.92164e-05
3.18593e-05
3.50935e-05
2.91913e-05
2.75639e-05
2.52259e-05
1.95826e-05
2.54861e-05
1.3001e-05
2.57143e-05
2.78664e-05
3.06796e-06
1.92805e-05
5.97675e-06
1.89754e-05
9.46391e-06
1.96894e-05
1.16764e-05
1.76e-05
1.55587e-05
1.93762e-05
1.89e-05
1.74629e-05
2.11684e-05
1.68378e-05
2.44265e-05
1.80179e-05
2.80132e-05
1.69658e-05
3.13282e-05
1.68424e-05
3.33392e-05
1.64963e-05
3.55691e-05
1.81102e-05
3.77732e-05
1.89945e-05
4.01049e-05
2.27958e-05
4.07132e-05
2.80568e-05
3.90569e-05
3.94182e-05
3.42554e-05
5.32265e-05
3.07948e-05
5.70265e-05
2.76837e-05
4.70968e-05
1.95041e-05
4.54301e-05
1.12577e-05
3.46319e-05
3.2756e-05
2.90085e-06
6.73216e-06
5.60491e-06
6.47963e-06
9.1452e-06
6.67959e-06
1.07319e-05
5.81645e-06
1.45424e-05
6.45857e-06
1.76435e-05
4.06022e-06
1.95696e-05
2.25675e-06
2.26135e-05
1.57079e-06
2.53455e-05
-4.73346e-07
2.78182e-05
-1.50358e-06
2.9695e-05
-3.03384e-06
3.21998e-05
-3.36646e-06
3.35598e-05
-3.69209e-06
3.53596e-05
-3.38622e-06
3.62033e-05
-8.90275e-07
3.6821e-05
7.89167e-06
3.2188e-05
2.60617e-05
2.42027e-05
4.90306e-05
2.06332e-05
6.78576e-05
1.34482e-05
6.91418e-05
1.12931e-05
4.98666e-05
3.94668e-05
2.17285e-06
-1.68743e-05
4.18704e-06
-1.7049e-05
6.72304e-06
-1.75555e-05
7.77198e-06
-1.70357e-05
9.73555e-06
-1.77699e-05
1.15371e-05
-1.92298e-05
1.24405e-05
-1.84005e-05
1.34946e-05
-1.82009e-05
1.4946e-05
-1.8925e-05
1.60828e-05
-1.78627e-05
1.68554e-05
-1.67566e-05
1.69198e-05
-1.46844e-05
1.64127e-05
-1.21353e-05
1.55896e-05
-9.2896e-06
1.58035e-05
-5.89411e-06
1.96671e-05
-2.77355e-06
2.41365e-05
7.92386e-06
1.74556e-05
3.27926e-05
1.19191e-05
5.70403e-05
1.19847e-05
6.93607e-05
9.62989e-06
6.83031e-05
4.67496e-05
4.67873e-07
-2.05426e-05
1.06153e-06
-2.06121e-05
1.41363e-06
-2.07012e-05
2.575e-06
-2.02582e-05
3.14562e-06
-2.02125e-05
4.23254e-06
-2.15206e-05
5.8757e-06
-2.06759e-05
8.21504e-06
-2.09089e-05
1.05709e-05
-2.14642e-05
1.29861e-05
-2.03619e-05
1.42851e-05
-1.80889e-05
1.55791e-05
-1.59913e-05
1.61905e-05
-1.27514e-05
1.63938e-05
-9.49452e-06
1.39233e-05
-3.42401e-06
1.14638e-05
-3.18223e-07
1.59879e-05
3.11184e-06
1.56181e-05
2.68235e-05
2.3319e-06
5.32333e-05
5.97191e-06
6.04102e-05
6.37069e-06
7.46844e-05
4.73707e-05
1.95667e-06
-2.25138e-05
4.06323e-06
-2.27318e-05
6.27091e-06
-2.29203e-05
8.53207e-06
-2.25278e-05
1.13962e-05
-2.3083e-05
1.49442e-05
-2.50724e-05
1.80498e-05
-2.37836e-05
2.2951e-05
-2.58112e-05
2.81694e-05
-2.66832e-05
3.25985e-05
-2.47913e-05
3.62028e-05
-2.16934e-05
3.97543e-05
-1.9543e-05
4.1998e-05
-1.49951e-05
4.40972e-05
-1.15937e-05
4.49376e-05
-4.26446e-06
4.261e-05
2.00941e-06
2.92119e-05
1.65096e-05
2.39934e-05
3.15896e-05
1.86298e-05
4.78286e-05
9.13434e-07
5.81832e-05
1.20224e-05
5.59725e-05
5.75237e-05
2.07996e-06
-2.45938e-05
4.31742e-06
-2.49693e-05
6.4e-06
-2.50028e-05
8.90867e-06
-2.50365e-05
1.11787e-05
-2.5353e-05
1.37386e-05
-2.76323e-05
1.67577e-05
-2.68026e-05
2.11613e-05
-3.02147e-05
2.53908e-05
-3.09126e-05
3.01156e-05
-2.95164e-05
3.48833e-05
-2.64624e-05
3.85044e-05
-2.31657e-05
3.93183e-05
-1.58099e-05
3.90229e-05
-1.12991e-05
3.89142e-05
-4.15618e-06
3.83681e-05
2.55532e-06
3.99395e-05
1.49391e-05
4.10505e-05
3.04793e-05
4.36701e-05
4.46192e-05
3.01512e-05
6.38477e-05
1.53952e-05
5.96265e-05
4.34391e-05
2.57811e-06
-2.71721e-05
5.08333e-06
-2.74747e-05
7.36213e-06
-2.72817e-05
9.68867e-06
-2.7363e-05
1.19565e-05
-2.76209e-05
1.38857e-05
-2.95616e-05
1.74929e-05
-3.04098e-05
2.29486e-05
-3.56713e-05
2.90897e-05
-3.70804e-05
3.71332e-05
-3.76771e-05
4.46855e-05
-3.41905e-05
5.08889e-05
-2.95594e-05
5.55249e-05
-2.05996e-05
5.95603e-05
-1.54808e-05
5.97977e-05
-4.47543e-06
5.69926e-05
5.33726e-06
5.41541e-05
1.77786e-05
5.71805e-05
2.74568e-05
6.17203e-05
4.00869e-05
7.3645e-05
5.15062e-05
6.36781e-05
6.34109e-05
4.81568e-05
2.72184e-06
-3.06202e-05
5.23846e-06
-3.06666e-05
7.21056e-06
-2.98109e-05
8.73663e-06
-2.92959e-05
1.01891e-05
-2.93108e-05
1.18151e-05
-3.12642e-05
1.48039e-05
-3.3405e-05
2.07862e-05
-4.17233e-05
2.9651e-05
-4.63274e-05
3.90695e-05
-4.84263e-05
4.63369e-05
-4.35207e-05
5.03956e-05
-3.58749e-05
5.34265e-05
-2.58454e-05
5.49987e-05
-1.93972e-05
5.72412e-05
-9.25332e-06
6.03684e-05
-2.2042e-07
6.50134e-05
1.16248e-05
6.94079e-05
2.22097e-05
7.6349e-05
3.27668e-05
9.23819e-05
3.52988e-05
0.000111633
4.31478e-05
3.70183e-05
2.85271e-06
-6.19348e-05
5.03249e-06
-6.09161e-05
6.25045e-06
-5.76126e-05
6.10834e-06
-5.30279e-05
5.4716e-06
-4.67604e-05
6.97294e-06
-4.11638e-05
1.02485e-05
-3.8711e-05
1.4993e-05
-4.78526e-05
2.51561e-05
-6.05432e-05
3.38968e-05
-6.4881e-05
3.89651e-05
-5.62989e-05
4.27933e-05
-4.72895e-05
4.75377e-05
-3.85693e-05
5.09487e-05
-3.15697e-05
5.59326e-05
-2.28545e-05
5.99066e-05
-1.22169e-05
6.46735e-05
-8.99819e-07
7.0945e-05
1.13624e-05
8.05209e-05
2.03559e-05
9.36405e-05
2.03886e-05
0.000111967
2.38325e-05
1.62939e-05
5.21739e-06
-0.000175394
9.53149e-06
-0.00017271
1.36698e-05
-0.000165464
1.62283e-05
-0.000153251
1.45162e-05
-0.000136135
5.73454e-06
-0.000113649
-6.93734e-06
-9.07538e-05
-1.07362e-05
-9.32982e-05
-1.20488e-05
-0.000114036
-8.49781e-06
-0.000104198
-5.70134e-06
-7.16845e-05
-5.77325e-06
-5.54139e-05
-7.42168e-06
-4.55154e-05
-6.31965e-06
-4.13136e-05
1.06124e-06
-3.84375e-05
1.47094e-05
-3.41422e-05
3.21356e-05
-2.56575e-05
4.79354e-05
-1.54693e-05
6.03251e-05
8.3744e-07
7.85174e-05
-6.08484e-06
9.41017e-05
3.05222e-06
-7.10054e-06
9.47626e-06
-0.000135919
1.52877e-05
-0.000126554
2.16183e-05
-0.00011807
2.58027e-05
-0.000104512
2.91698e-05
-0.000106597
2.64345e-05
-0.000121937
3.72993e-06
-0.000129526
-4.59126e-05
-0.000129971
-9.01635e-05
-0.000144948
-9.49955e-05
-0.000123709
-7.72436e-05
-9.7567e-05
-6.62991e-05
-8.06712e-05
-6.04997e-05
-6.55837e-05
-5.65026e-05
-5.33877e-05
-5.1483e-05
-4.2497e-05
-4.35473e-05
-3.35731e-05
-2.63906e-05
-2.86415e-05
1.20219e-06
-2.39651e-05
2.4117e-05
-1.66448e-05
4.43156e-05
-2.6147e-05
6.01406e-05
-2.5501e-05
-3.16587e-05
8.77362e-07
-5.40874e-05
6.24495e-06
-5.28289e-05
1.74141e-05
-5.29686e-05
3.83174e-05
-5.39303e-05
3.36505e-05
-6.46574e-05
3.26817e-05
-4.92242e-05
7.15252e-06
-5.27792e-05
-3.63509e-05
-5.40506e-05
-0.000101612
-2.6605e-05
-0.000100426
-5.48395e-05
-8.42224e-05
-5.51562e-05
-6.97003e-05
-7.14826e-05
-6.0922e-05
-5.72936e-05
-5.42034e-05
-4.49302e-05
-4.94433e-05
-5.78522e-05
-4.37596e-05
-6.40763e-05
-3.79027e-05
-5.38159e-05
-3.15102e-05
-5.00355e-05
-2.27471e-05
-4.03115e-05
-1.29803e-05
-4.11624e-05
-1.69466e-06
-4.08303e-05
-4.90184e-05
-1.60933e-05
-2.1434e-05
-2.80698e-05
-2.92952e-05
-3.55514e-05
-3.67338e-05
-3.81265e-05
-4.74656e-05
-3.94419e-05
-5.99126e-05
-4.09843e-05
-6.41014e-05
-8.83486e-06
-2.6481e-05
5.24809e-05
2.89367e-05
8.79171e-05
2.09389e-05
7.51004e-05
-2.68356e-05
5.55709e-05
-4.55919e-05
4.50924e-05
-4.92566e-05
2.4171e-05
-8.96339e-06
-1.46693e-05
8.90014e-06
-3.10007e-05
-1.619e-05
-2.75192e-05
-4.46098e-05
-1.87709e-05
-5.36994e-05
-1.25599e-05
-5.91526e-05
-8.12247e-06
-8.20058e-05
-7.8101e-06
-7.20687e-05
1.52492e-06
-9.0082e-05
1.52505e-05
-9.66198e-05
-8.51709e-05
-1.31378e-06
-2.41001e-05
-2.68048e-06
-3.02047e-05
-4.07425e-06
-3.66926e-05
-6.8416e-06
-4.48875e-05
-1.37936e-05
-5.30004e-05
-2.14751e-05
-5.62135e-05
-1.29548e-05
-3.38103e-05
2.66688e-05
-2.54347e-06
1.71623e-05
3.04363e-05
-1.96728e-05
1.10283e-05
-3.2574e-05
-3.24958e-05
-2.88182e-05
-5.48035e-05
3.66753e-06
-5.1968e-05
5.25147e-05
-4.96333e-05
9.38002e-05
-5.11957e-05
0.000117503
-5.03675e-05
0.00012276
-4.35077e-05
0.00013483
-4.91721e-05
0.000138291
-3.5439e-05
0.000135232
-1.59339e-05
0.000108862
-9.06955e-06
9.24679e-05
-3.74941e-05
-4.67608e-05
-1.14425e-06
-2.23388e-05
-1.96144e-06
-2.91654e-05
-3.23739e-06
-3.53754e-05
-6.0821e-06
-4.20987e-05
-1.1749e-05
-4.73667e-05
-1.94807e-05
-4.84934e-05
-1.43903e-05
-3.89042e-05
1.63328e-05
-3.30982e-05
4.3671e-05
2.72096e-06
3.53088e-05
1.93537e-05
2.45074e-05
-2.18682e-05
2.67399e-05
-5.70338e-05
3.11952e-05
-5.63829e-05
3.52924e-05
-5.3689e-05
3.66284e-05
-5.25075e-05
3.86362e-05
-5.23681e-05
4.09877e-05
-4.58589e-05
3.36182e-05
-4.18052e-05
3.05301e-05
-3.23534e-05
4.08555e-05
-2.62596e-05
7.25455e-05
-4.03662e-05
9.04976e-05
-5.35116e-05
-5.38417e-05
-9.87565e-07
-2.05847e-05
-1.18526e-06
-2.85194e-05
-2.18426e-06
-3.39855e-05
-4.61722e-06
-3.94307e-05
-8.85627e-06
-4.30951e-05
-1.39939e-05
-4.33527e-05
-1.43614e-05
-3.85316e-05
-1.34739e-05
-3.39433e-05
2.91766e-06
-1.33282e-05
2.51578e-05
-2.94123e-06
3.32635e-05
-2.98998e-05
2.89846e-05
-5.27629e-05
3.09141e-05
-5.8324e-05
3.76732e-05
-6.04498e-05
4.49675e-05
-5.98012e-05
4.89324e-05
-5.63339e-05
5.38569e-05
-5.07851e-05
5.60473e-05
-4.39992e-05
5.63314e-05
-3.26406e-05
5.32353e-05
-2.31654e-05
4.1559e-05
-2.8689e-05
3.23558e-05
-4.43128e-05
-4.63021e-05
2.86652e-06
-2.38953e-05
4.15061e-06
-2.99417e-05
3.61548e-06
-3.35086e-05
1.01888e-06
-3.68502e-05
-3.14099e-06
-3.89376e-05
-7.6979e-06
-3.87962e-05
-9.74187e-06
-3.64902e-05
-1.12328e-05
-3.24661e-05
-9.16447e-08
-2.45416e-05
1.52306e-05
-1.83982e-05
2.02977e-05
-3.49085e-05
1.58184e-05
-4.82356e-05
1.0971e-05
-5.34684e-05
7.85263e-06
-5.7329e-05
6.5559e-06
-5.85038e-05
6.05146e-06
-5.58303e-05
6.14473e-06
-5.08812e-05
8.05421e-06
-4.59129e-05
1.49333e-05
-3.95238e-05
2.57867e-05
-3.40223e-05
2.97018e-05
-3.26066e-05
2.12187e-05
-3.58302e-05
-3.6608e-05
2.13353e-06
-2.59496e-05
3.62714e-06
-3.14053e-05
3.73776e-06
-3.36115e-05
2.06651e-06
-3.51766e-05
-9.94336e-07
-3.58748e-05
-4.33337e-06
-3.54556e-05
-6.58259e-06
-3.42399e-05
-7.11443e-06
-3.19334e-05
-1.94095e-06
-2.97149e-05
6.90078e-06
-2.72524e-05
7.96941e-06
-3.59789e-05
2.7412e-06
-4.30069e-05
-1.9339e-06
-4.87927e-05
-5.80282e-06
-5.34593e-05
-9.43619e-06
-5.48703e-05
-1.30948e-05
-5.21729e-05
-1.58742e-05
-4.81041e-05
-1.79158e-05
-4.38751e-05
-1.90764e-05
-3.83664e-05
-1.82315e-05
-3.48712e-05
-1.61328e-05
-3.47068e-05
-1.49332e-05
-3.70328e-05
-3.78004e-05
1.54112e-06
-2.74895e-05
2.48805e-06
-3.2351e-05
2.2555e-06
-3.33783e-05
8.56819e-07
-3.37773e-05
-1.2542e-06
-3.37631e-05
-3.24652e-06
-3.34624e-05
-4.66206e-06
-3.28234e-05
-4.71429e-06
-3.18803e-05
-2.93279e-06
-3.14958e-05
2.74922e-07
-3.04596e-05
-6.94115e-07
-3.50094e-05
-4.66919e-06
-3.90314e-05
-8.92283e-06
-4.45386e-05
-1.33903e-05
-4.89914e-05
-1.7876e-05
-5.03849e-05
-2.1504e-05
-4.85454e-05
-2.41288e-05
-4.54822e-05
-2.54885e-05
-4.25171e-05
-2.53184e-05
-3.85406e-05
-2.36695e-05
-3.65223e-05
-2.20312e-05
-3.63481e-05
-2.2088e-05
-3.6977e-05
-3.64647e-05
6.96162e-07
-2.81848e-05
6.14723e-07
-3.22688e-05
-2.34026e-07
-3.25289e-05
-1.24794e-06
-3.27628e-05
-2.1445e-06
-3.28659e-05
-2.92416e-06
-3.26821e-05
-3.44617e-06
-3.23007e-05
-3.27052e-06
-3.20553e-05
-2.66913e-06
-3.20965e-05
-1.53482e-06
-3.15935e-05
-2.85763e-06
-3.36861e-05
-5.91687e-06
-3.59718e-05
-1.04614e-05
-3.99937e-05
-1.55683e-05
-4.38844e-05
-2.02044e-05
-4.57486e-05
-2.33325e-05
-4.54179e-05
-2.52198e-05
-4.35951e-05
-2.57878e-05
-4.19521e-05
-2.5291e-05
-3.90379e-05
-2.44335e-05
-3.73829e-05
-2.37878e-05
-3.69949e-05
-2.38201e-05
-3.69459e-05
-3.58542e-05
2.63193e-08
-2.82108e-05
-4.69675e-07
-3.17723e-05
-1.12923e-06
-3.18688e-05
-1.77513e-06
-3.21164e-05
-2.32016e-06
-3.23203e-05
-2.65252e-06
-3.23492e-05
-2.65879e-06
-3.22939e-05
-2.44889e-06
-3.22647e-05
-2.23767e-06
-3.23073e-05
-1.80439e-06
-3.20263e-05
-2.484e-06
-3.30062e-05
-3.83005e-06
-3.46255e-05
-6.59743e-06
-3.7226e-05
-1.10111e-05
-3.94706e-05
-1.56506e-05
-4.11081e-05
-1.8942e-05
-4.21262e-05
-2.07055e-05
-2.16705e-05
-2.198e-05
-2.28999e-05
-2.40103e-05
-2.49704e-05
-2.16293e-07
-6.72094e-07
-1.08405e-06
-1.46329e-06
-1.85616e-06
-2.12466e-06
-2.25467e-06
-2.23944e-06
-2.25822e-06
-1.97688e-06
-2.15841e-06
-2.73696e-06
-4.32205e-06
-6.86502e-06
-9.69412e-06
)
;

boundaryField
{
    leftWall
    {
        type            fixedValue;
        value           uniform 0;
    }
    rightWall
    {
        type            fixedValue;
        value           nonuniform 0();
    }
    lowerWall
    {
        type            fixedValue;
        value           uniform 0;
    }
    atmosphere
    {
        type            calculated;
        value           nonuniform 0();
    }
    defaultFaces
    {
        type            empty;
        value           nonuniform 0();
    }
    procBoundary0to1
    {
        type            processor;
        value           nonuniform List<scalar> 
26
(
5.27995e-06
6.31196e-06
9.35514e-06
7.12558e-06
6.53584e-06
4.98085e-06
6.61791e-06
8.83688e-06
2.98038e-05
2.10927e-05
4.8644e-05
0.000119019
0.000131748
0.000111714
7.07835e-05
1.63906e-05
5.35043e-05
2.74538e-05
8.09429e-05
0.000100442
2.48275e-05
1.15283e-05
-1.37344e-05
-2.34206e-05
-2.44274e-05
-2.56852e-05
)
;
    }
    procBoundary0to2
    {
        type            processor;
        value           nonuniform List<scalar> 
24
(
-4.18322e-05
-4.09859e-05
-3.87304e-05
-3.64628e-05
-3.58858e-05
-3.59863e-05
-3.51371e-05
-2.79936e-05
-3.13159e-05
-3.14564e-05
-3.17367e-05
-3.1927e-05
-3.20802e-05
-3.21634e-05
-3.22795e-05
-3.22881e-05
-3.23074e-05
-3.28244e-05
-3.40466e-05
-3.56408e-05
-3.69269e-05
-3.82794e-05
-1.26663e-05
-3.91525e-05
)
;
    }
}


// ************************************************************************* //
