/*--------------------------------*- C++ -*----------------------------------*\
| =========                 |                                                 |
| \\      /  F ield         | OpenFOAM: The Open Source CFD Toolbox           |
|  \\    /   O peration     | Version:  2.4.0                                 |
|   \\  /    A nd           | Web:      www.OpenFOAM.org                      |
|    \\/     M anipulation  |                                                 |
\*---------------------------------------------------------------------------*/
FoamFile
{
    version     2.0;
    format      ascii;
    class       volScalarField;
    location    "0.45";
    object      rho;
}
// * * * * * * * * * * * * * * * * * * * * * * * * * * * * * * * * * * * * * //

dimensions      [1 -3 0 0 0 0 0];

internalField   nonuniform List<scalar> 
575
(
13529
13529
13529
13529
13529
13529
13529
13529
13529
13529
13529
13529
13529
13529
13529
13529
13529
13529
13529
13529
13529
13529
13529
13529
13529
13529
13529
13529
13529
13529
13529
13529
13529
13529
13529
13529
13529
13529
13529
13529
13529
13529
13529
13529
13529
13529
13529
13529
13529
13529
13529
13529
13529
13529
13529
13529
13529
13529
13529
13529
13529
13529
13529
13529
13529
13529
13528.8
13528.8
13528.8
13528.5
13528.7
13528.5
13527.9
13528
13527.4
13526.4
13523.8
13523.1
13521.7
13523.6
13526.2
13528.2
13528.8
13528.9
13529
13529
13529
13529
13438.8
13430.6
13436.1
13384.9
13410.1
13359.3
13276.4
13258
13169.6
13049.2
12848.5
12741.7
12591.7
12652.1
12812.7
13237.1
13472
13523
13528.4
13528.9
13529
13529
10388.5
10267
10267.7
9710.68
9799.9
9244.02
8480.87
8085.23
7374.55
6589.04
5633.42
4961.97
4386.73
4111.7
3931.68
4557.45
6762.86
10923.6
13237.5
13518.8
13528.8
13529
2009.75
1944.73
1910.47
1688.02
1657.12
1471
1288.08
1197.09
1111.15
1052.7
1020.93
1007.99
1003.2
1001.46
1000.69
1005.63
1205.02
3099.85
10104.2
13280
13524.4
13528.9
1003.78
1003.51
1003.13
1002.53
1002.09
1001.51
1001.09
1000.78
1000.55
1000.39
1000.28
1000.2
1000.15
1000.13
1000.13
1000.13
1000.44
1066.62
3927.33
11953.1
13481.9
13528.3
1000.59
1000.56
1000.52
1000.48
1000.42
1000.35
1000.3
1000.25
1000.21
1000.18
1000.17
1000.15
1000.15
1000.13
1000.15
1000.17
1000.15
1002.32
1296.61
5416.57
12198.7
13424.6
1000.02
1000.02
1000.02
1000.02
1000.02
1000.02
1000.02
1000.02
1000.02
1000.02
1000.02
1000.02
1000.02
1000.02
1000.02
1000.02
1000.05
999.976
1003.64
1351.79
5511.82
10919.1
1000
1000
1000
1000
1000
1000
1000
1000
999.997
999.948
999.877
999.855
999.891
999.884
999.924
999.968
999.988
999.966
999.822
1010.05
1496.87
3533.74
999.927
999.933
999.949
999.968
999.985
999.997
999.999
999.917
998.487
993.12
988.76
987.815
989.197
988.867
991.383
995.382
997.694
998.893
999.526
999.589
1012.87
1152.85
974.378
975.898
979.667
984.628
990.603
996.601
999.379
995.28
961.569
901.116
870.328
860.737
858.768
848.457
851.769
872.598
908.12
942.794
969.832
983.934
994.881
1017.15
426.517
437.457
466.198
516.53
609.994
773.816
923.218
920.646
791.628
663.373
628.737
610.193
592.677
570.006
558.582
555.321
581.514
639.473
722.581
778.088
837.883
883.268
1.19986
1.2327
1.35231
1.72469
3.20664
15.0423
132.394
293.941
256.783
309.978
410.499
464.595
486.177
493.574
496.916
498.638
498.97
500.474
510.632
511.148
539.5
571.316
1.00032
1.00015
1.0001
1.00007
1.0006
1.00848
1.0852
2.13498
1.81925
8.61396
36.393
95.5002
174.808
247.017
309.166
373.098
423.107
456.783
478.283
475.703
482.975
483.862
1.00011
1.00006
1.00006
1.00015
1.00097
1.00158
1.00051
1.0005
1.00113
1.00108
1.00086
1.00139
1.00651
1.06336
1.67686
6.25514
22.1053
54.9315
104.446
115.64
184.738
175.538
207.382
1.00006
1.00003
1.00004
1.00018
1.00046
1.00021
1.00001
1.00002
1.00008
1.0001
1.00004
1.00001
1.00001
1.00001
1.00003
1.00006
1.00009
1.00008
1.00017
1.0018
1.00837
1.03629
1.10808
1.00005
1.00003
1.00003
1.00002
1.00001
1
1
1.00001
1.00008
1.00012
1.00005
1.00001
1.00001
1.00004
1.00015
1.0002
1.00015
1.00007
1.00004
1.00004
1.00004
1.00004
1.00008
1.00004
1.00002
1.00001
1
1
1
1
1.00001
1.00005
1.00012
1.00005
1.00002
1.00004
1.00023
1.00034
1.00037
1.00036
1.00027
1.00005
1.00004
1.00006
1.0001
1.00006
1.00001
1
0.999999
0.999999
0.999999
0.999999
0.999999
1
1
1.00002
1
1.00001
1.00013
1.00037
1.00037
1.00032
1.00025
1.00013
1.00004
1.00004
1.00007
1.00008
1.00005
1
0.999999
0.999999
0.999999
0.999999
0.999999
0.999999
1
1
1
1
1.00001
1.00018
1.00037
1.00022
1.00004
1.00002
1.00003
1.00002
1.00004
1.00006
1.00005
1.00002
0.999999
0.999999
0.999999
0.999999
0.999999
0.999999
1
1
1
1
1
1.00001
1.00006
1.00011
1.00005
1.00003
1.00003
1.00002
1.00002
1.00003
1.00003
1.00002
1.00001
0.999999
0.999999
0.999999
0.999999
0.999999
0.999999
1
1
1
1
1
1.00001
1.00001
1.00002
1.00006
1.00006
1.00005
1.00004
1.00002
1.00001
1.00001
1
1
0.999999
0.999999
0.999999
0.999999
0.999999
1
1
1
1
1
1
1
1.00001
1.00003
1.00006
1.00007
1.00006
1.00004
1.00003
1.00001
1
1
1
0.999999
0.999999
0.999999
0.999999
1
1
1
1
1
1
1
1
1.00001
1.00003
1.00006
1.00007
)
;

boundaryField
{
    leftWall
    {
        type            calculated;
        value           nonuniform List<scalar> 
26
(
13529
13529
13529
13528.8
13438.8
10388.5
2009.75
1003.78
1000.59
1000.02
1000
999.927
974.378
426.517
1.19986
1.00032
1.00011
1.00006
1.00005
1.00004
1.00001
1
0.999999
0.999999
0.999999
0.999999
)
;
    }
    rightWall
    {
        type            calculated;
        value           nonuniform 0();
    }
    lowerWall
    {
        type            calculated;
        value           nonuniform List<scalar> 
22
(
13529
13529
13529
13529
13529
13529
13529
13529
13529
13529
13529
13529
13529
13529
13529
13529
13529
13529
13529
13529
13529
13529
)
;
    }
    atmosphere
    {
        type            calculated;
        value           nonuniform 0();
    }
    defaultFaces
    {
        type            empty;
    }
    procBoundary0to1
    {
        type            processor;
        value           nonuniform List<scalar> 
26
(
13528.8
13528.7
13528.7
13528.7
13528.7
13528.6
13528.6
13528.5
13523.7
12996.1
7434.06
1712.94
1031.77
913.339
622.937
486.045
486.045
201.959
1.10924
1.00007
1.00006
1.00002
1.00001
1
1
1
)
;
    }
    procBoundary0to2
    {
        type            processor;
        value           nonuniform List<scalar> 
24
(
1.00006
1.00004
1.00003
1.00001
1.00001
1
1
0.999999
0.999999
0.999999
1
1
1
1
1
1
1
1
1
1.00001
1.00002
1.00004
1.00006
1.00005
)
;
    }
}


// ************************************************************************* //
