/*--------------------------------*- C++ -*----------------------------------*\
| =========                 |                                                 |
| \\      /  F ield         | OpenFOAM: The Open Source CFD Toolbox           |
|  \\    /   O peration     | Version:  2.4.0                                 |
|   \\  /    A nd           | Web:      www.OpenFOAM.org                      |
|    \\/     M anipulation  |                                                 |
\*---------------------------------------------------------------------------*/
FoamFile
{
    version     2.0;
    format      ascii;
    class       volVectorField;
    location    "0.45";
    object      U.air;
}
// * * * * * * * * * * * * * * * * * * * * * * * * * * * * * * * * * * * * * //

dimensions      [0 1 -1 0 0 0 0];

internalField   nonuniform List<vector> 
575
(
(0.0176477 -0.00805293 0)
(0.0503185 -0.00830135 0)
(0.0871813 -0.00714656 0)
(0.115841 -0.0100716 0)
(0.162559 -0.00637108 0)
(0.181727 -0.0082612 0)
(0.221138 -0.00964762 0)
(0.266996 -0.00874705 0)
(0.297842 -0.00584495 0)
(0.315412 -0.00600742 0)
(0.343683 -0.00824784 0)
(0.387992 -0.00856015 0)
(0.413009 -0.00556255 0)
(0.441234 -0.00420335 0)
(0.446362 -0.00118631 0)
(0.438125 0.00149177 0)
(0.415633 0.00820161 0)
(0.374515 0.00573622 0)
(0.328906 0.0143353 0)
(0.265011 0.00885077 0)
(0.209808 0.0237839 0)
(0.10647 0.0227307 0)
(0.0176973 -0.0242072 0)
(0.0501672 -0.0251598 0)
(0.0880321 -0.0210037 0)
(0.115377 -0.0314207 0)
(0.161561 -0.0178238 0)
(0.182779 -0.0248558 0)
(0.223068 -0.0309053 0)
(0.265846 -0.0242315 0)
(0.295957 -0.0200573 0)
(0.316788 -0.0162806 0)
(0.352752 -0.025077 0)
(0.390457 -0.0270149 0)
(0.415986 -0.0210042 0)
(0.436025 -0.0108309 0)
(0.446293 0.00440157 0)
(0.44132 0.0175257 0)
(0.420073 0.0269623 0)
(0.387265 0.0414081 0)
(0.332137 0.0422584 0)
(0.285742 0.0476907 0)
(0.193428 0.0481678 0)
(0.128208 0.0653581 0)
(0.0176964 -0.0407024 0)
(0.0501444 -0.0420879 0)
(0.0883451 -0.0363078 0)
(0.115921 -0.0498341 0)
(0.15874 -0.033004 0)
(0.187487 -0.0422302 0)
(0.223382 -0.0485163 0)
(0.263241 -0.0402111 0)
(0.290688 -0.033772 0)
(0.321708 -0.0323924 0)
(0.366316 -0.0436501 0)
(0.392029 -0.0391638 0)
(0.410709 -0.0307193 0)
(0.433475 -0.0211246 0)
(0.447758 -0.012412 0)
(0.451936 0.0079078 0)
(0.435802 0.0265675 0)
(0.406187 0.0469007 0)
(0.344382 0.0633355 0)
(0.294908 0.0749063 0)
(0.209371 0.0897919 0)
(0.149408 0.104788 0)
(0.0177096 -0.0550586 0)
(0.0501819 -0.0564495 0)
(0.0883465 -0.0501394 0)
(0.116941 -0.0647046 0)
(0.156713 -0.0463244 0)
(0.189863 -0.0567228 0)
(0.224162 -0.0627834 0)
(0.262572 -0.0514616 0)
(0.285409 -0.0486508 0)
(0.333452 -0.0486037 0)
(0.369095 -0.0519512 0)
(0.386082 -0.0413111 0)
(0.410304 -0.0306142 0)
(0.430504 -0.0139336 0)
(0.442908 0.0084755 0)
(0.46688 0.0415043 0)
(0.46594 0.0691602 0)
(0.43441 0.0927526 0)
(0.372388 0.0967349 0)
(0.28101 0.106684 0)
(0.179534 0.114392 0)
(0.122334 0.13292 0)
(0.0178526 -0.0652481 0)
(0.049741 -0.0671408 0)
(0.0889687 -0.0611469 0)
(0.118095 -0.0771823 0)
(0.152564 -0.0598433 0)
(0.194762 -0.0738044 0)
(0.223412 -0.0834156 0)
(0.254697 -0.0706477 0)
(0.293131 -0.0805644 0)
(0.337904 -0.0836157 0)
(0.362072 -0.0952596 0)
(0.389499 -0.0841016 0)
(0.417595 -0.08763 0)
(0.442642 -0.0698528 0)
(0.462558 -0.0559525 0)
(0.481832 -0.025858 0)
(0.473139 0.02864 0)
(0.448182 0.101468 0)
(0.368231 0.158735 0)
(0.297573 0.166676 0)
(0.165295 0.164863 0)
(0.0936089 0.156597 0)
(0.0173273 -0.152112 0)
(0.0479697 -0.154026 0)
(0.0857966 -0.150093 0)
(0.117673 -0.161914 0)
(0.140426 -0.151823 0)
(0.189707 -0.162332 0)
(0.210859 -0.169736 0)
(0.241581 -0.169706 0)
(0.277451 -0.175489 0)
(0.31087 -0.177593 0)
(0.330844 -0.176696 0)
(0.362186 -0.173851 0)
(0.388514 -0.169472 0)
(0.398858 -0.158024 0)
(0.428605 -0.13129 0)
(0.43525 -0.0899177 0)
(0.45125 -0.0161186 0)
(0.434154 0.0763826 0)
(0.349309 0.156318 0)
(0.288262 0.198187 0)
(0.18685 0.20363 0)
(0.0783972 0.202622 0)
(0.013194 -0.173352 0)
(0.0385145 -0.171877 0)
(0.0646438 -0.172499 0)
(0.0929401 -0.160479 0)
(0.101473 -0.163599 0)
(0.126869 -0.148736 0)
(0.149998 -0.114709 0)
(0.159985 -0.0919829 0)
(0.168111 -0.0708318 0)
(0.187367 -0.0438186 0)
(0.197945 -0.0307753 0)
(0.199153 -0.0178022 0)
(0.195624 -0.0153289 0)
(0.188432 -0.0205494 0)
(0.179096 -0.0273988 0)
(0.189751 0.0180693 0)
(0.289616 0.0970916 0)
(0.346713 0.111618 0)
(0.284306 0.171994 0)
(0.244373 0.221412 0)
(0.194837 0.244288 0)
(0.0985714 0.214671 0)
(0.00200606 -0.143016 0)
(0.0106475 -0.144791 0)
(0.0119999 -0.146055 0)
(0.0258059 -0.149186 0)
(0.0307123 -0.150095 0)
(0.0428812 -0.162982 0)
(0.0588289 -0.165448 0)
(0.0763568 -0.167566 0)
(0.108919 -0.171182 0)
(0.135355 -0.165465 0)
(0.157059 -0.150136 0)
(0.170613 -0.134323 0)
(0.181496 -0.112309 0)
(0.18918 -0.0874216 0)
(0.180499 -0.0519725 0)
(0.138845 -0.0470746 0)
(0.134924 -0.0841717 0)
(0.241552 0.0646475 0)
(0.173503 0.173259 0)
(0.152206 0.213117 0)
(0.159606 0.270596 0)
(0.134436 0.262125 0)
(0.0051726 -0.154366 0)
(0.0162603 -0.152606 0)
(0.0269093 -0.150992 0)
(0.0409778 -0.138719 0)
(0.0516299 -0.135532 0)
(0.0710674 -0.131246 0)
(0.0899171 -0.108039 0)
(0.105639 -0.101664 0)
(0.138997 -0.0954855 0)
(0.162502 -0.0772621 0)
(0.184012 -0.0555057 0)
(0.203985 -0.0401516 0)
(0.218558 -0.0175805 0)
(0.230721 -0.00364189 0)
(0.240279 0.0380935 0)
(0.239863 0.089406 0)
(0.209954 0.210139 0)
(0.131799 0.222943 0)
(0.158768 0.229281 0)
(0.0974528 0.218094 0)
(0.0931764 0.239484 0)
(0.148213 0.247723 0)
(0.0055928 -0.0954816 0)
(0.0171161 -0.0979998 0)
(0.0287025 -0.0994559 0)
(0.0409451 -0.100632 0)
(0.0545323 -0.104017 0)
(0.0656429 -0.120072 0)
(0.0839366 -0.115763 0)
(0.0967592 -0.135501 0)
(0.128054 -0.147951 0)
(0.147341 -0.147655 0)
(0.169806 -0.141185 0)
(0.202585 -0.137376 0)
(0.208867 -0.114954 0)
(0.218031 -0.095587 0)
(0.208046 -0.0686442 0)
(0.204938 -0.0583051 0)
(0.219346 -0.00522749 0)
(0.202409 0.124588 0)
(0.262493 0.203932 0)
(0.184979 0.260475 0)
(0.120029 0.197024 0)
(0.133127 0.148971 0)
(0.00694995 -0.137799 0)
(0.0206018 -0.140632 0)
(0.0338115 -0.143243 0)
(0.0451336 -0.147404 0)
(0.0600481 -0.15246 0)
(0.0671049 -0.166038 0)
(0.0858832 -0.167315 0)
(0.103238 -0.189608 0)
(0.142242 -0.191896 0)
(0.172235 -0.187917 0)
(0.221025 -0.167835 0)
(0.258534 -0.13702 0)
(0.282966 -0.0804316 0)
(0.315716 -0.0499556 0)
(0.311664 0.00891273 0)
(0.334467 0.0763483 0)
(0.29398 0.145558 0)
(0.300313 0.187499 0)
(0.313456 0.243429 0)
(0.378565 0.302163 0)
(0.31921 0.264564 0)
(0.268348 0.138218 0)
(0.00716609 0.0188038 0)
(0.0208238 0.0145461 0)
(0.0330177 0.0095474 0)
(0.0412727 -3.76576e-05 0)
(0.0519307 -0.0145445 0)
(0.0564385 -0.0475238 0)
(0.0737583 -0.118762 0)
(0.0900074 -0.164851 0)
(0.135123 -0.159836 0)
(0.177726 -0.161869 0)
(0.233509 -0.180429 0)
(0.256077 -0.165282 0)
(0.284638 -0.117005 0)
(0.293835 -0.0901972 0)
(0.297927 -0.0408142 0)
(0.324127 -0.00518281 0)
(0.32898 0.0617571 0)
(0.376445 0.118885 0)
(0.380082 0.201932 0)
(0.464228 0.221857 0)
(0.520394 0.293273 0)
(0.575361 0.212789 0)
(0.00566887 0.188371 0)
(0.0114096 0.191664 0)
(0.0124373 0.202723 0)
(-0.0011237 0.215761 0)
(-0.0308094 0.219967 0)
(-0.0550848 0.174097 0)
(-0.00723555 0.0577365 0)
(0.0554201 -0.0193622 0)
(0.125448 -0.0173596 0)
(0.170728 0.0204263 0)
(0.20443 -0.0213141 0)
(0.218873 -0.0386815 0)
(0.241752 -0.0424396 0)
(0.264856 -0.0506763 0)
(0.274038 -0.0201129 0)
(0.324194 0.0346932 0)
(0.328125 0.0697103 0)
(0.374518 0.119586 0)
(0.400547 0.146969 0)
(0.475663 0.159918 0)
(0.537445 0.166325 0)
(0.643728 0.124439 0)
(0.0158775 -0.0271232 0)
(0.0339375 -0.0231837 0)
(0.0559042 -0.0112809 0)
(0.068575 0.00322523 0)
(0.0597456 0.0242637 0)
(0.0239109 0.0696124 0)
(-0.0459756 0.167967 0)
(-0.0728617 0.158087 0)
(-0.0731199 0.175332 0)
(-0.110801 0.154916 0)
(-0.108135 0.169607 0)
(-0.132497 0.170494 0)
(-0.10121 0.123453 0)
(-0.0917861 0.0909485 0)
(-0.0515248 0.0580129 0)
(0.0127466 0.045444 0)
(0.0964583 0.0685453 0)
(0.219684 0.0981908 0)
(0.289371 0.13723 0)
(0.366104 0.135424 0)
(0.479768 0.145992 0)
(0.547733 0.0830623 0)
(0.00786515 0.907328 0)
(0.0137197 0.927938 0)
(0.0139153 0.932017 0)
(0.0145748 0.941222 0)
(-0.0253453 0.929862 0)
(-0.0605914 0.648759 0)
(0.0460936 -0.0656925 0)
(-0.0989158 -0.211792 0)
(-0.457951 -0.105556 0)
(-0.558265 -0.0538153 0)
(-0.478337 0.0135004 0)
(-0.421291 0.133185 0)
(-0.400481 0.233229 0)
(-0.387713 0.2561 0)
(-0.379953 0.244807 0)
(-0.355981 0.226151 0)
(-0.296978 0.199115 0)
(-0.199877 0.201077 0)
(-0.00438539 0.243433 0)
(0.115413 0.231127 0)
(0.296156 0.250895 0)
(0.346878 0.200244 0)
(-0.0011986 -0.906945 0)
(0.0151322 -0.903865 0)
(0.0615594 -0.886722 0)
(0.159855 -0.845648 0)
(0.304682 -0.800052 0)
(0.486492 -0.613339 0)
(0.687437 0.391063 0)
(0.269326 1.28998 0)
(-0.369777 1.03473 0)
(-0.445659 0.217673 0)
(-0.452198 -0.0790645 0)
(-0.386579 -0.232063 0)
(-0.377761 -0.249342 0)
(-0.346969 -0.147428 0)
(-0.324048 -0.0651779 0)
(-0.28532 0.0193918 0)
(-0.256158 0.104874 0)
(-0.200905 0.175229 0)
(-0.163634 0.240074 0)
(-0.137641 0.210994 0)
(-0.0461134 0.241382 0)
(0.0314516 0.194249 0)
(-0.0493045 0.129879 0)
(-0.127407 0.109033 0)
(-0.177715 0.0602343 0)
(-0.198529 -0.0314681 0)
(-0.200726 -0.198649 0)
(-0.264334 -0.364506 0)
(-0.169444 -0.282216 0)
(0.120648 0.0494864 0)
(0.402855 -0.241735 0)
(0.49506 -0.395662 0)
(0.343341 -0.319605 0)
(0.261282 -0.0710167 0)
(0.22454 0.480367 0)
(0.0360811 0.837591 0)
(-0.125307 0.829216 0)
(-0.165258 0.608569 0)
(-0.141537 0.288684 0)
(-0.0853257 0.0206052 0)
(-0.0377707 -0.0824485 0)
(-0.0328273 -0.151592 0)
(-0.0766722 -0.165747 0)
(0.00622258 -0.174054 0)
(0.108167 -0.189168 0)
(-0.0057045 -0.203465 0)
(-0.0126554 -0.238596 0)
(-0.0190603 -0.256677 0)
(-0.0268133 -0.268165 0)
(-0.0497321 -0.253822 0)
(-0.123191 -0.219232 0)
(-0.0924154 -0.0104011 0)
(0.000202271 0.26634 0)
(0.227162 0.384155 0)
(-0.0471335 0.0111738 0)
(-0.173643 -0.290825 0)
(-0.18245 -0.473501 0)
(-0.0881966 -0.617872 0)
(0.143487 -0.720442 0)
(0.39453 -0.751066 0)
(0.565387 -0.643832 0)
(0.674071 -0.40446 0)
(0.639589 -0.154242 0)
(0.805411 0.127844 0)
(0.735315 0.34376 0)
(0.641727 0.65657 0)
(0.558938 0.616284 0)
(0.470989 0.581139 0)
(-0.00342485 -0.162726 0)
(-0.00798252 -0.203002 0)
(-0.0129538 -0.248468 0)
(-0.0229177 -0.298282 0)
(-0.0472167 -0.340732 0)
(-0.0937486 -0.361185 0)
(-0.0959557 -0.311106 0)
(-0.0405935 -0.284815 0)
(0.206714 0.00918076 0)
(0.230533 0.147558 0)
(0.136346 -0.0182632 0)
(0.144249 -0.18447 0)
(0.150594 -0.0876858 0)
(0.176037 -0.0205466 0)
(0.194875 -0.0295821 0)
(0.20344 -0.110115 0)
(0.221944 -0.207549 0)
(0.190539 -0.345721 0)
(0.150513 -0.420169 0)
(0.189036 -0.477441 0)
(0.301363 -0.677598 0)
(0.441738 -0.760505 0)
(0.523571 -0.753051 0)
(-0.00433452 -0.0477909 0)
(-0.00554432 -0.096197 0)
(-0.00730975 -0.134098 0)
(-0.0159359 -0.17198 0)
(-0.0346545 -0.199116 0)
(-0.0625271 -0.202651 0)
(-0.0762043 -0.161602 0)
(-0.0868494 -0.12534 0)
(-0.0654605 0.00732235 0)
(0.0961657 0.031569 0)
(0.1689 -0.191805 0)
(0.171498 -0.364382 0)
(0.157512 -0.414276 0)
(0.177809 -0.424335 0)
(0.222796 -0.396259 0)
(0.246306 -0.330403 0)
(0.274928 -0.232227 0)
(0.293357 -0.133563 0)
(0.308635 0.003287 0)
(0.301639 0.106786 0)
(0.263051 0.076699 0)
(0.187938 -0.0430047 0)
(0.158031 -0.0647334 0)
(0.00826245 -0.156204 0)
(0.0210571 -0.188031 0)
(0.0230947 -0.207271 0)
(0.0145683 -0.227305 0)
(-0.00456941 -0.239438 0)
(-0.0288133 -0.236744 0)
(-0.0497372 -0.216723 0)
(-0.0569078 -0.192314 0)
(-0.0636356 -0.122481 0)
(0.0620436 -0.0567043 0)
(0.103865 -0.155892 0)
(0.105241 -0.243775 0)
(0.0724875 -0.272657 0)
(0.0453579 -0.299095 0)
(0.03481 -0.32194 0)
(0.0294983 -0.326978 0)
(0.0299288 -0.31566 0)
(0.0345471 -0.310863 0)
(0.0558763 -0.300949 0)
(0.117722 -0.287098 0)
(0.162093 -0.280183 0)
(0.144704 -0.290904 0)
(0.0898724 -0.284413 0)
(0.00626758 -0.12282 0)
(0.0167871 -0.157116 0)
(0.0216718 -0.175842 0)
(0.0175308 -0.191579 0)
(0.00410593 -0.201264 0)
(-0.0141368 -0.201238 0)
(-0.031972 -0.194966 0)
(-0.0394124 -0.180709 0)
(-0.0388864 -0.162919 0)
(0.0202114 -0.14729 0)
(0.0539135 -0.209433 0)
(0.0283087 -0.256521 0)
(0.0029053 -0.276866 0)
(-0.022493 -0.290824 0)
(-0.0431026 -0.289615 0)
(-0.0631478 -0.269371 0)
(-0.0786713 -0.241331 0)
(-0.0908503 -0.20895 0)
(-0.101734 -0.169119 0)
(-0.0996186 -0.14192 0)
(-0.0896235 -0.146161 0)
(-0.0851456 -0.175668 0)
(-0.0723036 -0.190682 0)
(0.00463459 -0.143398 0)
(0.0115769 -0.170352 0)
(0.0146638 -0.17867 0)
(0.00938923 -0.183472 0)
(-0.000429731 -0.184761 0)
(-0.0124706 -0.182869 0)
(-0.0227829 -0.177662 0)
(-0.027003 -0.169879 0)
(-0.0249384 -0.164957 0)
(-0.00395844 -0.157163 0)
(0.00651063 -0.195414 0)
(-0.014263 -0.225386 0)
(-0.0362282 -0.261193 0)
(-0.0596964 -0.287757 0)
(-0.0871639 -0.29462 0)
(-0.108758 -0.280189 0)
(-0.122946 -0.261137 0)
(-0.134636 -0.242935 0)
(-0.139205 -0.216268 0)
(-0.129999 -0.198412 0)
(-0.12224 -0.189455 0)
(-0.116464 -0.192229 0)
(-0.118 -0.194829 0)
(0.00273157 -0.151325 0)
(0.0048185 -0.175533 0)
(0.00149126 -0.178129 0)
(-0.00412887 -0.178924 0)
(-0.00911825 -0.178376 0)
(-0.0136954 -0.177193 0)
(-0.0176609 -0.174687 0)
(-0.0184848 -0.171179 0)
(-0.0175148 -0.170713 0)
(-0.00941196 -0.167511 0)
(-0.00806415 -0.182378 0)
(-0.0218848 -0.197997 0)
(-0.042455 -0.222773 0)
(-0.0699151 -0.246091 0)
(-0.100532 -0.25623 0)
(-0.119824 -0.252421 0)
(-0.131577 -0.239509 0)
(-0.138404 -0.226981 0)
(-0.138395 -0.210552 0)
(-0.131436 -0.20359 0)
(-0.128171 -0.202839 0)
(-0.128513 -0.200309 0)
(-0.126788 -0.191297 0)
(0.00124362 -0.152759 0)
(-0.000999648 -0.17331 0)
(-0.00421902 -0.174105 0)
(-0.00775565 -0.175517 0)
(-0.0110152 -0.176416 0)
(-0.0138294 -0.175514 0)
(-0.0144191 -0.17403 0)
(-0.013559 -0.173836 0)
(-0.0132494 -0.174207 0)
(-0.00969003 -0.171794 0)
(-0.0101965 -0.177966 0)
(-0.0164488 -0.187006 0)
(-0.0249057 -0.204755 0)
(-0.0458827 -0.222691 0)
(-0.0748824 -0.233634 0)
(-0.0962491 -0.237479 0)
(-0.10822 -0.232181 0)
(-0.11463 -0.227671 0)
(-0.116243 -0.213038 0)
(-0.118203 -0.202518 0)
(-0.126638 -0.200602 0)
(-0.131919 -0.203119 0)
(-0.135205 -0.198445 0)
(2.49212e-05 -0.152452 0)
(-0.00247507 -0.170622 0)
(-0.00488556 -0.170891 0)
(-0.00658565 -0.172048 0)
(-0.00900825 -0.173358 0)
(-0.0106117 -0.173964 0)
(-0.0118698 -0.174437 0)
(-0.0121865 -0.174482 0)
(-0.0120243 -0.174602 0)
(-0.0113549 -0.173028 0)
(-0.0103804 -0.177082 0)
(-0.0129111 -0.184763 0)
(-0.0171648 -0.19595 0)
(-0.0293122 -0.202699 0)
(-0.0460364 -0.21024 0)
(-0.0597431 -0.217172 0)
)
;

boundaryField
{
    leftWall
    {
        type            fixedValue;
        value           uniform (0 0 0);
    }
    rightWall
    {
        type            fixedValue;
        value           nonuniform 0();
    }
    lowerWall
    {
        type            fixedValue;
        value           uniform (0 0 0);
    }
    atmosphere
    {
        type            fluxCorrectedVelocity;
        value           nonuniform 0();
    }
    defaultFaces
    {
        type            empty;
    }
    procBoundary0to1
    {
        type            processor;
        value           nonuniform List<vector> 
26
(
(0.00838803 0.010837 0)
(0.00984703 0.0424049 0)
(0.0600746 0.0903347 0)
(0.035397 0.131037 0)
(0.0495268 0.164557 0)
(0.0271203 0.210536 0)
(0.0412035 0.224014 0)
(0.0554095 0.28491 0)
(0.209533 0.269906 0)
(0.192072 0.164184 0)
(0.269036 0.0388935 0)
(0.567789 0.106649 0)
(0.711932 0.0737728 0)
(0.634953 0.0565606 0)
(0.426966 0.139427 0)
(0.165564 0.189013 0)
(0.165564 0.189013 0)
(0.200274 -0.224272 0)
(0.420194 0.513334 0)
(0.553675 -0.736892 0)
(0.126272 -0.0845154 0)
(0.0495134 -0.312382 0)
(-0.0716786 -0.222023 0)
(-0.128032 -0.210241 0)
(-0.132131 -0.198867 0)
(-0.138309 -0.200377 0)
)
;
    }
    procBoundary0to2
    {
        type            processor;
        value           nonuniform List<vector> 
24
(
(-0.0768702 -0.218441 0)
(-0.0903612 -0.214732 0)
(-0.0999544 -0.205515 0)
(-0.106773 -0.191388 0)
(-0.115204 -0.185735 0)
(-0.129218 -0.183787 0)
(-0.140407 -0.180068 0)
(-0.000875448 -0.149796 0)
(-0.00217568 -0.167751 0)
(-0.00345339 -0.168791 0)
(-0.00506083 -0.170393 0)
(-0.00737053 -0.171461 0)
(-0.0102559 -0.172897 0)
(-0.0128019 -0.173481 0)
(-0.0153121 -0.174218 0)
(-0.0172964 -0.174223 0)
(-0.0179968 -0.175169 0)
(-0.0179004 -0.177966 0)
(-0.0180081 -0.184149 0)
(-0.0225506 -0.189567 0)
(-0.0308238 -0.19524 0)
(-0.0425431 -0.202447 0)
(-0.0768702 -0.218441 0)
(-0.0542599 -0.204728 0)
)
;
    }
}


// ************************************************************************* //
