/*--------------------------------*- C++ -*----------------------------------*\
| =========                 |                                                 |
| \\      /  F ield         | OpenFOAM: The Open Source CFD Toolbox           |
|  \\    /   O peration     | Version:  2.4.0                                 |
|   \\  /    A nd           | Web:      www.OpenFOAM.org                      |
|    \\/     M anipulation  |                                                 |
\*---------------------------------------------------------------------------*/
FoamFile
{
    version     2.0;
    format      ascii;
    class       volVectorField;
    location    "0.45";
    object      U.water;
}
// * * * * * * * * * * * * * * * * * * * * * * * * * * * * * * * * * * * * * //

dimensions      [0 1 -1 0 0 0 0];

internalField   nonuniform List<vector> 
575
(
(0.0176477 -0.00804171 0)
(0.0503186 -0.00829104 0)
(0.0871814 -0.00713743 0)
(0.115841 -0.0100585 0)
(0.162559 -0.00636113 0)
(0.181727 -0.00824862 0)
(0.221138 -0.00962952 0)
(0.266996 -0.00873025 0)
(0.297843 -0.00582836 0)
(0.315412 -0.00598769 0)
(0.343683 -0.00822088 0)
(0.387992 -0.00852934 0)
(0.413008 -0.00553187 0)
(0.441234 -0.0041754 0)
(0.446361 -0.00116455 0)
(0.438124 0.00151035 0)
(0.415631 0.00821894 0)
(0.374513 0.00575228 0)
(0.328903 0.0143494 0)
(0.265009 0.00886165 0)
(0.209807 0.0237902 0)
(0.10647 0.0227323 0)
(0.0176973 -0.0241614 0)
(0.0501673 -0.0251193 0)
(0.0880323 -0.0209662 0)
(0.115378 -0.0313769 0)
(0.161561 -0.0177845 0)
(0.18278 -0.024813 0)
(0.223069 -0.0308514 0)
(0.265848 -0.0241802 0)
(0.295958 -0.0200074 0)
(0.316789 -0.0162209 0)
(0.352753 -0.0249743 0)
(0.390457 -0.0269029 0)
(0.415985 -0.0208863 0)
(0.436021 -0.01073 0)
(0.446287 0.0044747 0)
(0.441312 0.0175837 0)
(0.420061 0.0270225 0)
(0.387252 0.0414646 0)
(0.332125 0.0423037 0)
(0.285734 0.0477206 0)
(0.193424 0.0481821 0)
(0.128207 0.0653633 0)
(0.0176965 -0.0377958 0)
(0.0501448 -0.0388023 0)
(0.0883457 -0.0335129 0)
(0.115922 -0.0439767 0)
(0.158742 -0.0293276 0)
(0.187489 -0.0359929 0)
(0.223385 -0.0377596 0)
(0.263244 -0.0300482 0)
(0.29069 -0.0205633 0)
(0.321712 -0.0145202 0)
(0.366321 -0.0183335 0)
(0.392031 -0.0126652 0)
(0.410709 -0.00219333 0)
(0.43347 0.0023646 0)
(0.447748 0.00318376 0)
(0.451919 0.0157874 0)
(0.435776 0.0298865 0)
(0.406151 0.0483334 0)
(0.344346 0.0643542 0)
(0.294884 0.075437 0)
(0.20936 0.0898978 0)
(0.149405 0.104826 0)
(0.0177478 -0.0104574 0)
(0.0502256 -0.0108804 0)
(0.0884452 -0.0058166 0)
(0.117166 -0.0129301 0)
(0.15695 7.86218e-05 0)
(0.190622 -0.00400656 0)
(0.225366 0.00190876 0)
(0.263591 0.0114248 0)
(0.287013 0.0232935 0)
(0.335536 0.0384825 0)
(0.371067 0.0651737 0)
(0.387067 0.0828187 0)
(0.408451 0.105548 0)
(0.425855 0.109951 0)
(0.438356 0.108565 0)
(0.463862 0.109537 0)
(0.463904 0.117538 0)
(0.433071 0.122071 0)
(0.371364 0.104495 0)
(0.280328 0.108261 0)
(0.179307 0.114767 0)
(0.122302 0.133123 0)
(0.0181847 0.107472 0)
(0.0501498 0.105638 0)
(0.0902014 0.110839 0)
(0.119744 0.0959892 0)
(0.153983 0.110772 0)
(0.199536 0.0971187 0)
(0.228284 0.0891341 0)
(0.258965 0.100572 0)
(0.297523 0.0909946 0)
(0.342579 0.0885084 0)
(0.367123 0.078631 0)
(0.393031 0.0901532 0)
(0.418869 0.0892404 0)
(0.441369 0.11129 0)
(0.455097 0.131677 0)
(0.459873 0.167951 0)
(0.437277 0.231276 0)
(0.416828 0.244708 0)
(0.355599 0.215103 0)
(0.294852 0.200052 0)
(0.164881 0.167752 0)
(0.0935205 0.157364 0)
(0.017189 0.0154298 0)
(0.0472717 0.0137661 0)
(0.0850073 0.0170677 0)
(0.116078 0.00780213 0)
(0.138529 0.0157541 0)
(0.189535 0.00653171 0)
(0.211362 -8.64188e-06 0)
(0.240254 -0.00175402 0)
(0.274611 -0.00525729 0)
(0.307753 -0.00428316 0)
(0.327363 0.00212538 0)
(0.356603 0.0095724 0)
(0.381173 0.0191306 0)
(0.388604 0.0341649 0)
(0.410893 0.0661335 0)
(0.414832 0.123423 0)
(0.417139 0.188957 0)
(0.374136 0.257729 0)
(0.276723 0.333894 0)
(0.228262 0.339771 0)
(0.172302 0.229186 0)
(0.0776689 0.204713 0)
(0.0123771 0.0329433 0)
(0.0362401 0.0343758 0)
(0.0606374 0.0335527 0)
(0.0871349 0.0439793 0)
(0.0953652 0.042083 0)
(0.120003 0.043663 0)
(0.139137 0.0489062 0)
(0.148276 0.0473876 0)
(0.158482 0.0370975 0)
(0.179036 0.0321116 0)
(0.190802 0.0156876 0)
(0.194271 0.00843351 0)
(0.193006 -0.00328639 0)
(0.1874 -0.0164724 0)
(0.17897 -0.0266625 0)
(0.183863 0.0255444 0)
(0.239169 0.204369 0)
(0.246566 0.340286 0)
(0.206546 0.342748 0)
(0.164338 0.378721 0)
(0.158804 0.337548 0)
(0.0917139 0.222592 0)
(0.00178478 -0.127558 0)
(0.0101572 -0.130562 0)
(0.0112525 -0.133598 0)
(0.0250276 -0.139834 0)
(0.0300567 -0.142971 0)
(0.0424301 -0.158966 0)
(0.0586991 -0.163633 0)
(0.0763717 -0.166905 0)
(0.108931 -0.171011 0)
(0.135358 -0.165411 0)
(0.157056 -0.150117 0)
(0.170608 -0.134316 0)
(0.18149 -0.112307 0)
(0.189172 -0.0874199 0)
(0.180491 -0.0519693 0)
(0.138833 -0.0470681 0)
(0.134793 -0.0840603 0)
(0.212228 0.110751 0)
(0.0497951 0.347481 0)
(0.0641929 0.362167 0)
(0.0957199 0.422087 0)
(0.122659 0.307688 0)
(0.00517209 -0.1542 0)
(0.0162606 -0.152459 0)
(0.0269065 -0.150876 0)
(0.0409764 -0.138621 0)
(0.0516257 -0.135463 0)
(0.0710613 -0.131198 0)
(0.0899117 -0.108002 0)
(0.105633 -0.101639 0)
(0.138992 -0.0954726 0)
(0.162497 -0.0772565 0)
(0.184007 -0.0555056 0)
(0.203981 -0.0401564 0)
(0.218554 -0.0175881 0)
(0.230717 -0.00365506 0)
(0.240274 0.038083 0)
(0.239855 0.0893998 0)
(0.209942 0.210141 0)
(0.129093 0.228357 0)
(0.107201 0.346459 0)
(0.024766 0.381629 0)
(0.0284148 0.373972 0)
(0.129122 0.392284 0)
(0.00559275 -0.0956142 0)
(0.017116 -0.0981313 0)
(0.0287023 -0.0995881 0)
(0.0409448 -0.100765 0)
(0.0545319 -0.104149 0)
(0.0656426 -0.12021 0)
(0.0839363 -0.115894 0)
(0.0967582 -0.135541 0)
(0.128052 -0.147973 0)
(0.14734 -0.147674 0)
(0.169804 -0.141205 0)
(0.202584 -0.1374 0)
(0.208866 -0.114984 0)
(0.218031 -0.0956235 0)
(0.208045 -0.0686817 0)
(0.204935 -0.0583455 0)
(0.219338 -0.00525491 0)
(0.202396 0.124571 0)
(0.261803 0.209768 0)
(0.178463 0.380696 0)
(0.103491 0.33951 0)
(0.102595 0.265847 0)
(0.00695283 -0.152085 0)
(0.0206109 -0.153975 0)
(0.0338287 -0.153749 0)
(0.0451625 -0.154524 0)
(0.0600921 -0.156018 0)
(0.0671614 -0.167061 0)
(0.0859277 -0.167692 0)
(0.103253 -0.189826 0)
(0.142243 -0.192064 0)
(0.172234 -0.188124 0)
(0.221022 -0.167936 0)
(0.258533 -0.137071 0)
(0.282964 -0.0804737 0)
(0.315714 -0.0499989 0)
(0.311663 0.0088767 0)
(0.334466 0.076308 0)
(0.293976 0.145523 0)
(0.300302 0.187472 0)
(0.31344 0.243383 0)
(0.382893 0.320607 0)
(0.367337 0.404408 0)
(0.296103 0.291846 0)
(0.00740571 -0.145541 0)
(0.0215468 -0.147083 0)
(0.0341403 -0.145879 0)
(0.0425884 -0.146991 0)
(0.0529607 -0.151446 0)
(0.0569126 -0.167218 0)
(0.073899 -0.177793 0)
(0.0900438 -0.210029 0)
(0.135132 -0.219021 0)
(0.177736 -0.227141 0)
(0.233631 -0.205057 0)
(0.256428 -0.172171 0)
(0.285079 -0.121372 0)
(0.294226 -0.0942593 0)
(0.298168 -0.0439672 0)
(0.32428 -0.00707997 0)
(0.328997 0.0607416 0)
(0.37643 0.118396 0)
(0.380052 0.201749 0)
(0.464166 0.221641 0)
(0.532668 0.317 0)
(0.634753 0.29414 0)
(0.00863702 -0.216747 0)
(0.0210416 -0.21365 0)
(0.0312519 -0.200296 0)
(0.0330403 -0.182296 0)
(0.0330666 -0.159031 0)
(0.0336957 -0.143793 0)
(0.0495508 -0.144646 0)
(0.0571724 -0.207385 0)
(0.104504 -0.275102 0)
(0.155388 -0.317999 0)
(0.202521 -0.299545 0)
(0.222071 -0.252277 0)
(0.244516 -0.19304 0)
(0.267183 -0.147619 0)
(0.27716 -0.0778565 0)
(0.326519 0.00132236 0)
(0.329826 0.0509133 0)
(0.375602 0.10754 0)
(0.40049 0.140115 0)
(0.475073 0.155959 0)
(0.537577 0.165724 0)
(0.657652 0.148967 0)
(0.0171161 -0.481376 0)
(0.0382873 -0.475636 0)
(0.0631503 -0.457146 0)
(0.0811434 -0.431403 0)
(0.0894256 -0.392926 0)
(0.0661233 -0.35251 0)
(-0.00882723 -0.329712 0)
(-0.0569253 -0.362562 0)
(-0.0680484 -0.432529 0)
(-0.0656619 -0.441392 0)
(-0.026295 -0.353085 0)
(-0.0318127 -0.288097 0)
(-0.0305712 -0.244522 0)
(-0.0487207 -0.207945 0)
(-0.0203469 -0.18264 0)
(0.0336065 -0.146298 0)
(0.116654 -0.0656039 0)
(0.238477 -0.000883692 0)
(0.296435 0.0627632 0)
(0.368075 0.0470944 0)
(0.479701 0.0738134 0)
(0.547304 0.0131482 0)
(0.0390035 -1.34576 0)
(0.0626583 -1.32563 0)
(0.101392 -1.27072 0)
(0.13068 -1.17141 0)
(0.146132 -1.03135 0)
(0.166376 -0.841519 0)
(0.112123 -0.666575 0)
(-0.0725057 -0.694266 0)
(-0.421794 -0.819189 0)
(-0.571964 -0.689734 0)
(-0.454476 -0.418604 0)
(-0.374354 -0.316863 0)
(-0.339811 -0.245904 0)
(-0.310101 -0.217806 0)
(-0.295741 -0.201293 0)
(-0.256545 -0.184505 0)
(-0.202201 -0.173105 0)
(-0.0856187 -0.134668 0)
(0.102197 -0.0431992 0)
(0.149349 -0.0950941 0)
(0.321655 -0.0283103 0)
(0.343657 -0.0803838 0)
(0.000327899 -0.862278 0)
(0.0128594 -0.883315 0)
(0.0604668 -0.878414 0)
(0.15881 -0.847216 0)
(0.295163 -0.732133 0)
(0.218762 -0.528817 0)
(0.154879 -0.648648 0)
(-0.0534266 -0.585091 0)
(-0.499339 -0.269144 0)
(-0.6029 -0.602679 0)
(-0.49484 -0.652355 0)
(-0.389258 -0.650959 0)
(-0.352603 -0.591042 0)
(-0.301497 -0.490427 0)
(-0.286668 -0.413777 0)
(-0.246775 -0.341182 0)
(-0.226189 -0.29999 0)
(-0.18404 -0.273739 0)
(-0.157173 -0.235306 0)
(-0.127094 -0.272164 0)
(-0.0439033 -0.274734 0)
(0.0241761 -0.290692 0)
(-0.049141 0.116361 0)
(-0.127216 0.101655 0)
(-0.177386 0.0546426 0)
(-0.198376 -0.0328745 0)
(-0.200678 -0.200874 0)
(-0.264199 -0.369695 0)
(-0.169779 -0.287761 0)
(0.105605 -0.0208743 0)
(0.402664 -0.245182 0)
(0.494865 -0.399515 0)
(0.343339 -0.324654 0)
(0.261073 -0.0756721 0)
(0.218411 0.474768 0)
(0.010458 0.707254 0)
(-0.14712 0.349725 0)
(-0.156282 -0.184218 0)
(-0.118422 -0.459871 0)
(-0.0700663 -0.551619 0)
(-0.0615941 -0.542512 0)
(-0.0378594 -0.563041 0)
(-0.0400077 -0.499934 0)
(0.0463415 -0.543472 0)
(0.119364 -0.544576 0)
(-0.00601533 -0.2029 0)
(-0.0131076 -0.238249 0)
(-0.0195517 -0.256419 0)
(-0.0269783 -0.268143 0)
(-0.0497417 -0.253847 0)
(-0.123186 -0.219329 0)
(-0.0923827 -0.0106704 0)
(0.000196553 0.265767 0)
(0.226813 0.383891 0)
(-0.0473387 0.0105826 0)
(-0.17355 -0.291225 0)
(-0.182337 -0.473805 0)
(-0.088117 -0.61848 0)
(0.143569 -0.721176 0)
(0.394599 -0.751793 0)
(0.565453 -0.644586 0)
(0.67416 -0.405084 0)
(0.639694 -0.154651 0)
(0.805429 0.127403 0)
(0.735123 0.3424 0)
(0.637755 0.637925 0)
(0.54623 0.529573 0)
(0.455353 0.407273 0)
(-0.00338563 -0.166538 0)
(-0.0079254 -0.205048 0)
(-0.0129018 -0.249857 0)
(-0.0229057 -0.298902 0)
(-0.047206 -0.340829 0)
(-0.093731 -0.36122 0)
(-0.0959314 -0.311143 0)
(-0.0405703 -0.284933 0)
(0.206664 0.00887491 0)
(0.230321 0.147216 0)
(0.136346 -0.0183423 0)
(0.144277 -0.184532 0)
(0.150633 -0.0877107 0)
(0.176088 -0.0205561 0)
(0.194946 -0.0295853 0)
(0.203532 -0.110114 0)
(0.222048 -0.207541 0)
(0.190662 -0.345704 0)
(0.150666 -0.420165 0)
(0.18918 -0.477461 0)
(0.301508 -0.677678 0)
(0.441938 -0.760689 0)
(0.52386 -0.75334 0)
(-0.00433768 -0.0491283 0)
(-0.00554379 -0.0968085 0)
(-0.00730431 -0.134468 0)
(-0.0159275 -0.172169 0)
(-0.0346422 -0.199176 0)
(-0.062511 -0.202681 0)
(-0.076186 -0.161635 0)
(-0.086833 -0.125413 0)
(-0.0654555 0.00709145 0)
(0.0961574 0.0311373 0)
(0.168921 -0.191916 0)
(0.171547 -0.36443 0)
(0.157565 -0.41429 0)
(0.177871 -0.424338 0)
(0.222873 -0.396258 0)
(0.246396 -0.330403 0)
(0.27503 -0.23223 0)
(0.293468 -0.13357 0)
(0.308748 0.00325941 0)
(0.301748 0.106721 0)
(0.263172 0.0766229 0)
(0.188081 -0.0431053 0)
(0.158219 -0.0649176 0)
(0.00826462 -0.15682 0)
(0.0210655 -0.188282 0)
(0.0231078 -0.207378 0)
(0.0145835 -0.227354 0)
(-0.00455279 -0.239468 0)
(-0.0287944 -0.236768 0)
(-0.0497151 -0.216747 0)
(-0.0568828 -0.19235 0)
(-0.0636088 -0.122555 0)
(0.0620702 -0.0568752 0)
(0.103898 -0.155976 0)
(0.105283 -0.24381 0)
(0.0725383 -0.272673 0)
(0.0454207 -0.29911 0)
(0.0348867 -0.321957 0)
(0.0295871 -0.326999 0)
(0.0300245 -0.315687 0)
(0.0346456 -0.310901 0)
(0.0559744 -0.301005 0)
(0.117817 -0.287172 0)
(0.162186 -0.280274 0)
(0.144799 -0.29103 0)
(0.0899739 -0.284593 0)
(0.00627061 -0.122935 0)
(0.0167951 -0.157166 0)
(0.0216833 -0.175863 0)
(0.0175447 -0.191595 0)
(0.00412196 -0.201281 0)
(-0.0141182 -0.201256 0)
(-0.0319504 -0.194984 0)
(-0.0393874 -0.180728 0)
(-0.0388582 -0.162939 0)
(0.0202432 -0.14732 0)
(0.0539495 -0.209455 0)
(0.0283507 -0.25654 0)
(0.00295517 -0.276885 0)
(-0.0224331 -0.290846 0)
(-0.0430318 -0.289641 0)
(-0.0630689 -0.269404 0)
(-0.0785883 -0.241373 0)
(-0.0907688 -0.209005 0)
(-0.101658 -0.169189 0)
(-0.0995498 -0.142007 0)
(-0.0895618 -0.146269 0)
(-0.0850935 -0.175804 0)
(-0.0722533 -0.190856 0)
(0.00463677 -0.143417 0)
(0.0115833 -0.170367 0)
(0.0146736 -0.178683 0)
(0.00940189 -0.183486 0)
(-0.000414599 -0.184776 0)
(-0.0124528 -0.182885 0)
(-0.022762 -0.177679 0)
(-0.0269787 -0.169897 0)
(-0.0249106 -0.164975 0)
(-0.00392717 -0.157182 0)
(0.00654577 -0.195435 0)
(-0.0142231 -0.225408 0)
(-0.036182 -0.261218 0)
(-0.0596426 -0.287785 0)
(-0.0871023 -0.294656 0)
(-0.10869 -0.280233 0)
(-0.122876 -0.261193 0)
(-0.134569 -0.243002 0)
(-0.139144 -0.216349 0)
(-0.129946 -0.198505 0)
(-0.122198 -0.189563 0)
(-0.116437 -0.192357 0)
(-0.117982 -0.194976 0)
(0.00273352 -0.151336 0)
(0.00482411 -0.175545 0)
(0.00150005 -0.178142 0)
(-0.00411736 -0.178937 0)
(-0.00910414 -0.17839 0)
(-0.0136785 -0.177208 0)
(-0.0176408 -0.174703 0)
(-0.0184616 -0.171196 0)
(-0.0174884 -0.170731 0)
(-0.00938236 -0.167531 0)
(-0.00803129 -0.1824 0)
(-0.0218481 -0.198022 0)
(-0.0424135 -0.222801 0)
(-0.0698683 -0.246125 0)
(-0.100479 -0.256272 0)
(-0.119768 -0.252473 0)
(-0.131518 -0.239572 0)
(-0.138349 -0.227056 0)
(-0.138346 -0.210638 0)
(-0.131395 -0.203687 0)
(-0.128143 -0.202947 0)
(-0.128498 -0.200428 0)
(-0.126784 -0.191426 0)
(0.00124525 -0.152771 0)
(-0.00099479 -0.173322 0)
(-0.00421114 -0.174118 0)
(-0.007745 -0.17553 0)
(-0.0110019 -0.17643 0)
(-0.0138134 -0.175529 0)
(-0.0144004 -0.174046 0)
(-0.0135375 -0.173853 0)
(-0.0132252 -0.174225 0)
(-0.00966266 -0.171815 0)
(-0.0101666 -0.177989 0)
(-0.0164159 -0.187032 0)
(-0.0248698 -0.204787 0)
(-0.0458438 -0.222729 0)
(-0.0748399 -0.233679 0)
(-0.0962032 -0.237534 0)
(-0.108174 -0.232246 0)
(-0.114585 -0.227746 0)
(-0.116204 -0.213124 0)
(-0.118174 -0.202612 0)
(-0.126618 -0.200705 0)
(-0.131911 -0.203228 0)
(-0.135203 -0.198556 0)
(2.65854e-05 -0.152464 0)
(-0.00247037 -0.170634 0)
(-0.00487814 -0.170904 0)
(-0.00657564 -0.172062 0)
(-0.00899566 -0.173372 0)
(-0.0105966 -0.173978 0)
(-0.0118523 -0.174453 0)
(-0.0121665 -0.174499 0)
(-0.0120018 -0.174621 0)
(-0.0113298 -0.17305 0)
(-0.0103534 -0.177107 0)
(-0.0128818 -0.184791 0)
(-0.0171337 -0.195982 0)
(-0.029279 -0.202736 0)
(-0.0460021 -0.210285 0)
(-0.0597076 -0.217225 0)
)
;

boundaryField
{
    leftWall
    {
        type            fixedValue;
        value           uniform (0 0 0);
    }
    rightWall
    {
        type            fixedValue;
        value           nonuniform 0();
    }
    lowerWall
    {
        type            fixedValue;
        value           uniform (0 0 0);
    }
    atmosphere
    {
        type            fluxCorrectedVelocity;
        value           nonuniform 0();
    }
    defaultFaces
    {
        type            empty;
    }
    procBoundary0to1
    {
        type            processor;
        value           nonuniform List<vector> 
26
(
(0.00838799 0.0108375 0)
(0.00984695 0.0424076 0)
(0.060074 0.0903502 0)
(0.0353926 0.131109 0)
(0.0495093 0.164771 0)
(0.0270754 0.211851 0)
(0.0411088 0.227193 0)
(0.0551526 0.308468 0)
(0.251514 0.340253 0)
(0.163195 0.272133 0)
(0.282221 0.150599 0)
(0.643634 0.225843 0)
(0.728589 0.106583 0)
(0.634463 0.00466512 0)
(0.426444 -0.0945371 0)
(0.159734 -0.256175 0)
(0.159734 -0.256175 0)
(0.161414 -0.582541 0)
(0.410208 0.348763 0)
(0.553984 -0.73734 0)
(0.126458 -0.084792 0)
(0.0496129 -0.312623 0)
(-0.0716342 -0.22223 0)
(-0.128014 -0.210406 0)
(-0.132128 -0.199001 0)
(-0.138307 -0.200491 0)
)
;
    }
    procBoundary0to2
    {
        type            processor;
        value           nonuniform List<vector> 
24
(
(-0.0768322 -0.218504 0)
(-0.0903264 -0.214803 0)
(-0.0999251 -0.205597 0)
(-0.10675 -0.191478 0)
(-0.115191 -0.185832 0)
(-0.129215 -0.183887 0)
(-0.140408 -0.180168 0)
(-0.000874136 -0.149808 0)
(-0.00217164 -0.167763 0)
(-0.00344659 -0.168803 0)
(-0.00505144 -0.170406 0)
(-0.0073587 -0.171475 0)
(-0.0102417 -0.172911 0)
(-0.0127854 -0.173496 0)
(-0.0152934 -0.174236 0)
(-0.0172758 -0.174242 0)
(-0.0179744 -0.17519 0)
(-0.0178761 -0.177991 0)
(-0.0179822 -0.184177 0)
(-0.0225235 -0.189599 0)
(-0.0307969 -0.195277 0)
(-0.0425151 -0.20249 0)
(-0.0768322 -0.218504 0)
(-0.0542308 -0.204778 0)
)
;
    }
}


// ************************************************************************* //
