/*--------------------------------*- C++ -*----------------------------------*\
| =========                 |                                                 |
| \\      /  F ield         | OpenFOAM: The Open Source CFD Toolbox           |
|  \\    /   O peration     | Version:  2.4.0                                 |
|   \\  /    A nd           | Web:      www.OpenFOAM.org                      |
|    \\/     M anipulation  |                                                 |
\*---------------------------------------------------------------------------*/
FoamFile
{
    version     2.0;
    format      ascii;
    class       volScalarField;
    location    "0.7";
    object      alpha.water;
}
// * * * * * * * * * * * * * * * * * * * * * * * * * * * * * * * * * * * * * //

dimensions      [0 0 0 0 0 0 0];

internalField   nonuniform List<scalar> 
559
(
2.81183e-10
5.72645e-10
3.00449e-09
9.40517e-09
2.28806e-08
4.24388e-07
0.000376754
0.0372931
0.000264398
0.000851688
0.00157503
0.00123118
0.00058174
0.000202883
5.56305e-05
1.27438e-05
4.4402e-06
3.17078e-06
2.62731e-06
2.36001e-06
2.21953e-06
2.40395e-06
5.29969e-06
3.38504e-05
0.00014192
0.000262836
0.000346486
0.00026584
0.0037761
0.0167776
0.0297426
0.0248844
0.0148797
0.00804599
0.00377391
0.00100701
0.000147768
2.55965e-05
8.33207e-06
2.62044e-06
2.15675e-06
6.47515e-06
2.88832e-05
0.000144421
0.000382227
0.000483568
0.000386556
0.0262476
0.105721
0.235404
0.319954
0.306783
0.258011
0.166058
0.0790115
0.028225
0.00886953
0.00269295
0.000618574
7.85695e-05
0.000148527
0.00017307
0.000198767
0.000385421
0.000530648
0.000598323
0.113407
0.333066
0.587323
0.749195
0.783393
0.761173
0.648123
0.489117
0.316574
0.156474
0.0494413
0.0171837
0.0018864
0.000537125
0.000969415
0.000384593
0.000431611
0.000546679
0.0389681
0.29322
0.559112
0.757914
0.815707
0.824665
0.810044
0.719151
0.654907
0.541819
0.36602
0.173141
0.0451131
0.0109948
0.00139587
0.00181422
0.000713197
0.000528437
0.00192138
0.363538
0.511941
0.702924
0.793516
0.828733
0.828887
0.791661
0.787973
0.773139
0.729394
0.562037
0.311431
0.0935131
0.0226446
0.00360489
0.00247293
0.0011812
0.00107237
0.0117507
0.657361
0.700218
0.74921
0.748611
0.787807
0.827292
0.841266
0.846783
0.83243
0.792812
0.666324
0.414557
0.15178
0.0357857
0.00925797
0.00335814
0.00241762
0.00486876
0.0258142
0.680753
0.699603
0.697729
0.650346
0.677843
0.731353
0.800576
0.846592
0.819861
0.729013
0.638949
0.441705
0.200974
0.0575318
0.0196467
0.00519268
0.00495509
0.0121034
0.0258962
0.528016
0.951787
0.778637
0.334676
0.00220931
6.5014e-06
5.0981e-08
1.24782e-08
0.473935
0.480064
0.502817
0.5302
0.945209
0.931865
0.908373
0.872974
0.751588
0.712004
0.655262
0.58744
0.333383
0.311296
0.242615
0.131423
0.0240387
0.0793964
0.079944
0.0412552
0.000212287
0.00190985
0.00405914
0.00262714
6.03952e-07
5.5899e-06
1.28282e-05
9.90199e-06
9.89889e-09
2.28649e-09
3.2586e-09
2.47828e-09
5.08021e-09
6.62265e-10
6.53114e-10
6.4142e-10
2.41561e-09
8.96941e-10
7.27078e-10
7.4766e-10
1.17498e-09
8.28737e-10
7.12707e-10
7.33505e-10
4.34773e-10
4.57961e-10
4.80323e-10
5.09092e-10
4.95036e-11
1.54283e-10
1.95838e-10
2.25749e-10
1.41175e-11
3.06535e-11
4.23017e-11
6.83395e-11
4.3866e-12
1.03634e-11
1.82746e-11
2.45284e-11
1.17366e-12
2.84409e-12
5.80057e-12
9.59516e-12
2.54086e-13
6.28482e-13
1.38211e-12
2.5659e-12
0.659206
0.641871
0.524421
0.483104
0.475034
0.517339
0.599317
0.708791
0.736419
0.720632
0.653312
0.494263
0.291014
0.115961
0.0328323
0.0108705
0.00648782
0.015121
0.0259205
0.739135
0.400301
0.0562652
0.0271713
0.0572598
0.153962
0.268474
0.360546
0.507472
0.647007
0.649853
0.551556
0.401046
0.19661
0.0475939
0.0267391
0.0127685
0.0164953
0.0306923
0.425052
0.0605622
0.000551021
1.54733e-05
7.61981e-05
0.000242643
0.00357287
0.0580767
0.153539
0.385398
0.581181
0.581699
0.52902
0.298719
0.0619658
0.0695251
0.0480623
0.0458192
0.0685739
0.0307064
0.00147658
1.35455e-05
2.98413e-06
1.11196e-05
3.07324e-05
6.08851e-05
0.000454113
0.00950262
0.0572033
0.305254
0.513014
0.529029
0.314116
0.0675828
0.116066
0.170807
0.160796
0.161168
0.00388694
4.65571e-05
2.93941e-06
2.99771e-06
1.95466e-05
9.14039e-05
0.0001811
0.000185516
0.000300757
0.000792109
0.0656734
0.346276
0.494168
0.324493
0.193847
0.217166
0.332844
0.354513
0.280469
0.000230709
6.3141e-07
3.17779e-08
1.44538e-07
6.45599e-06
0.000116305
0.000459248
0.000696459
0.000666539
0.000373966
0.0145762
0.116673
0.375687
0.407286
0.367701
0.411599
0.48811
0.495037
0.359336
1.36386e-06
9.71876e-09
1.19797e-09
2.57387e-09
7.83494e-07
6.14442e-05
0.000676842
0.00131121
0.00100558
0.000583442
0.000209468
0.00979129
0.205661
0.383606
0.464545
0.518777
0.518878
0.510327
0.36387
1.05506e-09
1.35607e-09
1.19253e-09
3.1836e-08
6.42983e-06
0.000230789
0.00159265
0.00229648
0.00178028
0.00068167
0.00019001
0.000287769
0.0590982
0.264568
0.407683
0.45746
0.504643
0.491531
0.340979
6.41245e-10
6.46405e-10
2.78628e-09
2.36138e-06
0.000154838
0.00147421
0.00333784
0.00357352
0.00219362
0.000554378
4.26809e-05
4.28837e-05
0.00344271
0.125638
0.31928
0.38379
0.405181
0.41501
0.293199
6.77159e-10
6.78598e-10
2.19086e-08
1.84828e-05
0.000703589
0.00343738
0.00491567
0.00477022
0.00215226
0.000226569
4.26871e-05
4.26828e-05
0.000574724
0.0335284
0.212633
0.284012
0.0958431
0.237267
0.272671
6.50127e-10
7.89768e-10
5.34525e-08
3.34639e-05
0.00113478
0.00491578
0.00695781
0.00640742
0.00200274
0.000111582
4.2658e-05
4.27023e-05
0.000162592
0.00797029
0.0614377
0.108967
0.0593316
0.0624114
0.251844
5.6686e-10
8.21121e-10
4.37419e-08
3.0593e-05
0.00111708
0.00556621
0.00904511
0.00935013
0.00352093
0.000127243
4.26763e-05
4.26282e-05
4.26816e-05
0.000342165
0.0061261
0.0316198
0.0658694
0.118953
0.318039
4.05751e-10
7.33289e-10
5.64557e-09
3.82741e-06
0.000320683
0.00386161
0.0111208
0.01354
0.0109835
0.00110881
4.26496e-05
4.29802e-05
4.35126e-05
5.67595e-05
0.00204367
0.0495995
0.208315
0.318582
0.343357
1.77691e-10
3.93638e-10
6.1608e-10
1.62469e-07
1.61794e-05
0.00076441
0.00722109
0.0162887
0.0193012
0.00932823
0.00106517
0.000515354
0.000740731
0.00108191
0.00294657
0.0477154
0.19383
0.327499
0.337904
5.95605e-11
1.73829e-10
2.38484e-10
3.1969e-09
9.54303e-08
3.99112e-05
0.00192556
0.0140306
0.0230165
0.0268021
0.0190814
0.0153885
0.0202736
0.0317378
0.0390854
0.0726118
0.15812
0.247037
0.307396
2.12488e-11
5.98286e-11
7.79044e-11
3.70006e-10
3.67267e-09
1.17214e-07
0.000162749
0.00495386
0.023816
0.0361899
0.0433496
0.0513623
0.0623241
0.0826536
0.0978546
0.117
0.162508
0.229498
0.250678
5.86131e-12
1.56639e-11
2.14019e-11
4.17552e-11
4.17695e-10
1.78839e-09
1.96431e-06
0.00053989
0.00887969
0.0303663
0.0455614
0.0540011
0.0701433
0.0827307
0.0954629
0.112323
0.127442
0.130162
0.122957
)
;

boundaryField
{
    leftWall
    {
        type            zeroGradient;
    }
    rightWall
    {
        type            zeroGradient;
    }
    lowerWall
    {
        type            zeroGradient;
    }
    atmosphere
    {
        type            inletOutlet;
        inletValue      nonuniform 0();
        value           nonuniform 0();
    }
    defaultFaces
    {
        type            empty;
    }
    procBoundary1to0
    {
        type            processor;
        value           nonuniform List<scalar> 
26
(
9.32837e-10
1.56681e-09
9.68616e-09
4.78407e-08
1.28862e-07
7.23793e-06
0.00282984
0.0988152
0.655789
0.954987
0.813218
0.39977
0.00870052
2.02051e-07
1.35687e-08
5.43737e-09
4.88471e-09
4.88471e-09
1.7887e-09
7.82253e-10
1.04948e-10
6.88396e-12
3.04971e-12
1.05295e-12
2.77542e-13
5.84027e-14
)
;
    }
    procBoundary1to3
    {
        type            processor;
        value           nonuniform List<scalar> 
23
(
4.36863e-14
1.10039e-13
2.54162e-13
5.11111e-13
1.2266e-12
3.25974e-12
5.18073e-12
1.12574e-11
5.72367e-11
3.0783e-10
3.62675e-09
6.6641e-06
0.00056817
0.00560234
0.0143683
0.019978
0.0220895
0.0228138
0.0221849
0.0221766
0.0244192
0.0245717
0.0199528
)
;
    }
}


// ************************************************************************* //
