/*--------------------------------*- C++ -*----------------------------------*\
| =========                 |                                                 |
| \\      /  F ield         | OpenFOAM: The Open Source CFD Toolbox           |
|  \\    /   O peration     | Version:  2.4.0                                 |
|   \\  /    A nd           | Web:      www.OpenFOAM.org                      |
|    \\/     M anipulation  |                                                 |
\*---------------------------------------------------------------------------*/
FoamFile
{
    version     2.0;
    format      ascii;
    class       volScalarField;
    location    "0.7";
    object      alpha.mercury;
}
// * * * * * * * * * * * * * * * * * * * * * * * * * * * * * * * * * * * * * //

dimensions      [0 0 0 0 0 0 0];

internalField   nonuniform List<scalar> 
559
(
0.999991
0.999987
0.999988
0.999988
0.999987
0.999986
0.999613
0.962704
0.780809
0.781094
0.781717
0.782757
0.78351
0.784088
0.784544
0.785318
0.786113
0.786121
0.786423
0.786838
0.787232
0.787731
0.788174
0.788348
0.788635
0.789155
0.789393
0.646591
0.403076
0.568524
0.736881
0.759024
0.769253
0.776254
0.777311
0.765169
0.759071
0.759415
0.755707
0.755832
0.765285
0.78684
0.788673
0.789413
0.789476
0.789647
0.277927
0.271247
0.329863
0.372621
0.336351
0.332686
0.327203
0.306971
0.24799
0.173053
0.120437
0.112992
0.131912
0.230567
0.429238
0.722862
0.790156
0.789663
0.790086
0.164866
0.269577
0.257094
0.13969
0.0333917
0.00685845
0.00290236
0.00115347
0.000879802
0.000236432
0.000447507
0.00072191
0.0100481
0.0249226
0.0494969
0.334057
0.757903
0.790087
0.790283
0.266684
0.275384
0.199671
0.0550427
0.00586601
0.000815885
0.000555971
0.000264317
0.000266899
0.000111977
6.08943e-05
6.08668e-05
0.000202392
0.0162274
0.0250353
0.092718
0.667726
0.786517
0.726554
0.280848
0.274336
0.113196
0.0221152
0.00177438
0.00036661
0.000409214
0.000564953
0.000373611
0.000157151
6.91151e-05
6.08938e-05
6.08671e-05
0.00450769
0.0235668
0.0592469
0.58828
0.745152
0.40754
0.208469
0.163506
0.0663532
0.0083618
0.000829949
7.26739e-05
7.9165e-05
0.000352546
0.000108219
7.36403e-05
7.46002e-05
6.44559e-05
6.0894e-05
0.000493475
0.0172425
0.0348184
0.436745
0.578885
0.223416
0.199663
0.117221
0.0264457
0.00305465
0.000304933
7.2879e-05
3.37488e-05
3.37553e-05
4.33808e-05
5.90084e-05
7.46301e-05
6.586e-05
6.51778e-05
0.000137601
0.00750532
0.0217174
0.190315
0.258533
0.170214
0.469126
0.00672128
1.87996e-05
2.85527e-06
4.61055e-08
3.05584e-10
1.32871e-11
1.30202e-11
0.520631
0.512162
0.483702
0.445639
0.00776018
0.00970757
0.00999517
0.00911992
1.63309e-05
1.47169e-05
1.33015e-05
1.11134e-05
3.54465e-06
4.34053e-06
4.0123e-06
2.16102e-06
2.48871e-07
1.18562e-06
1.2702e-06
4.91662e-07
5.59338e-09
4.32437e-08
6.93743e-08
2.28721e-08
5.44371e-11
1.94902e-10
2.69113e-10
1.62138e-10
1.71312e-11
1.84002e-11
4.20012e-11
8.87182e-11
1.63798e-11
1.96848e-11
3.22458e-11
4.84373e-11
1.16239e-11
1.38548e-11
1.75083e-11
2.21269e-11
7.18316e-12
9.00692e-12
1.22093e-11
1.82893e-11
4.71409e-12
7.55831e-12
1.43606e-11
3.07182e-11
4.76648e-12
9.42713e-12
2.09754e-11
4.9777e-11
4.44504e-12
9.43784e-12
2.10577e-11
4.86857e-11
2.80916e-12
6.22123e-12
1.39049e-11
3.12395e-11
1.2193e-12
2.83036e-12
6.43858e-12
1.42468e-11
3.90779e-13
9.49071e-13
2.23095e-12
5.09386e-12
0.212702
0.0441306
0.00554248
0.00142762
0.000131738
5.86077e-05
3.3782e-05
3.46493e-05
5.68781e-05
7.2999e-05
7.14082e-05
6.35129e-05
6.76892e-05
0.000117675
0.00140579
0.0163098
0.0399294
0.0610717
0.124771
0.00284879
0.000618337
3.75322e-05
1.10178e-05
1.25229e-05
1.8762e-05
2.214e-05
2.04978e-05
2.18044e-05
3.07443e-05
4.18716e-05
5.02425e-05
6.58413e-05
9.57277e-05
0.000188496
0.00343033
0.0174623
0.0129648
0.0781866
1.19562e-05
4.63093e-06
5.01483e-06
4.86264e-06
1.039e-05
1.80252e-05
2.09375e-05
2.2291e-05
2.18386e-05
2.89845e-05
4.01147e-05
4.8682e-05
5.71591e-05
9.44275e-05
0.000116777
0.00022853
0.00364762
0.00309359
0.038157
1.00262e-06
1.00959e-06
2.90407e-06
1.31779e-05
2.18881e-05
2.63296e-05
3.10683e-05
3.2814e-05
2.73993e-05
3.01118e-05
3.12781e-05
3.93924e-05
4.83363e-05
5.33584e-05
5.15717e-05
4.30596e-05
0.000226773
0.000268697
0.0188642
1.4579e-07
1.17428e-06
4.57473e-06
7.24206e-06
1.00447e-05
1.9344e-05
3.10403e-05
3.64535e-05
3.73041e-05
2.06238e-05
2.03589e-05
3.31205e-05
3.92723e-05
3.42138e-05
3.43657e-05
3.36496e-05
4.3764e-05
0.000120593
0.0101747
8.75118e-09
7.51045e-08
1.37673e-07
2.96926e-07
1.12043e-06
7.10289e-06
2.3378e-05
3.66402e-05
4.03395e-05
4.05766e-05
2.85051e-05
3.44858e-05
3.65694e-05
3.66106e-05
3.64128e-05
3.53211e-05
4.13669e-05
0.00029755
0.00804681
2.54514e-10
5.21382e-10
4.05429e-10
4.0412e-10
1.66312e-08
1.39704e-06
1.66872e-05
3.61258e-05
3.85997e-05
4.058e-05
3.87004e-05
2.11394e-05
3.07323e-05
3.46004e-05
3.88922e-05
4.02899e-05
5.43743e-05
0.000758107
0.0101281
2.03084e-10
3.62129e-10
3.57839e-10
4.80791e-10
2.71282e-08
1.66444e-06
1.76468e-05
3.79428e-05
4.22014e-05
4.03897e-05
2.43374e-05
6.23855e-06
1.63908e-05
2.91331e-05
3.6778e-05
3.78178e-05
6.18999e-05
0.00171379
0.0152039
6.79469e-11
8.79871e-11
2.29731e-10
1.2725e-08
8.96543e-07
1.19651e-05
3.47845e-05
4.31169e-05
4.47443e-05
3.83329e-05
6.44448e-06
1.04613e-06
2.59762e-06
1.84287e-05
3.57523e-05
2.45488e-05
7.61927e-05
0.00316441
0.0202815
2.66265e-11
9.82144e-11
4.23232e-10
1.20591e-07
5.00008e-06
2.70982e-05
4.34252e-05
4.67025e-05
4.54732e-05
1.6328e-05
2.20203e-06
1.04167e-06
1.04588e-06
6.28949e-06
2.21652e-05
2.09155e-05
9.1894e-05
0.00549463
0.024596
4.08161e-11
2.60577e-10
1.12636e-09
3.01963e-07
8.89116e-06
3.50733e-05
4.86906e-05
4.90794e-05
3.25447e-05
5.06378e-06
1.23929e-06
1.03346e-06
1.02611e-06
1.29085e-06
3.24748e-06
3.88814e-05
0.00088141
0.00328634
0.0192031
1.13988e-10
4.32665e-10
1.34357e-09
3.15976e-07
8.94234e-06
3.62812e-05
5.06493e-05
5.19774e-05
2.62997e-05
2.19685e-06
1.03217e-06
1.02612e-06
1.02203e-06
1.01381e-06
1.10196e-06
1.2451e-05
0.000121343
0.00180324
0.0173675
1.47499e-10
5.26602e-10
8.42858e-10
4.79147e-08
2.29199e-06
2.1348e-05
5.42585e-05
5.97736e-05
4.80309e-05
5.95928e-06
1.02556e-06
1.02397e-06
1.01467e-06
1.01096e-06
1.01093e-06
4.10793e-06
2.15138e-05
0.000359137
0.0144182
1.26575e-10
3.939e-10
6.35587e-10
3.88772e-09
1.16745e-07
3.46826e-06
3.08425e-05
6.55669e-05
7.03368e-05
3.12829e-05
2.76231e-06
1.10218e-06
1.39237e-06
1.76295e-06
2.32995e-06
1.35794e-05
5.52963e-05
0.000485248
0.0101061
6.80102e-11
2.30012e-10
4.42495e-10
4.94609e-10
2.37556e-09
1.86531e-07
7.89269e-06
5.27993e-05
7.82626e-05
7.83863e-05
4.02475e-05
2.19795e-05
2.33738e-05
3.67424e-05
4.40231e-05
9.1912e-05
0.000322348
0.00106024
0.00867945
3.13131e-11
1.0534e-10
2.39756e-10
3.50471e-10
4.00877e-10
1.08947e-09
8.32979e-07
2.08712e-05
8.33002e-05
0.000105097
0.000107253
9.82835e-05
0.00010398
0.00014887
0.000178785
0.000189925
0.000417217
0.00250722
0.0090736
1.15842e-11
3.84284e-11
1.05241e-10
2.16746e-10
3.37526e-10
4.03572e-10
1.39468e-08
2.65839e-06
3.6314e-05
0.000107271
0.000136846
0.000144512
0.00018001
0.000267523
0.000452507
0.000785471
0.00203727
0.00573573
0.0109361
)
;

boundaryField
{
    leftWall
    {
        type            zeroGradient;
    }
    rightWall
    {
        type            zeroGradient;
    }
    lowerWall
    {
        type            zeroGradient;
    }
    atmosphere
    {
        type            inletOutlet;
        inletValue      nonuniform 0();
        value           nonuniform 0();
    }
    defaultFaces
    {
        type            empty;
    }
    procBoundary1to0
    {
        type            processor;
        value           nonuniform List<scalar> 
26
(
0.999997
0.999996
0.999999
0.999999
0.999997
0.999988
0.997166
0.901182
0.341161
0.00755408
2.41142e-05
2.90447e-06
6.69164e-08
9.73796e-12
9.27981e-12
9.06702e-12
1.13313e-11
1.13313e-11
7.49404e-12
3.84357e-12
1.87877e-12
1.48612e-12
1.25156e-12
7.45331e-13
3.01343e-13
9.01636e-14
)
;
    }
    procBoundary1to3
    {
        type            processor;
        value           nonuniform List<scalar> 
23
(
9.51819e-14
2.4414e-13
6.04528e-13
1.4502e-12
3.60213e-12
1.23491e-11
4.13316e-11
1.1003e-10
2.4686e-10
4.02114e-10
5.39248e-10
1.6558e-08
2.1874e-06
2.84563e-05
9.38272e-05
0.00015427
0.000210764
0.000350494
0.000699638
0.00146538
0.00374974
0.00761445
0.0104749
)
;
    }
}


// ************************************************************************* //
