/*--------------------------------*- C++ -*----------------------------------*\
| =========                 |                                                 |
| \\      /  F ield         | OpenFOAM: The Open Source CFD Toolbox           |
|  \\    /   O peration     | Version:  2.4.0                                 |
|   \\  /    A nd           | Web:      www.OpenFOAM.org                      |
|    \\/     M anipulation  |                                                 |
\*---------------------------------------------------------------------------*/
FoamFile
{
    version     2.0;
    format      ascii;
    class       volScalarField;
    location    "0.7";
    object      alpha.oil;
}
// * * * * * * * * * * * * * * * * * * * * * * * * * * * * * * * * * * * * * //

dimensions      [0 0 0 0 0 0 0];

internalField   nonuniform List<scalar> 
559
(
9.18156e-06
1.23657e-05
1.16902e-05
1.14078e-05
1.23522e-05
1.35261e-05
1.00386e-05
3.12335e-06
0.218924
0.218048
0.216706
0.216011
0.215907
0.215709
0.2154
0.214669
0.213883
0.213876
0.213575
0.213159
0.212724
0.21215
0.211722
0.211594
0.211212
0.210572
0.210249
0.353137
0.593061
0.414633
0.23333
0.216072
0.21586
0.215699
0.218915
0.23382
0.240779
0.240555
0.244264
0.244149
0.234674
0.213055
0.211255
0.210431
0.210132
0.209834
0.72127
0.701751
0.563236
0.3902
0.342687
0.359899
0.414425
0.526284
0.669472
0.797117
0.869328
0.883905
0.8674
0.769349
0.570574
0.27687
0.209594
0.209942
0.209354
0.833755
0.614155
0.40322
0.266334
0.211338
0.206584
0.230307
0.305389
0.457832
0.652365
0.839859
0.949779
0.972737
0.973189
0.949961
0.664338
0.241605
0.20947
0.20914
0.694086
0.431236
0.241133
0.186124
0.178163
0.173568
0.18529
0.232071
0.320281
0.44938
0.632852
0.826781
0.954685
0.972778
0.973568
0.904832
0.331447
0.212905
0.27147
0.355509
0.213632
0.183797
0.184287
0.169353
0.161009
0.128547
0.12795
0.14574
0.254562
0.437284
0.688505
0.906427
0.972848
0.972828
0.937831
0.409971
0.253693
0.580597
0.133328
0.136124
0.184353
0.242944
0.211245
0.170497
0.153191
0.13107
0.142994
0.198698
0.33306
0.58537
0.84816
0.963722
0.973499
0.961684
0.559289
0.416163
0.750629
0.115851
0.183093
0.275742
0.346516
0.321769
0.268491
0.199282
0.152633
0.166507
0.233726
0.356654
0.558173
0.798958
0.942331
0.972848
0.973063
0.803181
0.729059
0.803545
0.00285711
0.0414663
0.219917
0.438678
0.0174335
0.00019814
7.67005e-06
2.02571e-06
0.00543131
0.00776887
0.0134725
0.0241509
0.0470018
0.0583869
0.0815469
0.117841
0.247235
0.2873
0.344295
0.411764
0.53088
0.686622
0.756381
0.845967
0.0938595
0.537416
0.84274
0.844444
0.00504478
0.0877369
0.306542
0.35618
0.000186087
0.00306945
0.0105398
0.0128269
4.32677e-06
1.56613e-05
3.49634e-05
3.72096e-05
2.00014e-06
1.93331e-06
2.08104e-06
1.58569e-06
6.1964e-07
5.7319e-07
6.06373e-07
5.71159e-07
2.50834e-07
2.81508e-07
3.45098e-07
4.17354e-07
9.22406e-08
1.501e-07
1.99695e-07
1.84352e-07
2.25067e-08
5.93715e-08
8.10865e-08
6.49085e-08
1.53644e-08
2.13631e-08
3.06262e-08
2.90025e-08
9.27165e-09
1.43171e-08
1.71373e-08
2.12121e-08
5.25983e-09
6.63972e-09
1.02192e-08
1.07406e-08
2.0579e-09
2.96546e-09
3.58762e-09
5.17948e-09
0.12767
0.299514
0.322229
0.433377
0.502889
0.478282
0.400198
0.29036
0.229128
0.231971
0.318913
0.503629
0.708901
0.883919
0.965761
0.972815
0.952992
0.920687
0.846191
0.257059
0.337271
0.204882
0.241783
0.647149
0.7382
0.685276
0.584631
0.444326
0.318128
0.331586
0.446293
0.598815
0.80328
0.952208
0.969806
0.969651
0.968891
0.883899
0.54559
0.299563
0.224315
0.312828
0.689665
0.820928
0.757097
0.686956
0.625608
0.571192
0.413947
0.416346
0.468782
0.690391
0.932055
0.927823
0.947779
0.950368
0.891056
0.847112
0.848721
0.956736
0.965406
0.965221
0.965382
0.96451
0.848996
0.761086
0.702545
0.627014
0.484943
0.460472
0.440246
0.62394
0.588899
0.821246
0.837931
0.818663
0.71751
0.524893
0.713347
0.783669
0.851328
0.949279
0.98992
0.990034
0.944168
0.664954
0.599679
0.60522
0.494399
0.348772
0.364458
0.34145
0.500345
0.631263
0.708046
0.125027
0.0182139
0.0192029
0.0463913
0.144073
0.486861
0.889807
0.992169
0.993354
0.971447
0.676782
0.765671
0.612518
0.436464
0.32824
0.319011
0.342834
0.476199
0.631301
0.00297393
0.00011429
2.47286e-05
3.59674e-05
0.00178761
0.0631181
0.534116
0.965265
0.99321
0.992872
0.928373
0.766823
0.751085
0.579074
0.466682
0.417746
0.434757
0.47536
0.624681
8.46942e-06
4.20859e-06
7.27471e-06
0.000332416
0.00373619
0.0743087
0.500402
0.937771
0.988446
0.868337
0.513939
0.263824
0.730167
0.699538
0.587736
0.538989
0.492462
0.504051
0.642491
1.0515e-06
1.04629e-06
4.78917e-05
0.00578639
0.090428
0.492653
0.896734
0.943168
0.860059
0.357512
0.0532184
0.0337179
0.394349
0.699362
0.673652
0.61192
0.520245
0.567544
0.685188
4.43352e-07
5.8951e-07
0.00012523
0.0218275
0.318437
0.867245
0.961258
0.939252
0.542309
0.0804802
0.0259074
0.0258881
0.167603
0.699126
0.698871
0.538617
0.166472
0.487441
0.692901
3.12334e-07
4.34995e-07
0.000204262
0.0356201
0.446832
0.932226
0.960961
0.877819
0.337974
0.034892
0.0258544
0.02589
0.0459802
0.384337
0.666103
0.369548
0.0855751
0.159821
0.499634
1.67156e-07
4.82241e-07
0.000129897
0.0268508
0.331332
0.818919
0.958645
0.843714
0.321828
0.0308082
0.0258547
0.0257796
0.0257925
0.0496424
0.210838
0.271561
0.0795184
0.100627
0.483738
8.35123e-08
4.14023e-07
1.34062e-05
0.00244414
0.0543228
0.356376
0.799999
0.853389
0.662089
0.0979226
0.0258368
0.0258387
0.0256985
0.0257003
0.0381036
0.270028
0.416556
0.307321
0.621796
4.99524e-08
1.81665e-07
1.5313e-06
7.66941e-05
0.00149461
0.0454577
0.390373
0.844881
0.876033
0.467166
0.0558533
0.02719
0.0324375
0.041855
0.111052
0.505626
0.770748
0.645689
0.651745
2.85016e-08
8.03841e-08
5.49376e-07
1.62836e-06
1.75854e-05
0.00184744
0.0886366
0.588235
0.875099
0.870956
0.548145
0.360171
0.386965
0.48529
0.633595
0.853353
0.839866
0.751813
0.683891
1.71228e-08
3.34039e-08
1.47398e-07
6.17326e-07
1.08994e-06
1.58042e-05
0.00940163
0.213069
0.791976
0.930246
0.929662
0.907666
0.899303
0.895609
0.893284
0.881006
0.836696
0.767869
0.740095
7.61108e-09
1.20922e-08
3.8254e-08
2.06354e-07
3.74522e-07
1.01317e-06
0.000165843
0.0282684
0.317995
0.812869
0.925619
0.92579
0.908837
0.887276
0.864318
0.849679
0.844033
0.843859
0.843812
)
;

boundaryField
{
    leftWall
    {
        type            zeroGradient;
    }
    rightWall
    {
        type            zeroGradient;
    }
    lowerWall
    {
        type            zeroGradient;
    }
    atmosphere
    {
        type            inletOutlet;
        inletValue      nonuniform 0();
        value           nonuniform 0();
    }
    defaultFaces
    {
        type            empty;
    }
    procBoundary1to0
    {
        type            processor;
        value           nonuniform List<scalar> 
26
(
3.23984e-06
3.36665e-06
9.06092e-07
1.08693e-06
2.74435e-06
4.44399e-06
4.15642e-06
3.12335e-06
0.00304787
0.0374249
0.185278
0.426893
0.0643193
3.89597e-06
1.57404e-06
8.37928e-07
8.68622e-07
8.68622e-07
3.26897e-07
1.68011e-07
4.86106e-08
2.34166e-08
1.34203e-08
6.49657e-09
2.92707e-09
1.49897e-09
)
;
    }
    procBoundary1to3
    {
        type            processor;
        value           nonuniform List<scalar> 
23
(
8.86558e-10
7.93954e-10
1.30942e-09
1.59089e-09
2.89966e-09
4.12838e-09
1.18665e-08
7.90128e-08
1.48977e-07
4.5079e-07
7.37007e-07
0.000359745
0.0303216
0.267891
0.593557
0.683912
0.677397
0.60382
0.519919
0.499172
0.543486
0.632786
0.650421
)
;
    }
}


// ************************************************************************* //
