/*--------------------------------*- C++ -*----------------------------------*\
| =========                 |                                                 |
| \\      /  F ield         | OpenFOAM: The Open Source CFD Toolbox           |
|  \\    /   O peration     | Version:  2.4.0                                 |
|   \\  /    A nd           | Web:      www.OpenFOAM.org                      |
|    \\/     M anipulation  |                                                 |
\*---------------------------------------------------------------------------*/
FoamFile
{
    version     2.0;
    format      ascii;
    class       volScalarField;
    location    "0.7";
    object      alphas;
}
// * * * * * * * * * * * * * * * * * * * * * * * * * * * * * * * * * * * * * //

dimensions      [0 0 0 0 0 0 0];

internalField   nonuniform List<scalar> 
559
(
1.99999
1.99999
1.99999
1.99999
1.99999
1.99999
1.99924
1.92541
1.78055
1.78026
1.78015
1.78153
1.78293
1.78389
1.78449
1.78531
1.78611
1.78612
1.78642
1.78684
1.78732
1.78797
1.78837
1.78837
1.78852
1.78892
1.78907
1.64634
1.39948
1.55188
1.70723
1.73418
1.75439
1.76821
1.77354
1.76417
1.75893
1.7594
1.75574
1.75587
1.76536
1.78703
1.78874
1.7893
1.78912
1.78924
1.27838
1.24651
1.2265
1.14077
1.01842
1.02717
1.06992
1.14229
1.17603
1.14804
1.1143
1.11112
1.13143
1.2305
1.42917
1.72288
1.79006
1.7893
1.78962
1.16583
1.16189
0.937268
0.565674
0.296349
0.229794
0.252966
0.443704
0.616109
0.745315
0.850417
0.951401
0.99293
1.02304
1.04897
1.33436
1.75774
1.78968
1.7898
1.22824
0.982486
0.640725
0.298968
0.190688
0.178053
0.198732
0.378141
0.394454
0.475674
0.636179
0.826958
0.955094
1.00524
1.02365
1.09218
1.66725
1.78609
1.72475
0.917521
0.762575
0.410436
0.228764
0.173321
0.190956
0.367516
0.379618
0.38873
0.302541
0.439257
0.688641
0.906551
0.981867
1.01997
1.05768
1.58824
1.74425
1.39602
0.552791
0.46359
0.317308
0.259915
0.213259
0.177059
0.169741
0.197158
0.216616
0.224098
0.334837
0.585527
0.848285
0.964711
1.00799
1.03174
1.43743
1.57419
1.19789
0.526376
0.417784
0.328882
0.352873
0.322627
0.268885
0.199672
0.154924
0.207359
0.345451
0.369773
0.558479
0.799099
0.94261
0.987864
1.01658
1.18846
1.24704
1.14501
0.941112
0.0549856
0.224234
1.11861
2.95851
2.99959
2.99999
3
1.0467
1.03211
0.980902
0.915459
0.0626093
0.0779248
0.101791
0.136276
0.250751
0.289372
0.345611
0.41414
0.938088
0.692866
0.759393
0.9138
2.74018
1.68699
1.0747
1.18736
2.98929
2.81881
2.37475
2.27977
2.99964
2.99385
2.97889
2.97433
3
2.99998
2.99994
2.99993
3
3
3
3
3
3
3
3
2.99999
2.99999
2.99999
2.99999
2.99999
2.99999
2.99999
2.99999
3
2.99999
2.99999
2.99999
3
2.99999
2.99999
2.99999
3
2.99999
2.99999
2.99999
3
2.99999
2.99999
2.99999
2.99999
2.99999
2.99999
2.99999
0.554339
0.431225
0.776736
0.682505
0.568986
0.491359
0.401618
0.292871
0.332431
0.374089
0.402168
0.509893
0.709091
0.884163
0.968578
1.00545
1.03463
1.0522
1.10509
0.265627
1.12394
2.4214
2.43491
1.53391
1.0617
0.824005
0.749079
0.58891
0.422692
0.387229
0.452697
0.59917
0.803516
0.952614
0.976744
1.00494
0.999772
1.06194
0.633652
2.21918
2.54972
2.3743
1.62044
1.3574
1.47507
1.45184
1.28815
0.701393
0.428523
0.422163
0.47532
0.722969
0.949874
0.935552
0.956613
0.958717
0.974014
1.21366
1.29813
1.08649
1.06917
1.06951
1.06913
1.07077
1.30062
1.4493
1.42327
0.830181
0.491035
0.491923
1.1771
1.54932
1.47396
0.844863
0.841485
0.86031
1.55333
1.95008
1.5733
1.43265
1.29728
1.10116
1.01959
1.01934
1.11073
1.6677
1.60361
0.750699
0.528659
1.32894
1.68951
1.66557
1.00074
0.673818
0.732331
2.74927
2.96358
2.9616
2.90723
2.71184
2.02593
1.21899
1.01354
1.01126
1.05595
1.60268
1.11861
0.64787
0.905179
1.24038
1.12715
0.849962
0.562194
0.651346
2.99406
2.99978
2.99996
2.99994
2.99643
2.87359
1.92973
1.0655
1.01053
1.01247
1.14259
1.43696
0.88082
0.691
0.672962
0.608138
0.573799
0.517544
0.648903
2.99999
3
3
2.99935
2.99252
2.8507
1.99441
1.11753
1.01773
1.26124
1.97153
2.47148
1.36236
0.807193
0.601444
0.549607
0.501087
0.515593
0.676881
3
2.99999
2.99991
2.98843
2.81869
2.01027
1.19649
1.1029
1.27326
2.28328
2.89343
2.93244
2.20097
1.22435
0.694825
0.62477
0.743895
0.61672
0.729749
2.99999
2.99999
2.99975
2.9563
2.36102
1.25518
1.0627
1.10714
1.90888
2.83834
2.94806
2.9481
2.66307
1.50116
0.964339
1.07071
2.37944
1.30782
0.771595
2.99999
2.99999
2.9996
2.92867
2.10293
1.12077
1.05716
1.22509
2.31801
2.92988
2.94816
2.94809
2.90755
2.20742
1.48348
1.93397
2.64997
2.48984
1.226
2.99999
3
2.99975
2.94621
2.33398
1.34543
1.05553
1.28447
2.34576
2.938
2.94816
2.94831
2.94829
2.89969
2.55995
2.36201
2.64323
2.44008
1.06104
2.99999
3
2.99998
2.99511
2.8904
2.27565
1.36659
1.25255
1.64283
2.80082
2.9482
2.94819
2.94847
2.94843
2.91766
2.31115
1.54193
1.42925
0.711924
3
3
3
2.99985
2.99697
2.9068
2.19757
1.26131
1.18996
2.03765
2.8851
2.94407
2.9329
2.91304
2.76906
1.84559
0.876965
0.725643
0.672695
2.99999
3
3
3
2.99997
2.99619
2.81695
1.78139
1.18068
1.17761
1.84643
2.23347
2.16523
1.93418
1.61552
1.07537
0.845595
0.754208
0.701354
2.99999
2.99999
3
3
3
2.99997
2.98071
2.55899
1.34452
1.03084
1.01053
1.03049
1.01432
0.960679
0.919695
0.886803
0.838673
0.773266
0.758709
2.99999
2.99999
2.99999
2.99999
3
3
2.99967
2.94185
2.33734
1.28306
1.01195
0.986277
0.971722
0.976994
0.984528
0.962894
0.927576
0.916068
0.932575
)
;

boundaryField
{
    leftWall
    {
        type            zeroGradient;
    }
    rightWall
    {
        type            zeroGradient;
    }
    lowerWall
    {
        type            zeroGradient;
    }
    atmosphere
    {
        type            zeroGradient;
    }
    defaultFaces
    {
        type            empty;
    }
    procBoundary1to0
    {
        type            processor;
        value           nonuniform List<scalar> 
26
(
2
2
2
2
2
1.99998
1.99434
1.80237
0.685375
0.0526362
0.189765
0.946898
2.84525
2.99999
2.99999
2.99999
3
3
2.99999
2.99999
2.99999
3
3
3
3
3
)
;
    }
    procBoundary1to3
    {
        type            processor;
        value           nonuniform List<scalar> 
23
(
2.99999
2.99999
2.99999
2.99999
2.99999
2.99999
2.99999
2.99999
2.99999
3
3
2.99927
2.93766
2.44739
1.76969
1.57209
1.57873
1.72357
1.89291
1.93367
1.83603
1.6531
1.62883
)
;
    }
}


// ************************************************************************* //
