/*--------------------------------*- C++ -*----------------------------------*\
| =========                 |                                                 |
| \\      /  F ield         | OpenFOAM: The Open Source CFD Toolbox           |
|  \\    /   O peration     | Version:  2.4.0                                 |
|   \\  /    A nd           | Web:      www.OpenFOAM.org                      |
|    \\/     M anipulation  |                                                 |
\*---------------------------------------------------------------------------*/
FoamFile
{
    version     2.0;
    format      ascii;
    class       surfaceScalarField;
    location    "0.7";
    object      phi;
}
// * * * * * * * * * * * * * * * * * * * * * * * * * * * * * * * * * * * * * //

dimensions      [0 3 -1 0 0 0 0];

internalField   nonuniform List<scalar> 
1061
(
-3.42753e-06
-5.72828e-06
-6.26529e-06
-7.00222e-06
-8.44241e-06
-1.11161e-05
-1.3733e-05
-1.5292e-05
-1.92616e-05
1.92616e-05
-1.19628e-05
-7.29879e-06
1.09782e-05
-2.29411e-05
3.01828e-05
-1.92045e-05
4.1008e-05
-1.08253e-05
4.72604e-05
-6.25233e-06
5.30585e-05
-5.79816e-06
5.88248e-05
-5.76633e-06
6.3746e-05
-4.92112e-06
6.69496e-05
-3.20365e-06
6.80792e-05
-1.12955e-06
6.79291e-05
1.50062e-07
6.58552e-05
2.07391e-06
5.88368e-05
7.01836e-06
4.65688e-05
1.2268e-05
2.69458e-05
1.96231e-05
5.58505e-06
2.13607e-05
-5.11171e-06
1.06968e-05
-5.1117e-06
-7.95493e-06
2.72165e-05
1.31663e-05
-2.842e-05
3.04431e-05
-4.02178e-05
4.12541e-05
-3.00155e-05
4.79109e-05
-1.74821e-05
5.19721e-05
-1.03135e-05
5.53393e-05
-9.16542e-06
5.86357e-05
-9.06264e-06
6.26523e-05
-8.93779e-06
6.48049e-05
-5.35618e-06
6.53578e-05
-1.68244e-06
6.62918e-05
-7.83973e-07
6.77075e-05
6.58244e-07
6.76124e-05
7.1134e-06
5.96386e-05
2.02418e-05
4.08045e-05
3.84572e-05
1.91957e-05
4.29696e-05
-9.18165e-07
3.08106e-05
-6.02987e-06
-1.72952e-06
2.8946e-05
2.67258e-05
-5.68753e-05
4.57498e-05
-5.92419e-05
5.94405e-05
-4.37062e-05
6.01092e-05
-1.81508e-05
6.07807e-05
-1.0985e-05
6.07719e-05
-9.15665e-06
5.85607e-05
-6.85141e-06
5.56367e-05
-6.01383e-06
5.27207e-05
-2.44017e-06
4.8688e-05
2.35024e-06
4.49383e-05
2.96575e-06
4.31501e-05
2.44648e-06
4.51519e-05
5.11158e-06
4.45738e-05
2.08199e-05
3.59582e-05
4.70728e-05
1.71087e-05
6.1819e-05
-1.8767e-06
4.9796e-05
-7.90656e-06
1.80467e-05
1.08993e-05
3.75586e-05
-7.63872e-05
5.28745e-05
-7.45578e-05
6.15803e-05
-5.24119e-05
6.25071e-05
-1.90776e-05
6.23491e-05
-1.0827e-05
6.02787e-05
-7.08627e-06
5.84348e-05
-5.00756e-06
5.53709e-05
-2.94993e-06
5.21756e-05
7.55171e-07
4.76666e-05
6.85924e-06
4.17239e-05
8.90845e-06
3.61529e-05
8.01744e-06
2.69622e-05
1.43023e-05
2.12851e-05
2.6497e-05
1.51716e-05
5.31863e-05
1.26308e-05
6.43598e-05
-1.07193e-06
6.34988e-05
-8.9785e-06
3.78794e-05
-2.69801e-05
4.19639e-05
-8.04716e-05
4.6085e-05
-7.86789e-05
4.52361e-05
-5.1563e-05
4.81561e-05
-2.19977e-05
5.25453e-05
-1.52161e-05
5.60942e-05
-1.06352e-05
5.81973e-05
-7.11064e-06
5.91616e-05
-3.91419e-06
5.82048e-05
1.71198e-06
5.40859e-05
1.09781e-05
4.44482e-05
1.85462e-05
3.04573e-05
2.20083e-05
1.98787e-05
2.48808e-05
5.09266e-06
4.12831e-05
-5.63486e-06
6.39138e-05
3.32393e-06
5.5401e-05
4.22428e-07
6.64003e-05
-8.55607e-06
3.33489e-05
-6.0329e-05
3.9124e-05
-8.62468e-05
3.95412e-05
-7.90961e-05
3.80188e-05
-5.00406e-05
4.09856e-05
-2.49645e-05
4.23694e-05
-1.65999e-05
4.47343e-05
-1.30001e-05
4.85978e-05
-1.09741e-05
5.16414e-05
-6.95782e-06
5.31237e-05
2.29744e-07
5.19655e-05
1.21363e-05
4.51332e-05
2.53785e-05
3.18742e-05
3.52673e-05
1.82632e-05
3.84918e-05
2.54472e-07
5.92918e-05
-1.43844e-05
7.85527e-05
-1.18028e-05
5.28195e-05
-8.13013e-07
5.54105e-05
-9.36908e-06
2.80356e-05
-8.83646e-05
3.56864e-05
-9.38976e-05
3.4742e-05
-7.81518e-05
3.27543e-05
-4.80529e-05
3.52866e-05
-2.74969e-05
3.71874e-05
-1.85007e-05
3.93864e-05
-1.51992e-05
4.09656e-05
-1.25533e-05
4.338e-05
-9.37223e-06
4.63564e-05
-2.74663e-06
4.75214e-05
1.09713e-05
4.33504e-05
2.95494e-05
3.3034e-05
4.55837e-05
1.77876e-05
5.37383e-05
4.94422e-07
7.6585e-05
-1.16044e-05
9.06515e-05
-1.79597e-05
5.91748e-05
-6.41389e-06
4.38647e-05
-1.5783e-05
2.96002e-05
-0.000117965
3.46354e-05
-9.89328e-05
3.16173e-05
-7.51336e-05
3.0074e-05
-4.65096e-05
3.32371e-05
-3.06599e-05
3.55961e-05
-2.08597e-05
3.70939e-05
-1.6697e-05
3.75515e-05
-1.30109e-05
3.73195e-05
-9.14016e-06
3.77909e-05
-3.21808e-06
3.96073e-05
9.15498e-06
3.87531e-05
3.04036e-05
3.55394e-05
4.87974e-05
2.3701e-05
6.55767e-05
1.3297e-05
8.6989e-05
-1.20279e-06
0.000105151
-1.6546e-05
7.4518e-05
-1.09809e-05
3.82995e-05
-2.67639e-05
-1.88311e-05
9.53274e-06
-2.66502e-05
6.69203e-05
-1.88296e-05
6.3689e-05
6.01997e-06
4.42597e-05
8.66868e-05
-6.18718e-05
0.000134178
-0.000117611
0.000190632
-0.000203996
-0.000218521
2.32178e-05
-1.36851e-05
3.74308e-05
-1.4213e-05
5.58619e-05
-1.84311e-05
-2.16412e-05
7.75031e-05
6.34801e-05
-1.02449e-05
6.12117e-05
-1.19446e-05
6.00609e-05
-1.72803e-05
-2.24754e-05
6.08952e-05
6.5626e-05
-1.21818e-05
7.01075e-05
-1.64262e-05
7.01867e-05
-1.73595e-05
-8.22697e-06
5.59383e-05
-2.02201e-05
5.22978e-05
-6.36163e-05
2.697e-05
-0.000106744
2.5768e-05
3.68081e-05
-0.000151779
-8.70201e-05
7.74461e-05
-0.000106817
4.67668e-05
-0.000137058
5.60081e-05
4.95861e-05
-0.000149836
-0.000149269
0.000109104
-0.000169873
6.73713e-05
-0.000161288
4.74231e-05
4.89555e-05
-0.000160658
-0.000210103
0.000115211
-0.000241545
9.88133e-05
-0.000271209
7.70872e-05
6.77402e-05
-0.000289994
-0.00022276
0.00011945
-0.000236346
0.000112399
-0.000248753
8.94939e-05
7.41668e-05
-0.000255179
-0.000172795
0.000116081
-0.000168671
0.000108275
-0.000163945
8.47678e-05
6.21985e-05
-0.000151976
-5.4107e-05
9.90028e-05
-3.79467e-05
9.21146e-05
-2.83716e-05
7.51928e-05
5.78422e-05
-2.40154e-05
1.05545e-05
7.62473e-05
2.82207e-05
7.44484e-05
3.74804e-05
6.59331e-05
5.44859e-05
4.08367e-05
1.12913e-05
5.92758e-05
2.63004e-05
5.94394e-05
3.58395e-05
5.63941e-05
5.23224e-05
3.8003e-05
5.14415e-07
4.91162e-05
1.00033e-05
4.99505e-05
1.6526e-05
4.98714e-05
4.91332e-05
1.97152e-05
-1.88128e-06
4.22698e-05
4.52483e-06
4.35443e-05
1.00329e-05
4.43633e-05
4.47214e-05
1.44447e-05
8.8261e-08
3.72394e-05
5.30819e-06
3.83244e-05
1.04535e-05
3.92179e-05
3.9914e-05
1.52609e-05
4.971e-06
3.31586e-05
9.31723e-06
3.39782e-05
1.38889e-05
3.46463e-05
3.5297e-05
1.85059e-05
9.29606e-06
1.32995e-05
1.74492e-05
2.17854e-05
6.89383e-05
-0.0001094
7.17142e-05
-0.000101709
6.72326e-05
-7.0652e-05
4.54362e-05
-2.47131e-05
5.37514e-05
-3.89752e-05
6.71165e-05
-3.42248e-05
7.28439e-05
-2.24243e-05
7.16616e-05
-1.18287e-05
6.69666e-05
-4.44512e-06
6.46511e-05
-9.02646e-07
6.8105e-05
5.70109e-06
7.03797e-05
2.81289e-05
7.10598e-05
4.81173e-05
5.70721e-05
7.95645e-05
4.06249e-05
0.000103436
3.08613e-05
0.000114915
-6.22511e-06
0.000111604
-1.38768e-05
4.59513e-05
-4.06407e-05
4.48973e-05
-9.34022e-05
1.06603e-05
-6.74718e-05
-5.61667e-05
-3.82515e-06
-7.84977e-05
-2.38223e-06
-3.79125e-05
-7.95604e-05
1.14411e-05
-8.35784e-05
4.88639e-05
-5.98472e-05
6.19036e-05
-2.48683e-05
6.0588e-05
-3.12954e-06
5.60216e-05
3.66378e-06
4.82425e-05
1.34802e-05
4.55125e-05
3.08589e-05
4.97154e-05
4.39144e-05
4.45703e-05
8.47096e-05
2.54364e-05
0.00012257
2.7748e-05
0.000112603
1.75693e-05
0.000121783
7.17017e-06
5.63504e-05
-3.34705e-05
-3.48751e-05
-2.58877e-06
-0.000150947
4.85996e-05
-0.000175272
2.04999e-05
-0.000145255
-3.2399e-05
-0.000127436
-9.73798e-05
-8.90406e-05
-0.000121973
-3.07395e-05
-0.000118148
3.23325e-05
-8.79403e-05
6.51529e-05
-3.595e-05
6.16852e-05
7.13148e-06
5.11892e-05
2.39762e-05
4.13054e-05
4.07427e-05
3.94655e-05
4.57543e-05
3.08052e-05
9.33698e-05
7.72698e-06
0.000145648
1.29485e-05
0.000107382
2.07705e-05
0.000113961
1.64322e-05
6.06887e-05
-1.70383e-05
-0.000218909
6.45416e-05
-0.000197659
2.73495e-05
-0.000149476
-2.76833e-05
-0.00012734
-5.45346e-05
-0.000126229
-9.84914e-05
-0.000114934
-0.000133268
-8.35484e-05
-0.000149534
-2.77829e-05
-0.000143706
4.32472e-05
-0.00010698
7.62418e-05
-2.58631e-05
5.3569e-05
4.6649e-05
4.10897e-05
5.3222e-05
3.04928e-05
5.63511e-05
1.88021e-05
0.000105061
9.22651e-06
0.000155224
4.85741e-06
0.000111751
2.62239e-05
9.25946e-05
2.64212e-05
6.04914e-05
9.38289e-06
-0.00016849
8.31958e-05
-0.000178096
3.69562e-05
-0.000186791
-1.89885e-05
-0.000176719
-6.46069e-05
-0.000165137
-0.000110074
-0.000140402
-0.000158002
-0.000103767
-0.000186169
-6.28927e-05
-0.000184581
-1.48856e-05
-0.000154987
4.78539e-05
-8.86027e-05
5.82681e-05
3.62348e-05
4.24563e-05
6.90338e-05
1.97867e-05
7.90208e-05
1.15847e-05
0.000113262
2.57219e-05
0.000141087
2.96955e-05
0.000107777
4.26739e-05
7.96162e-05
3.4835e-05
6.83304e-05
4.42179e-05
-0.000153522
7.60601e-05
-0.000201804
8.52381e-05
-0.000254336
3.35437e-05
-0.000272775
-4.61678e-05
-0.000222569
-0.00016028
-0.000142829
-0.000237742
-0.000111871
-0.000217127
-7.73562e-05
-0.000219096
-4.52417e-05
-0.000187102
2.79002e-06
-0.000136634
6.4717e-05
-2.56922e-05
5.82602e-05
7.54906e-05
2.71498e-05
0.000110131
2.01614e-05
0.000120251
3.97316e-05
0.000121516
5.45161e-05
9.29926e-05
5.39801e-05
8.01522e-05
3.90505e-05
8.32599e-05
8.32684e-05
-0.000316227
0.000102293
-0.000244297
1.33087e-05
-0.000184409
-2.6345e-05
-0.000160629
-6.99476e-05
-0.000161908
-0.000159
-0.00016067
-0.000238981
-0.000106677
-0.000271119
-7.99194e-05
-0.000245853
-5.4951e-05
-0.00021207
-3.62882e-05
-0.000155297
1.39591e-05
-7.59395e-05
4.80829e-05
4.13668e-05
3.40791e-05
0.000124135
2.91211e-05
0.000125209
4.42829e-05
0.000106355
5.85667e-05
7.87089e-05
5.58544e-05
8.28645e-05
3.95302e-05
9.95841e-05
0.000122799
-0.000246844
9.39577e-05
-0.000242785
9.25018e-06
-0.00022585
-4.32807e-05
-0.00017681
-0.000118987
-0.000107737
-0.000228074
-8.02569e-05
-0.00026646
-9.19891e-05
-0.000259387
-8.6037e-05
-0.000251805
-7.82529e-05
-0.000219854
-6.35738e-05
-0.000169976
-3.72433e-05
-0.00010227
-8.97914e-06
1.31025e-05
2.38322e-05
9.13236e-05
2.5623e-05
0.000123418
4.27367e-05
8.92408e-05
5.61804e-05
6.52652e-05
4.78232e-05
9.12218e-05
2.82587e-05
0.000119149
0.000151057
-0.000121786
6.37671e-05
-0.000120915
8.37959e-06
-0.000146173
-1.80226e-05
-0.000130947
-0.000134213
-9.51002e-05
-0.000263921
-0.000104987
-0.000256573
-0.000102711
-0.000261664
-0.000114805
-0.000239711
-0.00012651
-0.00020815
-0.000146734
-0.000149752
-0.000127694
-0.00012131
-5.05862e-05
-6.40053e-05
-1.15682e-05
5.23056e-05
8.87258e-06
0.000102977
2.74089e-05
7.07045e-05
4.21624e-05
5.05117e-05
1.78523e-05
0.000115532
4.11828e-06
0.000132883
0.000155176
-3.10523e-05
7.0804e-05
-4.5347e-05
2.26743e-05
-8.86858e-05
2.53162e-05
-0.000115968
-0.000106932
-0.000114959
-0.000264929
-0.000118813
-0.000252719
-0.000127846
-0.000252631
-0.000140555
-0.000227001
-0.000168124
-0.000180581
-0.000180039
-0.000137837
-0.000173959
-0.00012739
-0.000113012
-0.000124952
-5.60032e-05
-4.70348e-06
-2.78284e-05
7.48026e-05
-1.49502e-05
5.78264e-05
-3.11207e-06
3.86736e-05
-1.95987e-05
0.000132018
-2.28732e-05
0.000136157
0.000132302
2.28836e-05
8.87571e-05
-2.52413e-05
7.07992e-05
-8.36927e-05
8.37675e-05
-0.000121631
-6.8993e-05
-0.000142225
-0.000244336
-0.000150506
-0.000244439
-0.000155126
-0.00024801
-0.000161612
-0.000220515
-0.00017806
-0.000164133
-0.000197189
-0.000118708
-0.00019976
-0.000124819
-0.000189764
-0.000134948
-0.00011104
-8.34275e-05
-6.59898e-05
2.97528e-05
-6.58522e-05
5.76888e-05
-8.63309e-05
5.91523e-05
-9.38421e-05
0.00013953
-7.71778e-05
0.000119493
5.51245e-05
1.81312e-05
0.000108629
-2.0042e-05
0.000108972
-6.28321e-05
0.000126558
-0.000135474
3.64862e-06
-0.000164251
-0.000215559
-0.000170777
-0.000237913
-0.000174633
-0.000244153
-0.000178907
-0.000216242
-0.000183148
-0.000159893
-0.000200365
-0.000101491
-0.000202063
-0.000123121
-0.0002118
-0.000125211
-0.000188153
-0.000107074
-0.000147033
-1.13669e-05
-0.000143338
5.39936e-05
-0.000162762
7.8576e-05
-0.000101318
7.80858e-05
-4.10562e-05
5.9231e-05
1.40683e-05
1.44478e-05
0.000113896
5.01413e-06
0.000118406
-1.15654e-05
0.000143137
-8.7358e-05
7.94412e-05
-0.000179199
-0.000123718
-0.000166415
-0.000250696
-0.000178203
-0.000232366
-0.000180687
-0.000213757
-0.00017347
-0.00016711
-0.000179171
-9.57892e-05
-0.000198418
-0.000103874
-0.000212949
-0.00011068
-0.00024375
-7.62734e-05
-0.000228649
-2.64686e-05
-0.000176577
1.92201e-06
-9.80038e-05
2.76232e-09
-3.48017e-05
1.48837e-05
-7.80023e-06
3.22295e-05
6.2681e-06
2.04339e-05
0.000107907
2.56459e-05
0.000113194
4.03406e-05
0.000128442
1.1702e-06
0.000118612
-0.00010621
-1.63379e-05
-0.000183423
-0.000173483
-0.000170276
-0.000245513
-0.000180511
-0.000203522
-0.000171416
-0.000176205
-0.000150093
-0.000117112
-0.000176556
-7.74106e-05
-0.000198594
-8.86424e-05
-0.000192608
-8.22599e-05
-0.000151229
-6.78476e-05
-9.65396e-05
-5.2767e-05
-5.6215e-05
-4.03219e-05
-2.82944e-05
-1.30368e-05
-7.39656e-06
1.13316e-05
-1.12846e-06
2.5683e-05
9.74852e-05
3.86196e-05
0.000100257
5.99151e-05
0.000107147
7.0896e-05
0.000107631
7.25088e-06
4.73072e-05
-0.000102313
-6.39194e-05
-0.000169836
-0.00017799
-0.000175191
-0.000198166
-0.00017631
-0.000175086
-0.000155608
-0.000137814
-0.000133838
-9.91808e-05
-0.00012722
-9.52606e-05
-0.000113311
-9.61682e-05
-9.1111e-05
-9.00479e-05
-7.12149e-05
-7.26631e-05
-5.76113e-05
-5.39256e-05
-4.23807e-05
-2.82674e-05
-1.8267e-05
-1.27821e-05
-1.93955e-05
3.03057e-05
8.56854e-05
4.40594e-05
8.65037e-05
6.34157e-05
8.77904e-05
8.33275e-05
8.77188e-05
7.00479e-05
6.05869e-05
-6.82172e-06
1.29502e-05
-0.000125636
-5.91762e-05
-0.000166859
-0.000156943
-0.000178557
-0.000163389
-0.000170536
-0.000145835
-0.000153708
-0.000116009
-0.000143449
-0.000105519
-0.000137434
-0.000102183
-0.000130083
-9.73988e-05
-0.000116338
-8.64081e-05
-9.83687e-05
-7.18952e-05
-7.41138e-05
-5.25222e-05
-3.85434e-05
-4.83524e-05
-5.79389e-05
3.30499e-05
4.53106e-05
5.95455e-05
7.67201e-05
7.64548e-05
4.8563e-05
-3.53958e-05
-0.000145104
-0.000170553
-0.000177166
-0.000170364
-0.000162629
-0.000155314
-0.000147211
-0.000135212
-0.000117231
-8.85139e-05
-4.84982e-05
)
;

boundaryField
{
    leftWall
    {
        type            calculated;
        value           nonuniform 0();
    }
    rightWall
    {
        type            calculated;
        value           uniform 0;
    }
    lowerWall
    {
        type            calculated;
        value           nonuniform List<scalar> 
40
(
-2.86398e-22
0
0
0
0
0
0
0
0
3.43982e-23
8.30721e-23
-3.18028e-24
-2.55057e-23
0
0
0
0
0
0
0
0
3.74109e-23
6.70162e-23
-2.38735e-22
8.5582e-23
1.1671e-22
-2.04519e-23
-3.97135e-22
-1.01383e-22
3.70749e-23
-2.53423e-22
-2.28766e-22
-2.08191e-22
-3.74558e-23
2.00591e-23
1.04018e-22
4.04026e-23
-2.04359e-22
-2.54258e-22
-1.1617e-22
)
;
    }
    atmosphere
    {
        type            calculated;
        value           nonuniform 0();
    }
    defaultFaces
    {
        type            empty;
        value           nonuniform 0();
    }
    procBoundary1to0
    {
        type            processor;
        value           nonuniform List<scalar> 
26
(
3.42753e-06
2.30075e-06
5.37016e-07
7.36934e-07
1.44018e-06
2.67365e-06
2.61693e-06
1.55896e-06
-5.99357e-06
-5.91012e-05
-7.15096e-05
-6.91093e-05
-1.87946e-05
7.01194e-05
0.000147541
0.000203158
0.000205995
0.000176164
7.11849e-05
1.22011e-05
5.68012e-06
9.6452e-06
8.72768e-06
4.94221e-06
-8.90235e-07
-5.55663e-06
)
;
    }
    procBoundary1to3
    {
        type            processor;
        value           nonuniform List<scalar> 
23
(
2.94192e-05
2.99748e-05
3.04965e-05
3.09609e-05
7.44209e-05
7.42431e-05
7.35555e-05
7.05441e-05
6.08521e-05
4.08421e-05
2.47825e-05
-4.72346e-05
-0.000137939
-0.000139222
-0.00012281
-0.000113255
-0.000109498
-0.000105501
-9.84077e-05
-8.98758e-05
-8.12393e-05
-8.83681e-05
-0.000106437
)
;
    }
}


// ************************************************************************* //
