/*--------------------------------*- C++ -*----------------------------------*\
| =========                 |                                                 |
| \\      /  F ield         | OpenFOAM: The Open Source CFD Toolbox           |
|  \\    /   O peration     | Version:  2.4.0                                 |
|   \\  /    A nd           | Web:      www.OpenFOAM.org                      |
|    \\/     M anipulation  |                                                 |
\*---------------------------------------------------------------------------*/
FoamFile
{
    version     2.0;
    format      ascii;
    class       surfaceScalarField;
    location    "0.7";
    object      phi.mercury;
}
// * * * * * * * * * * * * * * * * * * * * * * * * * * * * * * * * * * * * * //

dimensions      [0 3 -1 0 0 0 0];

internalField   nonuniform List<scalar> 
1061
(
-3.42755e-06
-5.7283e-06
-6.26532e-06
-7.00225e-06
-8.44244e-06
-1.11188e-05
-1.42782e-05
-2.34183e-05
-1.98046e-05
-3.54924e-06
-1.07349e-05
-3.78134e-05
1.11655e-05
-4.26193e-05
2.90839e-05
-3.22867e-05
4.01092e-05
-2.26186e-05
4.6798e-05
-1.76126e-05
5.28268e-05
-1.67882e-05
5.85957e-05
-1.65611e-05
6.3546e-05
-1.60636e-05
6.68841e-05
-1.48117e-05
6.82443e-05
-1.31564e-05
6.82297e-05
-1.23444e-05
6.64306e-05
-1.11387e-05
5.99447e-05
-6.56468e-06
4.80991e-05
-1.50581e-06
2.89511e-05
6.02361e-06
6.46152e-06
8.62336e-06
-5.14462e-06
-2.12543e-06
-1.61516e-05
-7.09601e-06
7.76223e-06
1.74791e-05
-7.217e-05
3.11071e-05
-7.84145e-05
4.04956e-05
-6.00674e-05
4.72797e-05
-4.78762e-05
5.16395e-05
-3.65185e-05
5.51603e-05
-3.35613e-05
5.84342e-05
-3.37423e-05
6.24553e-05
-3.62988e-05
6.46567e-05
-3.70161e-05
6.53723e-05
-3.75835e-05
6.63508e-05
-3.8565e-05
6.80459e-05
-3.34375e-05
6.82613e-05
-1.71779e-05
6.09263e-05
5.28092e-06
4.2878e-05
3.01346e-05
2.01836e-05
3.66789e-05
-5.63806e-07
2.53338e-05
-1.26291e-05
2.74055e-06
-1.25002e-05
3.15957e-05
-0.000102348
4.41419e-05
-0.00011472
5.51636e-05
-0.000116105
5.78764e-05
-0.000119699
5.92934e-05
-0.000118391
5.96702e-05
-0.000116559
5.75912e-05
-0.000119296
5.48181e-05
-0.000116641
5.25917e-05
-0.000102092
4.8792e-05
-0.000108885
4.58165e-05
-0.000127026
4.68111e-05
-0.000113519
5.01418e-05
-8.64514e-05
4.96071e-05
-5.53366e-05
3.88588e-05
1.45236e-05
1.85429e-05
5.09194e-05
-1.62917e-06
3.97669e-05
-1.66704e-05
2.51891e-05
-3.53314e-05
3.76646e-05
-0.000112344
4.45669e-05
-0.000131978
4.62944e-05
-0.000153759
4.78199e-05
-0.000165632
5.31553e-05
-0.000167801
5.72492e-05
-0.000155092
5.82756e-05
-0.000142918
5.78892e-05
-0.000122709
6.05194e-05
-8.44301e-05
5.48814e-05
-7.62562e-05
4.72967e-05
-9.52282e-05
4.03956e-05
-0.000151212
3.4624e-05
-0.000120804
2.94447e-05
-9.79048e-05
2.19939e-05
-8.16463e-06
1.40356e-05
5.19163e-05
-5.86347e-07
5.37487e-05
-1.93796e-05
3.77363e-05
-7.55927e-05
3.71672e-05
-0.000121821
3.89458e-05
-0.000145211
4.03364e-05
-0.000170033
4.24652e-05
-0.00017067
4.30516e-05
-0.000148546
4.37384e-05
-0.000131736
4.74997e-05
-0.000124656
4.90203e-05
-9.79186e-05
5.60667e-05
-4.90212e-05
5.74767e-05
-2.1026e-05
5.4036e-05
-1.5626e-05
4.82579e-05
-8.79902e-05
3.50452e-05
-0.000124115
1.99562e-05
-0.000101766
8.923e-06
-1.79963e-05
4.87378e-06
4.33359e-05
1.28889e-06
5.69645e-05
-3.57513e-05
3.42238e-05
-0.000113387
3.58031e-05
-0.000135223
3.93683e-05
-0.000160134
4.18757e-05
-0.000184309
3.97413e-05
-0.000173158
4.10551e-05
-9.99113e-05
4.25739e-05
-9.93396e-05
4.25481e-05
-0.000119771
4.45122e-05
-8.51062e-05
5.06826e-05
-4.25231e-05
5.40646e-05
-1.93647e-05
5.29547e-05
-4.4011e-06
3.87354e-05
-4.9616e-06
3.1992e-05
-0.000128712
1.47845e-05
-0.000101622
-2.86519e-06
-2.17141e-05
-1.10716e-05
3.46588e-05
6.80636e-08
4.32203e-05
-6.17675e-05
3.17225e-05
-0.000129419
3.68713e-05
-0.000145688
4.02909e-05
-0.000174742
3.89968e-05
-0.000196678
3.40557e-05
-0.000159823
3.86801e-05
-6.32262e-05
3.86958e-05
-5.48877e-05
3.83271e-05
-6.49345e-05
4.227e-05
-4.8733e-05
4.60837e-05
-3.26631e-05
4.85351e-05
-2.05205e-05
4.64593e-05
-2.83289e-06
3.7803e-05
9.06351e-06
3.15296e-05
-8.01025e-05
1.49794e-05
-0.000105609
-3.86264e-06
-4.62335e-05
-1.8028e-05
2.47935e-05
-4.56871e-06
2.10973e-05
-8.44252e-05
3.35164e-05
-0.000134018
3.80209e-05
-0.000153087
3.95641e-05
-0.000185257
3.67365e-05
-0.00020221
3.38979e-05
-0.000142554
3.51442e-05
-5.87027e-05
3.76953e-05
-3.59421e-05
3.78266e-05
-2.94196e-05
3.7657e-05
-3.13635e-05
3.83051e-05
-3.12391e-05
4.04387e-05
-2.17731e-05
4.12747e-05
-1.14715e-06
3.32917e-05
1.33357e-05
2.43409e-05
-1.24585e-05
2.0499e-05
-0.000107431
2.8528e-06
-6.05253e-05
-1.62804e-05
1.50915e-05
-1.30586e-06
-1.6524e-06
-9.42319e-05
-7.45062e-05
1.06365e-05
-6.60817e-05
5.51376e-05
-4.41569e-05
7.17801e-05
-7.7005e-05
5.95167e-05
-1.81517e-05
2.59129e-05
0.000129118
-0.000119414
0.000190483
-0.000203522
-0.000218492
2.13582e-05
-3.91077e-05
3.35361e-05
-3.9001e-05
4.87928e-05
-4.35183e-05
-4.49175e-05
6.47935e-05
6.21799e-05
-2.98242e-05
6.83934e-05
-2.96078e-05
6.87767e-05
-3.19567e-05
-3.25698e-05
6.68149e-05
7.16098e-05
-1.84554e-05
7.35003e-05
-1.90532e-05
7.2805e-05
-2.19464e-05
-1.6333e-05
6.23678e-05
7.92937e-06
-1.82362e-05
-5.35558e-05
-2.86419e-06
-9.82977e-05
1.45563e-05
2.66814e-05
-0.000149017
-8.93846e-07
-5.60188e-07
-7.05064e-05
4.13333e-06
-0.000122826
1.88335e-05
2.24443e-05
-0.000145536
-0.000127823
6.13102e-05
-0.000127972
1.6771e-05
-0.000140996
1.37912e-05
1.56211e-05
-0.000159837
-0.000201552
0.000109439
-0.000203554
6.73934e-05
-0.000202826
3.87941e-05
3.27259e-05
-0.000213812
-0.000222705
0.000119438
-0.000235901
0.0001121
-0.000247779
8.88664e-05
7.36685e-05
-0.000254243
-0.000172771
0.000116087
-0.00016868
0.000108269
-0.000163984
8.47206e-05
6.21755e-05
-0.000151995
-5.40853e-05
9.89973e-05
-3.79249e-05
9.21141e-05
-2.83773e-05
7.51808e-05
5.78284e-05
-2.4025e-05
1.05639e-05
7.62357e-05
2.82368e-05
7.44386e-05
3.74925e-05
6.59212e-05
5.44729e-05
4.08444e-05
1.13017e-05
5.92627e-05
2.63113e-05
5.94259e-05
3.58521e-05
5.63802e-05
5.23069e-05
3.80095e-05
5.2242e-07
4.91035e-05
1.00127e-05
4.99376e-05
1.65336e-05
4.98574e-05
4.91173e-05
1.97202e-05
-1.87403e-06
4.22582e-05
4.53112e-06
4.35322e-05
1.00401e-05
4.4351e-05
4.4708e-05
1.44534e-05
9.36613e-08
3.72291e-05
5.31506e-06
3.8314e-05
1.04598e-05
3.92069e-05
3.99026e-05
1.52679e-05
4.97575e-06
3.31494e-05
9.32169e-06
3.39683e-05
1.38939e-05
3.46359e-05
3.52865e-05
1.85124e-05
9.29772e-06
1.33015e-05
1.74534e-05
2.17906e-05
7.21809e-05
-0.000137383
8.33719e-05
-0.000175823
8.54571e-05
-0.000185068
6.86854e-05
-0.000136394
6.46509e-05
-0.000103258
6.80456e-05
-6.36048e-05
7.3818e-05
-4.34199e-05
7.21012e-05
-3.08617e-05
7.09983e-05
-2.72321e-05
6.91631e-05
-2.62261e-05
7.29203e-05
-2.02646e-05
7.46392e-05
1.01995e-06
6.73635e-05
1.53491e-05
4.78566e-05
1.8871e-05
3.61862e-05
-6.44298e-05
2.24181e-05
-7.45865e-05
6.33623e-06
-1.2586e-05
2.35913e-05
-4.23535e-05
-0.000103619
5.82595e-05
-8.65541e-05
3.56355e-05
-9.855e-05
4.98535e-06
-0.000134688
-2.80995e-05
-0.000101256
-2.44778e-05
-0.000112511
1.31372e-05
-0.000113431
4.83596e-05
-9.51535e-05
6.28901e-05
-5.98337e-05
6.40334e-05
-3.34245e-05
5.88479e-05
-1.70372e-05
5.29863e-05
-6.64347e-06
5.02057e-05
8.87776e-06
4.77548e-05
1.62965e-05
4.41055e-05
3.02017e-05
3.3788e-05
1.79279e-05
3.98969e-05
-6.37589e-05
5.26222e-05
-4.23972e-05
5.78461e-05
-7.13593e-05
-9.88812e-05
-3.63653e-05
-3.56831e-05
-0.000153316
-3.47235e-05
-0.000153981
-7.84235e-05
-0.000132807
-0.000109046
-0.000114031
-0.000132907
-8.58089e-05
-0.000154143
-2.86541e-05
-0.000153808
3.32891e-05
-0.000127864
6.44121e-05
-8.20902e-05
6.53519e-05
-3.40914e-05
5.6718e-05
-2.53884e-06
4.6683e-05
1.93726e-05
3.93518e-05
2.30385e-05
3.30273e-05
3.48315e-05
1.99049e-05
5.46327e-05
4.30441e-05
1.96279e-06
6.90357e-05
-3.69335e-05
7.05177e-05
-5.96098e-05
-8.64054e-05
-0.000214008
3.66773e-05
-0.000173409
-3.81274e-05
-0.00012613
-6.78076e-05
-0.000123699
-9.22313e-05
-0.000120283
-0.000131656
-0.000107969
-0.000166262
-7.90129e-05
-0.000183707
-3.41873e-05
-0.00018394
3.08735e-05
-0.000151755
7.22073e-05
-8.57845e-05
6.08388e-05
-3.48941e-06
4.79511e-05
3.06776e-05
3.84932e-05
3.68391e-05
3.10059e-05
4.94329e-05
1.92107e-05
6.61807e-05
3.48575e-05
3.86637e-05
5.9259e-05
1.56386e-05
6.85793e-05
3.11483e-06
-7.25682e-05
-0.000158216
-5.8755e-07
-0.00015833
-7.9441e-05
-0.000176238
-9.41319e-05
-0.000172084
-0.000123314
-0.000150361
-0.000184261
-0.000123874
-0.000217811
-9.57103e-05
-0.000223161
-6.24675e-05
-0.000218664
-2.81e-05
-0.000189735
3.67097e-05
-0.000137931
7.04015e-05
-3.01982e-05
5.29789e-05
3.52174e-05
3.70259e-05
5.81903e-05
3.54104e-05
7.05513e-05
4.00039e-05
7.4063e-05
5.18602e-05
5.37906e-05
5.59902e-05
4.60664e-05
6.72132e-05
2.28339e-05
-6.12185e-05
-0.000173635
-2.11223e-05
-0.000190481
-4.81202e-05
-0.000206218
-9.08103e-05
-0.000181386
-0.00022503
-0.000132296
-0.000231189
-0.000111193
-0.000289813
-9.64646e-05
-0.000283607
-7.42757e-05
-0.000248514
-4.83003e-05
-0.000215837
-2.54814e-06
-0.000167119
6.38058e-05
-8.55194e-05
7.14092e-05
2.12992e-05
4.27007e-05
8.211e-05
3.70901e-05
9.09215e-05
4.96152e-05
8.43995e-05
6.32749e-05
6.23582e-05
5.45765e-05
5.42648e-05
6.60914e-05
-1.6348e-05
-4.97266e-05
-0.000269767
6.06003e-05
-0.000241796
1.07734e-05
-0.000185745
-2.83017e-05
-0.000162555
-0.000120804
-8.09726e-05
-0.000281901
-8.61912e-05
-0.000333709
-8.64224e-05
-0.000300467
-7.70995e-05
-0.00026189
-6.03286e-05
-0.000230122
-4.27375e-05
-0.000180749
4.44583e-06
-0.000124009
5.53558e-05
-4.10026e-05
5.04722e-05
8.58898e-05
4.14645e-05
0.000102384
5.10445e-05
8.61658e-05
6.29582e-05
5.92653e-05
5.5743e-05
5.82302e-05
6.27744e-05
-6.42551e-05
-3.67977e-05
-0.000246578
9.3748e-05
-0.000242717
8.87947e-06
-0.000225008
-5.11667e-05
-0.000178237
-0.000246047
-8.20938e-05
-0.000241381
-8.69672e-05
-0.00027318
-9.2433e-05
-0.000283771
-8.94526e-05
-0.000256564
-8.27969e-05
-0.000221593
-6.14648e-05
-0.000162343
-3.26019e-05
-0.000102353
1.54274e-05
-5.27176e-05
4.59772e-05
6.77727e-05
3.87648e-05
9.86928e-05
4.80133e-05
7.3931e-05
5.79142e-05
4.92535e-05
5.22285e-05
4.69776e-05
6.07621e-05
-8.01536e-05
-2.5872e-05
-0.000121775
6.37688e-05
-0.000121126
8.34683e-06
-0.000160635
-3.76672e-05
-0.000105434
-0.000255928
-0.00010538
-0.000254662
-0.000105211
-0.000257945
-0.000104992
-0.000259479
-0.000114283
-0.00023164
-0.000110584
-0.000189468
-9.2601e-05
-0.000108009
-5.28869e-05
-4.56624e-05
1.08471e-05
-2.37363e-05
3.5527e-05
4.98206e-05
2.61321e-05
8.04897e-05
2.94572e-05
5.2918e-05
3.26733e-05
2.2876e-05
4.2055e-05
-1.42138e-05
5.50727e-05
-8.16124e-05
-2.6863e-05
-3.10388e-05
7.07854e-05
-4.71016e-05
2.28173e-05
-0.000124581
-2.14025e-06
-9.60715e-05
-0.000218314
-0.00012062
-0.000252611
-0.000117743
-0.000242654
-0.000125254
-0.00024003
-0.000127682
-0.000217958
-0.000111219
-0.000154884
-7.98742e-05
-6.16294e-05
-6.19949e-05
-3.19468e-05
-2.75883e-05
-3.26726e-05
-2.71753e-06
9.22647e-06
-1.0903e-05
4.40405e-05
-1.4551e-05
2.71001e-05
2.08612e-05
-8.15631e-06
5.21357e-05
-6.71797e-05
5.3824e-05
-7.16292e-05
-3.84534e-05
2.28151e-05
8.87379e-05
-3.02955e-05
7.07625e-05
-0.000107333
5.37946e-05
-0.000104823
-0.000201113
-0.000136418
-0.000238178
-0.000146576
-0.000238172
-0.000150903
-0.000239295
-0.00013829
-0.000211127
-0.000118413
-0.000141255
-8.92046e-05
-4.2109e-05
-7.70538e-05
-4.00445e-05
-6.35415e-05
-5.39427e-05
-4.39895e-05
-3.98514e-05
-4.33195e-05
6.40104e-06
-2.08484e-05
1.83458e-05
2.77385e-05
-1.33732e-05
5.43914e-05
-6.55145e-05
5.28158e-05
-5.7176e-05
-3.69015e-05
1.79771e-05
0.000108587
-2.33362e-05
0.00010885
-9.76589e-05
0.000112972
-0.00011817
-0.000134916
-0.000161527
-0.000230764
-0.000172358
-0.000232503
-0.000170881
-0.000230239
-0.000157889
-0.000205228
-0.000135828
-0.000147509
-9.88939e-05
-4.05684e-05
-7.03334e-05
-3.75776e-05
-6.36094e-05
-5.69073e-05
-6.28771e-05
-5.54354e-05
-6.05666e-05
-2.02361e-05
-3.78369e-05
9.79752e-06
5.22938e-06
7.15893e-06
4.26431e-05
-2.03285e-05
4.71285e-05
-2.99036e-05
-2.37416e-05
1.43581e-05
0.000113845
4.73347e-06
0.000118275
-4.66045e-05
0.000142494
-9.73245e-05
6.95584e-06
-0.000171414
-0.0001378
-0.000182067
-0.00021306
-0.000177933
-0.000215208
-0.000171067
-0.000203243
-0.000149796
-0.000160888
-9.79611e-05
-6.87827e-05
-7.18789e-05
-2.73791e-05
-6.00137e-05
-5.26892e-05
-6.86868e-05
-5.24552e-05
-7.23946e-05
-3.82911e-05
-4.9976e-05
-2.0547e-05
-2.93938e-05
-2.46927e-06
5.82091e-07
7.34022e-06
3.66892e-05
-1.268e-07
-1.16164e-05
2.04265e-05
0.00010787
2.55887e-05
0.000113139
3.74756e-05
0.000128402
-5.17921e-05
0.00011387
-0.000117614
-5.96106e-05
-0.000183376
-0.000146387
-0.000184677
-0.000196057
-0.000176965
-0.000190433
-0.00016187
-0.000169202
-0.000130681
-0.000108146
-0.000103215
-4.63366e-05
-8.64298e-05
-4.89375e-05
-7.78982e-05
-5.71877e-05
-5.92862e-05
-5.44707e-05
-3.42042e-05
-4.2618e-05
-2.20904e-05
-3.08654e-05
-9.38869e-08
-5.80517e-06
3.20593e-05
6.09514e-06
-9.77097e-07
2.57014e-05
9.7458e-05
3.86205e-05
0.000100233
5.98721e-05
0.000107151
6.99787e-05
0.000107639
-5.40291e-05
4.66776e-05
-0.0001234
-8.99593e-05
-0.000187957
-0.000147355
-0.000180041
-0.000174105
-0.000170852
-0.000164929
-0.000151698
-0.000129897
-0.000129665
-8.53995e-05
-0.000112687
-7.47793e-05
-9.85966e-05
-8.02653e-05
-7.98614e-05
-7.37303e-05
-5.19781e-05
-5.66943e-05
-1.53183e-05
-3.62982e-05
1.1671e-05
-8.29813e-06
3.05025e-05
7.89113e-06
4.20446e-06
3.03198e-05
8.56601e-05
4.40786e-05
8.64816e-05
6.34381e-05
8.77817e-05
8.33372e-05
8.77321e-05
6.92118e-05
6.05386e-05
-9.19969e-05
1.24242e-05
-0.000150629
-9.13222e-05
-0.000187285
-0.000136865
-0.000176478
-0.00015024
-0.000164517
-0.000137073
-0.000148843
-0.000105318
-0.000133769
-9.17921e-05
-0.000119868
-8.83377e-05
-0.000104402
-7.89623e-05
-8.21575e-05
-6.05838e-05
-4.6549e-05
-3.81287e-05
-3.99577e-06
-1.13e-05
2.11967e-05
2.05498e-06
-3.29747e-06
3.30586e-05
4.53251e-05
5.95683e-05
7.67464e-05
7.64706e-05
3.09069e-05
-0.000105061
-0.000161202
-0.00017754
-0.000171595
-0.000164128
-0.000150901
-0.000134698
-0.000115789
-8.82206e-05
-5.02074e-05
-1.56235e-05
7.2778e-06
)
;

boundaryField
{
    leftWall
    {
        type            fixedValue;
        value           nonuniform 0();
    }
    rightWall
    {
        type            fixedValue;
        value           uniform 0;
    }
    lowerWall
    {
        type            fixedValue;
        value           uniform 0;
    }
    atmosphere
    {
        type            calculated;
        value           nonuniform 0();
    }
    defaultFaces
    {
        type            empty;
        value           nonuniform 0();
    }
    procBoundary1to0
    {
        type            processor;
        value           nonuniform List<scalar> 
26
(
3.42753e-06
2.30075e-06
5.37016e-07
7.36934e-07
1.44018e-06
2.67365e-06
2.61608e-06
1.49521e-06
-7.26915e-06
-4.37375e-05
-7.37114e-05
-6.8838e-05
-3.03572e-05
6.99458e-05
0.000147551
0.000203124
0.000205992
0.000176136
7.11755e-05
1.21919e-05
5.67127e-06
9.63833e-06
8.72199e-06
4.93836e-06
-8.91878e-07
-5.55698e-06
)
;
    }
    procBoundary1to3
    {
        type            processor;
        value           nonuniform List<scalar> 
23
(
2.94111e-05
2.9966e-05
3.04876e-05
3.09516e-05
7.43984e-05
7.42201e-05
7.35329e-05
7.0523e-05
6.0799e-05
4.07404e-05
1.24586e-05
-8.54227e-05
-0.000121693
-0.000130251
-0.000117391
-0.000100806
-9.3695e-05
-8.11939e-05
-6.36907e-05
-4.48935e-05
-2.82924e-05
-2.43256e-05
-3.24063e-05
)
;
    }
}


// ************************************************************************* //
