/*--------------------------------*- C++ -*----------------------------------*\
| =========                 |                                                 |
| \\      /  F ield         | OpenFOAM: The Open Source CFD Toolbox           |
|  \\    /   O peration     | Version:  2.4.0                                 |
|   \\  /    A nd           | Web:      www.OpenFOAM.org                      |
|    \\/     M anipulation  |                                                 |
\*---------------------------------------------------------------------------*/
FoamFile
{
    version     2.0;
    format      ascii;
    class       surfaceScalarField;
    location    "0.7";
    object      phi.oil;
}
// * * * * * * * * * * * * * * * * * * * * * * * * * * * * * * * * * * * * * //

dimensions      [0 3 -1 0 0 0 0];

internalField   nonuniform List<scalar> 
1061
(
-1.36247e-06
-3.48412e-06
-4.11636e-06
-4.81186e-06
-6.11503e-06
-8.78524e-06
-1.34239e-05
1.00527e-05
-1.7326e-05
7.61685e-05
-1.63606e-05
3.70623e-05
1.03047e-05
1.80651e-05
3.41637e-05
2.25296e-05
4.42763e-05
2.93522e-05
4.89437e-05
3.35135e-05
5.39041e-05
3.33611e-05
5.96648e-05
3.28349e-05
6.44805e-05
3.36247e-05
6.71901e-05
3.62459e-05
6.74698e-05
3.98098e-05
6.68176e-05
4.22849e-05
6.37221e-05
4.66983e-05
5.47186e-05
5.4222e-05
4.08699e-05
6.33286e-05
1.94672e-05
7.03417e-05
2.308e-06
6.90271e-05
-4.98856e-06
5.87816e-05
3.63533e-05
-8.91508e-06
4.39594e-05
9.05543e-06
-6.18819e-06
2.91084e-05
-9.82916e-06
4.34699e-05
5.97451e-06
4.99164e-05
1.60453e-05
5.30778e-05
1.84193e-05
5.59498e-05
1.82191e-05
5.93291e-05
1.84762e-05
6.33105e-05
1.82681e-05
6.5273e-05
2.23131e-05
6.53121e-05
2.66352e-05
6.61089e-05
2.83037e-05
6.66318e-05
2.78989e-05
6.53628e-05
3.1209e-05
5.48575e-05
4.34613e-05
3.30462e-05
6.42293e-05
1.54916e-05
6.6623e-05
-2.24893e-06
5.13832e-05
1.88048e-05
-3.54541e-06
4.07589e-05
2.42581e-05
-3.94886e-05
4.62989e-05
-3.75445e-05
6.24583e-05
-2.20737e-05
6.13056e-05
7.30086e-06
6.14193e-05
1.25238e-05
6.09656e-05
1.26053e-05
5.8328e-05
1.02979e-05
5.5478e-05
7.26341e-06
5.26782e-05
7.17209e-06
4.86826e-05
1.0409e-05
4.48258e-05
1.13759e-05
4.23427e-05
1.15474e-05
4.26944e-05
1.85576e-05
3.77298e-05
4.48122e-05
2.69382e-05
8.36022e-05
1.17131e-05
9.9197e-05
-2.80789e-06
8.75395e-05
2.51434e-05
1.5476e-05
2.41555e-05
3.65797e-05
-5.92469e-05
5.69138e-05
-5.37729e-05
6.64253e-05
-2.69011e-05
6.56683e-05
4.11573e-06
6.36586e-05
6.16819e-06
6.0106e-05
7.15304e-06
5.8051e-05
8.51012e-06
5.51423e-05
7.53852e-06
5.16033e-05
8.32315e-06
4.71553e-05
1.27791e-05
4.1539e-05
1.1492e-05
3.60725e-05
9.58102e-06
2.6662e-05
1.73864e-05
1.93432e-05
3.1369e-05
6.96177e-06
6.9907e-05
7.81415e-06
9.52884e-05
-2.90277e-06
9.98507e-05
2.37144e-05
3.76542e-05
-5.55676e-06
4.42109e-05
-5.70871e-05
4.96488e-05
-5.82714e-05
4.66911e-05
-2.60321e-05
4.93036e-05
-6.05857e-06
5.44758e-05
-2.8269e-06
5.74327e-05
-3.20858e-06
5.87094e-05
-2.77386e-06
5.92811e-05
1.54033e-06
5.77782e-05
1.26802e-05
5.33693e-05
2.08954e-05
4.3919e-05
2.38612e-05
3.01171e-05
2.35242e-05
1.9519e-05
2.68971e-05
4.14604e-06
4.49721e-05
-1.45905e-05
7.0761e-05
-8.12468e-07
7.57976e-05
-2.27713e-06
9.73081e-05
2.70522e-05
3.40477e-05
-3.89718e-05
4.24885e-05
-6.64766e-05
4.10771e-05
-5.48901e-05
3.844e-05
-2.83179e-05
4.16666e-05
-7.46026e-06
4.31473e-05
8.96316e-07
4.50595e-05
2.7327e-06
4.91319e-05
2.67703e-06
5.21364e-05
4.73033e-06
5.27908e-05
1.10822e-05
5.12645e-05
2.21645e-05
4.42351e-05
3.23022e-05
3.13875e-05
3.77213e-05
1.79779e-05
3.94927e-05
-3.9915e-07
6.28783e-05
-1.99229e-05
8.36284e-05
-1.32669e-05
7.18964e-05
-2.01936e-06
7.93605e-05
1.47149e-05
2.564e-05
-6.79298e-05
3.60438e-05
-7.04789e-05
3.43468e-05
-5.37607e-05
3.1931e-05
-2.96602e-05
3.50049e-05
-1.20722e-05
3.70547e-05
-4.86504e-06
3.9314e-05
-2.43316e-06
4.08923e-05
-9.66672e-07
4.38061e-05
1.70143e-06
4.66217e-05
8.89022e-06
4.72786e-05
2.3673e-05
4.26055e-05
3.8836e-05
3.24454e-05
4.99868e-05
1.75322e-05
5.49499e-05
5.81227e-08
7.9339e-05
-1.40146e-05
9.47972e-05
-1.78931e-05
7.48536e-05
-7.67239e-06
6.03363e-05
1.09711e-06
2.59044e-05
-0.000112054
3.35453e-05
-7.6457e-05
3.0216e-05
-6.16207e-05
2.87666e-05
-3.3319e-05
3.27252e-05
-1.75315e-05
3.52856e-05
-7.99601e-06
3.67358e-05
-3.20716e-06
3.73295e-05
9.49601e-07
3.71859e-05
3.46255e-06
3.77109e-05
6.78994e-06
3.94113e-05
1.97485e-05
3.83155e-05
4.0039e-05
3.50815e-05
5.44965e-05
2.34908e-05
6.7642e-05
1.31198e-05
8.88099e-05
-1.7011e-06
0.000108783
-1.6635e-05
8.44543e-05
-1.36998e-05
4.80707e-05
-1.41621e-05
1.62823e-05
9.31491e-06
-1.19911e-05
6.84952e-05
-2.84993e-05
5.59855e-05
-0.00010091
4.96817e-05
-7.5442e-05
3.72288e-05
2.7372e-06
-0.000142277
0.000104943
-0.000197904
-0.000220043
2.67099e-05
2.88658e-06
4.21243e-05
1.40601e-06
6.22838e-05
-4.95842e-06
-9.52501e-06
8.04135e-05
6.28781e-05
-2.64433e-06
5.85158e-05
-6.23341e-06
5.60307e-05
-1.37291e-05
-1.96266e-05
5.45506e-05
5.80279e-05
-9.42934e-06
6.20328e-05
-1.15899e-05
6.05055e-05
-1.25061e-05
-3.99586e-06
4.34813e-05
-1.83899e-05
-1.7631e-05
-7.8005e-05
9.72674e-06
-0.000115843
2.81927e-05
3.51355e-05
-0.000159079
-1.10076e-05
-5.17491e-06
-9.34656e-05
1.40821e-05
-0.000141893
2.67412e-05
2.58871e-05
-0.000157117
-0.000148262
-5.36223e-06
-0.000138484
2.0643e-06
-0.000149203
1.07501e-05
1.07209e-05
-0.000165106
-0.000183187
1.74067e-05
-0.000168224
2.35948e-06
-0.000157357
2.2601e-06
2.76859e-06
-0.000156073
-0.00021635
9.15362e-05
-0.000197061
4.68547e-05
-0.000187402
2.64403e-05
1.93721e-05
-0.000179488
-0.000177301
0.000102056
-0.000169207
9.09859e-05
-0.000161464
6.88277e-05
5.31983e-05
-0.000148009
-6.2422e-05
9.83693e-05
-4.33138e-05
9.14525e-05
-3.12667e-05
7.45548e-05
5.75274e-05
-2.39213e-05
8.80915e-06
7.58355e-05
2.64491e-05
7.43309e-05
3.64961e-05
6.57715e-05
5.31903e-05
4.0556e-05
1.12667e-05
5.92017e-05
2.58973e-05
5.93119e-05
3.5292e-05
5.58517e-05
5.16105e-05
3.76836e-05
5.91932e-07
4.90838e-05
9.92405e-06
4.9896e-05
1.63552e-05
4.9746e-05
4.89901e-05
1.95573e-05
-1.89938e-06
4.22415e-05
4.48149e-06
4.34995e-05
9.93956e-06
4.43127e-05
4.4657e-05
1.43892e-05
8.01792e-08
3.72202e-05
5.28181e-06
3.83037e-05
1.04159e-05
3.91902e-05
3.98856e-05
1.52191e-05
4.96617e-06
3.31476e-05
9.31048e-06
3.39654e-05
1.38694e-05
3.4635e-05
3.52825e-05
1.84993e-05
9.29493e-06
1.32963e-05
1.74472e-05
2.17852e-05
6.45381e-05
-0.000107198
6.61275e-05
-0.00010864
6.2288e-05
-0.000125432
4.00878e-05
-8.94375e-05
4.89034e-05
-5.28204e-05
6.47188e-05
-3.50667e-05
7.13814e-05
-1.77335e-05
7.08144e-05
-4.81269e-06
6.61062e-05
3.00076e-06
6.39024e-05
7.9928e-06
6.74389e-05
1.54339e-05
6.92963e-05
3.83072e-05
7.0628e-05
5.58209e-05
5.67321e-05
8.36712e-05
4.05803e-05
0.000104772
3.11185e-05
0.000117357
-6.93724e-06
0.000115504
-1.76658e-05
4.95564e-05
-3.35721e-05
3.11889e-05
-9.0102e-05
-2.16737e-06
-8.9343e-05
-2.7445e-05
-0.000109731
-5.03949e-05
-9.05373e-05
-3.66295e-05
-9.76058e-05
6.50048e-06
-9.27893e-05
4.55566e-05
-6.82287e-05
6.02538e-05
-3.60375e-05
5.90111e-05
-8.95318e-06
5.44815e-05
1.03004e-05
4.65347e-05
2.30926e-05
4.40262e-05
4.05891e-05
4.96726e-05
5.28997e-05
4.44403e-05
9.0996e-05
2.55716e-05
0.000124227
2.77734e-05
0.00011448
1.71509e-05
0.000124176
4.95175e-06
5.7825e-05
-2.94269e-05
-6.58622e-05
-5.95986e-06
-0.000154095
-2.54932e-05
-0.000154007
-7.09823e-05
-0.000131824
-8.99779e-05
-0.000119999
-0.000113698
-8.63402e-05
-0.000130765
-2.95784e-05
-0.000128249
3.11611e-05
-0.000101955
6.31289e-05
-5.31552e-05
5.99867e-05
-2.54207e-07
4.86633e-05
2.94243e-05
3.90888e-05
5.02759e-05
3.9527e-05
5.42489e-05
3.06474e-05
8.65303e-05
7.63238e-06
0.000130093
1.30405e-05
9.30654e-05
2.06258e-05
0.000116852
1.50296e-05
6.19845e-05
-1.49625e-05
-0.000218003
4.12455e-05
-0.00019599
-2.87864e-05
-0.000149196
-5.40753e-05
-0.000127457
-7.08941e-05
-0.000125836
-0.000108468
-0.000114303
-0.000137483
-8.23397e-05
-0.000151495
-2.92093e-05
-0.000151242
3.79022e-05
-0.000119653
7.35856e-05
-5.31429e-05
5.2301e-05
2.84111e-05
3.82671e-05
5.89529e-05
3.22583e-05
6.37495e-05
2.33639e-05
8.8349e-05
7.6983e-06
0.000123952
9.96465e-06
8.39989e-05
2.51462e-05
9.27259e-05
2.462e-05
6.35614e-05
1.07261e-05
-0.00017539
-7.57301e-06
-0.000173616
-0.000128834
-0.000182528
-0.000150534
-0.000175292
-0.000190469
-0.000163022
-0.000209921
-0.000139265
-0.000199053
-0.000103561
-0.000191456
-6.28381e-05
-0.000185227
-1.83811e-05
-0.000157347
4.1868e-05
-0.000107941
6.23722e-05
6.62594e-06
4.03135e-05
6.82927e-05
2.55246e-05
8.63954e-05
2.39047e-05
0.000101333
2.6491e-05
0.000115882
3.57827e-05
8.49691e-05
4.18715e-05
7.7324e-05
3.14886e-05
7.23559e-05
4.66623e-05
-0.000177134
-4.92707e-05
-0.000184212
-0.000138814
-0.000199916
-0.000191649
-0.000198267
-0.000400084
-0.000159786
-0.000388742
-0.00012462
-0.000307588
-0.000109859
-0.000248471
-7.72998e-05
-0.000220642
-4.53721e-05
-0.000187514
2.81757e-06
-0.000137834
6.47019e-05
-4.70855e-05
5.89417e-05
6.04586e-05
2.91199e-05
0.000114626
2.57703e-05
0.00012077
4.19129e-05
0.000115161
5.61858e-05
8.93106e-05
5.33213e-05
8.11875e-05
3.52299e-05
8.88014e-05
8.83336e-05
-0.000152893
-3.76321e-05
-0.00016256
-7.02346e-05
-0.00023578
-0.000235839
-0.000208806
-0.000536259
-0.000151429
-0.000454565
-0.000110792
-0.000342746
-9.2144e-05
-0.000288165
-7.96698e-05
-0.000248211
-5.5023e-05
-0.00021256
-3.64968e-05
-0.000160579
1.41198e-05
-9.8875e-05
5.0974e-05
-1.19657e-05
3.33861e-05
0.000116104
2.79538e-05
0.000129892
4.2849e-05
0.000111603
5.74403e-05
8.42868e-05
5.35763e-05
8.94502e-05
3.592e-05
0.000107321
0.000130116
-0.000202279
3.07339e-05
-0.000250153
-5.0967e-05
-0.000214121
-0.000359933
-0.000224114
-0.000432573
-0.000159747
-0.000378935
-0.000110353
-0.000323507
-8.79759e-05
-0.000273839
-8.60389e-05
-0.000252787
-7.87358e-05
-0.000222141
-6.19952e-05
-0.000170775
-3.47586e-05
-0.000106907
1.1823e-05
-4.49449e-05
3.15822e-05
8.00726e-05
2.3074e-05
0.000121831
4.065e-05
9.4901e-05
5.49118e-05
7.28069e-05
4.54239e-05
9.76502e-05
2.48193e-05
0.000129457
0.000158978
-0.000126332
5.86358e-05
-0.000129384
-1.81793e-05
-0.000191333
-0.000366844
-0.000182659
-0.000357914
-0.000133338
-0.000304356
-0.00011197
-0.00026156
-0.000101616
-0.000259475
-0.000114071
-0.000239121
-0.000120316
-0.000204817
-0.000109908
-0.00012328
-4.85957e-05
-3.86427e-05
2.41141e-05
-8.47869e-06
2.73358e-05
5.33502e-05
1.18618e-05
9.82766e-05
2.75619e-05
7.32928e-05
4.31904e-05
4.65695e-05
1.75046e-05
6.92199e-05
5.09304e-07
0.000129712
0.000164276
-3.18112e-05
6.92629e-05
-8.4502e-05
3.20617e-06
-0.000170317
-0.000280201
-0.000173717
-0.000271494
-0.000137967
-0.000259855
-0.000117481
-0.000250121
-0.000128163
-0.000252955
-0.000137086
-0.000227075
-0.000139453
-0.000176507
-9.83044e-05
-6.00828e-05
-3.19938e-05
-1.7081e-06
-2.44388e-06
-7.40075e-06
-1.49691e-06
1.9702e-05
-1.68778e-05
5.30575e-05
-1.88697e-05
4.69937e-05
4.37266e-06
2.61363e-05
8.06736e-06
7.02041e-05
-7.72214e-06
0.000119247
0.000132761
2.0389e-05
8.62439e-05
-9.49412e-05
5.82934e-05
-0.000158325
-0.0002408
-0.000160778
-0.000240185
-0.000150547
-0.000239663
-0.000151153
-0.000244823
-0.000155161
-0.000248713
-0.000151728
-0.000220323
-0.000138753
-0.000160485
-8.56489e-05
-2.24555e-05
-3.21658e-05
-1.16095e-05
-2.15819e-05
-3.13013e-05
-2.97628e-05
-2.56041e-05
-4.58444e-05
6.9247e-06
-5.75049e-05
2.28091e-05
-2.51823e-05
3.27309e-05
3.43689e-06
7.80531e-05
7.19723e-06
8.15584e-05
5.54027e-05
1.32493e-05
0.000106796
-8.28937e-05
0.000101398
-0.000149469
-0.000144972
-0.000169654
-0.000217057
-0.000174114
-0.000228048
-0.000173484
-0.000238018
-0.000173021
-0.000242217
-0.000168255
-0.000216085
-0.00014439
-0.000160399
-7.72431e-05
-2.69414e-05
-1.90647e-05
-7.12967e-06
-7.81125e-06
-3.66444e-05
-2.11239e-05
-4.18612e-05
-4.72781e-05
-2.41519e-05
-6.70812e-05
7.52993e-06
-5.89175e-05
3.15733e-05
-9.67826e-06
5.99933e-05
2.35239e-05
5.84159e-05
1.42215e-05
1.17934e-05
0.000113364
-4.06169e-05
0.000113357
-0.00011824
3.20756e-05
-0.000180196
-0.000156466
-0.00019343
-0.000219935
-0.000182492
-0.0002284
-0.000177328
-0.000223766
-0.000176023
-0.000214423
-0.000155091
-0.000169315
-9.23903e-05
-7.00556e-05
-2.50626e-05
-7.54684e-06
-4.05086e-06
-3.42004e-05
-7.73081e-06
-4.53322e-05
-2.34282e-05
-4.29957e-05
-4.56006e-05
-2.16999e-05
-4.89277e-05
9.5356e-07
-2.67711e-05
2.11514e-05
3.5242e-06
4.03941e-05
5.23144e-06
1.98869e-05
0.000107666
1.64726e-05
0.00011212
-5.35228e-05
0.000112531
-0.000154783
5.52118e-06
-0.000206238
-0.000111175
-0.000203406
-0.00020366
-0.000180904
-0.000207524
-0.000178416
-0.000199835
-0.000167224
-0.000177303
-0.000138031
-0.000117509
-9.35854e-05
-4.69884e-05
-5.83034e-05
-5.3431e-05
-4.95185e-05
-6.67187e-05
-4.03197e-05
-6.73427e-05
-3.81257e-05
-5.50954e-05
-3.98898e-05
-3.90163e-05
-2.97753e-05
-1.44713e-05
-8.92955e-06
9.80668e-06
-3.52944e-06
2.56769e-05
9.74112e-05
3.54262e-05
0.00010007
4.99054e-05
0.000102452
1.36792e-05
9.88669e-05
-0.000118482
2.20495e-05
-0.000191259
-0.000108595
-0.000189835
-0.000169324
-0.000177698
-0.000181528
-0.000174116
-0.000174725
-0.000157432
-0.000138883
-0.000135184
-9.80077e-05
-0.000119499
-8.93055e-05
-0.000108867
-9.26312e-05
-8.70738e-05
-8.79375e-05
-6.38911e-05
-7.24855e-05
-5.72009e-05
-5.49777e-05
-4.46053e-05
-2.93508e-05
-2.01969e-05
-1.46442e-05
-2.28138e-05
3.03208e-05
8.56567e-05
4.39479e-05
8.6508e-05
6.0011e-05
8.75836e-05
7.91846e-05
8.57637e-05
1.61628e-05
5.51936e-05
-0.000115468
-2.37645e-06
-0.000186733
-0.000138021
-0.000185891
-0.00015194
-0.000177829
-0.000158534
-0.000170167
-0.000147025
-0.000153979
-0.000116566
-0.000143249
-0.000106582
-0.000137746
-0.000103234
-0.000130743
-9.82153e-05
-0.000117317
-8.72601e-05
-9.97995e-05
-7.2878e-05
-7.63988e-05
-5.3987e-05
-4.05148e-05
-5.09328e-05
-6.174e-05
3.3057e-05
4.53861e-05
5.90911e-05
7.61055e-05
7.08572e-05
-6.68086e-05
-0.000171646
-0.000182855
-0.0001798
-0.000176353
-0.000170528
-0.000162659
-0.000155333
-0.000147343
-0.000135216
-0.000117459
-8.87755e-05
-4.8886e-05
)
;

boundaryField
{
    leftWall
    {
        type            fixedValue;
        value           nonuniform 0();
    }
    rightWall
    {
        type            fixedValue;
        value           uniform 0;
    }
    lowerWall
    {
        type            fixedValue;
        value           uniform 0;
    }
    atmosphere
    {
        type            calculated;
        value           nonuniform 0();
    }
    defaultFaces
    {
        type            empty;
        value           nonuniform 0();
    }
    procBoundary1to0
    {
        type            processor;
        value           nonuniform List<scalar> 
26
(
3.42002e-06
2.2863e-06
5.20449e-07
7.203e-07
1.41836e-06
2.65711e-06
2.62622e-06
1.52211e-06
-7.65833e-06
-6.00321e-05
-6.84467e-05
-6.6996e-05
-3.46955e-05
6.48812e-05
0.000174601
0.000198244
0.000186627
0.000176141
7.88342e-05
1.30802e-05
5.56877e-06
9.70293e-06
8.74609e-06
4.94609e-06
-8.89537e-07
-5.55509e-06
)
;
    }
    procBoundary1to3
    {
        type            processor;
        value           nonuniform List<scalar> 
23
(
2.94101e-05
2.9966e-05
3.04871e-05
3.09519e-05
7.4401e-05
7.42354e-05
7.35949e-05
7.01962e-05
5.93415e-05
3.42011e-05
-6.58417e-05
-0.000131398
-0.000137827
-0.000140489
-0.000126737
-0.000114394
-0.000111385
-0.00010878
-0.000106141
-0.000102976
-9.70974e-05
-0.000101106
-0.000118935
)
;
    }
}


// ************************************************************************* //
