/*--------------------------------*- C++ -*----------------------------------*\
| =========                 |                                                 |
| \\      /  F ield         | OpenFOAM: The Open Source CFD Toolbox           |
|  \\    /   O peration     | Version:  2.4.0                                 |
|   \\  /    A nd           | Web:      www.OpenFOAM.org                      |
|    \\/     M anipulation  |                                                 |
\*---------------------------------------------------------------------------*/
FoamFile
{
    version     2.0;
    format      ascii;
    class       surfaceScalarField;
    location    "0.7";
    object      phi.water;
}
// * * * * * * * * * * * * * * * * * * * * * * * * * * * * * * * * * * * * * //

dimensions      [0 3 -1 0 0 0 0];

internalField   nonuniform List<scalar> 
1061
(
-3.42734e-06
-5.72736e-06
-6.26217e-06
-6.99426e-06
-8.38963e-06
3.15976e-06
1.46662e-05
1.82643e-05
-1.71988e-05
3.07968e-05
-1.48798e-05
2.58857e-05
1.04464e-05
1.42194e-05
3.10873e-05
1.7204e-05
3.88273e-05
2.19975e-05
4.49827e-05
2.58876e-05
5.2244e-05
2.77546e-05
5.8545e-05
2.89133e-05
6.35956e-05
2.28321e-05
6.69086e-05
1.92235e-06
6.81746e-05
-5.53864e-06
6.80977e-05
-6.82737e-06
6.61739e-05
-6.10086e-06
5.93585e-05
-9.9195e-07
4.59365e-05
4.80974e-06
2.42206e-05
1.51507e-05
3.84584e-06
2.8046e-05
-4.87506e-06
2.92856e-05
1.12498e-05
-6.24208e-06
2.06728e-05
1.08232e-05
-4.50953e-06
3.03965e-05
-2.96709e-06
4.37938e-05
1.06882e-05
5.03843e-05
2.46353e-05
5.35777e-05
2.79879e-05
5.64178e-05
2.71497e-05
5.79424e-05
2.75946e-05
5.21477e-05
2.63647e-05
6.18239e-05
1.95417e-05
6.51384e-05
1.20205e-05
6.62391e-05
6.49287e-07
6.79091e-05
-1.47667e-05
6.7908e-05
-9.97412e-06
5.94839e-05
7.96899e-06
3.7234e-05
3.49185e-05
1.51656e-05
4.65493e-05
-1.71733e-06
3.93759e-05
8.32499e-06
3.07501e-06
9.86554e-06
2.82091e-05
-4.59187e-05
4.74959e-05
-3.46152e-05
6.08976e-05
-1.72943e-05
6.11504e-05
3.09352e-06
6.16432e-05
1.01383e-05
6.19904e-05
1.15261e-05
6.18804e-05
1.03089e-05
6.10077e-05
6.52433e-06
5.57302e-05
3.72618e-06
4.7728e-05
1.77432e-06
3.95804e-05
-8.59811e-06
3.49198e-05
-1.31751e-05
4.67007e-05
-1.33756e-05
4.65191e-05
-8.5821e-06
3.43659e-05
4.81028e-05
1.36364e-05
7.30144e-05
-2.51741e-06
6.61357e-05
9.49127e-06
2.32224e-05
3.44903e-06
3.96611e-05
-7.24406e-05
5.32692e-05
-6.06211e-05
6.16347e-05
-4.65921e-05
6.19946e-05
-2.09927e-05
6.20575e-05
-1.38465e-05
6.04531e-05
-1.0209e-05
5.92205e-05
-1.00134e-05
5.69725e-05
-1.18e-05
5.48489e-05
-1.26944e-05
5.21874e-05
-1.04534e-05
4.61561e-05
-1.13455e-05
3.65757e-05
-1.41361e-05
2.99231e-05
-2.00045e-05
2.34354e-05
-2.46835e-05
1.16714e-05
3.59903e-05
1.03745e-05
7.76329e-05
-2.08487e-06
8.15817e-05
1.69581e-05
3.88751e-05
-1.66991e-05
4.28657e-05
-7.09631e-05
4.63105e-05
-6.90505e-05
4.50907e-05
-5.17483e-05
4.79346e-05
-2.46782e-05
5.21102e-05
-1.84481e-05
5.56388e-05
-1.83759e-05
5.80563e-05
-1.83668e-05
5.91666e-05
-1.35488e-05
5.87735e-05
-6.26693e-06
5.60335e-05
-5.6815e-07
4.87554e-05
1.93465e-06
3.69299e-05
1.86611e-06
2.58748e-05
1.01692e-07
1.1423e-05
-4.21359e-06
-4.60329e-06
3.39571e-05
1.63493e-06
6.69424e-05
-9.54256e-07
8.49544e-05
2.81317e-05
3.23398e-05
-4.51217e-05
3.90829e-05
-7.42568e-05
3.9179e-05
-7.52089e-05
3.787e-05
-5.34007e-05
4.08462e-05
-2.88475e-05
4.22037e-05
-2.04097e-05
4.48191e-05
-1.75345e-05
4.88278e-05
-1.54647e-05
5.18135e-05
-1.16632e-05
5.33969e-05
-3.89302e-06
5.28709e-05
5.81851e-06
4.86677e-05
1.32346e-05
3.94784e-05
1.77337e-05
2.47253e-05
1.96291e-05
7.07576e-06
2.71461e-05
-1.30608e-05
4.65958e-05
-1.26457e-05
6.72408e-05
-1.50982e-06
7.16365e-05
1.73901e-05
2.75017e-05
-7.98904e-05
3.54193e-05
-8.88469e-05
3.45778e-05
-7.97075e-05
3.29603e-05
-5.45868e-05
3.53585e-05
-3.30047e-05
3.72225e-05
-2.24275e-05
3.94253e-05
-1.82174e-05
4.10727e-05
-1.56362e-05
4.33401e-05
-1.33924e-05
4.6299e-05
-8.57831e-06
4.77289e-05
3.96722e-06
4.5235e-05
1.7152e-05
3.87054e-05
2.50369e-05
2.33595e-05
2.98934e-05
7.57079e-06
4.71323e-05
-9.46121e-06
5.87865e-05
-1.72072e-05
7.10689e-05
-6.79548e-06
5.57812e-05
-3.00186e-07
2.9543e-05
-0.000114233
3.4645e-05
-9.93095e-05
3.20899e-05
-8.67725e-05
3.0715e-05
-5.94637e-05
3.34513e-05
-3.97826e-05
3.5691e-05
-2.74954e-05
3.71709e-05
-2.15289e-05
3.76235e-05
-1.64725e-05
3.7471e-05
-1.37562e-05
3.80446e-05
-9.92305e-06
3.98113e-05
2.08239e-06
3.96764e-05
1.89624e-05
3.86249e-05
2.97048e-05
2.88513e-05
4.06816e-05
1.87018e-05
5.81821e-05
7.62159e-07
7.36038e-05
-1.5876e-05
7.47218e-05
-1.05001e-05
4.30484e-05
-1.97291e-05
-1.97943e-06
8.40229e-06
-2.87231e-05
6.69375e-05
-4.80864e-05
6.61885e-05
-0.000128229
6.29125e-05
-9.73273e-05
4.99934e-05
2.3573e-05
1.25884e-05
0.000188635
-0.000181361
-0.000218387
2.51828e-05
-4.83155e-06
4.12756e-05
-5.78249e-06
6.19877e-05
-1.0561e-05
-1.5323e-05
8.56262e-05
6.3526e-05
-1.14678e-05
6.13397e-05
-1.30368e-05
6.04184e-05
-1.81524e-05
-2.34454e-05
6.2058e-05
6.84137e-05
-2.02754e-05
7.38099e-05
-2.1042e-05
7.60567e-05
-2.33029e-05
-1.60982e-05
6.69082e-05
1.8823e-05
-2.95531e-05
-2.61352e-05
-1.58729e-05
-7.29288e-05
-1.1002e-07
1.38542e-05
-0.000125392
3.55134e-05
-3.49333e-05
-1.83169e-05
-2.5991e-05
-7.12089e-05
-3.81392e-06
6.02613e-06
-9.59899e-05
2.0125e-05
7.47066e-06
-6.6249e-06
-6.79226e-06
-4.876e-05
-5.98791e-06
2.98008e-06
-7.48416e-05
-0.000118459
7.88765e-05
-0.000101821
2.23053e-05
-0.000108861
7.1495e-06
1.02477e-05
-0.000121026
-0.000222535
0.00011932
-0.000235779
0.00011204
-0.000247569
8.87565e-05
7.36192e-05
-0.000254104
-0.000172847
0.000116099
-0.000168697
0.000108265
-0.000163995
8.47215e-05
6.2176e-05
-0.000151991
-5.41687e-05
9.90305e-05
-3.7931e-05
9.21145e-05
-2.83738e-05
7.518e-05
5.78279e-05
-2.40183e-05
1.05393e-05
7.62489e-05
2.82282e-05
7.44441e-05
3.74891e-05
6.59237e-05
5.44735e-05
4.08442e-05
1.12989e-05
5.92669e-05
2.63084e-05
5.94289e-05
3.58493e-05
5.63823e-05
5.23091e-05
3.8012e-05
5.23067e-07
4.9104e-05
1.00125e-05
4.99389e-05
1.65341e-05
4.98592e-05
4.91206e-05
1.97235e-05
-1.87401e-06
4.22584e-05
4.53122e-06
4.35326e-05
1.00411e-05
4.43517e-05
4.47095e-05
1.44529e-05
9.36946e-08
3.72291e-05
5.31517e-06
3.83141e-05
1.04603e-05
3.9207e-05
3.99028e-05
1.5268e-05
4.97577e-06
3.31494e-05
9.32175e-06
3.39683e-05
1.38941e-05
3.46359e-05
3.52864e-05
1.85122e-05
9.29773e-06
1.33016e-05
1.74534e-05
2.17904e-05
7.01248e-05
-0.000105673
7.35784e-05
-0.000119667
7.23735e-05
-0.000159952
5.50178e-05
-0.000133089
5.89295e-05
-8.79419e-05
6.90217e-05
-5.2503e-05
7.36186e-05
-3.36957e-05
7.22362e-05
-2.25819e-05
6.79801e-05
-1.39716e-05
6.56357e-05
-8.98075e-06
6.90775e-05
-1.83443e-06
7.21145e-05
1.85186e-05
7.27511e-05
3.35667e-05
6.13926e-05
5.74383e-05
4.44031e-05
7.49172e-05
2.97002e-05
8.82761e-05
-9.26158e-06
9.43862e-05
-1.23144e-05
3.59521e-05
-4.1094e-05
5.09916e-05
-9.58122e-05
4.10785e-05
-0.000108905
5.60587e-05
-0.000174191
4.06274e-05
-9.62402e-05
2.00733e-05
-9.65155e-05
3.64871e-05
-9.06906e-05
5.7064e-05
-9.46881e-05
6.43261e-05
-5.43303e-05
6.28164e-05
-2.85942e-05
5.743e-05
-8.24518e-06
4.96664e-05
6.22648e-06
4.71797e-05
2.31817e-05
4.98164e-05
3.34567e-05
4.55055e-05
6.41159e-05
2.15339e-05
9.11555e-05
2.00558e-05
8.13939e-05
6.70308e-06
0.000103847
3.03297e-06
4.43861e-05
-3.2693e-05
-4.6145e-06
-2.91226e-05
-7.41087e-05
-5.86059e-05
-9.4138e-05
-8.32559e-05
-0.000126176
-7.79013e-05
-0.000105464
-8.74745e-05
-5.26923e-05
-0.000106093
5.86293e-06
-0.000114415
5.30663e-05
-9.46969e-05
7.01276e-05
-7.59805e-05
6.42496e-05
-2.87927e-05
5.31207e-05
9.45264e-06
4.31566e-05
3.26076e-05
3.96623e-05
3.72973e-05
3.2089e-05
6.18286e-05
8.78803e-06
8.60954e-05
1.05984e-05
5.66169e-05
1.98549e-05
9.12034e-05
1.95886e-05
5.12895e-05
-1.53276e-05
-0.000181859
9.9991e-06
-0.000109436
-4.51873e-05
-0.000141494
-5.10098e-05
-0.000121147
-7.1351e-05
-0.000118547
-0.000112112
-0.000106505
-0.000139468
-5.57648e-05
-0.000160238
-8.27625e-06
-0.000140125
5.94937e-05
-0.000117972
8.47902e-05
-9.54781e-05
5.80212e-05
-6.41805e-07
4.39995e-05
4.07539e-05
3.55209e-05
4.79908e-05
2.9836e-05
6.67656e-05
2.16569e-05
7.89919e-05
2.02329e-05
5.21374e-05
3.18886e-05
6.58226e-05
3.32731e-05
5.02869e-05
1.02084e-05
-0.000107441
-1.85676e-05
-0.000122279
-5.46586e-05
-0.000182791
-0.000120839
-0.00015399
-0.000157324
-0.000134567
-0.000199973
-0.000126652
-0.00022282
-0.000103158
-0.000207307
-6.21053e-05
-0.000187113
-8.00355e-06
-0.000173418
6.41528e-05
-0.000136588
7.89945e-05
-3.32535e-05
4.82868e-05
3.92727e-05
3.21291e-05
6.76079e-05
3.30598e-05
8.24311e-05
4.30488e-05
8.6954e-05
5.11144e-05
6.56443e-05
5.2941e-05
5.93503e-05
4.25496e-05
6.0356e-05
4.21351e-05
-7.07611e-05
-1.4172e-06
-0.000185921
-4.8272e-05
-0.000214439
-0.000103661
-0.000167677
-0.000295007
-0.000106333
-0.000313081
-0.000109262
-0.000353696
-9.96032e-05
-0.000276372
-7.69144e-05
-0.000234339
-4.90894e-05
-0.000204255
2.28909e-05
-0.000151194
9.05996e-05
-6.36274e-05
6.89131e-05
1.76975e-05
3.59296e-05
9.03539e-05
3.26054e-05
0.000100506
4.77123e-05
9.58834e-05
6.10531e-05
7.32822e-05
6.02749e-05
6.64617e-05
4.57364e-05
7.57317e-05
7.78361e-05
-0.000178342
3.73202e-05
-0.000241912
1.12183e-05
-0.000185621
-2.80217e-05
-0.000136473
-0.000124161
-9.48028e-05
-0.000304229
-0.000103924
-0.000386781
-9.28194e-05
-0.000309333
-8.27051e-05
-0.000252579
-6.28617e-05
-0.000219255
-4.36356e-05
-0.000171431
3.38098e-05
-0.000113899
7.76063e-05
-2.68161e-05
4.4845e-05
9.07548e-05
3.57863e-05
0.000107236
4.80779e-05
9.40467e-05
6.09915e-05
6.83905e-05
5.92635e-05
7.35221e-05
4.47971e-05
9.13832e-05
0.000115466
-0.000246747
9.38233e-05
-0.000242797
9.13708e-06
-0.00022246
-5.12272e-05
-0.000110806
-0.000204455
-0.000123955
-0.000306671
-0.00011708
-0.000336437
-9.75507e-05
-0.000298788
-9.33382e-05
-0.000250207
-8.537e-05
-0.000215265
-6.28373e-05
-0.000169044
-2.13274e-05
-0.000111098
3.69452e-05
-4.9751e-05
4.92674e-05
6.47986e-05
3.37592e-05
0.000100464
4.56788e-05
7.85318e-05
5.76229e-05
5.43197e-05
5.03383e-05
7.46588e-05
3.25681e-05
0.000106737
0.00014457
-0.000121783
6.37525e-05
-0.000121231
8.36709e-06
-0.000116855
-4.0873e-05
-0.000124885
-0.000237575
-0.000145031
-0.00031276
-0.000122431
-0.000277629
-0.000109994
-0.000270125
-0.000114051
-0.000232541
-0.000114541
-0.000201283
-0.000103545
-0.000135244
-7.05549e-05
-5.40323e-05
2.71396e-05
-2.74606e-05
5.69869e-05
3.05253e-05
2.61603e-05
6.62183e-05
2.72125e-05
5.23775e-05
3.74764e-05
2.70015e-05
2.35937e-05
4.70841e-05
1.01993e-05
0.000104014
0.000147798
-3.10387e-05
7.07794e-05
-4.8435e-05
2.26586e-05
-7.63876e-05
-8.50599e-06
-0.000136694
-0.000255327
-0.000145377
-0.00026941
-0.000130367
-0.000250746
-0.000128371
-0.000239177
-0.000132055
-0.00022442
-0.000122922
-0.000180923
-9.45309e-05
-8.62638e-05
-5.98795e-05
-2.71281e-05
-2.13693e-05
-2.7868e-05
-1.33908e-05
-1.69179e-06
-1.85981e-05
1.2837e-05
-1.89628e-05
2.16854e-05
1.60221e-06
1.04118e-05
1.62408e-05
3.02962e-05
6.97187e-06
6.77838e-05
9.61242e-05
2.28937e-05
8.87258e-05
-3.30545e-05
7.07652e-05
-7.60109e-05
4.61973e-05
-0.000144522
-0.000236724
-0.000158321
-0.000244614
-0.000153157
-0.000239012
-0.000152727
-0.000233403
-0.000150982
-0.000217102
-0.00013693
-0.000170011
-0.00010219
-4.79039e-05
-6.65701e-05
-3.06622e-05
-4.17329e-05
-4.6353e-05
-3.08756e-05
-3.28828e-05
-3.83553e-05
-1.92856e-05
-4.04813e-05
-3.12327e-06
-1.12339e-05
9.2137e-06
2.21777e-05
3.05081e-05
2.56209e-05
3.26785e-05
2.77495e-05
1.81333e-05
0.000108593
-2.5613e-05
0.000108927
-7.77839e-05
0.000107291
-0.000156761
-0.000163068
-0.000178551
-0.000235199
-0.000177177
-0.000231532
-0.000171584
-0.000225791
-0.000166722
-0.000207297
-0.000144636
-0.000167944
-9.94613e-05
-5.41802e-05
-6.34153e-05
-2.92202e-05
-5.08835e-05
-5.1045e-05
-3.22326e-05
-4.91446e-05
-2.21177e-05
-3.41905e-05
-2.56569e-05
-7.63691e-06
-3.24958e-05
1.00481e-05
-1.43208e-05
3.0869e-05
1.90167e-05
3.908e-05
1.12656e-05
1.44505e-05
0.000113865
4.73255e-06
0.000118367
-5.87201e-05
0.000142505
-0.000127224
-1.63967e-05
-0.00018596
-0.000180061
-0.000193571
-0.000209353
-0.000178345
-0.00021178
-0.000171267
-0.000200813
-0.000159803
-0.000169273
-0.000104453
-9.1333e-05
-7.75528e-05
-3.73331e-05
-5.8496e-05
-5.41084e-05
-4.76582e-05
-5.75165e-05
-2.43527e-05
-5.9389e-05
-2.18753e-05
-1.69318e-05
-3.20551e-05
7.69576e-06
-2.07953e-05
1.84744e-05
4.99581e-06
3.83042e-05
9.59708e-06
2.0442e-05
0.000107878
2.56527e-05
0.000113163
3.50896e-05
0.000128415
-8.87275e-05
0.000106084
-0.000163254
-8.55848e-05
-0.000195914
-0.00017043
-0.00019798
-0.000192661
-0.000176343
-0.000190256
-0.000167744
-0.000170969
-0.000154474
-0.000121965
-0.000125799
-6.88146e-05
-0.000112303
-7.04467e-05
-0.000106923
-7.75089e-05
-7.39689e-05
-7.94229e-05
-3.42639e-05
-4.88891e-05
-2.5774e-05
-1.98789e-05
-2.26578e-05
-6.03284e-06
-3.72928e-06
1.66605e-05
3.83767e-06
2.56919e-05
9.74577e-05
3.863e-05
0.000100229
5.9983e-05
0.000107117
6.68414e-05
0.000107645
-0.000106677
4.42383e-05
-0.000184117
-9.86241e-05
-0.00020858
-0.000155038
-0.000192417
-0.000175447
-0.000171022
-0.000167535
-0.000158809
-0.000133371
-0.000141882
-9.8228e-05
-0.000123944
-8.84584e-05
-0.000112604
-9.20442e-05
-9.54675e-05
-8.72534e-05
-6.99103e-05
-6.93327e-05
-4.71351e-05
-4.50459e-05
-3.37377e-05
-2.26941e-05
-1.41275e-05
-6.99929e-06
-1.14253e-05
3.03134e-05
8.56593e-05
4.40691e-05
8.6476e-05
6.34373e-05
8.77602e-05
8.33817e-05
8.76964e-05
5.81323e-05
6.05269e-05
-0.000122568
7.31492e-06
-0.000190782
-0.000100843
-0.000205862
-0.000138909
-0.000183732
-0.000154628
-0.000166235
-0.000139952
-0.000151412
-0.000111637
-0.00013976
-0.000100137
-0.000132063
-9.71829e-05
-0.00012272
-9.2308e-05
-0.000107429
-8.11731e-05
-8.94765e-05
-6.62587e-05
-6.52739e-05
-4.58959e-05
-3.37977e-05
-3.85424e-05
-4.55012e-05
3.3056e-05
4.53184e-05
5.95554e-05
7.67401e-05
7.64621e-05
-1.01275e-05
-0.000136186
-0.00018726
-0.000196183
-0.000177989
-0.000169319
-0.000161661
-0.000153193
-0.00014426
-0.000129781
-0.000109136
-8.05167e-05
-4.40596e-05
)
;

boundaryField
{
    leftWall
    {
        type            fixedValue;
        value           nonuniform 0();
    }
    rightWall
    {
        type            fixedValue;
        value           uniform 0;
    }
    lowerWall
    {
        type            fixedValue;
        value           uniform 0;
    }
    atmosphere
    {
        type            calculated;
        value           nonuniform 0();
    }
    defaultFaces
    {
        type            empty;
        value           nonuniform 0();
    }
    procBoundary1to0
    {
        type            processor;
        value           nonuniform List<scalar> 
26
(
3.42753e-06
2.30076e-06
5.37085e-07
7.37376e-07
1.44218e-06
2.70623e-06
3.14705e-06
2.43192e-06
-5.11217e-06
-5.91778e-05
-7.23176e-05
-7.03529e-05
-3.48344e-05
2.09955e-05
0.00014961
0.000203291
0.000205956
0.00017624
7.125e-05
1.22007e-05
5.66751e-06
9.63825e-06
8.72214e-06
4.93842e-06
-8.91862e-07
-5.55698e-06
)
;
    }
    procBoundary1to3
    {
        type            processor;
        value           nonuniform List<scalar> 
23
(
2.94111e-05
2.9966e-05
3.04876e-05
3.09515e-05
7.4398e-05
7.42182e-05
7.3527e-05
7.05117e-05
6.08115e-05
4.07433e-05
-1.44132e-05
-0.000102264
-0.000122646
-0.000135348
-0.00012121
-0.000106166
-0.000103302
-0.000100588
-9.74449e-05
-9.48207e-05
-8.80132e-05
-8.30957e-05
-9.20508e-05
)
;
    }
}


// ************************************************************************* //
