/*--------------------------------*- C++ -*----------------------------------*\
| =========                 |                                                 |
| \\      /  F ield         | OpenFOAM: The Open Source CFD Toolbox           |
|  \\    /   O peration     | Version:  2.4.0                                 |
|   \\  /    A nd           | Web:      www.OpenFOAM.org                      |
|    \\/     M anipulation  |                                                 |
\*---------------------------------------------------------------------------*/
FoamFile
{
    version     2.0;
    format      ascii;
    class       volScalarField;
    location    "0.7";
    object      rho;
}
// * * * * * * * * * * * * * * * * * * * * * * * * * * * * * * * * * * * * * //

dimensions      [1 -3 0 0 0 0 0];

internalField   nonuniform List<scalar> 
559
(
13528.9
13528.8
13528.8
13528.8
13528.8
13528.8
13524.1
13061.7
10673.3
10677.3
10685.8
10699.2
10708.6
10716
10721.9
10731.9
10742.3
10742.4
10746.3
10751.7
10756.8
10763.3
10769.1
10771.4
10775.2
10782
10785.2
8924.56
5753.52
7915.65
10115.7
10401.8
10530
10617.8
10629.5
10469.9
10390
10394.4
10346.1
10347.7
10470.9
10751.7
10775.6
10785.3
10786.3
10788.5
4121.1
4046.83
4850.06
5471.7
5041.79
4987.65
4891.96
4582.22
3768.8
2768.02
2072.93
1973.32
2218.95
3504.09
6092.59
9918.21
10795
10788.7
10794.3
2647.94
4067.59
4012.91
2610.36
1306.63
979.477
915.598
816.468
729.988
645.986
582.461
534.097
639.494
825.659
1145.16
4852.59
10374.9
10794.3
10796.9
3993.97
4234.5
3381.03
1595.65
984.15
922.488
910.215
838.811
818.683
768.033
683.271
587.355
525.194
716.924
826.882
1708.61
9200.1
10747.8
9967.2
4340.89
4330.25
2326.25
1184.86
937.415
914.361
861.55
859.675
851.145
858.817
781.614
656.507
547.55
570.053
808.854
1272.94
8165.01
10209.1
5815.66
3544.41
2980.36
1739.08
983.21
904.658
913.525
918.938
917.11
905.415
893.165
833.864
708.115
576.684
524.323
729.281
955.258
6190.79
8044.68
3423.73
3439.92
2377.04
1193.38
864.931
842.853
866.585
900.674
923.366
903.715
846.712
818.29
721.682
601.335
530.559
607.61
785.538
2981.33
3874.33
2730.49
6876.24
1063.45
888.852
554.281
11.907
1.10537
1.00388
1.00102
7520.26
7412.99
7053.56
6571.33
1073.7
1092.39
1084.37
1055.28
875.427
855.854
827.59
793.474
599.007
654.668
620.861
554.459
71.8539
348.504
501.409
463.598
3.7295
46.6893
158.02
181.359
1.09347
2.53725
6.2722
7.41052
1.00217
1.00782
1.01745
1.01857
1.001
1.00097
1.00104
1.00079
1.00031
1.00029
1.0003
1.00028
1.00012
1.00014
1.00017
1.00021
1.00004
1.00007
1.0001
1.00009
1.00001
1.00003
1.00004
1.00003
1.00001
1.00001
1.00001
1.00001
1
1.00001
1.00001
1.00001
1
1
1
1
0.999999
0.999999
0.999999
1
3600.68
1388.69
760.667
719.189
728.283
757.278
799.874
854.441
851.787
837.653
813.762
746.939
646.38
559.513
534.732
717.934
1023.19
1301.71
2137.04
906.207
577.564
159.953
148.943
381.299
523.424
611.458
653.194
729.978
806.522
816.231
775.385
701.344
599.545
526.248
558.051
733.842
676.343
1530.43
698.038
211.046
113.552
157.183
345.359
411.129
382.644
402.111
466.86
671.43
788.702
790.533
764.187
645.202
529.579
536.531
571.301
562.857
1030.33
454.398
426.001
478.464
482.919
482.953
483.112
482.772
425.547
390.646
409.123
619.252
756.02
759.929
535.207
380.559
411.393
584.506
583.398
825.714
362.923
262.984
357.025
392.152
425.968
475.043
495.571
495.705
472.945
333.882
366.123
649.383
741.911
499.669
376.983
388.787
583.776
671.79
772.147
63.6192
10.0904
10.5842
24.1534
72.9142
244.156
445.789
497.284
497.895
486.674
353.661
500.092
682.452
626.169
532.618
571.852
660.256
737.191
783.853
2.48536
1.05705
1.01235
1.01796
1.89303
32.5762
268.426
484.466
498.139
497.575
464.991
393.712
581.662
673.649
698.481
728.259
737.039
758.277
813.235
1.00423
1.00211
1.00364
1.16592
2.87115
38.3331
252.53
471.755
496.584
435.528
257.974
133.02
424.614
614.767
702.053
727.47
751.714
766.745
867.919
1.00053
1.00052
1.02391
3.88994
46.2904
248.468
452.275
475.794
432.966
180.471
27.6858
17.8822
201.254
475.743
656.596
690.086
666.408
741.608
910.183
1.00022
1.00029
1.06252
11.912
160.671
437.556
486.166
475.084
274.377
41.6068
14.0002
13.9749
85.2222
383.444
562.457
553.78
181.06
555.594
951.891
1.00015
1.00022
1.102
18.812
225.223
471.566
488.129
446.097
172.09
18.5911
13.9607
13.9758
24.1204
200.764
394.806
294.789
114.898
187.557
761.689
1.00008
1.00025
1.06488
14.4334
167.572
415.692
489.085
432.057
165.466
16.5301
13.9581
13.9205
13.9269
26.1271
112.343
168.266
108.125
194.441
795.053
1.00004
1.00021
1.00671
2.2241
28.4584
182.978
412.043
441.176
343.005
51.0517
13.9491
13.9503
13.8808
13.8949
22.069
185.349
417.259
477.475
849.339
1.00003
1.0001
1.00077
1.03849
1.76356
24.4939
203.427
439.755
458.374
243.858
29.9723
15.0976
17.9451
22.9903
59.3903
301.159
579.988
656.935
800.503
1.00001
1.00004
1.00028
1.00082
1.0089
1.96427
47.2601
309.26
461.727
463.443
294.131
196.396
214.665
275.363
356.806
500.606
582.415
637.288
766.766
1.00001
1.00002
1.00008
1.00031
1.00055
1.00802
5.86527
112.552
421.115
502.768
509.658
506.566
513.421
532.494
546.924
560.075
586.501
647.353
743.482
1
1
1.00002
1.0001
1.00019
1.00051
1.08491
15.6813
169.042
438.409
510.251
518.872
527.018
530.018
533.784
547.826
577.048
629.71
692.839
)
;

boundaryField
{
    leftWall
    {
        type            calculated;
        value           nonuniform 0();
    }
    rightWall
    {
        type            calculated;
        value           nonuniform List<scalar> 
25
(
10785.2
10788.5
10794.3
10796.9
9967.2
5815.66
3423.73
2730.49
2137.04
1530.43
1030.33
825.714
772.147
783.853
813.235
867.919
910.183
951.891
761.689
795.053
849.339
800.503
766.766
743.482
692.839
)
;
    }
    lowerWall
    {
        type            calculated;
        value           nonuniform List<scalar> 
40
(
13528.9
13528.9
13528.8
13528.8
13528.8
13528.8
13528.8
13524.1
13061.7
7520.26
7412.99
7053.56
6571.33
10673.3
8924.56
4121.1
2647.94
3993.97
4340.89
3544.41
3439.92
10673.3
10677.3
10685.8
10699.2
10708.6
10716
10721.9
10731.9
10742.3
10742.4
10746.3
10751.7
10756.8
10763.3
10769.1
10771.4
10775.2
10782
10785.2
)
;
    }
    atmosphere
    {
        type            calculated;
        value           nonuniform 0();
    }
    defaultFaces
    {
        type            empty;
    }
    procBoundary1to0
    {
        type            processor;
        value           nonuniform List<scalar> 
26
(
13529
13529
13529
13529
13529
13528.8
13493.5
12290.9
5272.89
1075.9
906.185
613.429
41.7881
1.00214
1.0008
1.00042
1.00044
1.00044
1.00016
1.00008
1.00002
1.00001
1.00001
1
1
0.999999
)
;
    }
    procBoundary1to3
    {
        type            processor;
        value           nonuniform List<scalar> 
23
(
0.999999
0.999998
0.999999
0.999998
0.999999
0.999999
1
1.00004
1.00008
1.00023
1.00038
1.1864
16.7277
140.659
312.808
364.317
363.94
329.839
292.067
292.065
347.321
444.316
487.198
)
;
    }
}


// ************************************************************************* //
