/*--------------------------------*- C++ -*----------------------------------*\
| =========                 |                                                 |
| \\      /  F ield         | OpenFOAM: The Open Source CFD Toolbox           |
|  \\    /   O peration     | Version:  2.4.0                                 |
|   \\  /    A nd           | Web:      www.OpenFOAM.org                      |
|    \\/     M anipulation  |                                                 |
\*---------------------------------------------------------------------------*/
FoamFile
{
    version     2.0;
    format      ascii;
    class       volVectorField;
    location    "0.7";
    object      U;
}
// * * * * * * * * * * * * * * * * * * * * * * * * * * * * * * * * * * * * * //

dimensions      [0 1 -1 0 0 0 0];

internalField   nonuniform List<vector> 
559
(
(-0.0355271 -0.00785356 0)
(-0.0188835 -0.0299312 0)
(0.00234007 -0.0321462 0)
(0.000822646 -0.0348372 0)
(0.00298584 -0.0409552 0)
(-0.00408158 -0.0502084 0)
(-0.0042713 -0.067198 0)
(0.00477874 -0.0848655 0)
(-0.255695 -0.139557 0)
(-0.23716 -0.225281 0)
(0.0110337 -0.201314 0)
(0.232512 -0.171014 0)
(0.412822 -0.156452 0)
(0.507152 -0.160838 0)
(0.575814 -0.169144 0)
(0.644652 -0.172254 0)
(0.707436 -0.173217 0)
(0.7572 -0.183249 0)
(0.779215 -0.197619 0)
(0.778378 -0.205645 0)
(0.764322 -0.212137 0)
(0.722428 -0.217942 0)
(0.611123 -0.213476 0)
(0.434753 -0.174772 0)
(0.228445 -0.113981 0)
(-0.106501 -0.152553 0)
(-0.0260524 -0.198691 0)
(-0.300645 0.226121 0)
(0.0724258 0.0596704 0)
(0.284173 -0.0904971 0)
(0.397544 -0.0743875 0)
(0.499517 0.00209427 0)
(0.575759 0.0499439 0)
(0.612701 0.063102 0)
(0.649714 0.0678385 0)
(0.699058 0.076067 0)
(0.736466 0.099187 0)
(0.742797 0.129111 0)
(0.748178 0.147477 0)
(0.763028 0.167915 0)
(0.78364 0.225321 0)
(0.739882 0.27956 0)
(0.601876 0.299444 0)
(0.388304 0.253629 0)
(0.0401597 0.200758 0)
(-0.0640776 0.0864268 0)
(-0.27937 0.148614 0)
(0.261825 -0.262626 0)
(0.420638 -0.252008 0)
(0.598645 -0.219373 0)
(0.6907 -0.172296 0)
(0.692524 -0.131096 0)
(0.695362 -0.131845 0)
(0.687562 -0.136787 0)
(0.657754 -0.115959 0)
(0.625104 -0.043006 0)
(0.584694 0.0267376 0)
(0.524864 0.0405145 0)
(0.485913 0.0200034 0)
(0.499854 -0.0345177 0)
(0.501721 -0.0134574 0)
(0.521112 0.143929 0)
(0.361468 0.236925 0)
(0.0395865 0.171359 0)
(-0.0932633 -0.103564 0)
(0.0288627 0.173061 0)
(0.399508 -0.313377 0)
(0.518842 -0.305152 0)
(0.62637 -0.18721 0)
(0.741648 0.0660131 0)
(0.729938 0.14722 0)
(0.707349 0.185633 0)
(0.690007 0.204144 0)
(0.670185 0.162021 0)
(0.639733 0.0898229 0)
(0.578516 0.0734789 0)
(0.498609 0.0817911 0)
(0.442563 0.0878727 0)
(0.357379 0.185591 0)
(0.232772 0.291902 0)
(0.151835 0.26186 0)
(0.25984 0.308773 0)
(0.0320179 0.268445 0)
(-0.0613526 0.00669027 0)
(0.410715 -0.0198484 0)
(0.44844 -0.358847 0)
(0.502261 -0.38579 0)
(0.528746 -0.237174 0)
(0.544418 -0.176031 0)
(0.559113 -0.185433 0)
(0.622365 -0.200809 0)
(0.674794 -0.179691 0)
(0.684325 -0.141318 0)
(0.697874 -0.0675695 0)
(0.670739 -0.00583471 0)
(0.588829 0.0160136 0)
(0.425165 0.0146605 0)
(0.242962 0.00990689 0)
(0.280084 0.0861953 0)
(-0.225293 0.374604 0)
(0.139818 0.311072 0)
(-0.0710561 0.319132 0)
(0.0868209 -0.0980238 0)
(0.404968 -0.267848 0)
(0.387162 -0.447876 0)
(0.462626 -0.369171 0)
(0.449754 -0.235918 0)
(0.453343 -0.083309 0)
(0.460239 -0.0157193 0)
(0.496356 0.0272839 0)
(0.537139 0.0327867 0)
(0.58282 0.0525702 0)
(0.627227 0.0608894 0)
(0.632799 0.100877 0)
(0.593231 0.145217 0)
(0.458351 0.171203 0)
(0.226607 0.184669 0)
(0.247402 0.239469 0)
(-0.264795 0.352181 0)
(-0.0814244 0.270804 0)
(-0.222967 0.312246 0)
(0.197078 -0.0151601 0)
(0.34942 -0.360831 0)
(0.344573 -0.419907 0)
(0.410998 -0.360728 0)
(0.39235 -0.231367 0)
(0.384221 -0.132508 0)
(0.404701 -0.109438 0)
(0.435864 -0.099646 0)
(0.461666 -0.0873845 0)
(0.486246 -0.0768328 0)
(0.525241 -0.0420017 0)
(0.571862 0.0322996 0)
(0.561457 0.120013 0)
(0.462881 0.194923 0)
(0.256864 0.227637 0)
(0.192912 0.329769 0)
(-0.193084 0.383236 0)
(-0.149678 0.255515 0)
(-0.311965 0.247734 0)
(0.14443 -0.0369097 0)
(0.393997 -0.5197 0)
(0.340001 -0.478315 0)
(0.383163 -0.370719 0)
(0.364518 -0.199288 0)
(0.35207 -0.123919 0)
(0.387453 -0.0905943 0)
(0.4129 -0.0720113 0)
(0.43143 -0.0574668 0)
(0.433756 -0.0372913 0)
(0.430869 -0.00319942 0)
(0.460476 0.0611512 0)
(0.479619 0.153315 0)
(0.440801 0.238153 0)
(0.348951 0.294762 0)
(0.228837 0.409055 0)
(0.0513561 0.480075 0)
(-0.100742 0.336627 0)
(-0.342199 0.224287 0)
(0.154903 -0.100006 0)
(0.0409 -0.112231 0)
(0.340026 0.0211305 0)
(0.369256 -0.249233 0)
(0.315355 -0.10898 0)
(-0.199986 1.07652 0)
(-0.381044 0.303739 0)
(-0.972825 0.959478 0)
(-1.13937 1.13935 0)
(0.0684891 -0.350575 0)
(0.170205 -0.368277 0)
(0.235097 -0.44075 0)
(0.358695 -0.431538 0)
(0.347758 0.0973466 0)
(0.337752 0.0880129 0)
(0.326917 0.0357026 0)
(0.322856 -0.0579541 0)
(0.350476 -0.2631 0)
(0.36495 -0.30082 0)
(0.371297 -0.370684 0)
(0.353782 -0.398633 0)
(0.0813865 -0.0346961 0)
(-0.180267 -0.0718806 0)
(-0.463243 0.0691059 0)
(-0.786629 0.266693 0)
(-0.504169 1.04825 0)
(-0.458405 0.457089 0)
(-0.626063 0.434702 0)
(-0.813286 0.467557 0)
(-0.763501 1.39858 0)
(-0.92958 0.891569 0)
(-0.822446 0.689575 0)
(-0.839038 0.579151 0)
(-1.05277 1.28464 0)
(-1.26686 1.11845 0)
(-1.41883 0.98411 0)
(-1.51852 0.99628 0)
(-1.15416 1.31317 0)
(-1.21795 1.13711 0)
(-1.35979 0.867198 0)
(-1.39148 0.739841 0)
(-0.948632 1.38039 0)
(-0.923899 1.29795 0)
(-0.932654 1.00303 0)
(-0.869261 0.769631 0)
(-0.369248 1.29561 0)
(-0.255304 1.25693 0)
(-0.17688 1.04517 0)
(-0.116602 0.788342 0)
(-0.017035 0.96029 0)
(0.11429 0.925143 0)
(0.172123 0.789563 0)
(0.223649 0.614434 0)
(0.00897543 0.744813 0)
(0.108552 0.724956 0)
(0.164159 0.656882 0)
(0.210063 0.587187 0)
(-0.0275463 0.60929 0)
(0.0314541 0.610369 0)
(0.0735843 0.593515 0)
(0.102578 0.569058 0)
(-0.0294065 0.509234 0)
(0.00818298 0.522974 0)
(0.0404691 0.529942 0)
(0.0658863 0.531457 0)
(-0.0134002 0.450236 0)
(0.0147173 0.464311 0)
(0.0427838 0.475266 0)
(0.0692859 0.482089 0)
(0.015554 0.40158 0)
(0.0380459 0.41222 0)
(0.0624467 0.421003 0)
(0.0866247 0.429457 0)
(0.0394255 0.35606 0)
(0.06055 0.363766 0)
(0.0826611 0.370185 0)
(0.104719 0.376574 0)
(0.462581 -0.566219 0)
(0.343055 -0.483694 0)
(0.372473 -0.393408 0)
(0.315994 -0.360234 0)
(0.23458 -0.226795 0)
(0.315743 -0.104715 0)
(0.378484 -0.0825601 0)
(0.397855 -0.0641778 0)
(0.379094 -0.0360812 0)
(0.348608 -0.0149992 0)
(0.356808 0.0192732 0)
(0.402583 0.135934 0)
(0.387121 0.23553 0)
(0.379588 0.371044 0)
(0.260892 0.471372 0)
(0.154042 0.546318 0)
(0.195709 0.554805 0)
(-0.29083 0.23771 0)
(0.209705 -0.15704 0)
(0.354147 -0.440568 0)
(0.1028 -0.488229 0)
(-0.148943 -0.0960432 0)
(-0.431788 0.203971 0)
(-0.348964 -0.236588 0)
(-0.0663091 -0.282128 0)
(0.177329 -0.146076 0)
(0.318733 -0.0571479 0)
(0.346737 -0.018799 0)
(0.323512 0.00297355 0)
(0.270581 0.0361762 0)
(0.266159 0.13806 0)
(0.24165 0.226492 0)
(0.305921 0.410452 0)
(0.195175 0.55522 0)
(0.0580935 0.592681 0)
(0.26895 0.582753 0)
(-0.1257 0.260898 0)
(0.226182 -0.192759 0)
(0.230983 -0.37884 0)
(-0.68264 0.200319 0)
(-0.934943 0.392213 0)
(-0.846439 0.0423324 0)
(-0.718401 -0.375909 0)
(-0.588385 -0.456256 0)
(-0.365575 -0.371597 0)
(0.0399239 -0.190265 0)
(0.2972 -0.00185335 0)
(0.375227 0.0287804 0)
(0.309378 0.101691 0)
(0.255201 0.173442 0)
(0.201808 0.207774 0)
(0.226319 0.394411 0)
(0.12823 0.636829 0)
(-0.0592488 0.478034 0)
(0.215942 0.606696 0)
(-0.0251503 0.315659 0)
(0.230361 -0.122598 0)
(-1.05269 0.318118 0)
(-1.17142 0.0492148 0)
(-0.87317 -0.252589 0)
(-0.751367 -0.336315 0)
(-0.690316 -0.512094 0)
(-0.661154 -0.6525 0)
(-0.535394 -0.683227 0)
(-0.326966 -0.570678 0)
(0.0161822 -0.304899 0)
(0.408091 0.0572374 0)
(0.361551 0.123456 0)
(0.258725 0.22599 0)
(0.198209 0.246608 0)
(0.12986 0.516401 0)
(0.0906728 0.807846 0)
(-0.0639152 0.572073 0)
(0.175084 0.504899 0)
(0.0814789 0.299286 0)
(0.230315 -0.0298465 0)
(-0.950831 0.257825 0)
(-0.896001 0.0471539 0)
(-0.99785 -0.161882 0)
(-1.01413 -0.291501 0)
(-0.929325 -0.544486 0)
(-0.817476 -0.750717 0)
(-0.648846 -0.804296 0)
(-0.444206 -0.828916 0)
(-0.216304 -0.698405 0)
(0.0406561 -0.271599 0)
(0.38105 0.325169 0)
(0.304201 0.305836 0)
(0.17737 0.320366 0)
(0.0534 0.551071 0)
(0.0856246 0.74765 0)
(0.106757 0.573219 0)
(0.244775 0.416772 0)
(0.191922 0.307643 0)
(0.223239 0.138823 0)
(-0.806795 0.52299 0)
(-0.750872 1.17896 0)
(-1.3513 0.801269 0)
(-1.4285 0.178259 0)
(-1.28368 -0.588486 0)
(-0.887315 -0.945411 0)
(-0.651805 -1.09483 0)
(-0.502177 -1.01394 0)
(-0.344367 -0.845849 0)
(-0.174156 -0.577629 0)
(0.21007 0.0753111 0)
(0.419557 0.402407 0)
(0.241413 0.456402 0)
(0.0847998 0.55325 0)
(0.141894 0.637621 0)
(0.247869 0.491773 0)
(0.316675 0.391781 0)
(0.235737 0.369756 0)
(0.236839 0.310861 0)
(-1.67728 0.633943 0)
(-1.46149 0.102147 0)
(-1.14729 -0.0831724 0)
(-0.940647 -0.0145559 0)
(-0.913704 0.00483922 0)
(-0.794739 -0.676645 0)
(-0.634569 -1.1719 0)
(-0.461439 -1.1709 0)
(-0.379603 -1.01052 0)
(-0.24273 -0.736877 0)
(-0.141465 -0.374969 0)
(0.24812 0.277628 0)
(0.267684 0.556587 0)
(0.142719 0.588284 0)
(0.175486 0.533778 0)
(0.278717 0.405468 0)
(0.328495 0.395698 0)
(0.23877 0.447737 0)
(0.24154 0.482495 0)
(-1.40326 0.376531 0)
(-1.17348 -0.0757659 0)
(-1.33915 -0.363415 0)
(-1.07303 -0.791852 0)
(-0.660718 -1.06875 0)
(-0.229785 -0.950632 0)
(-0.46829 -1.2465 0)
(-0.453488 -1.20972 0)
(-0.445552 -1.07982 0)
(-0.428798 -0.855417 0)
(-0.258277 -0.459449 0)
(-0.25328 0.0342881 0)
(0.19768 0.579336 0)
(0.123358 0.595903 0)
(0.167973 0.486632 0)
(0.272685 0.363597 0)
(0.305781 0.417635 0)
(0.17944 0.511348 0)
(0.169283 0.686368 0)
(-0.712758 0.433203 0)
(-0.479193 0.20318 0)
(-0.818944 0.0118608 0)
(-0.707571 -0.504958 0)
(-0.476595 -1.26362 0)
(-0.537293 -1.3071 0)
(-0.541007 -1.25814 0)
(-0.55869 -1.19682 0)
(-0.659077 -1.04632 0)
(-0.741775 -0.786153 0)
(-0.923291 -0.413781 0)
(-0.708707 0.119165 0)
(0.0290205 0.339499 0)
(-0.014524 0.601854 0)
(0.116227 0.401891 0)
(0.156561 0.25223 0)
(0.223045 0.39146 0)
(-0.0178171 0.577947 0)
(0.0757598 0.771539 0)
(-0.136596 0.284242 0)
(-0.157099 -0.108451 0)
(-0.360928 -0.133588 0)
(-0.351797 -0.656989 0)
(-0.590493 -1.38383 0)
(-0.641522 -1.28775 0)
(-0.654458 -1.20314 0)
(-0.721554 -1.11079 0)
(-0.810068 -0.938015 0)
(-1.02857 -0.727189 0)
(-1.12093 -0.661533 0)
(-0.966961 -0.563262 0)
(-0.423106 0.229595 0)
(-0.123291 0.431193 0)
(-0.124985 0.277542 0)
(-0.114441 0.185377 0)
(-0.0480844 0.702624 0)
(-0.216395 0.681876 0)
(0.0714849 0.735076 0)
(0.207014 0.384628 0)
(0.0410353 0.305993 0)
(-0.297958 0.347993 0)
(-0.454436 -0.480148 0)
(-0.756359 -1.27865 0)
(-0.775895 -1.24014 0)
(-0.815833 -1.2058 0)
(-0.844708 -1.08948 0)
(-0.931409 -0.818513 0)
(-1.14979 -0.668711 0)
(-1.12718 -0.631704 0)
(-1.09768 -0.657743 0)
(-1.01755 -0.236839 0)
(-0.324718 0.268222 0)
(-0.341096 0.253331 0)
(-0.451019 0.258869 0)
(-0.590865 0.692043 0)
(-0.653367 0.69827 0)
(0.0664606 0.489578 0)
(0.199827 0.457479 0)
(0.00853291 0.428885 0)
(-0.187651 0.485962 0)
(-0.524846 -0.259102 0)
(-0.852707 -1.14645 0)
(-0.914938 -1.20301 0)
(-0.930513 -1.19736 0)
(-0.935089 -1.05686 0)
(-1.01424 -0.7693 0)
(-1.18628 -0.55875 0)
(-1.10395 -0.606775 0)
(-1.07523 -0.645719 0)
(-1.15649 -0.499061 0)
(-1.06186 0.12071 0)
(-0.677901 0.311292 0)
(-0.762243 0.369074 0)
(-0.875876 0.571063 0)
(-0.452984 0.410114 0)
(0.143069 0.110398 0)
(0.116453 0.54752 0)
(0.0490045 0.560393 0)
(0.0225006 0.672065 0)
(-0.213728 0.259631 0)
(-0.750172 -0.875709 0)
(-0.924285 -1.16556 0)
(-0.964203 -1.16072 0)
(-0.957911 -1.04741 0)
(-0.963004 -0.798922 0)
(-1.02147 -0.449437 0)
(-1.12134 -0.58036 0)
(-1.06003 -0.581203 0)
(-1.19767 -0.45313 0)
(-1.33106 -0.126358 0)
(-1.34244 0.258574 0)
(-0.560374 0.21083 0)
(-0.34115 0.167856 0)
(-0.152455 0.226845 0)
(0.112666 0.0520446 0)
(0.106796 0.538027 0)
(0.127734 0.57157 0)
(0.163839 0.687268 0)
(0.247677 0.585626 0)
(-0.240505 -0.340033 0)
(-0.691887 -1.11463 0)
(-0.944295 -1.14534 0)
(-0.976962 -1.02729 0)
(-0.954195 -0.844098 0)
(-0.889365 -0.532777 0)
(-0.924205 -0.460481 0)
(-1.05196 -0.523719 0)
(-1.03977 -0.384347 0)
(-1.03643 -0.216823 0)
(-0.66812 -0.16289 0)
(-0.367396 -0.109283 0)
(-0.188032 0.0217924 0)
(-0.132533 0.136456 0)
(0.0648717 0.0201305 0)
(0.1121 0.505557 0)
(0.175855 0.52508 0)
(0.249161 0.586742 0)
(0.391823 0.588097 0)
(0.301476 0.210007 0)
(-0.193766 -0.644362 0)
(-0.696053 -1.13158 0)
(-0.972657 -0.970374 0)
(-0.965183 -0.865704 0)
(-0.9117 -0.642517 0)
(-0.790774 -0.429619 0)
(-0.706717 -0.409653 0)
(-0.637975 -0.456168 0)
(-0.570074 -0.41824 0)
(-0.444125 -0.330606 0)
(-0.306746 -0.273977 0)
(-0.275607 -0.145975 0)
(-0.174818 -0.0100295 0)
(-0.0120238 -0.0281121 0)
(0.13205 0.444078 0)
(0.199406 0.456635 0)
(0.278986 0.478875 0)
(0.397848 0.500548 0)
(0.466486 0.294577 0)
(0.23042 0.0276942 0)
(-0.269354 -0.702283 0)
(-0.88635 -0.886505 0)
(-0.991098 -0.822339 0)
(-0.944738 -0.705559 0)
(-0.869531 -0.548825 0)
(-0.791204 -0.501597 0)
(-0.749656 -0.489935 0)
(-0.727884 -0.457357 0)
(-0.685624 -0.37197 0)
(-0.585095 -0.257369 0)
(-0.448118 -0.142044 0)
(-0.315709 -0.117379 0)
(-0.0765227 -0.152609 0)
(0.147731 0.387291 0)
(0.209538 0.391185 0)
(0.278258 0.393004 0)
(0.35802 0.37827 0)
(0.43142 0.303471 0)
(0.395907 0.120712 0)
(0.14121 0.0409808 0)
(-0.490536 -0.666505 0)
(-0.945016 -0.750579 0)
(-0.972825 -0.703232 0)
(-0.928665 -0.574351 0)
(-0.898597 -0.526073 0)
(-0.852813 -0.513644 0)
(-0.824695 -0.490702 0)
(-0.774952 -0.452782 0)
(-0.695148 -0.413456 0)
(-0.551194 -0.336327 0)
(-0.349812 -0.317555 0)
(-0.151444 -0.377631 0)
)
;

boundaryField
{
    leftWall
    {
        type            calculated;
        value           nonuniform 0();
    }
    rightWall
    {
        type            calculated;
        value           uniform (0 0 0);
    }
    lowerWall
    {
        type            calculated;
        value           uniform (0 0 0);
    }
    atmosphere
    {
        type            calculated;
        value           nonuniform 0();
    }
    defaultFaces
    {
        type            empty;
    }
    procBoundary1to0
    {
        type            processor;
        value           nonuniform List<vector> 
26
(
(-0.0436683 -0.000771751 0)
(-0.0340466 -0.0108895 0)
(-0.014651 -0.0195193 0)
(-0.0177521 -0.0359442 0)
(-0.0347802 -0.0552217 0)
(-0.0540608 -0.0706516 0)
(-0.0509004 -0.0871587 0)
(-0.0351881 -0.118047 0)
(0.0237666 -0.106302 0)
(0.281658 -0.0438698 0)
(0.37485 -0.269402 0)
(0.360554 -0.227232 0)
(0.188296 0.172368 0)
(-0.366525 -0.266394 0)
(-0.674352 -0.101433 0)
(-1.05411 0.360877 0)
(-0.97817 1.16865 0)
(-0.97817 1.16865 0)
(-0.471575 1.03047 0)
(-0.183159 0.853003 0)
(-0.114702 0.708635 0)
(-0.106768 0.581955 0)
(-0.0858009 0.486091 0)
(-0.0545261 0.431186 0)
(-0.0175075 0.382689 0)
(0.00943073 0.340205 0)
)
;
    }
    procBoundary1to3
    {
        type            processor;
        value           nonuniform List<vector> 
23
(
(0.0611111 0.316841 0)
(0.0801223 0.322305 0)
(0.0999878 0.328003 0)
(0.11921 0.332465 0)
(0.1564 0.338462 0)
(0.208763 0.336984 0)
(0.265838 0.331085 0)
(0.326133 0.309727 0)
(0.388573 0.270752 0)
(0.410053 0.227886 0)
(0.400832 0.181404 0)
(0.24068 0.156779 0)
(-0.515285 -0.555175 0)
(-0.854578 -0.632277 0)
(-0.872382 -0.619177 0)
(-0.847602 -0.555434 0)
(-0.807414 -0.530745 0)
(-0.764934 -0.513802 0)
(-0.701018 -0.506511 0)
(-0.638568 -0.490238 0)
(-0.541081 -0.481597 0)
(-0.331667 -0.515496 0)
(-0.19937 -0.582936 0)
)
;
    }
}


// ************************************************************************* //
