/*--------------------------------*- C++ -*----------------------------------*\
| =========                 |                                                 |
| \\      /  F ield         | OpenFOAM: The Open Source CFD Toolbox           |
|  \\    /   O peration     | Version:  2.4.0                                 |
|   \\  /    A nd           | Web:      www.OpenFOAM.org                      |
|    \\/     M anipulation  |                                                 |
\*---------------------------------------------------------------------------*/
FoamFile
{
    version     2.0;
    format      ascii;
    class       volVectorField;
    location    "0.7";
    object      U.air;
}
// * * * * * * * * * * * * * * * * * * * * * * * * * * * * * * * * * * * * * //

dimensions      [0 1 -1 0 0 0 0];

internalField   nonuniform List<vector> 
559
(
(-0.035527 -0.00785363 0)
(-0.0188835 -0.0299312 0)
(0.00234007 -0.032146 0)
(0.00082263 -0.034837 0)
(0.00298583 -0.0409551 0)
(-0.00408159 -0.0502084 0)
(-0.0042725 -0.0671454 0)
(0.00475286 -0.0833667 0)
(-0.257338 -0.159461 0)
(-0.234234 -0.21537 0)
(0.0163658 -0.204161 0)
(0.22941 -0.183338 0)
(0.406125 -0.172371 0)
(0.503042 -0.178897 0)
(0.573868 -0.188921 0)
(0.643356 -0.192455 0)
(0.70631 -0.193508 0)
(0.756198 -0.203795 0)
(0.77958 -0.219027 0)
(0.778327 -0.219083 0)
(0.758081 -0.197546 0)
(0.70591 -0.163262 0)
(0.591738 -0.153468 0)
(0.425422 -0.158301 0)
(0.227936 -0.117278 0)
(-0.10623 -0.155589 0)
(-0.0261443 -0.191772 0)
(-0.299945 0.206377 0)
(0.103355 0.010222 0)
(0.294109 -0.0307811 0)
(0.395515 0.0849319 0)
(0.49526 0.103622 0)
(0.571926 0.113102 0)
(0.610478 0.0914854 0)
(0.647876 0.120756 0)
(0.696701 0.303855 0)
(0.734905 0.249705 0)
(0.741951 0.223823 0)
(0.748055 0.190282 0)
(0.76329 0.180286 0)
(0.780389 0.262308 0)
(0.7278 0.348817 0)
(0.589116 0.327561 0)
(0.384637 0.256994 0)
(0.0402764 0.198493 0)
(-0.0646917 0.102504 0)
(-0.273989 0.127995 0)
(0.273748 -0.169317 0)
(0.428972 0.0237519 0)
(0.642285 0.221946 0)
(0.713217 0.151354 0)
(0.692763 0.0194115 0)
(0.691998 0.0309327 0)
(0.689605 0.0977519 0)
(0.660662 0.200079 0)
(0.616633 -0.0282651 0)
(0.567302 -0.173501 0)
(0.506967 -0.203409 0)
(0.495195 -0.225816 0)
(0.53127 -0.207728 0)
(0.531995 -0.0852097 0)
(0.515069 0.249949 0)
(0.347167 0.26812 0)
(0.0355815 0.165844 0)
(-0.0933194 -0.0895625 0)
(0.158255 0.132269 0)
(0.415778 -0.125287 0)
(0.624297 0.0874223 0)
(0.847955 0.273212 0)
(0.877657 0.229455 0)
(0.75165 0.104368 0)
(0.664096 0.305324 0)
(0.633693 0.52227 0)
(0.562795 0.470662 0)
(0.495081 0.399997 0)
(0.469114 0.29666 0)
(0.473297 0.0158035 0)
(0.457317 -0.156551 0)
(0.384566 -0.116028 0)
(0.277943 -0.0825885 0)
(0.135298 0.302703 0)
(0.179873 0.351796 0)
(0.0252153 0.274956 0)
(-0.0611896 0.0270129 0)
(0.428662 -0.0804446 0)
(0.438592 -0.362712 0)
(0.473199 -0.365822 0)
(0.487791 -0.268644 0)
(0.519557 -0.230456 0)
(0.576807 -0.107966 0)
(0.664926 -0.0118319 0)
(0.682412 0.10176 0)
(0.661613 0.188067 0)
(0.649654 0.367461 0)
(0.617484 0.347439 0)
(0.576151 0.00838955 0)
(0.438764 -0.0193971 0)
(0.325494 -0.228826 0)
(0.326985 -0.165174 0)
(-0.0904701 0.195077 0)
(0.0778631 0.35607 0)
(-0.0810888 0.348675 0)
(0.0862375 -0.070299 0)
(0.406205 -0.314935 0)
(0.386355 -0.524955 0)
(0.445539 -0.53566 0)
(0.460719 -0.377578 0)
(0.464391 -0.0422628 0)
(0.470548 0.407881 0)
(0.490645 0.39491 0)
(0.512827 0.39801 0)
(0.538876 0.39869 0)
(0.557723 0.436779 0)
(0.572457 0.340485 0)
(0.57878 0.135793 0)
(0.472894 0.15629 0)
(0.271955 0.00544264 0)
(0.287524 -0.10445 0)
(-0.145468 0.18548 0)
(-0.12527 0.389755 0)
(-0.241746 0.343848 0)
(0.205038 -0.074016 0)
(0.345884 -0.238241 0)
(0.342793 -0.533492 0)
(0.428913 -0.549377 0)
(0.405146 -0.374411 0)
(0.368702 -0.113463 0)
(0.376014 0.162706 0)
(0.414273 0.19467 0)
(0.432927 0.214596 0)
(0.452726 0.227668 0)
(0.47668 0.303081 0)
(0.521482 0.308125 0)
(0.546484 0.115417 0)
(0.471294 0.173182 0)
(0.273276 0.161726 0)
(0.225183 0.0546486 0)
(-0.091227 0.147797 0)
(-0.172521 0.439227 0)
(-0.31866 0.262138 0)
(0.181457 -0.180193 0)
(0.284788 -0.279938 0)
(0.29519 -0.426486 0)
(0.411389 -0.365757 0)
(0.376747 -0.0281285 0)
(0.350209 0.0983323 0)
(0.38657 0.198981 0)
(0.407107 0.158734 0)
(0.4079 0.258608 0)
(0.395335 0.327069 0)
(0.369941 0.350312 0)
(0.366669 0.442769 0)
(0.427838 0.28044 0)
(0.442366 0.217976 0)
(0.356117 0.272744 0)
(0.249064 0.120019 0)
(0.0991508 0.194189 0)
(-0.0847356 0.396076 0)
(-0.32419 0.23635 0)
(0.212503 -0.145564 0)
(0.0457457 -0.175856 0)
(0.319322 -0.0589306 0)
(0.190004 0.291467 0)
(0.187738 0.446726 0)
(-0.208041 1.11217 0)
(-0.381012 0.303823 0)
(-0.972821 0.959482 0)
(-1.13936 1.13935 0)
(0.0676811 -0.383201 0)
(0.162328 -0.399629 0)
(0.220495 -0.470667 0)
(0.363104 -0.474651 0)
(0.342008 -0.0435905 0)
(0.338464 -0.0581843 0)
(0.335788 -0.0843981 0)
(0.318447 -0.151411 0)
(0.180873 -0.0157439 0)
(0.425142 -0.317964 0)
(0.514078 -0.400002 0)
(0.335041 -0.331396 0)
(-0.565496 0.747346 0)
(-0.760619 0.59389 0)
(-0.193186 0.335561 0)
(-0.378991 0.630473 0)
(-0.597852 1.22075 0)
(-0.788445 0.990564 0)
(-0.856898 1.15681 0)
(-0.733863 1.05241 0)
(-0.763139 1.40544 0)
(-0.9509 0.960341 0)
(-0.864857 0.879297 0)
(-0.842177 0.769836 0)
(-1.05273 1.2849 0)
(-1.26756 1.12235 0)
(-1.42443 0.994735 0)
(-1.52691 1.009 0)
(-1.15416 1.31317 0)
(-1.21795 1.13712 0)
(-1.3598 0.867223 0)
(-1.3915 0.739864 0)
(-0.948631 1.38039 0)
(-0.923899 1.29795 0)
(-0.932653 1.00303 0)
(-0.869261 0.769631 0)
(-0.369248 1.29561 0)
(-0.255304 1.25693 0)
(-0.17688 1.04517 0)
(-0.116602 0.788343 0)
(-0.017035 0.960291 0)
(0.11429 0.925145 0)
(0.172123 0.789565 0)
(0.22365 0.614435 0)
(0.00897545 0.744814 0)
(0.108553 0.724959 0)
(0.164159 0.656884 0)
(0.210064 0.587189 0)
(-0.0275464 0.609291 0)
(0.0314542 0.610371 0)
(0.0735845 0.593516 0)
(0.102579 0.569059 0)
(-0.0294066 0.509235 0)
(0.008183 0.522975 0)
(0.0404692 0.529944 0)
(0.0658864 0.531459 0)
(-0.0134002 0.450237 0)
(0.0147173 0.464312 0)
(0.042784 0.475267 0)
(0.069286 0.48209 0)
(0.015554 0.40158 0)
(0.038046 0.412221 0)
(0.0624468 0.421004 0)
(0.0866249 0.429458 0)
(0.0394256 0.356061 0)
(0.0605502 0.363767 0)
(0.0826613 0.370186 0)
(0.10472 0.376575 0)
(0.357922 -0.542275 0)
(0.277448 -0.0285434 0)
(0.366252 0.154185 0)
(0.190374 0.285953 0)
(0.0819684 0.321259 0)
(0.266056 0.321786 0)
(0.361106 0.176021 0)
(0.362141 0.264385 0)
(0.315643 0.320024 0)
(0.280249 0.31869 0)
(0.271318 0.385016 0)
(0.285323 0.50145 0)
(0.328999 0.229697 0)
(0.381035 0.348137 0)
(0.257355 0.340054 0)
(0.15813 0.188715 0)
(0.229357 0.374627 0)
(-0.265205 0.268998 0)
(0.0851777 -0.000266892 0)
(0.352543 -0.456834 0)
(0.0975305 -0.212068 0)
(-0.204002 0.118081 0)
(-0.524344 0.432123 0)
(-0.538886 0.128408 0)
(-0.224695 0.122635 0)
(0.0909603 0.28617 0)
(0.28199 0.384729 0)
(0.291541 0.391844 0)
(0.237708 0.382103 0)
(0.178885 0.403596 0)
(0.171336 0.549497 0)
(0.19952 0.372308 0)
(0.301589 0.569808 0)
(0.197426 0.677129 0)
(0.0828158 0.444483 0)
(0.333624 0.349339 0)
(-0.0463256 0.264763 0)
(0.132891 0.06932 0)
(0.263371 -0.0922409 0)
(-0.651681 0.44534 0)
(-0.954741 0.599613 0)
(-0.88875 0.252951 0)
(-0.814404 -0.122546 0)
(-0.683812 -0.170352 0)
(-0.414191 -0.0768825 0)
(-0.000404292 0.118118 0)
(0.282668 0.353357 0)
(0.334581 0.453695 0)
(0.206613 0.521941 0)
(0.132857 0.556622 0)
(0.0908667 0.568829 0)
(0.144178 0.888775 0)
(0.105326 1.08011 0)
(-0.066287 0.886091 0)
(0.290389 0.443043 0)
(0.0405803 0.24494 0)
(0.262399 -0.0552711 0)
(-0.909238 0.821478 0)
(-1.23875 0.781368 0)
(-0.938917 0.539481 0)
(-0.760716 0.28257 0)
(-0.710888 -0.0464522 0)
(-0.737094 -0.232326 0)
(-0.617417 -0.31397 0)
(-0.342461 -0.240815 0)
(0.0695159 0.020764 0)
(0.45074 0.430447 0)
(0.287563 0.615707 0)
(0.095109 0.633147 0)
(0.0529653 0.615148 0)
(0.0289009 0.909565 0)
(0.0484658 1.19655 0)
(-0.149761 0.957679 0)
(0.0262763 0.878626 0)
(-0.00648074 0.495963 0)
(0.290958 -0.0460897 0)
(-0.852858 0.668785 0)
(-0.888471 0.398459 0)
(-1.05247 0.308731 0)
(-1.0663 0.288091 0)
(-0.995694 0.0702349 0)
(-0.967037 -0.205326 0)
(-0.80486 -0.38472 0)
(-0.505451 -0.4242 0)
(-0.177191 -0.323859 0)
(0.10035 0.0635607 0)
(0.330913 0.687636 0)
(0.0924083 0.731267 0)
(-0.0709101 0.669742 0)
(-0.120465 0.848968 0)
(-0.00309505 1.03935 0)
(0.0286532 0.83768 0)
(0.0782861 0.731064 0)
(-0.0461825 0.573765 0)
(0.200155 0.0883944 0)
(-0.787449 0.621986 0)
(-0.747364 1.21785 0)
(-1.35754 0.836531 0)
(-1.44473 0.250789 0)
(-1.33425 -0.449442 0)
(-1.04155 -0.657059 0)
(-0.870101 -0.683087 0)
(-0.617614 -0.644609 0)
(-0.34617 -0.483989 0)
(-0.158046 -0.167241 0)
(0.189706 0.4327 0)
(0.274243 0.841601 0)
(-0.0449953 0.875889 0)
(-0.135862 0.910472 0)
(0.0321744 0.958745 0)
(0.173188 0.788175 0)
(0.201687 0.664406 0)
(-0.00453765 0.639479 0)
(0.171062 0.283489 0)
(-1.67971 0.636673 0)
(-1.46155 0.102202 0)
(-1.14729 -0.0831537 0)
(-0.940622 -0.0144691 0)
(-0.913564 0.00878751 0)
(-0.807016 -0.614564 0)
(-0.761686 -0.977496 0)
(-0.642287 -0.873195 0)
(-0.37903 -0.677947 0)
(-0.19301 -0.390637 0)
(-0.130275 0.0518713 0)
(0.152367 0.664435 0)
(-0.0301249 1.00225 0)
(-0.152344 0.977261 0)
(0.0164204 0.897984 0)
(0.190526 0.744695 0)
(0.226367 0.724659 0)
(0.00782942 0.744513 0)
(0.139199 0.422699 0)
(-1.40326 0.376533 0)
(-1.17348 -0.0757644 0)
(-1.33915 -0.363404 0)
(-1.07283 -0.791197 0)
(-0.658865 -1.06414 0)
(-0.1947 -0.895636 0)
(-0.441697 -1.13761 0)
(-0.49293 -1.04088 0)
(-0.430874 -0.869841 0)
(-0.429888 -0.694633 0)
(-0.277801 -0.329087 0)
(-0.288904 0.147994 0)
(-0.0645838 0.818651 0)
(-0.244932 0.922647 0)
(-0.0396287 0.800983 0)
(0.173119 0.706714 0)
(0.213775 0.867493 0)
(-0.0236522 0.79337 0)
(0.100652 0.505317 0)
(-0.712758 0.433203 0)
(-0.479193 0.20318 0)
(-0.818921 0.0119522 0)
(-0.704305 -0.495168 0)
(-0.432914 -1.21075 0)
(-0.447429 -1.20749 0)
(-0.524119 -1.2367 0)
(-0.617143 -1.17633 0)
(-0.719477 -1.02552 0)
(-0.791123 -0.805083 0)
(-0.945073 -0.41406 0)
(-0.733588 0.127739 0)
(-0.1238 0.370706 0)
(-0.398409 0.792889 0)
(-0.0819418 0.700407 0)
(0.23571 0.707818 0)
(0.17701 0.897405 0)
(-0.327196 0.964511 0)
(0.00193652 0.506994 0)
(-0.136597 0.284243 0)
(-0.157099 -0.108451 0)
(-0.360854 -0.133409 0)
(-0.338803 -0.635919 0)
(-0.511732 -1.36272 0)
(-0.595363 -1.32755 0)
(-0.677227 -1.25806 0)
(-0.748988 -1.12202 0)
(-0.859544 -0.97747 0)
(-1.0537 -0.753377 0)
(-1.14225 -0.68022 0)
(-0.991788 -0.579631 0)
(-0.510503 0.225625 0)
(-0.388636 0.587374 0)
(-0.194807 0.613424 0)
(-0.0711498 0.526517 0)
(-0.119528 0.855028 0)
(-0.61491 0.944786 0)
(-0.277746 0.944353 0)
(0.207014 0.384628 0)
(0.0410353 0.305993 0)
(-0.297843 0.348324 0)
(-0.440058 -0.44918 0)
(-0.732959 -1.29435 0)
(-0.745685 -1.29482 0)
(-0.780281 -1.14239 0)
(-0.921772 -1.08202 0)
(-0.991507 -0.834598 0)
(-1.16663 -0.687467 0)
(-1.15076 -0.646963 0)
(-1.12395 -0.671939 0)
(-1.06056 -0.246078 0)
(-0.422432 0.353322 0)
(-0.470797 0.515413 0)
(-0.590376 0.379427 0)
(-0.70357 0.762674 0)
(-0.847909 0.780396 0)
(-0.237043 0.830687 0)
(0.199828 0.45748 0)
(0.00853293 0.428886 0)
(-0.187565 0.486161 0)
(-0.515305 -0.234714 0)
(-0.830327 -1.13776 0)
(-0.835093 -1.20175 0)
(-0.899485 -1.18678 0)
(-1.03602 -1.06155 0)
(-1.07108 -0.770941 0)
(-1.2029 -0.574415 0)
(-1.1287 -0.621398 0)
(-1.10278 -0.658049 0)
(-1.1859 -0.507043 0)
(-1.10789 0.130327 0)
(-0.780548 0.377264 0)
(-0.938607 0.462123 0)
(-0.992276 0.623422 0)
(-0.594684 0.470326 0)
(-0.0787577 0.263382 0)
(0.116453 0.547521 0)
(0.0490045 0.560393 0)
(0.0225064 0.672074 0)
(-0.211952 0.262764 0)
(-0.734371 -0.862637 0)
(-0.871493 -1.17752 0)
(-0.911745 -1.23721 0)
(-1.01352 -1.03988 0)
(-1.02668 -0.783622 0)
(-1.05037 -0.477737 0)
(-1.14451 -0.595423 0)
(-1.08751 -0.591922 0)
(-1.22885 -0.459548 0)
(-1.36457 -0.125377 0)
(-1.39049 0.269261 0)
(-0.712373 0.262026 0)
(-0.541825 0.161058 0)
(-0.304842 0.19624 0)
(-0.0430728 0.0225569 0)
(0.106796 0.538028 0)
(0.127734 0.57157 0)
(0.163839 0.687267 0)
(0.247737 0.5857 0)
(-0.239198 -0.338958 0)
(-0.671647 -1.11711 0)
(-0.894391 -1.19993 0)
(-0.972523 -1.05393 0)
(-1.03333 -0.815217 0)
(-0.922836 -0.56343 0)
(-0.940037 -0.484252 0)
(-1.07166 -0.534069 0)
(-1.06595 -0.3893 0)
(-1.07097 -0.214594 0)
(-0.730903 -0.157142 0)
(-0.561079 -0.141718 0)
(-0.415068 -0.0634917 0)
(-0.255274 -0.0373965 0)
(0.0182887 -0.0517159 0)
(0.1121 0.505557 0)
(0.175856 0.52508 0)
(0.249161 0.586742 0)
(0.391823 0.588097 0)
(0.301483 0.21001 0)
(-0.192167 -0.643849 0)
(-0.665569 -1.15324 0)
(-0.939409 -1.02453 0)
(-1.01747 -0.850484 0)
(-0.96654 -0.631497 0)
(-0.792127 -0.472607 0)
(-0.718255 -0.438601 0)
(-0.658164 -0.487799 0)
(-0.587942 -0.443737 0)
(-0.521212 -0.340215 0)
(-0.497291 -0.295455 0)
(-0.442799 -0.135493 0)
(-0.212175 -0.085056 0)
(0.0311527 -0.0257675 0)
(0.13205 0.444079 0)
(0.199406 0.456636 0)
(0.278986 0.478876 0)
(0.397848 0.500548 0)
(0.466486 0.294577 0)
(0.230425 0.0276962 0)
(-0.262375 -0.702074 0)
(-0.855363 -0.912074 0)
(-0.987158 -0.859187 0)
(-1.01929 -0.66364 0)
(-0.901334 -0.552808 0)
(-0.800873 -0.481803 0)
(-0.7802 -0.477143 0)
(-0.757681 -0.45851 0)
(-0.760075 -0.370218 0)
(-0.714164 -0.224441 0)
(-0.543009 -0.0832231 0)
(-0.2961 -0.0667162 0)
(-0.0360497 -0.0851126 0)
(0.147731 0.387292 0)
(0.209539 0.391186 0)
(0.278259 0.393005 0)
(0.358021 0.37827 0)
(0.43142 0.303472 0)
(0.395907 0.120712 0)
(0.141372 0.0410874 0)
(-0.476131 -0.666239 0)
(-0.931479 -0.773666 0)
(-1.00555 -0.694025 0)
(-0.956089 -0.5046 0)
(-0.892327 -0.457167 0)
(-0.872366 -0.442246 0)
(-0.851631 -0.421899 0)
(-0.826967 -0.380909 0)
(-0.809477 -0.299662 0)
(-0.750327 -0.157792 0)
(-0.561655 -0.152056 0)
(-0.241036 -0.211339 0)
)
;

boundaryField
{
    leftWall
    {
        type            fixedValue;
        value           nonuniform 0();
    }
    rightWall
    {
        type            fixedValue;
        value           uniform (0 0 0);
    }
    lowerWall
    {
        type            fixedValue;
        value           uniform (0 0 0);
    }
    atmosphere
    {
        type            fluxCorrectedVelocity;
        value           nonuniform 0();
    }
    defaultFaces
    {
        type            empty;
    }
    procBoundary1to0
    {
        type            processor;
        value           nonuniform List<vector> 
26
(
(-0.0436683 -0.000771743 0)
(-0.0340465 -0.0108894 0)
(-0.014651 -0.019519 0)
(-0.0177521 -0.0359439 0)
(-0.0347802 -0.0552215 0)
(-0.0540608 -0.0706514 0)
(-0.050916 -0.0862786 0)
(-0.0350677 -0.121249 0)
(0.0258448 -0.20578 0)
(0.264767 -0.101452 0)
(0.328585 0.20674 0)
(0.382851 0.293033 0)
(0.190117 0.239637 0)
(-0.366526 -0.266395 0)
(-0.674353 -0.101433 0)
(-1.05411 0.360878 0)
(-0.978171 1.16865 0)
(-0.978171 1.16865 0)
(-0.471576 1.03047 0)
(-0.183159 0.853005 0)
(-0.114702 0.708636 0)
(-0.106768 0.581956 0)
(-0.085801 0.486092 0)
(-0.0545262 0.431186 0)
(-0.0175076 0.382689 0)
(0.00943075 0.340205 0)
)
;
    }
    procBoundary1to3
    {
        type            processor;
        value           nonuniform List<vector> 
23
(
(0.0611112 0.316842 0)
(0.0801225 0.322306 0)
(0.099988 0.328003 0)
(0.11921 0.332466 0)
(0.156401 0.338463 0)
(0.208763 0.336985 0)
(0.265839 0.331086 0)
(0.326134 0.309728 0)
(0.388574 0.270753 0)
(0.410054 0.227886 0)
(0.400832 0.181404 0)
(0.240991 0.157047 0)
(-0.506585 -0.55287 0)
(-0.85492 -0.628024 0)
(-0.876249 -0.571182 0)
(-0.84685 -0.516484 0)
(-0.813701 -0.488157 0)
(-0.775689 -0.45247 0)
(-0.712163 -0.429782 0)
(-0.667578 -0.371752 0)
(-0.624419 -0.287374 0)
(-0.434113 -0.174435 0)
(-0.238045 -0.158171 0)
)
;
    }
}


// ************************************************************************* //
