/*--------------------------------*- C++ -*----------------------------------*\
| =========                 |                                                 |
| \\      /  F ield         | OpenFOAM: The Open Source CFD Toolbox           |
|  \\    /   O peration     | Version:  2.4.0                                 |
|   \\  /    A nd           | Web:      www.OpenFOAM.org                      |
|    \\/     M anipulation  |                                                 |
\*---------------------------------------------------------------------------*/
FoamFile
{
    version     2.0;
    format      ascii;
    class       volVectorField;
    location    "0.7";
    object      U.oil;
}
// * * * * * * * * * * * * * * * * * * * * * * * * * * * * * * * * * * * * * //

dimensions      [0 1 -1 0 0 0 0];

internalField   nonuniform List<vector> 
559
(
(-0.035545 0.00260734 0)
(-0.0189094 -0.0182379 0)
(0.00231989 -0.0203041 0)
(0.000793772 -0.023142 0)
(0.00291877 -0.0287664 0)
(-0.00421308 -0.0376317 0)
(-0.00449181 -0.0588753 0)
(0.00488852 -0.0338181 0)
(-0.240678 0.0380095 0)
(-0.251813 -0.0677194 0)
(-0.022838 -0.0495326 0)
(0.250703 -0.0248076 0)
(0.455487 -0.0185679 0)
(0.535696 -0.0240556 0)
(0.589807 -0.0334358 0)
(0.654146 -0.0375102 0)
(0.715782 -0.0383681 0)
(0.764146 -0.0463179 0)
(0.776633 -0.0561175 0)
(0.767604 -0.060829 0)
(0.746393 -0.0623606 0)
(0.685862 -0.064102 0)
(0.55401 -0.0537241 0)
(0.35908 -0.0174362 0)
(0.165122 0.0360417 0)
(-0.121931 0.00219358 0)
(-0.0239929 -0.05643 0)
(-0.309852 0.402351 0)
(0.0380235 0.202879 0)
(0.255004 0.0869911 0)
(0.407402 0.128961 0)
(0.523101 0.19977 0)
(0.594088 0.234731 0)
(0.62271 0.243117 0)
(0.657006 0.246125 0)
(0.707184 0.250637 0)
(0.741767 0.270546 0)
(0.745487 0.297339 0)
(0.74759 0.317312 0)
(0.755237 0.341817 0)
(0.764712 0.40832 0)
(0.700106 0.475311 0)
(0.529842 0.489129 0)
(0.322637 0.427219 0)
(0.0124492 0.364129 0)
(-0.0710353 0.248506 0)
(-0.289388 0.216801 0)
(0.237165 -0.175663 0)
(0.415523 -0.124338 0)
(0.621646 -0.0738046 0)
(0.714554 -0.0427768 0)
(0.704191 -0.0177082 0)
(0.702989 -0.0299495 0)
(0.692275 -0.0424246 0)
(0.660505 -0.0319899 0)
(0.62619 0.0281549 0)
(0.584228 0.0872984 0)
(0.524558 0.101449 0)
(0.481507 0.0843537 0)
(0.482982 0.0485336 0)
(0.455724 0.0971353 0)
(0.434845 0.297954 0)
(0.277001 0.385794 0)
(0.00584701 0.314089 0)
(-0.0963082 0.0356569 0)
(-0.000601579 0.223458 0)
(0.392293 -0.232274 0)
(0.532622 -0.190185 0)
(0.666016 -0.0563004 0)
(0.797574 0.204937 0)
(0.759374 0.254835 0)
(0.71788 0.27514 0)
(0.690954 0.264869 0)
(0.670532 0.199544 0)
(0.635229 0.114223 0)
(0.569514 0.0902463 0)
(0.494462 0.0880507 0)
(0.44082 0.0979238 0)
(0.355567 0.20429 0)
(0.226373 0.327995 0)
(0.098756 0.375316 0)
(0.173606 0.471935 0)
(-0.00556447 0.443666 0)
(-0.0723646 0.167705 0)
(0.403521 0.0638974 0)
(0.461942 -0.258314 0)
(0.52794 -0.268466 0)
(0.557256 -0.105767 0)
(0.55919 -0.103028 0)
(0.575116 -0.130479 0)
(0.645518 -0.150776 0)
(0.684787 -0.134677 0)
(0.689504 -0.094403 0)
(0.697653 -0.0197419 0)
(0.66439 0.0337801 0)
(0.580703 0.0343485 0)
(0.421255 0.0193704 0)
(0.237971 0.021707 0)
(0.278074 0.101753 0)
(-0.254035 0.423394 0)
(0.0726234 0.437122 0)
(-0.109776 0.481979 0)
(0.0679755 0.070267 0)
(0.406252 -0.155374 0)
(0.404814 -0.340816 0)
(0.487016 -0.251089 0)
(0.461519 -0.119741 0)
(0.459281 0.0081107 0)
(0.465676 0.0681565 0)
(0.503427 0.0825137 0)
(0.537728 0.0773595 0)
(0.59392 0.0913941 0)
(0.630824 0.112382 0)
(0.629657 0.14607 0)
(0.58529 0.173027 0)
(0.450647 0.179324 0)
(0.222883 0.190345 0)
(0.24549 0.258046 0)
(-0.281737 0.378322 0)
(-0.117454 0.370278 0)
(-0.248714 0.451851 0)
(0.182009 0.119955 0)
(0.331627 -0.225493 0)
(0.328677 -0.296164 0)
(0.417163 -0.235759 0)
(0.385886 -0.137063 0)
(0.378139 -0.0577029 0)
(0.401273 -0.0418628 0)
(0.43477 -0.0366767 0)
(0.458913 -0.0309673 0)
(0.488091 -0.0213721 0)
(0.531031 0.0193054 0)
(0.575912 0.0916223 0)
(0.55829 0.163395 0)
(0.455799 0.21277 0)
(0.253275 0.232187 0)
(0.190988 0.345734 0)
(-0.202294 0.403749 0)
(-0.158294 0.341756 0)
(-0.331024 0.353267 0)
(0.125839 0.057761 0)
(0.382975 -0.449992 0)
(0.30053 -0.37379 0)
(0.375363 -0.267522 0)
(0.349499 -0.113639 0)
(0.341411 -0.0519069 0)
(0.383433 -0.0226429 0)
(0.410163 -0.0023399 0)
(0.427352 0.0123385 0)
(0.433323 0.0262548 0)
(0.430734 0.046439 0)
(0.459974 0.117317 0)
(0.478466 0.198274 0)
(0.435717 0.26261 0)
(0.345665 0.302231 0)
(0.227144 0.419208 0)
(0.0483258 0.498064 0)
(-0.100336 0.392177 0)
(-0.360563 0.28591 0)
(0.131041 -0.0315912 0)
(0.0420376 0.00842102 0)
(0.348094 0.110773 0)
(0.341028 -0.178286 0)
(0.340217 -0.228427 0)
(0.20108 -0.676023 0)
(-0.544924 -0.111191 0)
(-1.26934 0.258615 0)
(-1.18013 1.05203 0)
(0.0784499 -0.24027 0)
(0.191472 -0.260798 0)
(0.266562 -0.333314 0)
(0.406439 -0.336257 0)
(0.351226 0.196023 0)
(0.331248 0.183107 0)
(0.310999 0.111083 0)
(0.301871 -0.00224743 0)
(0.315007 -0.198369 0)
(0.322852 -0.253333 0)
(0.319427 -0.336686 0)
(0.296521 -0.363747 0)
(0.137435 -0.0994887 0)
(-0.254892 -0.0256791 0)
(-0.52852 0.111366 0)
(-0.827173 0.279031 0)
(0.174408 -0.212982 0)
(-0.300307 0.175853 0)
(-0.640019 0.405768 0)
(-0.839929 0.404362 0)
(-0.871038 0.117181 0)
(-0.73007 0.204305 0)
(-0.736134 0.273634 0)
(-0.836677 0.240259 0)
(-1.2405 -0.17119 0)
(-1.03612 -0.14914 0)
(-0.893192 -0.0126414 0)
(-0.87293 0.0175355 0)
(-1.19617 0.893194 0)
(-1.21859 0.303268 0)
(-1.06504 0.0961568 0)
(-1.00819 0.0741278 0)
(-0.994882 1.30405 0)
(-0.926899 1.1555 0)
(-0.936108 0.850325 0)
(-0.838325 0.651298 0)
(-0.425492 1.30326 0)
(-0.286329 1.23861 0)
(-0.204477 1.02243 0)
(-0.123827 0.774086 0)
(-0.0266583 0.956918 0)
(0.103951 0.924085 0)
(0.162125 0.791269 0)
(0.220695 0.611533 0)
(0.00723413 0.741813 0)
(0.105898 0.723336 0)
(0.161006 0.653703 0)
(0.207853 0.58367 0)
(-0.0278348 0.608237 0)
(0.0306906 0.608449 0)
(0.0728689 0.591166 0)
(0.101808 0.566831 0)
(-0.0295628 0.508647 0)
(0.007909 0.522035 0)
(0.0399902 0.528739 0)
(0.0654056 0.530311 0)
(-0.013484 0.449845 0)
(0.0145655 0.463758 0)
(0.04257 0.47463 0)
(0.0689882 0.481367 0)
(0.0155148 0.40133 0)
(0.0379925 0.411917 0)
(0.062343 0.42063 0)
(0.0865049 0.429054 0)
(0.039411 0.355904 0)
(0.0605303 0.363582 0)
(0.0826371 0.369977 0)
(0.104682 0.376339 0)
(0.512235 -0.558014 0)
(0.307049 -0.427073 0)
(0.344395 -0.423088 0)
(0.289748 -0.352743 0)
(0.200083 -0.180924 0)
(0.297017 -0.0566558 0)
(0.370809 -0.0300045 0)
(0.392063 -0.00586951 0)
(0.375552 0.0127237 0)
(0.34398 0.0281728 0)
(0.353295 0.0658919 0)
(0.399112 0.185637 0)
(0.382748 0.268441 0)
(0.377849 0.386465 0)
(0.259942 0.477773 0)
(0.154102 0.562304 0)
(0.199458 0.577655 0)
(-0.306771 0.261966 0)
(0.192504 -0.110454 0)
(0.31098 -0.445448 0)
(0.0323184 -0.558993 0)
(-0.0622437 -0.638682 0)
(-0.238383 -0.382093 0)
(-0.301968 -0.370463 0)
(-0.0840337 -0.315757 0)
(0.153374 -0.147476 0)
(0.311547 -0.0481347 0)
(0.340965 0.00618526 0)
(0.315231 0.0443807 0)
(0.261156 0.0838935 0)
(0.258245 0.187082 0)
(0.236212 0.26711 0)
(0.307042 0.436021 0)
(0.194644 0.5621 0)
(0.0590976 0.600224 0)
(0.269195 0.59706 0)
(-0.130237 0.269527 0)
(0.213285 -0.166961 0)
(0.159784 -0.349554 0)
(-0.815822 -0.208743 0)
(-0.867468 -0.321514 0)
(-0.753499 -0.420277 0)
(-0.675219 -0.489865 0)
(-0.567616 -0.518477 0)
(-0.351128 -0.463045 0)
(0.0398775 -0.2873 0)
(0.290725 -0.0805975 0)
(0.367955 0.0472668 0)
(0.297371 0.148737 0)
(0.242011 0.221077 0)
(0.193275 0.253366 0)
(0.230018 0.427076 0)
(0.127232 0.645592 0)
(-0.0591695 0.488286 0)
(0.216896 0.615445 0)
(-0.0280634 0.320283 0)
(0.222527 -0.10877 0)
(-1.07893 0.252386 0)
(-1.1599 -0.0794783 0)
(-0.870195 -0.288394 0)
(-0.751031 -0.35848 0)
(-0.689574 -0.528852 0)
(-0.658434 -0.667537 0)
(-0.532383 -0.696771 0)
(-0.324266 -0.629116 0)
(-0.0012539 -0.400113 0)
(0.386359 -0.0474441 0)
(0.359018 0.121371 0)
(0.242166 0.26905 0)
(0.185262 0.28454 0)
(0.159132 0.438853 0)
(0.104433 0.659675 0)
(-0.0442224 0.443763 0)
(0.173407 0.526847 0)
(0.071572 0.310624 0)
(0.222272 -0.0236509 0)
(-0.990896 0.099899 0)
(-0.902808 -0.270769 0)
(-0.975897 -0.350987 0)
(-0.999721 -0.451487 0)
(-0.917734 -0.651811 0)
(-0.809503 -0.779781 0)
(-0.647295 -0.808453 0)
(-0.4436 -0.832874 0)
(-0.218585 -0.720376 0)
(0.0105094 -0.439497 0)
(0.396759 0.161291 0)
(0.297895 0.317991 0)
(0.160396 0.356088 0)
(0.12148 0.454589 0)
(0.132326 0.582298 0)
(0.124011 0.410172 0)
(0.25618 0.396529 0)
(0.171565 0.327017 0)
(0.207914 0.147593 0)
(-0.942501 -0.168477 0)
(-0.939806 -0.917514 0)
(-1.03215 -0.999934 0)
(-1.09468 -1.31266 0)
(-0.983231 -1.41448 0)
(-0.724836 -1.24915 0)
(-0.62492 -1.14548 0)
(-0.501365 -1.01648 0)
(-0.344345 -0.847921 0)
(-0.174614 -0.589478 0)
(0.215282 -0.0798675 0)
(0.427008 0.368373 0)
(0.232733 0.488243 0)
(0.104981 0.528441 0)
(0.171434 0.548971 0)
(0.258672 0.42494 0)
(0.325297 0.379416 0)
(0.214835 0.392578 0)
(0.217598 0.32921 0)
(-0.862341 -0.282039 0)
(-0.879817 -0.377263 0)
(-1.03735 -0.826242 0)
(-1.52222 -2.42784 0)
(-0.989509 -2.19955 0)
(-0.612627 -1.59707 0)
(-0.523967 -1.34083 0)
(-0.455169 -1.18108 0)
(-0.379577 -1.01235 0)
(-0.243026 -0.739086 0)
(-0.142315 -0.407759 0)
(0.273049 0.168966 0)
(0.265507 0.561694 0)
(0.133957 0.61451 0)
(0.168649 0.54934 0)
(0.273737 0.423737 0)
(0.322192 0.418303 0)
(0.217829 0.480921 0)
(0.225835 0.512302 0)
(-1.14814 0.0442104 0)
(-1.10014 -0.390967 0)
(-1.50868 -1.71243 0)
(-1.64357 -2.75057 0)
(-1.1534 -2.29535 0)
(-0.665098 -1.63286 0)
(-0.494426 -1.35416 0)
(-0.450873 -1.22038 0)
(-0.445629 -1.08184 0)
(-0.428606 -0.879621 0)
(-0.23983 -0.582618 0)
(-0.154182 -0.282558 0)
(0.259504 0.52555 0)
(0.118587 0.613429 0)
(0.150292 0.519134 0)
(0.266634 0.400617 0)
(0.297475 0.464428 0)
(0.15971 0.556554 0)
(0.154188 0.726166 0)
(-0.731985 0.379843 0)
(-0.509809 0.00609364 0)
(-1.27613 -1.89599 0)
(-1.26815 -2.18643 0)
(-0.914959 -1.79417 0)
(-0.628878 -1.40861 0)
(-0.542595 -1.26035 0)
(-0.555247 -1.19793 0)
(-0.649514 -1.04967 0)
(-0.653401 -0.752218 0)
(-0.536108 -0.408822 0)
(0.00366306 -0.126117 0)
(0.25899 0.292833 0)
(0.0487715 0.579754 0)
(0.105819 0.428134 0)
(0.170037 0.287002 0)
(0.229955 0.394897 0)
(-0.0412619 0.621949 0)
(0.0548837 0.810573 0)
(-0.124447 0.279657 0)
(-0.18307 -0.198962 0)
(-0.945266 -1.56337 0)
(-0.933588 -1.60041 0)
(-0.758202 -1.42857 0)
(-0.647931 -1.28164 0)
(-0.653419 -1.20123 0)
(-0.71998 -1.1102 0)
(-0.768884 -0.904902 0)
(-0.742782 -0.428575 0)
(-0.320422 0.0401179 0)
(-0.0340804 0.0517987 0)
(0.00951402 0.249737 0)
(-0.0246148 0.383709 0)
(-0.122301 0.272663 0)
(-0.120721 0.140201 0)
(0.15875 0.328744 0)
(-0.104486 0.650604 0)
(0.0533405 0.782018 0)
(0.208536 0.380458 0)
(0.0103797 0.231476 0)
(-0.861735 -1.27771 0)
(-0.843244 -1.31776 0)
(-0.784863 -1.25911 0)
(-0.777524 -1.23645 0)
(-0.816877 -1.20817 0)
(-0.834668 -1.0906 0)
(-0.814961 -0.787012 0)
(-0.685453 -0.151305 0)
(-0.239731 -0.0575856 0)
(-0.110894 -0.124371 0)
(-0.128172 -0.0455928 0)
(-0.173386 0.140399 0)
(-0.299561 0.165883 0)
(-0.322495 0.1475 0)
(0.0552068 0.384405 0)
(-0.0349797 0.527396 0)
(0.137873 0.481753 0)
(0.198795 0.453121 0)
(-0.0158611 0.376259 0)
(-0.840877 -1.04847 0)
(-0.870128 -1.14198 0)
(-0.89727 -1.16366 0)
(-0.931519 -1.2033 0)
(-0.931307 -1.19817 0)
(-0.917715 -1.05627 0)
(-0.896855 -0.765356 0)
(-0.665597 -0.067532 0)
(-0.172726 -0.0565865 0)
(-0.0355492 -0.180467 0)
(-0.0469073 -0.198012 0)
(-0.187208 -0.0616953 0)
(-0.31327 0.0773351 0)
(-0.381014 0.170723 0)
(-0.201462 0.359292 0)
(0.0790987 0.271121 0)
(0.189124 0.0979106 0)
(0.115113 0.544763 0)
(0.040635 0.544032 0)
(-0.411804 -0.131898 0)
(-0.937749 -1.01814 0)
(-1.02333 -1.10176 0)
(-1.01761 -1.14453 0)
(-0.975972 -1.14358 0)
(-0.949381 -1.04933 0)
(-0.932604 -0.806293 0)
(-0.758583 -0.190353 0)
(-0.248937 -0.0131869 0)
(-0.0253134 -0.177623 0)
(-0.0172373 -0.210158 0)
(-0.0634024 -0.163314 0)
(-0.199287 0.0032997 0)
(-0.255359 0.107537 0)
(-0.241058 0.194123 0)
(-0.0646598 0.272101 0)
(0.110478 0.050912 0)
(0.105869 0.536357 0)
(0.123125 0.566718 0)
(0.105187 0.617448 0)
(-0.54152 -0.383328 0)
(-1.10724 -1.05309 0)
(-1.10994 -1.06509 0)
(-1.01912 -1.06398 0)
(-0.977374 -1.02409 0)
(-0.945234 -0.84806 0)
(-0.852625 -0.498395 0)
(-0.659693 -0.0629819 0)
(-0.355569 -0.157492 0)
(-0.269885 -0.236975 0)
(-0.258917 -0.263626 0)
(-0.177982 -0.208835 0)
(-0.220584 -0.0909192 0)
(-0.189214 0.0190689 0)
(-0.140528 0.132299 0)
(0.0579244 0.0100097 0)
(0.111623 0.504687 0)
(0.174024 0.523077 0)
(0.231522 0.577742 0)
(0.345961 0.568458 0)
(-0.137209 0.0257337 0)
(-1.04018 -0.917489 0)
(-0.999976 -0.915524 0)
(-0.993466 -0.935803 0)
(-0.959211 -0.868669 0)
(-0.905873 -0.644589 0)
(-0.78977 -0.396578 0)
(-0.686702 -0.361001 0)
(-0.606748 -0.410409 0)
(-0.550741 -0.395092 0)
(-0.403254 -0.327572 0)
(-0.29445 -0.278607 0)
(-0.285793 -0.153148 0)
(-0.185051 -0.0191115 0)
(-0.0193495 -0.0421972 0)
(0.131817 0.443576 0)
(0.198833 0.455871 0)
(0.27584 0.477342 0)
(0.387952 0.501999 0)
(0.449213 0.291772 0)
(-0.141062 -0.103289 0)
(-0.990899 -0.723475 0)
(-0.995813 -0.795991 0)
(-0.991493 -0.815162 0)
(-0.942707 -0.708319 0)
(-0.86924 -0.549969 0)
(-0.791347 -0.504634 0)
(-0.749883 -0.492997 0)
(-0.730753 -0.460202 0)
(-0.690793 -0.374888 0)
(-0.590777 -0.259808 0)
(-0.458145 -0.146105 0)
(-0.327525 -0.127114 0)
(-0.0828553 -0.169154 0)
(0.147667 0.387018 0)
(0.209416 0.390847 0)
(0.277814 0.392314 0)
(0.356154 0.376879 0)
(0.429763 0.301287 0)
(0.399404 0.112075 0)
(-0.833017 -0.599255 0)
(-0.975046 -0.675915 0)
(-0.971341 -0.704454 0)
(-0.966785 -0.706489 0)
(-0.928209 -0.577456 0)
(-0.899053 -0.528891 0)
(-0.852892 -0.516891 0)
(-0.825193 -0.495002 0)
(-0.775057 -0.458758 0)
(-0.696117 -0.422533 0)
(-0.55288 -0.347773 0)
(-0.351096 -0.331431 0)
(-0.154669 -0.395219 0)
)
;

boundaryField
{
    leftWall
    {
        type            fixedValue;
        value           nonuniform 0();
    }
    rightWall
    {
        type            fixedValue;
        value           uniform (0 0 0);
    }
    lowerWall
    {
        type            fixedValue;
        value           uniform (0 0 0);
    }
    atmosphere
    {
        type            fluxCorrectedVelocity;
        value           nonuniform 0();
    }
    defaultFaces
    {
        type            empty;
    }
    procBoundary1to0
    {
        type            processor;
        value           nonuniform List<vector> 
26
(
(-0.0436981 0.00431122 0)
(-0.0340799 -0.00636608 0)
(-0.0146734 -0.0166449 0)
(-0.0177865 -0.0332159 0)
(-0.0348581 -0.0507177 0)
(-0.0541956 -0.0646085 0)
(-0.0511134 -0.0824844 0)
(-0.0348275 -0.0743428 0)
(0.0380958 0.0120112 0)
(0.281595 0.0452047 0)
(0.363383 -0.199409 0)
(0.345121 -0.303535 0)
(0.165654 -0.658931 0)
(-0.280011 -0.300108 0)
(-0.778348 -0.058663 0)
(-1.06739 0.410053 0)
(-0.991713 1.15638 0)
(-0.991713 1.15638 0)
(-0.497399 1.0322 0)
(-0.188974 0.848324 0)
(-0.115346 0.707112 0)
(-0.106953 0.580799 0)
(-0.0858885 0.48552 0)
(-0.05456 0.430876 0)
(-0.0175158 0.3825 0)
(0.00942501 0.340074 0)
)
;
    }
    procBoundary1to3
    {
        type            processor;
        value           nonuniform List<vector> 
23
(
(0.0610943 0.316738 0)
(0.0801153 0.322194 0)
(0.0999844 0.327879 0)
(0.119211 0.332328 0)
(0.156392 0.338297 0)
(0.20874 0.336787 0)
(0.26576 0.330743 0)
(0.32551 0.308458 0)
(0.387538 0.268296 0)
(0.407621 0.219225 0)
(0.39477 0.16244 0)
(-0.614215 -0.582863 0)
(-0.786482 -0.628566 0)
(-0.852314 -0.644879 0)
(-0.868796 -0.651469 0)
(-0.846755 -0.573426 0)
(-0.803231 -0.550783 0)
(-0.756893 -0.552637 0)
(-0.689417 -0.574711 0)
(-0.611169 -0.603318 0)
(-0.480299 -0.633972 0)
(-0.281251 -0.697645 0)
(-0.183469 -0.795669 0)
)
;
    }
}


// ************************************************************************* //
