/*--------------------------------*- C++ -*----------------------------------*\
| =========                 |                                                 |
| \\      /  F ield         | OpenFOAM: The Open Source CFD Toolbox           |
|  \\    /   O peration     | Version:  2.4.0                                 |
|   \\  /    A nd           | Web:      www.OpenFOAM.org                      |
|    \\/     M anipulation  |                                                 |
\*---------------------------------------------------------------------------*/
FoamFile
{
    version     2.0;
    format      ascii;
    class       volVectorField;
    location    "0.7";
    object      U.water;
}
// * * * * * * * * * * * * * * * * * * * * * * * * * * * * * * * * * * * * * //

dimensions      [0 1 -1 0 0 0 0];

internalField   nonuniform List<vector> 
559
(
(-0.0355271 -0.00785268 0)
(-0.0188835 -0.0299282 0)
(0.00234002 -0.0321353 0)
(0.000822351 -0.034807 0)
(0.00298436 -0.0408102 0)
(-0.00411305 -0.0285868 0)
(-0.00672884 0.0381349 0)
(-0.00100186 0.0845948 0)
(-0.249031 -0.0881022 0)
(-0.25005 -0.10556 0)
(-0.0210526 -0.0510537 0)
(0.253362 -0.0278024 0)
(0.432651 -0.0658694 0)
(0.512208 -0.113874 0)
(0.57559 -0.145743 0)
(0.64277 -0.157483 0)
(0.705764 -0.163691 0)
(0.755934 -0.191761 0)
(0.779652 -0.216105 0)
(0.780027 -0.226776 0)
(0.767012 -0.234849 0)
(0.727743 -0.241186 0)
(0.61763 -0.236083 0)
(0.436386 -0.186676 0)
(0.222325 -0.0935215 0)
(-0.109972 -0.104116 0)
(-0.0252511 -0.143561 0)
(-0.302476 0.244539 0)
(0.0420139 0.185976 0)
(0.254623 0.0842406 0)
(0.410067 0.117732 0)
(0.528789 0.186943 0)
(0.59481 0.222322 0)
(0.627488 0.226473 0)
(0.660958 0.227417 0)
(0.706391 0.199973 0)
(0.73768 0.122781 0)
(0.742771 0.121124 0)
(0.747684 0.130839 0)
(0.764474 0.145533 0)
(0.78698 0.196741 0)
(0.744843 0.258733 0)
(0.603654 0.291014 0)
(0.379351 0.277891 0)
(0.0275418 0.266377 0)
(-0.0674616 0.16677 0)
(-0.24731 0.0633366 0)
(0.263325 -0.193709 0)
(0.411841 -0.126698 0)
(0.612345 -0.0717047 0)
(0.707161 -0.0334938 0)
(0.70203 -0.00845786 0)
(0.701232 -0.0152421 0)
(0.69335 -0.0211068 0)
(0.674564 -0.00461003 0)
(0.655799 0.0510455 0)
(0.629637 0.0584001 0)
(0.561866 -0.0532101 0)
(0.508394 -0.161396 0)
(0.529305 -0.190261 0)
(0.523008 -0.084646 0)
(0.513821 0.162948 0)
(0.343066 0.271866 0)
(0.0254686 0.230723 0)
(-0.0951183 -0.0280231 0)
(0.162123 0.0564351 0)
(0.42042 -0.292117 0)
(0.524466 -0.237937 0)
(0.635141 -0.137974 0)
(0.735168 0.061316 0)
(0.723445 0.127279 0)
(0.704761 0.161357 0)
(0.693535 0.155043 0)
(0.681319 0.0955666 0)
(0.663044 0.00982032 0)
(0.628745 -0.0191747 0)
(0.577151 -0.0259459 0)
(0.511527 -0.0320909 0)
(0.423979 -0.0573858 0)
(0.286658 -0.0228098 0)
(0.147127 0.231833 0)
(0.225818 0.3707 0)
(0.0150518 0.349596 0)
(-0.0677798 0.101698 0)
(0.423794 0.00411273 0)
(0.449668 -0.330796 0)
(0.516137 -0.331988 0)
(0.528676 -0.2303 0)
(0.541766 -0.187306 0)
(0.555775 -0.196474 0)
(0.616943 -0.212857 0)
(0.671103 -0.21304 0)
(0.682694 -0.176466 0)
(0.698842 -0.114171 0)
(0.681869 -0.0753369 0)
(0.627612 -0.0714774 0)
(0.506836 -0.0814912 0)
(0.362546 -0.103638 0)
(0.321456 -0.135291 0)
(-0.145076 0.19309 0)
(0.111393 0.378065 0)
(-0.0930713 0.407784 0)
(0.0651842 0.0617721 0)
(0.401034 -0.189694 0)
(0.383567 -0.385925 0)
(0.463689 -0.342201 0)
(0.446456 -0.245639 0)
(0.452065 -0.100367 0)
(0.459063 -0.0367081 0)
(0.495788 -0.0182313 0)
(0.539647 -0.0126878 0)
(0.585355 0.00936337 0)
(0.627494 0.0347902 0)
(0.635306 0.0654735 0)
(0.610779 0.0837658 0)
(0.532926 0.0926316 0)
(0.347753 0.0967145 0)
(0.286067 0.0698023 0)
(-0.170406 0.199477 0)
(-0.101659 0.341847 0)
(-0.23391 0.426751 0)
(0.176503 0.125401 0)
(0.34607 -0.308963 0)
(0.341046 -0.381065 0)
(0.406912 -0.35167 0)
(0.393686 -0.254309 0)
(0.385774 -0.151825 0)
(0.40548 -0.124047 0)
(0.4362 -0.112997 0)
(0.462828 -0.103705 0)
(0.486916 -0.0952757 0)
(0.524307 -0.0610173 0)
(0.569878 0.00243897 0)
(0.565924 0.0587787 0)
(0.502437 0.095261 0)
(0.350939 0.117135 0)
(0.226427 0.177232 0)
(-0.0868469 0.231446 0)
(-0.153172 0.343357 0)
(-0.291018 0.338316 0)
(0.11336 0.0608125 0)
(0.400334 -0.495993 0)
(0.33956 -0.464965 0)
(0.384497 -0.393107 0)
(0.372058 -0.241301 0)
(0.357092 -0.157863 0)
(0.388928 -0.115554 0)
(0.413581 -0.0893811 0)
(0.432186 -0.0703255 0)
(0.434481 -0.0562303 0)
(0.43402 -0.0371427 0)
(0.46139 0.0272357 0)
(0.48108 0.0965086 0)
(0.460998 0.140982 0)
(0.402832 0.173383 0)
(0.287963 0.269152 0)
(0.131026 0.324498 0)
(-0.111241 0.366644 0)
(-0.308143 0.263518 0)
(0.127431 -0.0536797 0)
(0.0325584 -0.00336471 0)
(0.340356 0.021121 0)
(0.377556 -0.27026 0)
(0.36919 -0.328735 0)
(0.209899 -0.916603 0)
(-0.0915199 -0.0500557 0)
(-0.986218 0.964771 0)
(-1.13988 1.13985 0)
(0.0694208 -0.269146 0)
(0.185846 -0.288618 0)
(0.260816 -0.364068 0)
(0.3961 -0.365525 0)
(0.347851 0.097365 0)
(0.338006 0.0880186 0)
(0.32774 0.0349587 0)
(0.325347 -0.0604504 0)
(0.362405 -0.284775 0)
(0.381878 -0.319964 0)
(0.398457 -0.388529 0)
(0.393944 -0.423175 0)
(0.255505 -0.24992 0)
(-0.0117942 -0.178231 0)
(-0.260846 -0.0637431 0)
(-0.595762 0.124688 0)
(0.284147 -0.357548 0)
(0.0643546 -0.214006 0)
(-0.25566 0.0412993 0)
(-0.487919 0.14062 0)
(0.114375 -0.327922 0)
(0.0691336 -0.31878 0)
(-0.136967 -0.121823 0)
(-0.391808 -0.0158415 0)
(-1.03016 1.01923 0)
(-0.715666 0.291803 0)
(-0.525454 0.0844502 0)
(-0.703021 0.162228 0)
(-1.15343 1.31017 0)
(-1.21786 1.12609 0)
(-1.35405 0.848731 0)
(-1.38443 0.724717 0)
(-0.949192 1.38059 0)
(-0.923818 1.29772 0)
(-0.933035 1.00211 0)
(-0.869371 0.769213 0)
(-0.369632 1.29538 0)
(-0.255183 1.25695 0)
(-0.176846 1.04499 0)
(-0.116635 0.788155 0)
(-0.0171028 0.96016 0)
(0.114307 0.92503 0)
(0.172176 0.789434 0)
(0.22369 0.614293 0)
(0.00900739 0.744652 0)
(0.108593 0.724803 0)
(0.164204 0.656727 0)
(0.210115 0.587028 0)
(-0.0275096 0.609142 0)
(0.0314979 0.61022 0)
(0.0736299 0.593364 0)
(0.102621 0.568905 0)
(-0.029373 0.509097 0)
(0.00821897 0.522835 0)
(0.0405079 0.529802 0)
(0.0659285 0.531314 0)
(-0.0133758 0.450112 0)
(0.0147504 0.464184 0)
(0.0428204 0.475136 0)
(0.0693233 0.481955 0)
(0.0155711 0.401469 0)
(0.0380707 0.412105 0)
(0.0624726 0.420881 0)
(0.0866555 0.429332 0)
(0.0394309 0.355961 0)
(0.06056 0.36366 0)
(0.0826778 0.370074 0)
(0.104744 0.37646 0)
(0.480041 -0.54695 0)
(0.355947 -0.502569 0)
(0.390649 -0.523561 0)
(0.360461 -0.474844 0)
(0.278116 -0.300545 0)
(0.333467 -0.152688 0)
(0.383621 -0.117844 0)
(0.400268 -0.0884373 0)
(0.383159 -0.0678895 0)
(0.354584 -0.0507946 0)
(0.362145 -0.0189765 0)
(0.406602 0.0837961 0)
(0.397771 0.155398 0)
(0.392871 0.253824 0)
(0.289858 0.32404 0)
(0.171028 0.407325 0)
(0.162781 0.457856 0)
(-0.283098 0.201783 0)
(0.192116 -0.150818 0)
(0.369166 -0.43796 0)
(0.165369 -0.60855 0)
(0.258146 -0.931172 0)
(0.337228 -0.719024 0)
(0.100255 -0.607621 0)
(0.12959 -0.404329 0)
(0.253346 -0.21692 0)
(0.33597 -0.138922 0)
(0.357031 -0.0796576 0)
(0.332202 -0.0377936 0)
(0.278001 0.00136401 0)
(0.272922 0.0968367 0)
(0.249773 0.165842 0)
(0.301368 0.306105 0)
(0.205615 0.419946 0)
(0.0097716 0.449382 0)
(0.22002 0.495688 0)
(-0.168985 0.18022 0)
(0.214967 -0.209755 0)
(0.320137 -0.436217 0)
(-0.350949 -0.365046 0)
(-0.551488 -0.804582 0)
(-0.751428 -0.416977 0)
(-0.657509 -0.532462 0)
(-0.526469 -0.624007 0)
(-0.170385 -0.731862 0)
(0.217502 -0.396149 0)
(0.344484 -0.191865 0)
(0.39058 -0.0464388 0)
(0.318783 0.0646949 0)
(0.265039 0.1381 0)
(0.209815 0.165926 0)
(0.220745 0.301126 0)
(0.145357 0.463841 0)
(-0.0604634 0.328994 0)
(0.183827 0.503062 0)
(0.00921492 0.270059 0)
(0.220689 -0.120138 0)
(-0.899583 0.128581 0)
(-0.964788 -0.258557 0)
(-0.893127 -0.299911 0)
(-0.750802 -0.362313 0)
(-0.693205 -0.53942 0)
(-0.66922 -0.690933 0)
(-0.540654 -0.721424 0)
(-0.238377 -0.634738 0)
(0.125404 -0.539389 0)
(0.495908 -0.224236 0)
(0.38316 0.0185786 0)
(0.275014 0.183702 0)
(0.212343 0.206319 0)
(0.167758 0.317755 0)
(0.156219 0.402248 0)
(0.0543138 0.243192 0)
(0.189663 0.383172 0)
(0.133278 0.239673 0)
(0.242839 -0.019937 0)
(-0.576666 -0.0466815 0)
(-0.92452 -0.306434 0)
(-0.977254 -0.341411 0)
(-1.00081 -0.446561 0)
(-0.918694 -0.680354 0)
(-0.793127 -0.845823 0)
(-0.630464 -0.910532 0)
(-0.46055 -0.926079 0)
(-0.269615 -0.809854 0)
(0.162298 -0.738722 0)
(0.493063 -0.0252276 0)
(0.344862 0.225052 0)
(0.200072 0.276579 0)
(0.15526 0.354878 0)
(0.199939 0.39399 0)
(0.238345 0.29216 0)
(0.311036 0.289756 0)
(0.237603 0.262607 0)
(0.252785 0.133626 0)
(-0.604342 -0.111198 0)
(-0.881441 -0.218009 0)
(-1.14002 -0.393551 0)
(-1.17162 -0.967101 0)
(-0.993862 -1.28726 0)
(-0.702707 -1.33015 0)
(-0.593068 -1.29509 0)
(-0.483827 -1.14108 0)
(-0.360454 -0.973161 0)
(-0.19235 -0.660246 0)
(0.399294 -0.285794 0)
(0.517138 0.18305 0)
(0.264524 0.391368 0)
(0.1478 0.442839 0)
(0.206235 0.451273 0)
(0.288363 0.34962 0)
(0.35043 0.306076 0)
(0.26963 0.332466 0)
(0.265496 0.291767 0)
(-1.25137 0.250671 0)
(-1.43602 0.0813699 0)
(-1.14607 -0.0911402 0)
(-0.96106 -0.0980897 0)
(-0.917107 -0.837754 0)
(-0.651794 -1.65259 0)
(-0.54754 -1.47321 0)
(-0.472568 -1.25093 0)
(-0.407599 -1.09254 0)
(-0.291056 -0.827726 0)
(-0.177777 -0.470648 0)
(0.480176 -0.0359115 0)
(0.338215 0.444288 0)
(0.184617 0.510896 0)
(0.205884 0.464266 0)
(0.293508 0.349284 0)
(0.342888 0.347408 0)
(0.2643 0.409948 0)
(0.264446 0.451014 0)
(-1.40257 0.373163 0)
(-1.17341 -0.0764926 0)
(-1.33988 -0.369865 0)
(-1.16302 -1.1158 0)
(-1.00153 -1.92749 0)
(-0.754462 -1.80165 0)
(-0.57015 -1.46544 0)
(-0.492256 -1.26194 0)
(-0.482442 -1.1063 0)
(-0.462135 -0.90403 0)
(-0.234377 -0.618382 0)
(-0.00844968 -0.243784 0)
(0.368918 0.390609 0)
(0.18589 0.505276 0)
(0.195771 0.436278 0)
(0.280577 0.31735 0)
(0.314401 0.369463 0)
(0.200292 0.466556 0)
(0.190009 0.649367 0)
(-0.712778 0.4331 0)
(-0.479178 0.203085 0)
(-0.837572 -0.0656001 0)
(-1.01477 -1.50567 0)
(-1.00596 -1.92132 0)
(-0.765498 -1.55949 0)
(-0.618927 -1.30342 0)
(-0.596391 -1.20843 0)
(-0.617043 -1.03904 0)
(-0.607046 -0.758206 0)
(-0.589608 -0.412769 0)
(-0.195261 -0.192162 0)
(0.418543 0.226118 0)
(0.167777 0.458822 0)
(0.142549 0.339952 0)
(0.134194 0.191727 0)
(0.222643 0.294065 0)
(0.0223258 0.511934 0)
(0.109879 0.742127 0)
(-0.136557 0.284136 0)
(-0.157007 -0.10854 0)
(-0.412736 -0.261928 0)
(-0.889623 -1.49721 0)
(-0.899858 -1.55452 0)
(-0.759994 -1.33101 0)
(-0.700675 -1.19949 0)
(-0.709771 -1.09435 0)
(-0.718501 -0.933778 0)
(-0.623512 -0.569339 0)
(-0.474767 -0.116023 0)
(-0.19658 -0.0621195 0)
(-0.0916966 0.100344 0)
(-0.0651411 0.176 0)
(-0.104758 0.153829 0)
(-0.129565 0.0580359 0)
(0.142179 0.180084 0)
(-0.00536375 0.471753 0)
(0.110227 0.688121 0)
(0.207065 0.384493 0)
(0.0411481 0.305848 0)
(-0.374214 0.134614 0)
(-0.893109 -1.27035 0)
(-0.913808 -1.33233 0)
(-0.852509 -1.24152 0)
(-0.835065 -1.17087 0)
(-0.828397 -1.07082 0)
(-0.781624 -0.835979 0)
(-0.725598 -0.273479 0)
(-0.441113 -0.155686 0)
(-0.293103 -0.211713 0)
(-0.207341 -0.120159 0)
(-0.171898 -0.0564384 0)
(-0.21623 0.039182 0)
(-0.220156 0.0597721 0)
(0.0870989 0.134087 0)
(0.127489 0.169415 0)
(0.184137 0.247557 0)
(0.199881 0.457324 0)
(0.0086018 0.428694 0)
(-0.254775 0.336471 0)
(-0.941871 -1.10935 0)
(-1.00608 -1.23063 0)
(-0.992031 -1.20023 0)
(-0.95667 -1.14916 0)
(-0.917293 -1.03591 0)
(-0.853518 -0.815715 0)
(-0.726984 -0.196611 0)
(-0.410267 -0.146125 0)
(-0.281177 -0.239216 0)
(-0.259903 -0.224729 0)
(-0.156324 -0.118802 0)
(-0.106747 -0.0693256 0)
(-0.150036 0.0221824 0)
(-0.181967 0.149037 0)
(0.0138236 0.143282 0)
(0.192433 0.0563832 0)
(0.116494 0.547362 0)
(0.049039 0.560193 0)
(0.0183649 0.664947 0)
(-0.613892 -0.403753 0)
(-1.05172 -1.11136 0)
(-1.0568 -1.12418 0)
(-1.00801 -1.09473 0)
(-0.949188 -1.00097 0)
(-0.900576 -0.809965 0)
(-0.758755 -0.336102 0)
(-0.500994 -0.139678 0)
(-0.341346 -0.263696 0)
(-0.284124 -0.255825 0)
(-0.231312 -0.22377 0)
(-0.0905426 -0.00161037 0)
(-0.135915 0.0708952 0)
(-0.179966 0.127579 0)
(-0.0587077 0.219384 0)
(0.120757 0.0615666 0)
(0.106834 0.537879 0)
(0.127774 0.571402 0)
(0.163865 0.687036 0)
(0.202475 0.533487 0)
(-0.822557 -0.715311 0)
(-1.08087 -0.955092 0)
(-1.06174 -0.990192 0)
(-0.993219 -0.966699 0)
(-0.932067 -0.820814 0)
(-0.851208 -0.534726 0)
(-0.777006 -0.258168 0)
(-0.624849 -0.320219 0)
(-0.582203 -0.372972 0)
(-0.566802 -0.377913 0)
(-0.262632 -0.159648 0)
(-0.110171 -0.000267401 0)
(-0.141923 0.04819 0)
(-0.107243 0.158776 0)
(0.0734498 0.0411459 0)
(0.112136 0.505416 0)
(0.175904 0.524927 0)
(0.249226 0.586578 0)
(0.391641 0.587008 0)
(0.295966 0.204955 0)
(-0.98573 -0.809789 0)
(-1.10097 -0.84706 0)
(-1.04224 -0.88502 0)
(-0.960891 -0.820377 0)
(-0.892011 -0.617262 0)
(-0.788912 -0.404006 0)
(-0.707044 -0.373841 0)
(-0.643762 -0.404825 0)
(-0.593845 -0.384261 0)
(-0.461245 -0.299355 0)
(-0.257376 -0.197778 0)
(-0.220242 -0.108177 0)
(-0.144954 0.0174475 0)
(-0.00144547 0.00186481 0)
(0.132086 0.443946 0)
(0.199451 0.456493 0)
(0.279052 0.478716 0)
(0.397944 0.500401 0)
(0.466557 0.293729 0)
(0.172704 -0.010689 0)
(-1.05284 -0.736188 0)
(-1.06871 -0.743604 0)
(-1.00832 -0.776236 0)
(-0.928026 -0.673455 0)
(-0.856073 -0.521937 0)
(-0.781021 -0.463783 0)
(-0.727707 -0.453687 0)
(-0.689188 -0.42636 0)
(-0.632124 -0.345643 0)
(-0.540639 -0.239647 0)
(-0.397072 -0.12155 0)
(-0.280502 -0.0866026 0)
(-0.065784 -0.110249 0)
(0.14776 0.387172 0)
(0.209575 0.391055 0)
(0.278305 0.392859 0)
(0.358083 0.3781 0)
(0.431507 0.303226 0)
(0.395992 0.119683 0)
(-0.229609 -0.192106 0)
(-1.0314 -0.650205 0)
(-1.02799 -0.652513 0)
(-0.965699 -0.663649 0)
(-0.920671 -0.555296 0)
(-0.893211 -0.503515 0)
(-0.846171 -0.492944 0)
(-0.810063 -0.469604 0)
(-0.753247 -0.429272 0)
(-0.651985 -0.383909 0)
(-0.504789 -0.301775 0)
(-0.323792 -0.266516 0)
(-0.133934 -0.31573 0)
)
;

boundaryField
{
    leftWall
    {
        type            fixedValue;
        value           nonuniform 0();
    }
    rightWall
    {
        type            fixedValue;
        value           uniform (0 0 0);
    }
    lowerWall
    {
        type            fixedValue;
        value           uniform (0 0 0);
    }
    atmosphere
    {
        type            fluxCorrectedVelocity;
        value           nonuniform 0();
    }
    defaultFaces
    {
        type            empty;
    }
    procBoundary1to0
    {
        type            processor;
        value           nonuniform List<vector> 
26
(
(-0.0436683 -0.000768806 0)
(-0.0340466 -0.0108801 0)
(-0.0146512 -0.0194726 0)
(-0.0177533 -0.0357922 0)
(-0.0347836 -0.0535757 0)
(-0.0540988 -0.0345963 0)
(-0.0538906 0.0819805 0)
(-0.0404057 0.0507475 0)
(0.0217227 -0.0111445 0)
(0.28212 -0.0431877 0)
(0.377547 -0.286212 0)
(0.367367 -0.37133 0)
(0.161685 -0.849193 0)
(-0.328439 -0.293052 0)
(-0.67569 -0.0983452 0)
(-1.05415 0.361993 0)
(-0.978275 1.16835 0)
(-0.978275 1.16835 0)
(-0.471899 1.03031 0)
(-0.183159 0.852801 0)
(-0.114646 0.70848 0)
(-0.106719 0.581809 0)
(-0.0857617 0.48596 0)
(-0.0544974 0.43107 0)
(-0.0174891 0.382585 0)
(0.00943722 0.340114 0)
)
;
    }
    procBoundary1to3
    {
        type            processor;
        value           nonuniform List<vector> 
23
(
(0.0611016 0.31676 0)
(0.0801225 0.32222 0)
(0.0999969 0.327912 0)
(0.119227 0.332371 0)
(0.156423 0.338363 0)
(0.208788 0.336876 0)
(0.265868 0.330962 0)
(0.326167 0.309583 0)
(0.388611 0.270571 0)
(0.410081 0.227638 0)
(0.400467 0.177957 0)
(-0.317884 -0.225359 0)
(-0.87888 -0.566685 0)
(-0.918126 -0.581075 0)
(-0.914794 -0.594499 0)
(-0.887908 -0.516704 0)
(-0.850874 -0.495831 0)
(-0.803893 -0.49046 0)
(-0.749359 -0.495281 0)
(-0.648742 -0.511084 0)
(-0.480358 -0.540267 0)
(-0.308771 -0.566057 0)
(-0.199642 -0.610528 0)
)
;
    }
}


// ************************************************************************* //
