/*--------------------------------*- C++ -*----------------------------------*\
| =========                 |                                                 |
| \\      /  F ield         | OpenFOAM: The Open Source CFD Toolbox           |
|  \\    /   O peration     | Version:  2.4.0                                 |
|   \\  /    A nd           | Web:      www.OpenFOAM.org                      |
|    \\/     M anipulation  |                                                 |
\*---------------------------------------------------------------------------*/
FoamFile
{
    version     2.0;
    format      ascii;
    class       volScalarField;
    location    "0.2";
    object      alpha.water;
}
// * * * * * * * * * * * * * * * * * * * * * * * * * * * * * * * * * * * * * //

dimensions      [0 0 0 0 0 0 0];

internalField   nonuniform List<scalar> 
2268
(
3.45449e-13
2.29693e-13
2.5458e-13
3.71852e-13
5.35049e-13
8.26807e-13
1.09649e-12
2.62469e-12
7.60309e-12
7.61869e-11
2.16364e-10
2.52691e-10
1.77922e-10
9.32346e-11
7.4114e-11
6.65983e-11
6.50005e-11
6.49866e-11
5.70707e-11
4.86399e-11
3.94566e-11
2.88176e-11
1.85468e-11
7.52958e-12
4.89467e-12
5.10138e-12
6.83242e-12
8.93331e-12
1.2139e-11
1.50239e-11
3.72758e-11
1.05174e-10
6.78282e-10
1.83954e-09
2.13063e-09
1.64714e-09
1.14018e-09
1.26996e-09
4.09206e-09
2.0267e-08
5.49262e-08
3.41955e-08
1.49783e-08
4.83077e-09
9.34113e-10
1.24767e-10
6.90373e-11
4.37616e-11
4.29288e-11
5.2682e-11
6.30601e-11
7.57643e-11
9.21205e-11
2.59383e-10
6.97733e-10
3.08108e-09
7.63163e-09
8.29107e-09
6.70149e-09
2.1601e-08
6.61993e-07
8.53119e-06
4.67527e-05
0.000111012
6.59761e-05
2.40933e-05
4.34573e-06
3.88575e-07
1.42314e-08
3.42588e-10
2.11246e-10
1.95117e-10
2.18649e-10
2.43162e-10
2.61254e-10
3.55536e-10
1.1848e-09
2.93002e-09
1.00178e-08
2.08339e-08
1.88795e-08
2.00112e-07
8.33025e-06
0.000226569
0.00216851
0.0087913
0.0175049
0.0137841
0.00671749
0.00104021
5.10809e-05
5.55599e-07
9.99552e-10
5.93674e-10
5.11882e-10
5.31375e-10
5.40159e-10
5.59869e-10
1.0923e-09
3.9428e-09
8.70215e-09
3.07338e-08
4.64427e-08
1.08284e-06
5.06715e-05
0.00094205
0.0131158
0.0771
0.194112
0.272316
0.23578
0.130937
0.0455437
0.00248672
1.42892e-05
1.99563e-09
1.04394e-09
7.76235e-10
7.28906e-10
6.96401e-10
9.77485e-10
3.06219e-09
9.83292e-09
2.12209e-08
1.45355e-07
1.65151e-05
0.000364692
0.00436175
0.0362906
0.197664
0.51242
0.691178
0.621143
0.454287
0.202692
0.0848111
0.00647468
4.35483e-05
4.92137e-09
1.53195e-09
6.4759e-10
5.40757e-10
4.9736e-10
2.25458e-09
7.04648e-09
1.75198e-08
1.07551e-07
0.00012274
0.00275585
0.0205398
0.100055
0.336488
0.736731
0.881805
0.821929
0.658376
0.395086
0.144788
0.0458801
0.00999125
0.000128088
1.38548e-08
1.6475e-09
4.98023e-10
4.97424e-10
4.97393e-10
4.88093e-09
1.08696e-08
1.95459e-08
0.000335114
0.0127659
0.0720743
0.218827
0.499369
0.83078
0.954302
0.931437
0.842722
0.632084
0.294406
0.0656416
0.0115833
0.00630277
0.000266675
3.3535e-13
5.48464e-13
9.38892e-13
1.66127e-12
2.91614e-12
4.87191e-12
5.31387e-12
3.61497e-12
2.5685e-12
1.7689e-12
1.24121e-12
9.39974e-13
7.45477e-13
5.67327e-13
3.93927e-13
2.46189e-13
1.5048e-13
8.85827e-14
4.65507e-14
4.92955e-13
1.19171e-12
1.77192e-12
3.00857e-12
6.07639e-12
1.07523e-11
1.16677e-11
9.27493e-12
7.49975e-12
6.14455e-12
4.52175e-12
3.39682e-12
2.53789e-12
1.81133e-12
1.20939e-12
7.52743e-13
4.47605e-13
2.47744e-13
1.06894e-13
8.67321e-13
1.99985e-12
3.07578e-12
5.34462e-12
2.2971e-11
4.39537e-11
5.33628e-11
4.16259e-11
2.50682e-11
1.70633e-11
1.14789e-11
7.78863e-12
5.38306e-12
3.69134e-12
2.4298e-12
1.54372e-12
9.48989e-13
5.19632e-13
2.01456e-13
8.93431e-13
1.72732e-12
2.24418e-12
3.25227e-12
3.56356e-11
1.40609e-10
1.74909e-10
1.54425e-10
1.13087e-10
7.78722e-11
4.94373e-11
2.00122e-11
8.59108e-12
5.60236e-12
3.70419e-12
2.43862e-12
1.58145e-12
8.81796e-13
3.06095e-13
7.1247e-13
1.10745e-12
1.08531e-12
4.35466e-12
4.64872e-11
2.81994e-10
3.46468e-10
3.15618e-10
2.34334e-10
1.32047e-10
9.03151e-11
3.92455e-11
9.82237e-12
6.35575e-12
4.37595e-12
3.05304e-12
2.14238e-12
1.15859e-12
4.8353e-13
5.2988e-13
6.06381e-13
1.09544e-12
7.28846e-12
1.91619e-10
5.30383e-10
5.62764e-10
5.00686e-10
3.10125e-10
1.65556e-10
1.13585e-10
4.57733e-11
1.02319e-11
6.25146e-12
4.29881e-12
3.20267e-12
2.12302e-12
1.15627e-12
5.19405e-13
3.8209e-13
2.88804e-13
9.16843e-13
5.19702e-11
4.52379e-10
8.63228e-10
8.19828e-10
6.51057e-10
3.63322e-10
2.11041e-10
1.15928e-10
3.11047e-11
6.97809e-12
4.80568e-12
3.65351e-12
2.66237e-12
1.82002e-12
1.02889e-12
4.82826e-13
3.36551e-13
1.90002e-13
2.84507e-13
2.0637e-10
8.77371e-10
1.20457e-09
1.0643e-09
7.80685e-10
4.56523e-10
2.21097e-10
7.45706e-11
1.36351e-11
4.54376e-12
3.53533e-12
2.52718e-12
1.82894e-12
1.3315e-12
8.11967e-13
4.17053e-13
0.006703
0.00765507
0.00989616
0.0139325
0.0203359
0.0344164
0.0576271
0.106013
0.183007
0.31369
0.526069
0.737919
0.908104
0.982889
0.980551
0.953002
0.848152
0.572475
0.202598
0.025009
0.00153208
0.00138031
0.000282372
0.200899
0.214765
0.243214
0.286795
0.342121
0.430446
0.538261
0.670171
0.798225
0.906096
0.972633
0.994963
0.99934
0.998622
0.992546
0.962819
0.84558
0.539264
0.168252
0.0162082
0.00031075
6.54236e-05
7.93507e-05
0.813442
0.827765
0.853096
0.88588
0.917058
0.95084
0.975834
0.990639
0.997123
0.999332
0.999873
0.999956
0.999855
0.999005
0.99223
0.955837
0.822384
0.513627
0.157453
0.0155773
0.000285678
3.39732e-05
5.92364e-06
0.997816
0.998118
0.998616
0.999144
0.999516
0.999769
0.999897
0.999954
0.999978
0.99999
0.999996
0.99998
0.999783
0.997556
0.981467
0.913038
0.725514
0.40268
0.111701
0.0106608
0.00019388
2.72836e-05
8.17884e-07
0.999999
0.999999
1
0.999999
1
1
1
1
1
1
0.999999
0.999964
0.999484
0.993767
0.957551
0.826346
0.548408
0.221668
0.0437533
0.0031123
4.40566e-05
8.68709e-06
4.52241e-07
1
1
1
1
1
1
1
1
1
1
0.999999
0.999939
0.998867
0.985632
0.91007
0.68364
0.332813
0.0795036
0.00781425
0.000244285
1.79287e-06
2.64044e-07
4.64222e-08
1
1
1
1
1
1
1
1
1
1
0.999999
0.999906
0.997154
0.963082
0.802648
0.460343
0.136818
0.0160407
0.000582937
4.8943e-06
3.15818e-08
1.35549e-08
3.76099e-09
1
1
1
1
1
1
1
1
1
1
0.999999
0.999835
0.990328
0.895077
0.5909
0.207743
0.0284487
0.00123761
1.41022e-05
3.77511e-08
1.60413e-10
8.8151e-12
2.89902e-12
1
1
1
1
1
1
1
1
1
1
0.999995
0.998407
0.949251
0.705888
0.302767
0.0535461
0.00301941
4.90731e-05
2.01477e-07
2.34263e-10
5.1059e-12
3.77786e-12
2.43181e-12
1
1
1
1
1
1
1
1
0.999999
0.999992
0.999606
0.964506
0.751495
0.36144
0.0779676
0.00526061
0.000127052
9.55912e-07
5.19688e-09
5.15523e-10
8.35195e-12
3.48937e-12
1.85361e-12
0.999997
0.999996
0.999995
0.99999
0.999979
0.999949
0.999861
0.9996
0.998824
0.996462
0.984997
0.778305
0.358533
0.090528
0.0085909
0.000310635
4.82229e-06
4.3739e-08
1.29466e-08
1.13036e-09
2.02618e-11
2.88218e-12
1.2685e-12
0.997843
0.997535
0.996815
0.995367
0.992467
0.986612
0.97519
0.95324
0.913298
0.84389
0.732023
0.402089
0.102817
0.0146379
0.000664564
1.78388e-05
1.30027e-06
5.81685e-08
2.55211e-09
4.51484e-11
2.20578e-12
1.19987e-12
4.78619e-13
0.873002
0.863667
0.843688
0.809878
0.756571
0.678228
0.572746
0.441591
0.301162
0.171609
0.0840051
0.0275972
0.0108105
0.00125742
4.47722e-05
1.58586e-06
1.41976e-07
6.6874e-09
8.42239e-11
6.36032e-13
4.23437e-13
2.44929e-13
8.56263e-14
0.215015
0.200001
0.171636
0.133375
0.0899264
0.0492904
0.0203371
0.0058912
0.00114153
0.000126925
1.47138e-05
5.2615e-05
0.000283197
8.84103e-05
3.65493e-06
1.60938e-07
4.24608e-09
4.2731e-11
2.99293e-13
2.24386e-13
8.62945e-14
1.4016e-14
2.99126e-15
0.000337964
0.000267277
0.00014988
6.27563e-05
1.7654e-05
3.63072e-06
9.82326e-07
2.84771e-07
5.49046e-08
1.42211e-08
7.09673e-09
1.12279e-07
5.37619e-07
9.40981e-07
1.26672e-07
7.06152e-10
2.91597e-12
8.88404e-14
1.20131e-13
1.7614e-14
2.2659e-15
2.89927e-16
2.85196e-16
1.84835e-07
9.36644e-08
3.71602e-08
2.32265e-08
1.76261e-08
3.47119e-08
9.93882e-08
2.46672e-08
9.19874e-10
2.88499e-10
6.08832e-10
1.58858e-09
6.38181e-09
1.38788e-08
9.38245e-10
1.02459e-13
8.21432e-14
4.41123e-14
7.67036e-15
1.08837e-15
9.93307e-17
2.55689e-17
5.27469e-17
1.5228e-08
5.25219e-09
3.77716e-09
3.52223e-09
4.55987e-09
8.21836e-09
1.23033e-08
7.47909e-09
3.01711e-10
1.42958e-10
4.08005e-10
7.1203e-10
2.10522e-09
4.691e-09
1.50735e-10
3.9545e-14
3.68789e-14
2.93243e-15
2.12979e-16
1.29959e-17
3.19845e-18
6.32523e-18
1.13996e-17
1.8853e-09
6.57009e-10
3.90814e-10
2.87047e-10
2.86263e-10
3.70942e-10
4.50162e-10
4.31014e-10
1.49685e-10
1.17789e-10
2.56442e-10
3.56754e-10
4.95032e-10
5.31454e-10
1.08303e-10
6.23691e-16
2.32601e-17
1.45448e-19
1.16406e-19
3.12458e-19
7.00535e-19
1.37096e-18
2.33631e-18
8.89935e-12
2.85205e-11
9.1255e-12
6.6974e-12
3.95622e-12
1.93152e-12
2.66632e-12
6.84489e-12
2.20155e-11
1.91981e-11
3.35153e-11
4.84869e-11
6.40087e-11
7.4321e-11
8.52983e-12
4.26963e-19
3.03483e-21
9.34807e-21
2.46424e-20
5.53358e-20
1.13926e-19
2.21528e-19
3.89133e-19
1.29168e-21
8.69626e-20
2.56071e-18
4.32713e-17
4.98194e-16
4.56981e-15
3.47873e-14
1.89746e-13
5.95004e-13
8.09231e-13
3.36864e-13
2.2968e-13
7.85775e-14
1.50151e-14
3.17107e-23
1.25091e-22
4.11703e-22
1.12723e-21
2.65284e-21
5.62661e-21
1.13173e-20
2.32266e-20
4.74676e-20
1.49733e-42
3.22075e-40
3.23198e-38
1.98005e-36
8.25646e-35
2.48176e-33
5.58759e-32
9.72332e-31
1.34424e-29
1.51153e-28
1.40189e-27
1.07178e-26
6.81536e-26
3.67892e-25
1.69536e-24
6.64912e-24
2.20299e-23
6.19965e-23
1.52421e-22
3.45068e-22
7.52273e-22
1.67562e-21
4.12251e-21
6.05226e-44
1.11228e-41
9.67412e-40
5.25488e-38
1.98923e-36
5.57639e-35
1.2045e-33
2.06298e-32
2.86632e-31
3.29357e-30
3.16413e-29
2.54619e-28
1.71361e-27
9.70454e-27
4.67197e-26
1.93557e-25
6.97113e-25
2.20107e-24
6.19261e-24
1.59918e-23
4.01707e-23
1.06728e-22
3.18222e-22
8.40104e-46
1.51348e-43
1.29464e-41
6.99847e-40
2.67967e-38
7.73049e-37
1.74586e-35
3.16629e-34
4.69507e-33
5.75557e-32
5.8586e-31
4.96792e-30
3.54291e-29
2.14988e-28
1.12043e-27
5.03183e-27
1.97065e-26
6.89623e-26
2.21981e-25
6.77885e-25
2.07202e-24
6.79719e-24
2.45279e-23
7.04531e-48
1.33339e-45
1.2009e-43
6.85261e-42
2.77461e-40
8.4602e-39
2.0135e-37
3.83056e-36
5.92748e-35
7.55905e-34
8.02843e-33
7.19727e-32
5.53646e-31
3.68819e-30
2.14549e-29
1.1005e-28
5.00171e-28
2.02905e-27
7.49767e-27
2.66055e-26
9.74913e-26
3.84868e-25
1.62223e-24
4.13481e-50
8.11346e-48
7.58556e-46
4.50211e-44
1.9022e-42
6.08157e-41
1.52764e-39
3.09296e-38
5.14148e-37
7.11659e-36
8.30183e-35
8.25189e-34
7.04789e-33
5.20897e-32
3.35121e-31
1.89424e-30
9.58128e-30
4.46012e-29
1.98044e-28
8.69432e-28
3.88231e-27
1.78957e-26
8.51905e-26
1.70593e-52
3.50467e-50
3.43388e-48
2.14235e-46
9.5542e-45
3.24111e-43
8.69376e-42
1.89342e-40
3.4124e-39
5.15929e-38
6.61418e-37
7.26281e-36
6.90212e-35
5.74077e-34
4.23128e-33
2.79833e-32
1.68435e-31
9.371e-31
4.91926e-30
2.51139e-29
1.28969e-28
6.80362e-28
3.6806e-27
5.06797e-55
1.1152e-52
1.17554e-50
7.91881e-49
3.82841e-47
1.41326e-45
4.13915e-44
9.87063e-43
1.95322e-41
3.2566e-40
4.63693e-39
5.70511e-38
6.12453e-37
5.78482e-36
4.85108e-35
3.65551e-34
2.51305e-33
1.60847e-32
9.83502e-32
5.90272e-31
3.54804e-30
2.1566e-29
1.32698e-28
1.11418e-57
2.65162e-55
3.02384e-53
2.20866e-51
1.16104e-49
4.67747e-48
1.50189e-46
3.94786e-45
8.66297e-44
1.61098e-42
2.57028e-41
3.55641e-40
4.31181e-39
4.62929e-38
4.44978e-37
3.8759e-36
3.10483e-35
2.32883e-34
1.67078e-33
1.17244e-32
8.19989e-32
5.77176e-31
4.08725e-30
1.86081e-60
4.83373e-58
6.03475e-56
4.83793e-54
2.79918e-52
1.24494e-50
4.42696e-49
1.29301e-47
3.16414e-46
6.5894e-45
1.18303e-43
1.85174e-42
2.55297e-41
3.13169e-40
3.45624e-39
3.4765e-38
3.23613e-37
2.83862e-36
2.39362e-35
1.97736e-34
1.62259e-33
1.3311e-32
1.09139e-31
2.33427e-63
6.70241e-61
9.25562e-59
8.2218e-57
5.28217e-55
2.61496e-53
1.03792e-51
3.39433e-50
9.33229e-49
2.19145e-47
4.45339e-46
7.92326e-45
1.24776e-43
1.75858e-42
2.24441e-41
2.62823e-40
2.86693e-39
2.96289e-38
2.95223e-37
2.88049e-36
2.78197e-35
2.67191e-34
2.55087e-33
2.22358e-66
7.10968e-64
1.09498e-61
1.08656e-59
7.81287e-58
4.33852e-56
1.9366e-54
7.14363e-53
2.2228e-51
5.92967e-50
1.37467e-48
2.80305e-47
5.08475e-46
8.30025e-45
1.23426e-43
1.69454e-42
2.18001e-41
2.66935e-40
3.158e-39
3.65456e-38
4.16996e-37
4.70678e-36
5.25452e-35
1.57844e-69
5.67983e-67
9.85381e-65
1.10308e-62
8.96381e-61
5.63727e-59
2.85681e-57
1.19978e-55
4.26405e-54
1.30393e-52
3.47924e-51
8.20272e-50
1.72922e-48
3.29879e-47
5.76631e-46
9.35973e-45
1.43061e-43
2.0879e-42
2.94607e-41
4.05782e-40
5.48829e-39
7.30763e-38
9.58088e-37
8.19643e-73
3.3542e-70
6.62589e-68
8.45857e-66
7.85236e-64
5.65338e-62
3.2879e-60
1.58916e-58
6.52093e-57
2.31071e-55
7.17377e-54
1.97677e-52
4.89467e-51
1.10247e-49
2.28728e-48
4.42759e-47
8.09999e-46
1.4174e-44
2.39663e-43
3.94495e-42
6.35041e-41
1.00198e-39
1.55069e-38
3.00122e-76
1.4157e-73
3.227e-71
4.76079e-69
5.11632e-67
4.2729e-65
2.88945e-63
1.62829e-61
7.81432e-60
3.24988e-58
1.18881e-56
3.87638e-55
1.141e-53
3.06928e-52
7.6383e-51
1.77995e-49
3.92879e-48
8.29809e-47
1.69098e-45
3.34433e-44
6.44371e-43
1.21228e-41
2.22965e-40
7.34397e-80
4.06086e-77
1.08577e-74
1.8815e-72
2.37879e-70
2.3416e-68
1.87053e-66
1.24841e-64
7.1165e-63
3.52714e-61
1.5432e-59
6.04189e-58
2.14383e-56
6.97837e-55
2.10838e-53
5.97856e-52
1.60728e-50
4.13223e-49
1.02288e-47
2.44992e-46
5.69707e-45
1.28934e-43
2.8445e-42
1.1014e-83
7.30351e-81
2.33947e-78
4.86112e-76
7.37891e-74
8.73514e-72
8.40838e-70
6.77789e-68
4.67872e-66
2.8162e-64
1.50105e-62
7.18249e-61
3.12452e-59
1.25039e-57
4.65429e-56
1.62781e-54
5.39714e-53
1.70908e-51
5.19912e-50
1.52602e-48
4.3359e-47
1.19562e-45
3.20569e-44
8.77293e-88
7.20819e-85
2.8458e-82
7.28625e-80
1.36392e-77
1.99392e-75
2.37454e-73
2.37268e-71
2.03459e-69
1.52477e-67
1.01423e-65
6.07018e-64
3.30963e-62
1.66268e-60
7.77669e-59
3.41791e-57
1.4229e-55
5.64824e-54
2.14911e-52
7.87029e-51
2.78304e-49
9.52742e-48
3.16357e-46
2.90322e-92
3.10531e-89
1.57049e-86
5.1348e-84
1.22775e-81
2.29643e-79
3.50747e-77
4.5063e-75
4.98085e-73
4.82153e-71
4.14894e-69
3.21548e-67
2.27129e-65
1.47822e-63
8.95185e-62
5.08837e-60
2.73508e-58
1.3989e-56
6.84312e-55
3.21472e-53
1.45505e-51
6.36141e-50
2.69054e-48
2.59811e-97
3.89838e-94
2.63713e-91
1.1417e-88
3.61224e-86
8.96699e-84
1.8295e-81
3.17305e-79
4.78229e-77
6.36304e-75
7.56567e-73
8.1195e-71
7.93505e-69
7.12029e-67
5.91408e-65
4.5846e-63
3.34436e-61
2.31213e-59
1.52338e-57
9.60958e-56
5.82558e-54
3.40245e-52
1.9156e-50
4.86346e-103
1.12735e-99
1.07932e-96
6.48837e-94
2.83965e-91
9.75997e-89
2.74736e-86
6.52585e-84
1.3436e-81
2.45427e-79
4.05597e-77
6.16072e-75
8.70117e-73
1.15186e-70
1.43632e-68
1.68975e-66
1.87368e-64
1.95642e-62
1.92479e-60
1.78909e-58
1.58133e-56
1.33952e-54
1.08892e-52
2.20874e-108
6.88158e-105
8.3665e-102
6.1963e-99
3.27701e-96
1.34355e-93
4.50848e-91
1.28462e-88
3.19317e-86
7.07679e-84
1.42523e-81
2.65502e-79
4.65435e-77
7.80363e-75
1.27017e-72
2.03438e-70
3.24293e-68
5.18254e-66
8.31157e-64
1.3271e-61
2.06706e-59
3.05756e-57
4.22709e-55
1.00285e-112
3.34793e-109
4.18867e-106
3.21627e-103
1.78503e-100
7.7685e-98
2.78774e-95
8.54506e-93
2.29814e-90
5.54291e-88
1.22189e-85
2.50482e-83
4.85456e-81
9.04306e-79
1.64605e-76
2.97803e-74
5.45313e-72
1.03091e-69
2.05768e-67
4.44809e-65
1.07091e-62
2.94506e-60
9.2402e-58
2.84791e-06
8.61627e-08
3.91244e-09
2.18636e-10
2.66474e-05
4.77604e-06
3.9672e-07
5.65428e-08
6.33264e-06
3.25818e-06
9.50531e-07
1.90263e-07
2.77201e-07
3.80314e-07
2.65916e-07
1.18249e-07
1.22714e-08
1.84082e-08
3.02547e-08
3.11855e-08
1.22798e-08
7.8317e-09
3.95652e-09
3.43452e-09
1.24564e-09
2.58143e-10
4.28931e-11
1.33709e-11
2.28443e-12
1.85232e-12
1.49548e-12
1.1895e-12
1.88199e-12
1.42621e-12
1.06373e-12
7.85673e-13
1.31372e-12
9.16237e-13
6.36528e-13
4.44707e-13
7.96747e-13
4.95829e-13
3.00045e-13
1.80565e-13
3.30273e-13
2.19725e-13
8.50435e-14
5.1989e-15
1.82852e-14
2.20135e-14
2.38588e-14
3.148e-15
3.41266e-15
1.22562e-15
2.29931e-15
9.07622e-16
5.0846e-16
2.45788e-16
2.83638e-16
2.65472e-16
8.239e-17
6.19316e-17
6.98779e-17
8.67722e-17
1.62061e-17
1.63597e-17
1.97709e-17
2.54818e-17
3.42725e-18
3.97626e-18
4.90047e-18
6.23317e-18
6.21667e-19
7.67628e-19
9.71114e-19
1.26628e-18
8.36169e-20
1.12006e-19
1.56474e-19
2.19601e-19
9.16253e-21
1.43922e-20
2.27856e-20
3.36035e-20
9.96588e-22
1.79099e-21
2.96347e-21
4.40672e-21
9.38236e-23
1.84816e-22
3.1295e-22
4.80234e-22
7.03879e-24
1.50177e-23
2.69413e-23
4.37046e-23
4.14615e-25
9.60096e-25
1.883e-24
3.32251e-24
2.01132e-26
5.11769e-26
1.11529e-25
2.18712e-25
8.21311e-28
2.34412e-27
5.75133e-27
1.2588e-26
2.89445e-29
9.38346e-29
2.6027e-28
6.38509e-28
8.90852e-31
3.30243e-30
1.03946e-29
2.86358e-29
2.41389e-32
1.02657e-31
3.67525e-31
1.13989e-30
5.79168e-34
2.83098e-33
1.15522e-32
4.04477e-32
1.2359e-35
6.95668e-35
3.24265e-34
1.28553e-33
2.35401e-37
1.52974e-36
8.16627e-36
3.67782e-35
4.01164e-39
3.02089e-38
1.8533e-37
9.51823e-37
6.12402e-41
5.37213e-40
3.80483e-39
2.23866e-38
8.368e-43
8.61521e-42
7.08742e-41
4.80482e-40
1.02012e-44
1.24551e-43
1.19994e-42
9.4421e-42
1.10156e-46
1.6185e-45
1.84643e-44
1.70255e-43
1.03973e-48
1.87775e-47
2.57544e-46
2.81784e-45
8.40629e-51
1.92198e-49
3.23425e-48
4.26819e-47
5.50317e-53
1.68977e-51
3.61255e-50
5.8874e-49
2.80119e-55
1.23212e-53
3.44852e-52
7.05561e-51
4.98435e-11
6.33557e-11
3.30088e-10
1.01434e-09
1.68376e-09
1.61662e-09
1.30297e-09
8.7916e-10
4.64576e-10
1.73829e-10
4.52497e-11
8.92613e-12
2.73434e-12
2.19546e-12
1.18503e-12
5.70888e-13
5.13341e-13
3.77605e-13
2.72696e-13
7.54408e-09
2.94612e-09
2.31358e-09
2.78586e-09
2.65469e-09
1.97315e-09
1.44863e-09
8.02245e-10
2.79319e-10
5.99604e-11
8.98761e-12
2.33661e-12
1.91981e-12
6.91495e-13
1.92502e-13
1.57201e-13
2.01233e-13
1.66422e-13
1.70884e-13
3.86756e-08
6.02461e-09
5.16105e-09
4.60482e-09
3.23417e-09
1.69793e-09
1.00778e-09
3.52237e-10
6.90509e-11
7.72983e-12
2.33839e-12
1.77893e-12
5.58739e-13
1.46309e-13
5.64842e-14
5.66769e-14
7.50084e-14
7.30494e-14
9.66895e-14
3.68258e-08
1.23231e-08
8.37421e-09
5.30398e-09
1.66325e-09
8.21098e-10
2.35e-10
4.71904e-11
4.85686e-12
2.59511e-12
1.57182e-12
5.34437e-13
1.73914e-13
4.28113e-14
2.06718e-14
2.16624e-14
2.70534e-14
2.98339e-14
4.51891e-14
2.38586e-08
1.38555e-08
6.704e-09
1.64367e-09
3.13455e-10
6.79181e-11
1.22156e-11
1.49061e-12
1.23425e-12
1.02652e-12
5.21567e-13
2.21576e-13
5.80284e-14
1.38386e-14
7.70086e-15
7.98503e-15
9.35273e-15
1.03936e-14
1.60001e-14
4.62153e-09
3.95587e-09
1.64077e-09
2.05414e-10
3.0912e-11
1.27915e-12
4.94479e-13
4.70039e-13
4.62449e-13
4.26843e-13
2.56224e-13
8.95567e-14
1.91111e-14
4.55481e-15
2.72756e-15
2.71755e-15
2.93392e-15
2.98391e-15
4.19364e-15
5.65008e-11
8.36e-11
3.52367e-11
2.99467e-12
5.0363e-13
1.63245e-13
1.20912e-13
2.0084e-13
2.72911e-13
2.29183e-13
1.15049e-13
3.28993e-14
5.94113e-15
1.43947e-15
8.81452e-16
8.26958e-16
8.10776e-16
7.13907e-16
8.42298e-16
6.84904e-13
3.89273e-13
2.16422e-13
1.17935e-13
7.07059e-14
4.92692e-14
1.33539e-13
1.68317e-13
1.64535e-13
1.12424e-13
4.6779e-14
1.08583e-14
1.70725e-15
4.18365e-16
2.54384e-16
2.21706e-16
1.95344e-16
1.45268e-16
1.35773e-16
4.15622e-13
2.20753e-13
1.13777e-13
5.96904e-14
4.17691e-14
7.43011e-14
1.01847e-13
1.06833e-13
8.65593e-14
4.92576e-14
1.70961e-14
3.22531e-15
4.46056e-16
1.09641e-16
6.51584e-17
5.21495e-17
4.09548e-17
2.55299e-17
1.82508e-17
2.05177e-13
9.66537e-14
4.3579e-14
2.21441e-14
3.72456e-14
5.33259e-14
6.33207e-14
5.79683e-14
4.01567e-14
1.91747e-14
5.5432e-15
8.58552e-16
1.05034e-16
2.58338e-17
1.47981e-17
1.07761e-17
7.49365e-18
3.92353e-18
2.10663e-18
8.32318e-14
6.94155e-15
1.28302e-14
1.76014e-14
2.59568e-14
3.25878e-14
3.37785e-14
2.73088e-14
1.63505e-14
6.57518e-15
1.6022e-15
2.04692e-16
2.22335e-17
5.4639e-18
2.98445e-18
1.96381e-18
1.20353e-18
5.32631e-19
2.13625e-19
4.19571e-15
4.05362e-15
7.12076e-15
1.13086e-14
1.48385e-14
1.68584e-14
1.55666e-14
1.1174e-14
5.80325e-15
2.00077e-15
4.13931e-16
4.3753e-17
4.23476e-18
1.0378e-18
5.35994e-19
3.17195e-19
1.70857e-19
6.43923e-20
1.93894e-20
1.14508e-15
2.35568e-15
4.04408e-15
5.90646e-15
7.22148e-15
7.46546e-15
6.22071e-15
3.96998e-15
1.81478e-15
5.41804e-16
9.57604e-17
8.403e-18
7.28121e-19
1.77445e-19
8.60374e-20
4.56535e-20
2.15879e-20
6.98375e-21
1.59917e-21
6.40041e-16
1.17603e-15
1.91264e-15
2.59598e-15
2.99307e-15
2.84473e-15
2.17412e-15
1.23857e-15
5.02916e-16
1.30849e-16
1.98796e-17
1.45554e-18
1.13724e-19
2.7431e-20
1.23964e-20
5.88727e-21
2.44345e-21
6.83905e-22
1.21327e-22
2.92265e-16
4.96804e-16
7.56686e-16
9.75773e-16
1.06398e-15
9.4916e-16
6.6782e-16
3.42236e-16
1.23771e-16
2.82662e-17
3.71475e-18
2.28818e-19
1.63136e-20
3.85909e-21
1.61143e-21
6.83972e-22
2.49344e-22
6.08291e-23
8.54356e-24
1.08177e-16
1.74301e-16
2.52053e-16
3.15996e-16
3.28714e-16
2.79379e-16
1.80961e-16
8.41254e-17
2.7128e-17
5.47984e-18
6.27545e-19
3.29884e-20
2.18844e-21
4.98954e-22
1.90178e-22
7.19972e-23
2.30816e-23
4.94007e-24
5.6195e-25
3.24307e-17
5.10406e-17
7.26556e-17
8.93406e-17
8.86548e-17
7.26265e-17
4.33823e-17
1.84259e-17
5.31399e-18
9.56782e-19
9.64114e-20
4.43287e-21
2.82074e-22
6.01505e-23
2.05439e-23
6.91012e-24
1.95041e-24
3.68293e-25
3.46555e-26
7.88866e-18
1.25432e-17
1.82901e-17
2.20267e-17
2.09254e-17
1.67355e-17
9.21477e-18
3.60232e-18
9.33254e-19
1.51048e-19
1.35709e-20
5.67844e-22
3.60771e-23
6.89899e-24
2.05394e-24
6.09211e-25
1.51435e-25
2.53396e-26
2.00915e-27
1.64302e-18
2.67682e-18
4.01065e-18
4.71052e-18
4.36097e-18
3.40861e-18
1.74002e-18
6.29364e-19
1.47435e-19
2.16541e-20
1.76552e-21
7.10725e-23
4.68947e-24
7.71063e-25
1.92964e-25
4.97982e-26
1.08809e-26
1.61849e-27
1.09747e-28
2.99753e-19
5.04084e-19
7.60651e-19
8.74101e-19
8.11558e-19
6.09185e-19
2.93476e-19
9.83302e-20
2.10243e-20
2.83187e-21
2.14271e-22
8.84192e-24
6.19758e-25
8.57268e-26
1.73768e-26
3.82138e-27
7.29918e-28
9.65975e-29
5.66108e-30
4.72728e-20
8.17851e-20
1.24119e-19
1.43143e-19
1.34254e-19
9.57765e-20
4.43008e-20
1.37587e-20
2.71522e-21
3.39414e-22
2.4468e-23
1.09367e-24
8.14117e-26
9.55314e-27
1.53335e-27
2.79779e-28
4.62083e-29
5.42715e-30
2.76736e-31
6.22109e-21
1.10926e-20
1.76284e-20
2.09339e-20
1.94505e-20
1.34054e-20
5.97185e-21
1.72987e-21
3.1849e-22
3.74544e-23
2.64506e-24
1.32382e-25
1.03135e-26
1.057e-27
1.34951e-28
1.9927e-29
2.79751e-30
2.89647e-31
1.28794e-32
6.98747e-22
1.29523e-21
2.2107e-21
2.71434e-21
2.46854e-21
1.67956e-21
7.18484e-22
1.96126e-22
3.40238e-23
3.8212e-24
2.7135e-25
1.53396e-26
1.22961e-27
1.13819e-28
1.19114e-29
1.4078e-30
1.64591e-31
1.48428e-32
5.73897e-34
6.68255e-23
1.3311e-22
2.45221e-22
3.09151e-22
2.78023e-22
1.87988e-22
7.73853e-23
2.01045e-23
3.32009e-24
3.61651e-25
2.63813e-26
1.66964e-27
1.35894e-28
1.16834e-29
1.04492e-30
9.99265e-32
9.57105e-33
7.3923e-34
2.46598e-35
5.56161e-24
1.21876e-23
2.38894e-23
3.10205e-23
2.80164e-23
1.87879e-23
7.49219e-24
1.86789e-24
2.96844e-25
3.18294e-26
2.42093e-27
1.68588e-28
1.38152e-29
1.12555e-30
8.94988e-32
7.12999e-33
5.57594e-34
3.62428e-35
1.03065e-36
4.0302e-25
9.90466e-25
2.04624e-24
2.75963e-24
2.53126e-24
1.68144e-24
6.54373e-25
1.57744e-25
2.43905e-26
2.60909e-27
2.08633e-28
1.56862e-29
1.28797e-30
1.00791e-31
7.3485e-33
5.05665e-34
3.2724e-35
1.76944e-36
4.22985e-38
2.56596e-26
7.1037e-26
1.55044e-25
2.18898e-25
2.05203e-25
1.35307e-25
5.17234e-26
1.21479e-26
1.84694e-27
1.99358e-28
1.68061e-29
1.34131e-30
1.10075e-31
8.34827e-33
5.70326e-34
3.50473e-35
1.92567e-36
8.66478e-38
1.72053e-39
1.4412e-27
4.49807e-27
1.04546e-26
1.55511e-26
1.49576e-26
9.8303e-27
3.7119e-27
8.55962e-28
1.29237e-28
1.42048e-29
1.26103e-30
1.05381e-31
8.63343e-33
6.38401e-34
4.14698e-35
2.33607e-36
1.12245e-37
4.25817e-39
6.98792e-41
7.1723e-29
2.5244e-28
6.30499e-28
9.93277e-28
9.83539e-28
6.47339e-28
2.42703e-28
5.53751e-29
8.37751e-30
9.44045e-31
8.79592e-32
7.61646e-33
6.22656e-34
4.50782e-35
2.81182e-36
1.47969e-37
6.38688e-39
2.08722e-40
2.84415e-42
3.17725e-30
1.2625e-29
3.41642e-29
5.72561e-29
5.85695e-29
3.87906e-29
1.45134e-29
3.30067e-30
5.04326e-31
5.85419e-32
5.69976e-33
5.07477e-34
4.1396e-35
2.94297e-36
1.77465e-37
8.84008e-39
3.50246e-40
1.00995e-41
1.15847e-43
1.25918e-31
5.6591e-31
1.67086e-30
2.99092e-30
3.17208e-30
2.12381e-30
7.96925e-31
1.81918e-31
2.82647e-32
3.38963e-33
3.43299e-34
3.12533e-35
2.54413e-36
1.78013e-37
1.04267e-38
4.96202e-40
1.83393e-41
4.77025e-43
4.69464e-45
4.48788e-33
2.28678e-32
7.41056e-32
1.42221e-31
1.5695e-31
1.06699e-31
4.03501e-32
9.30533e-33
1.47849e-33
1.8346e-34
1.92464e-35
1.78441e-36
1.44989e-37
1.00021e-38
5.71045e-40
2.61327e-41
9.11644e-43
2.17832e-44
1.87696e-46
1.44622e-34
8.37871e-34
2.99559e-33
6.1857e-33
7.12823e-33
4.94099e-33
1.89213e-33
4.43414e-34
7.23753e-35
9.29703e-36
1.00651e-36
9.47625e-38
7.68738e-39
5.23587e-40
2.92145e-41
1.29177e-42
4.28987e-44
9.55033e-46
7.33954e-48
4.23638e-36
2.79983e-35
1.10956e-34
2.47353e-34
2.98658e-34
2.11909e-34
8.25505e-35
1.9761e-35
3.32514e-36
4.42074e-37
4.92334e-38
4.6973e-39
3.80537e-40
2.56188e-41
1.39991e-42
6.00217e-44
1.9094e-45
4.00295e-47
2.78655e-49
1.13402e-37
8.58305e-37
3.78709e-36
9.14372e-36
1.16043e-35
8.45936e-36
3.3667e-36
8.26962e-37
1.43822e-37
1.9776e-38
2.25969e-39
2.18145e-40
1.76522e-41
1.17578e-42
6.30259e-44
2.62749e-45
8.04419e-47
1.60081e-48
1.02185e-50
2.78835e-39
2.42827e-38
1.1982e-37
3.14284e-37
4.20455e-37
3.1598e-37
1.28985e-37
3.2634e-38
5.87641e-39
8.34872e-40
9.76615e-41
9.52873e-42
7.70323e-43
5.08054e-44
2.67512e-45
1.08673e-46
3.21332e-48
6.10647e-50
3.60839e-52
6.32829e-41
6.37859e-40
3.53616e-39
1.01057e-38
1.42887e-38
1.11044e-38
4.66584e-39
1.21973e-39
2.27645e-40
3.33775e-41
3.98986e-42
3.93094e-43
3.17528e-44
2.07498e-45
1.07442e-46
4.26051e-48
1.22008e-49
2.22424e-51
1.22555e-53
1.33155e-42
1.56525e-41
9.79843e-41
3.05939e-40
4.58215e-40
3.69251e-40
1.60199e-40
4.33758e-41
8.39428e-42
1.26858e-42
1.54721e-43
1.53814e-44
1.24156e-45
8.04306e-47
4.09927e-48
1.589e-49
4.41659e-51
7.75127e-53
4.0047e-55
2.60714e-44
3.61034e-43
2.56662e-42
8.77854e-42
1.3953e-41
1.1686e-41
5.24845e-42
1.47444e-42
2.95854e-43
4.6023e-44
5.71931e-45
5.73355e-46
4.62486e-47
2.97143e-48
1.49181e-49
5.65948e-51
1.52951e-52
2.59142e-54
1.26087e-56
4.75972e-46
7.87313e-45
6.40039e-44
2.40443e-43
4.06187e-43
3.54246e-43
1.65042e-43
4.81591e-44
1.00141e-44
1.60126e-45
2.02495e-46
2.04571e-47
1.64886e-48
1.05093e-49
5.20035e-51
1.93259e-52
5.08547e-54
8.33611e-56
3.83274e-58
8.13134e-48
1.63559e-46
1.53089e-45
6.3265e-45
1.13658e-44
1.03347e-44
5.00247e-45
1.51717e-45
3.26701e-46
5.36304e-47
6.89469e-48
7.01617e-49
5.65084e-50
3.5742e-51
1.74427e-52
6.35607e-54
1.63069e-55
2.59095e-57
1.12893e-59
1.2587e-49
3.2171e-48
3.53181e-47
1.61458e-46
3.08806e-46
2.92928e-46
1.47356e-46
4.64209e-47
1.03354e-47
1.73876e-48
2.26945e-49
2.32451e-50
1.87024e-51
1.17395e-52
5.65139e-54
2.01993e-55
5.05595e-57
7.79559e-59
3.22586e-61
)
;

boundaryField
{
    leftWall
    {
        type            zeroGradient;
    }
    rightWall
    {
        type            zeroGradient;
    }
    lowerWall
    {
        type            zeroGradient;
    }
    atmosphere
    {
        type            inletOutlet;
        inletValue      uniform 0;
        value           nonuniform List<scalar> 
46
(
0
0
0
0
0
0
0
0
0
0
0
0
0
0
0
0
0
0
0
0
0
0
0
2.80119e-55
1.23212e-53
3.44852e-52
7.05561e-51
1.2587e-49
3.2171e-48
3.53181e-47
1.61458e-46
3.08806e-46
2.92928e-46
1.47356e-46
4.64209e-47
1.03354e-47
1.73876e-48
2.26945e-49
2.32451e-50
1.87024e-51
1.17395e-52
5.65139e-54
2.01993e-55
5.05595e-57
7.79559e-59
3.22586e-61
)
;
    }
    defaultFaces
    {
        type            empty;
    }
}


// ************************************************************************* //
