/*--------------------------------*- C++ -*----------------------------------*\
| =========                 |                                                 |
| \\      /  F ield         | OpenFOAM: The Open Source CFD Toolbox           |
|  \\    /   O peration     | Version:  2.4.0                                 |
|   \\  /    A nd           | Web:      www.OpenFOAM.org                      |
|    \\/     M anipulation  |                                                 |
\*---------------------------------------------------------------------------*/
FoamFile
{
    version     2.0;
    format      ascii;
    class       volScalarField;
    location    "0.2";
    object      alphas;
}
// * * * * * * * * * * * * * * * * * * * * * * * * * * * * * * * * * * * * * //

dimensions      [0 0 0 0 0 0 0];

internalField   nonuniform List<scalar> 
2268
(
2
2
2
2
2
2
2
2
2
2
2
2
2
2
2
2
2
1.99999
1.99999
1.99998
1.99984
1.99909
1.99847
2
2
2
2
2
2
2
2
2
2
2
2
2
2
2
2
1.99999
1.99999
1.99998
1.99998
1.99984
1.99894
1.99788
2
2
2
2
2
2
2
2
2
2
2
2
2
2
1.99999
1.99994
1.99971
1.99921
1.99922
1.99954
1.99968
1.99883
1.99745
2
2
2
2
2
2
2
2
2
2
2
2
2
1.99996
1.99926
1.99367
1.97243
1.93631
1.92052
1.94519
1.9828
1.99674
1.99709
2
2
2
2
2
2
2
2
2
2
2
2
1.99987
1.99779
1.9702
1.82257
1.51704
1.21913
1.08727
1.13961
1.536
1.94299
1.99599
2
2
2
2
2
2
2
2
2
2
1.99997
1.99926
1.99114
1.92563
1.58989
0.903774
0.424938
0.395765
0.546794
0.801795
1.0198
1.755
1.99022
2
2
2
2
2
2
2
2
2
1.99975
1.99449
1.95889
1.79943
1.32278
0.506015
0.157217
0.180161
0.341688
0.604915
0.855219
0.958779
1.45399
1.96829
2
2
2
2
2
2
2
2
1.99933
1.97447
1.85585
1.56229
1.00051
0.334808
0.071752
0.0720024
0.157425
0.36792
0.705594
0.934359
0.989326
1.1677
1.92151
2.68409
1.62446
1.0292
1.00226
1.00226
1.00313
1.00418
1.00397
1.00692
1.025
1.03435
1.02155
1.01398
1.02736
1.24907
1.42816
1.36576
1.08708
1.02404
2.97419
2.92721
2.21527
1.13223
1.0029
1.00031
1.00022
1.00004
1.00001
1.00001
1.00002
1.00003
1.0002
1.00312
1.00095
1.0007
1.01273
1.02158
1.02262
2.99985
2.99984
2.98404
2.51586
1.19658
1.00084
1.00016
1.00002
1
1
1
1
1
1
1.00001
1.00007
1.00393
1.04376
1.02949
3.00001
3.00001
2.99954
2.93042
1.85043
1.00332
1.0002
1.00001
1
1
1
1
1
1
1.00014
1.00403
1.229
1.96524
1.05596
3.00001
3.00001
2.99987
2.95012
1.38749
1.00866
1.00007
1
1
1
1
1
1
1.00031
1.01504
1.47019
2.60091
2.9302
1.34093
3.00001
3.00002
2.99767
2.60816
1.13863
1.00177
1
1
1
1
1
1
1.00046
1.02698
1.65462
2.76459
2.99291
2.99959
2.41478
3.00001
3.00002
2.95585
1.80943
1.03447
1.00017
1
1
1
1
1
1.00026
1.03237
1.71679
2.80745
2.9962
3
3.00001
2.9512
3.00002
3.00002
2.67426
1.29669
1.00616
1.00002
1
1
1
1
1
1.0149
1.59498
2.74856
2.99292
2.99998
3
3.00001
2.99896
1.98659
1.98469
1.98021
1.97214
1.95933
1.93117
1.88475
1.78797
1.63399
1.37262
0.947861
0.524112
0.183384
0.0315069
0.0238143
0.0475199
0.151882
0.427526
0.797403
0.974991
0.998907
1.07251
1.65348
1.5982
1.57047
1.51357
1.42641
1.31576
1.13911
0.923479
0.659658
0.403549
0.187807
0.054734
0.0100619
0.00119403
0.00157798
0.00750144
0.037192
0.154424
0.460738
0.831748
0.983792
0.999762
1.02627
1.30992
0.373116
0.344471
0.293809
0.22824
0.165883
0.0983203
0.0483323
0.018722
0.00575319
0.00133671
0.000254046
7.71928e-05
0.000168716
0.00100745
0.0077756
0.0441656
0.177618
0.486375
0.842548
0.984423
0.999746
1.0076
1.09326
0.0043678
0.00376348
0.00276865
0.00171137
0.000967367
0.000461539
0.000204816
9.25903e-05
4.36406e-05
2.02281e-05
7.2491e-06
2.26005e-05
0.000218279
0.00244506
0.0185336
0.0869622
0.274487
0.59732
0.888299
0.989339
0.999817
1.00127
1.01369
9.91549e-07
7.98035e-07
5.39081e-07
6.54676e-07
6.3488e-07
5.22615e-07
4.51582e-07
4.04501e-07
3.56267e-07
2.65477e-07
6.83445e-07
3.62452e-05
0.000515713
0.00623294
0.042449
0.173654
0.451592
0.778332
0.956247
0.996888
0.999957
1.00005
1.00061
5.95001e-09
7.025e-09
7.28104e-09
8.31666e-09
9.98727e-09
1.23308e-08
1.5814e-08
2.15483e-08
2.77092e-08
3.72566e-08
6.89155e-07
6.08647e-05
0.00113264
0.0143677
0.0899298
0.31636
0.667187
0.920496
0.992186
0.999756
0.999998
1
1
2.15824e-08
2.41136e-08
2.5937e-08
2.87359e-08
3.36255e-08
3.87633e-08
4.41565e-08
5.4472e-08
6.1033e-08
7.71213e-08
7.85788e-07
9.36655e-05
0.00284641
0.0369183
0.197351
0.539656
0.863182
0.983959
0.999417
0.999995
1
1
1
6.16902e-08
6.26591e-08
6.60819e-08
6.99743e-08
7.63657e-08
8.11134e-08
8.82574e-08
1.12838e-07
1.53016e-07
2.30292e-07
8.29714e-07
0.000165335
0.00967174
0.104923
0.4091
0.792257
0.971551
0.998762
0.999986
1
1
1
1
1.36805e-07
1.50227e-07
1.57108e-07
1.65616e-07
1.81812e-07
2.074e-07
2.7079e-07
3.44445e-07
4.31686e-07
5.02973e-07
5.46048e-06
0.00159325
0.0507493
0.294112
0.697232
0.946454
0.99698
0.999951
1
1
1
1
1
5.06465e-07
5.55639e-07
5.64912e-07
5.68162e-07
5.84057e-07
6.07883e-07
6.87907e-07
1.40331e-06
5.01718e-06
2.48598e-05
0.000472811
0.0355639
0.248513
0.63856
0.922032
0.994739
0.999873
0.999999
1
1
1
1.00001
1.00034
9.88094e-06
1.20187e-05
1.74726e-05
3.05447e-05
6.37732e-05
0.000155396
0.000418762
0.00120033
0.00352758
0.0105811
0.032926
0.233748
0.642533
0.909525
0.991413
0.999746
0.999999
1
1.00001
1.00006
1.00061
1.00795
1.0693
0.00647328
0.00739752
0.00955596
0.0138988
0.0226005
0.0401642
0.0744302
0.14028
0.260104
0.467905
0.746565
0.909621
0.939228
0.991569
1.00067
1.00087
1.00102
1.00199
1.00596
1.02452
1.10148
1.42599
2.19846
0.380993
0.409001
0.468936
0.570366
0.730288
0.965315
1.28176
1.67523
2.09651
2.48401
2.66661
2.19555
1.36791
1.17206
1.13408
1.11378
1.12979
1.19144
1.35134
1.73525
2.36444
2.90828
2.99881
2.35495
2.4
2.48509
2.59987
2.73022
2.85213
2.93899
2.98232
2.99655
2.99895
2.99622
2.95994
2.73214
2.43189
2.3274
2.27125
2.34403
2.53838
2.80259
2.97361
2.99955
3
3
2.99898
2.9992
2.99955
2.99981
2.99994
2.99999
2.99999
3
2.99999
2.99998
2.99998
2.99997
2.99979
2.99848
2.99689
2.99644
2.99817
2.99968
2.99998
3
3
3
3
2.99999
2.99999
2.99999
2.99999
3
3
3
3
3
3
3
3
3
3
3
3
3
3
3
3
3
3
3
2.99999
2.99999
2.99999
2.99999
2.99999
2.99999
3
3
3
3
3
3
3
3
3
3
3
3
3
3
3
3
3
2.99999
2.99999
2.99999
2.99999
2.99999
2.99999
3
3
3
3
3
3
3
3
3
3
3
3
3
3
3
3
3
2.99999
2.99999
2.99999
3
3
3
3
3
3
3
3
3
3
3
3
3
3
3
3
3
3
3
3
3
3
3
3
3
3
3
3
3
3
3
3
3
3
3
3
3
3
3
3
3
3.00001
3.00001
3
3
3
3
3
3
3
3
3
3
3
3
3
3
3
3
3
3
3
3
3
3.00001
3.00001
3
3
3
3
3
3
3
3
3
3
3
3
3
3
3
3
3
3
3
3
3
3
3.00001
3
3
3
3
3
3
3
3
3
3
3
3
3
3
3
3
3
3
3
3
3
3
3
3
3
3
3
3
3
3
3
3
3
3
3
3
3
3
3
3
3
3
3
3
3
3
3
3
3
3
3
3
3
3
3
3
3
3
3
3
3
3
3
3
3
2.99999
2.99999
3
2.99999
3
3
3
3
3
3
3
3
3
3
3
3
3
3
3
3
3
3
3
3
3
2.99999
2.99999
3
3
3
3
3
3
3
3
3
3
3
3
3
3
3
3
3
3
3
3
2.99999
2.99999
2.99999
3
3
3
3
3
3
3
3
3
3
3
3
3
3
3
3
3
3
3
3
3
2.99999
3
3
3
3
3
3
3
3
3
3
3
3
3
3
3
3
3
3
3
3
3
3
3
2.99999
3
3
3
3
3
3
3
3
3
3
3
3
3
3
3
3
3
3
3
3
3
3
3
3
3
3
3
3
3
3
3
3
3
3
3
3
3
3
3
3
3
3
3
3
3
3
3
3
3
3
3
3
3
3
3
3
3
3
3
3
3
3
3
3
3
3
3
3
3
3
3
3
3
3
3
3
3
3
3
3
3
3
3
3
3
3
3
3
3
3
3
3
3
3
3
3
3
3
3
3
3
3
3
3
3
3
3
3
3
3
3
3
3
3
3
3
3
3
3
3
3
3
3
3
3
3
3
3
3
3
3
3
3
3
3
3
3
3
3
3
3
3
3
3
3
3
3
3
3
3
3
3
3
3
3
3
3
3
3
3
3
3
3
3
3
3
3
3
3
3
3
3
3
3
3
3
3
3
3
3
3
3
3
3
3
3
3
3
3
3
3
3
3
3
3
3
3
3
3
3
3
3
3
3
3
3
3
3
3
3
3
3
3
3
3
3
3
3
3
3
3
3
3
3
3
3
3
3
3
3
3
3
3
3
3
3
3
3
3
3
3
3
3
3
3
3
3
3
3
3
3
3
3
3
3
3
3
3
3
3
3
3
3
3
3
3
3
3
3
3
3
3
3
3
3
3
3
3
3
3
3
3
3
3
3
3
3
3
3
3
3
3
3
3
3
3
3
3
3
1.43307
1.21251
1.34532
2.41048
1.37213
1.29172
1.18546
1.21961
1.18591
1.1961
1.16622
1.11687
1.0398
1.06265
1.076
1.06957
1.00247
1.00605
1.01232
1.01888
1.00002
1.0001
1.00042
1.0013
1
1
1
1.00001
1
1
1
1
1
1.00001
1.0001
1.0006
1.00209
1.00847
1.0363
1.12038
1.21804
1.45342
1.98533
2.65237
2.81077
2.9694
2.99852
2.99998
3
2.99998
3
3
3
3
3
3
3
3
3
3
3
3
3
3
3
3
3
3
2.99999
3
3
3
3
3
3
3
3
3
3
3
3.00001
3.00001
3
3.00001
3
3
3.00001
3
3
3
3
3
2.99999
3
3
3
3
3
2.99999
3
2.99999
2.99999
2.99999
2.99999
3
2.99999
2.99999
2.99999
2.99999
2.99999
2.99999
2.99999
2.99999
2.99999
2.99999
2.99999
2.99999
2.99999
2.99999
2.99999
3
3
2.99999
2.99999
3
2.99999
2.99999
2.99999
3
3
2.99999
2.99999
3
3
3
3
3
3
3
3
3
3
3
3
3
3
3
3
3
3
3
3
3
3
3
3
3
3
3
3
3
3
3
3
3
3
3
3
2.93172
2.73655
1.72934
1.05307
1.00061
1
1
1
1.00002
1.00136
1.04014
1.58475
2.68242
2.98684
2.99994
3.00001
3.00001
3.00001
2.99996
1.43607
1.21672
1.02354
1.00062
1.00001
1
1
1.00005
1.00384
1.09651
1.84113
2.80803
2.99485
3
3.00001
3.00001
3.00001
3.00001
3.00001
1.0517
1.01126
1.00168
1.00017
1.00001
1
1.00008
1.00678
1.15576
2.03743
2.87
2.99738
3.00001
3.00001
3.00001
3.00001
3.00001
3.00001
3.00001
1.04191
1.01388
1.00293
1.00036
1.00004
1.00009
1.00781
1.19178
2.14395
2.89597
2.99822
3.00001
3.00001
3.00001
3.00001
3.00001
3.00001
3.00001
3.00001
1.01844
1.01104
1.00397
1.00079
1.00028
1.00862
1.19935
2.17344
2.90241
2.99826
3
3.00001
3.00001
3.00001
3.00001
3.00001
3.00001
3.00001
3.00001
1.00375
1.00474
1.00311
1.0013
1.01492
1.23564
2.24556
2.93355
2.99946
3
3.00001
3.00001
3.00001
3.00001
3.00001
3.00001
3.00001
3.00001
3.00001
1.00026
1.00116
1.00195
1.02507
1.34845
2.39998
2.95621
2.99967
3
3.00001
3.00001
3.00001
3.00001
3.00001
3.00001
3.00001
3.00001
3.00001
3.00001
1.00005
1.00364
1.06533
1.59357
2.66146
2.98946
2.99999
3
3.00001
3.00001
3.00001
3.00001
3.00001
3.00001
3.00001
3.00001
3.00001
3.00001
3.00001
1.01873
1.24749
2.10199
2.91049
2.99942
3
3
3
3.00001
3.00001
3.00001
3.00001
3.00001
3.00001
3.00001
3.00001
3.00001
3.00001
3.00001
1.67719
2.7464
2.99443
3
3
3
3
3
3.00001
3.00001
3.00001
3.00001
3.00001
3.00001
3.00001
3.00001
3.00001
3.00001
3
2.96983
2.99988
3
3
3
3
3
3
3.00001
3.00001
3.00001
3.00001
3.00001
3.00001
3.00001
3.00001
3.00001
3
3
2.99999
3
3
3
3
3
3
3
3.00001
3.00001
3.00001
3.00001
3.00001
3.00001
3
3
3
3
3
3
3
3
3
3
3
3
3
3
3
3.00001
3
3
3
3
3
3
3
3
3
3
3
3
3
3
3
3
3
3
3
3
3
3
3
3
3
3
3
3
3
3
3
3
3
3
3
3
3
3
3
3
3
3
3
3
3
3
3
3
2.99999
3
3
3
3
3
3
3
3
3
3
3
3
3
3
3
3
3
3
3
2.99999
2.99999
3
3
3
3
3
3
3
3
3
3
3
3
3
3
3
3
2.99999
2.99999
2.99999
2.99999
2.99999
2.99999
3
3
3
3
3
3
3
3
3
3
3
3
3
3
2.99999
2.99999
2.99999
2.99999
2.99999
2.99999
3
3
3
3
3
3
3
3
3
3
3
3
3
3
2.99999
2.99999
2.99999
2.99999
2.99999
3
3
3
3
3
3
3
3
3
3
3
3
3
3
3
3
2.99999
2.99999
3
3
3
3
3
3
3
3
3
3
3
3.00001
3
3
3
3
3
3
3
3
3
3
3
3
3
3
3
3
3
3
3
3
3
3
3
3
3
3
3
3
3
3
3
3
3
3
3
3
3
3
3
3
3
3
3
3
3
3
3
3
3
3
3
3
3
3
3
3
3
3
3
3
3
3
3
3
3
3
3
3
3
3
3
3
3
3
3
2.99999
2.99999
2.99999
3
3
3
3
3
3
3
3
3
3
3
3
3
3
3
3
2.99999
2.99999
2.99999
2.99999
3
3
3
3
3
3
3
3
3
3
3
3
3
3
3
2.99999
2.99999
2.99999
2.99999
2.99999
3
3
3
3
3
3
3
3
3
3
3
3
3
3
2.99999
2.99999
2.99999
2.99999
2.99999
3
3
3
3
3
3
3
3
3
3
3
3
3
3
2.99999
2.99999
2.99999
2.99999
2.99999
2.99999
3
3
3
3
3
3
3
3
3
3
3
3
3
2.99999
2.99999
2.99999
2.99999
2.99999
2.99999
3
3
3
3
3
3
3
3
3
3
3
3
3
2.99999
2.99999
2.99999
2.99999
2.99999
2.99999
3
3
3
3
3
3
3
3
3
3
3
3
3
2.99999
2.99999
2.99999
2.99999
2.99999
2.99999
3
3
3
3
3
3
3
3
3
3
3
3
3
2.99999
2.99999
2.99999
2.99999
2.99999
3
3
3
3
3
3
3
3
3
3
3
3
3
3
3
3
2.99999
2.99999
3
3
3
3
3
3
3
3
3
3
3
3
3
3
3
3
3
3
3
3
3
3
3
3
3
3
3
3
3
3
3
3
3
3
3
3
3
3
3
3
3
3
3
3
3
3
3
3
3
3
3
3
3
3
3
3
3
3
3
3
3
3
3
3
3
3
3
3
3
3
3
3
3
3
3
3
3
3
3
3
3
3
3
3
3
3
3
3
3
3
3
3
3
3
3
3
3
3
3
3
3
3
3
3
3
3
3
3
3
3
3
3
3
3
3
3
3
3
3
3
3
3
3
3
3
3
3
3
3
3
3
3
3
3
3
3
3
3
3
3
3
3
3
3
3
3
3
3
)
;

boundaryField
{
    leftWall
    {
        type            zeroGradient;
    }
    rightWall
    {
        type            zeroGradient;
    }
    lowerWall
    {
        type            zeroGradient;
    }
    atmosphere
    {
        type            zeroGradient;
    }
    defaultFaces
    {
        type            empty;
    }
}


// ************************************************************************* //
