/*--------------------------------*- C++ -*----------------------------------*\
| =========                 |                                                 |
| \\      /  F ield         | OpenFOAM: The Open Source CFD Toolbox           |
|  \\    /   O peration     | Version:  2.4.0                                 |
|   \\  /    A nd           | Web:      www.OpenFOAM.org                      |
|    \\/     M anipulation  |                                                 |
\*---------------------------------------------------------------------------*/
FoamFile
{
    version     2.0;
    format      ascii;
    class       volScalarField;
    location    "0.2";
    object      alpha.air;
}
// * * * * * * * * * * * * * * * * * * * * * * * * * * * * * * * * * * * * * //

dimensions      [0 0 0 0 0 0 0];

internalField   nonuniform List<scalar> 
2268
(
8.10385e-24
5.7201e-24
6.98662e-24
1.30132e-23
2.2188e-23
6.73616e-23
1.58856e-22
1.27199e-21
1.79459e-21
7.2168e-20
2.76293e-19
3.43275e-19
6.2384e-19
1.90777e-18
4.31397e-18
6.25367e-18
5.73264e-18
3.91373e-18
1.7862e-18
7.46429e-19
2.90524e-19
9.42662e-20
1.8857e-20
5.35572e-22
3.90049e-22
4.6709e-22
8.61627e-22
1.35072e-21
3.64782e-21
8.08797e-21
4.88616e-20
7.98013e-20
1.95481e-18
7.08623e-18
9.08315e-18
1.53691e-17
4.04746e-17
8.08918e-17
1.0328e-16
8.86292e-17
5.65146e-17
2.57714e-17
1.04682e-17
3.79151e-18
1.0935e-18
2.00864e-19
1.69835e-20
1.27842e-20
1.49818e-20
2.74788e-20
3.96728e-20
9.52138e-20
1.97401e-19
9.30482e-19
1.70681e-18
2.59302e-17
8.82629e-17
1.21281e-16
1.96712e-16
4.23628e-16
7.11203e-16
8.15466e-16
6.56279e-16
3.9641e-16
1.82381e-16
7.27312e-17
2.53143e-17
7.00523e-18
1.19259e-18
3.44769e-19
2.67946e-19
3.06593e-19
5.59731e-19
7.46566e-19
1.59414e-18
3.07614e-18
1.17346e-17
2.31832e-17
2.27124e-16
7.17341e-16
1.07993e-15
1.70394e-15
2.91335e-15
4.02112e-15
4.16043e-15
3.19275e-15
1.85309e-15
8.4994e-16
3.3358e-16
1.0877e-16
2.77506e-17
4.35669e-18
5.04779e-18
4.03046e-18
4.49367e-18
8.14055e-18
1.00775e-17
1.92289e-17
3.44906e-17
1.10111e-16
2.26119e-16
1.49144e-15
4.32235e-15
7.11758e-15
1.07247e-14
1.4615e-14
1.68366e-14
1.59812e-14
1.18669e-14
6.54691e-15
2.75896e-15
9.67112e-16
2.80867e-16
5.87372e-17
8.59242e-18
5.70042e-17
4.6339e-17
5.02782e-17
8.95669e-17
1.03661e-16
1.77963e-16
2.98428e-16
8.24656e-16
1.69372e-15
7.90216e-15
2.08452e-14
3.6191e-14
5.03053e-14
5.63506e-14
5.72933e-14
5.26507e-14
3.81828e-14
2.03971e-14
8.18032e-15
2.75659e-15
6.98895e-16
1.22437e-16
1.40389e-17
5.1891e-16
4.24288e-16
4.47978e-16
7.72354e-16
8.4435e-16
1.31758e-15
2.10441e-15
5.15127e-15
1.02556e-14
3.54101e-14
8.4613e-14
1.44518e-13
1.80716e-13
1.78758e-13
1.761e-13
1.51743e-13
1.0261e-13
5.36646e-14
2.2879e-14
8.28221e-15
2.09228e-15
3.58898e-16
2.80307e-17
3.92719e-15
3.19005e-15
3.2817e-15
5.35724e-15
5.60884e-15
8.09346e-15
1.27424e-14
2.75155e-14
5.11298e-14
1.41283e-13
2.9903e-13
4.66369e-13
5.2647e-13
4.97276e-13
4.61398e-13
3.64784e-13
2.25305e-13
1.09458e-13
4.42392e-14
1.46092e-14
3.65275e-15
6.20975e-16
4.69033e-17
0.84204
0.312228
0.0145987
0.00112849
0.00112849
0.00156473
0.00208815
0.00198257
0.00345785
0.0124999
0.0171709
0.0107749
0.00698651
0.0136758
0.124531
0.214079
0.182878
0.0435365
0.0120167
0.987089
0.963601
0.607633
0.0661116
0.00145033
0.000151256
0.000108321
2.08814e-05
6.40876e-06
6.73103e-06
1.01098e-05
1.29787e-05
9.8421e-05
0.00155774
0.000474173
0.000348029
0.00636225
0.0107902
0.011306
0.999921
0.999912
0.992015
0.757925
0.0982874
0.000417351
8.06194e-05
7.81114e-06
9.33913e-07
7.62173e-07
6.61822e-07
6.33339e-07
6.80116e-07
8.52004e-07
2.20602e-06
3.36389e-05
0.0019663
0.0218782
0.0147427
1
1
0.999766
0.965203
0.425211
0.00165806
9.90115e-05
4.12627e-06
5.93133e-07
4.26929e-07
3.39464e-07
3.41371e-07
3.73754e-07
2.25673e-06
7.14385e-05
0.00201648
0.114499
0.482616
0.0279782
1
1
0.999929
0.975054
0.193744
0.00433027
3.30346e-05
6.08192e-07
3.16814e-07
2.16532e-07
2.16556e-07
3.34649e-07
2.29808e-06
0.000153299
0.00752015
0.235096
0.800454
0.965096
0.170462
1
1
0.998826
0.804077
0.0693124
0.000886653
2.12905e-06
3.38687e-07
2.16532e-07
2.16532e-07
2.54076e-07
2.33202e-06
0.000231313
0.0134903
0.32731
0.882291
0.996454
0.999794
0.707386
1
1
0.977919
0.404714
0.0172315
8.34049e-05
3.87091e-07
2.16532e-07
2.16532e-07
2.16532e-07
2.8582e-07
0.000127768
0.0161869
0.358392
0.903725
0.998095
0.999997
1
0.975596
1
1
0.837126
0.14834
0.00307836
7.96508e-06
2.44541e-07
2.16532e-07
2.16533e-07
2.63359e-07
4.40575e-07
0.00744983
0.297487
0.874281
0.996458
0.999989
1
1
0.999479
2.53169e-14
2.0213e-14
2.03031e-14
3.06904e-14
3.13918e-14
4.32878e-14
6.88016e-14
1.24719e-13
2.08314e-13
5.40348e-13
9.15545e-13
1.25649e-12
1.26062e-12
1.21253e-12
1.04865e-12
7.4204e-13
4.17729e-13
1.82126e-13
6.42789e-14
1.83435e-14
4.44013e-15
9.63066e-16
1.67663e-16
2.50112e-13
1.94017e-13
1.90227e-13
2.61473e-13
2.69807e-13
3.72029e-13
5.37144e-13
7.66454e-13
1.1549e-12
3.21302e-12
3.40779e-12
4.74089e-12
3.92931e-12
3.46864e-12
2.8873e-12
1.82999e-12
9.53933e-13
3.88756e-13
1.27049e-13
3.35879e-14
7.7738e-15
1.74701e-15
4.47804e-16
2.11623e-12
1.60931e-12
1.55531e-12
2.00668e-12
2.22514e-12
2.75006e-12
2.75455e-12
3.43117e-12
5.72958e-12
3.27462e-11
4.35428e-11
9.51771e-11
4.94925e-11
1.57145e-11
7.04708e-12
3.67407e-12
1.76247e-12
6.988e-13
2.24806e-13
6.28091e-14
1.59371e-14
4.05889e-15
1.16685e-15
1.72633e-11
1.37518e-11
1.33573e-11
1.66529e-11
2.00193e-11
3.09651e-11
6.76687e-11
1.59916e-10
3.235e-10
1.0808e-09
1.0286e-09
6.45025e-10
3.5267e-10
1.85392e-10
5.6255e-11
6.74273e-12
2.71044e-12
1.02291e-12
3.24877e-13
9.75039e-14
2.99556e-14
1.22593e-14
7.57801e-15
4.8031e-10
5.03298e-10
5.0448e-10
5.91764e-10
7.27594e-10
9.70604e-10
1.4732e-09
2.3136e-09
3.40291e-09
5.70847e-09
5.38028e-09
3.42324e-09
2.03582e-09
7.64127e-10
1.40606e-10
9.69691e-12
3.42106e-12
1.19562e-12
4.12175e-13
2.84031e-13
3.65629e-13
6.83017e-13
1.29038e-12
1.96205e-09
2.32118e-09
2.41108e-09
2.74854e-09
3.30232e-09
4.08238e-09
5.24024e-09
7.14947e-09
9.20249e-09
1.23895e-08
1.13694e-08
9.02975e-09
4.13747e-09
1.09566e-09
1.45679e-10
8.42649e-12
3.36269e-12
1.44473e-12
1.48285e-12
3.89065e-12
2.37475e-11
1.31159e-10
3.59893e-10
7.19414e-09
8.03788e-09
8.64566e-09
9.57862e-09
1.12085e-08
1.29211e-08
1.47188e-08
1.81573e-08
2.03442e-08
2.56964e-08
2.33234e-08
1.21454e-08
3.53457e-09
6.33785e-10
5.96453e-11
5.6931e-12
3.24421e-12
3.56575e-12
1.9114e-11
2.96464e-10
1.49834e-09
3.83932e-09
7.23674e-09
2.05634e-08
2.08864e-08
2.20273e-08
2.33248e-08
2.54552e-08
2.70378e-08
2.94191e-08
3.76126e-08
5.10049e-08
7.66228e-08
3.25688e-08
7.65449e-09
1.2096e-09
1.97572e-10
1.37361e-11
6.41144e-12
6.45963e-12
4.16488e-11
1.06369e-09
7.2542e-09
1.62215e-08
3.09692e-08
4.76556e-08
4.56017e-08
5.00758e-08
5.23693e-08
5.52055e-08
6.0604e-08
6.91332e-08
9.0263e-08
1.14815e-07
1.43894e-07
1.6651e-07
7.96852e-08
4.12635e-08
8.66331e-09
3.21836e-10
9.68201e-12
1.00006e-11
2.15777e-11
1.88855e-09
1.53526e-08
3.76266e-08
7.35287e-08
1.03182e-07
2.51623e-07
1.68822e-07
1.85213e-07
1.88304e-07
1.89387e-07
1.94685e-07
2.02627e-07
2.29302e-07
4.6777e-07
1.67234e-06
8.20073e-06
3.94816e-05
3.46796e-05
4.19363e-06
7.76741e-08
2.82525e-09
8.16218e-08
1.05148e-08
1.64848e-07
1.07283e-07
1.84774e-07
3.04276e-07
5.38964e-06
0.000167443
3.29365e-06
4.00624e-06
5.8242e-06
1.01816e-05
2.12577e-05
5.17986e-05
0.000139587
0.00040011
0.00117585
0.00352158
0.00896139
0.00602662
0.000532824
2.6411e-05
1.96975e-06
2.84216e-05
1.97849e-06
1.35776e-06
3.52319e-06
2.87735e-05
0.000302538
0.0039737
0.0346502
0.00215776
0.00246584
0.00318532
0.00463294
0.0075335
0.0133881
0.0248101
0.04676
0.0867012
0.155898
0.239294
0.155855
0.0210221
0.0031033
0.00066631
0.000443395
0.000511798
0.00099241
0.00297797
0.0122577
0.0507374
0.212997
0.599228
0.126998
0.136334
0.156312
0.190122
0.243429
0.321772
0.427254
0.558409
0.698834
0.827811
0.875306
0.611576
0.189363
0.086658
0.067064
0.0568919
0.064894
0.0957177
0.175671
0.367627
0.682219
0.954139
0.999402
0.784985
0.799999
0.828363
0.866625
0.910073
0.950709
0.979662
0.994108
0.998848
0.999539
0.998116
0.979996
0.86621
0.715987
0.663701
0.635627
0.672017
0.769188
0.901293
0.986802
0.999772
0.999998
1
0.999661
0.999732
0.999849
0.999936
0.999981
0.999995
0.999998
0.999998
0.999996
0.999993
0.999992
0.999984
0.999894
0.999242
0.998445
0.998219
0.999086
0.999842
0.999991
1
1
1
1
0.999998
0.999998
0.999998
0.999998
0.999998
0.999998
0.999998
0.999998
0.999998
0.999999
0.999999
0.999999
0.999999
0.999999
0.999999
0.999999
1
1
1
1
1
0.999999
1
0.999998
0.999998
0.999998
0.999998
0.999998
0.999998
0.999998
0.999999
0.999999
0.999999
0.999999
0.999999
0.999999
0.999999
0.999999
0.999999
0.999998
0.999999
0.999999
0.999999
0.999999
0.999999
0.999999
0.999998
0.999998
0.999998
0.999998
0.999998
0.999998
0.999998
0.999999
0.999999
0.999999
0.999999
0.999999
0.999999
0.999999
0.999999
0.999998
0.999999
0.999999
0.999999
0.999999
0.999999
0.999999
0.999999
0.999998
0.999998
0.999998
0.999998
0.999998
0.999999
0.999999
0.999999
0.999999
0.999999
0.999999
1
1
0.999999
0.999999
0.999999
0.999999
0.999999
1
1
1
1
1
0.999999
0.999999
0.999999
0.999999
0.999999
0.999999
0.999999
0.999999
1
1
1
1
1
1
1
0.999999
0.999999
0.999999
1
1
1
1
1
0.999999
0.999999
0.999999
0.999999
0.999999
0.999999
1
1
1
1
1
1
1
1
0.999999
1
0.999999
0.999999
1
1
1
1
1
0.999999
0.999999
0.999999
0.999999
0.999999
1
1
1
1
1
1
1
1
1
1
0.999999
0.999999
0.999999
0.999999
1
1
1
1
0.999999
0.999999
0.999999
0.999999
1
1
1
1
1
1
1
1
1
1
0.999999
1
0.999999
0.999998
0.999998
0.999999
0.999999
1
1
0.999999
0.999999
0.999999
0.999999
1
1
1
1
1
1
1
1
1
1
1
0.999999
0.999999
0.999999
0.999998
0.999999
0.999999
0.999999
1
0.999999
0.999999
0.999999
1
1
1
1
1
1
1
1
1
1
1
0.999999
1
0.999999
0.999999
0.999998
0.999998
0.999998
0.999999
0.999998
0.999999
0.999999
0.999999
1
1
1
1
1
1
1
1
1
1
1
1
0.999999
0.999999
0.999999
0.999999
0.999999
0.999998
0.999998
0.999998
0.999999
0.999999
1
1
1
1
1
1
1
1
1
1
1
1
1
1
0.999999
0.999999
0.999999
0.999998
0.999998
0.999998
0.999997
0.999999
0.999999
1
1
1
1
1
1
1
1
1
1
1
1
1
0.999999
1
0.999999
0.999999
0.999999
0.999999
0.999998
0.999999
1
1
1
1
1
1
1
1
1
1
1
1
1
1
0.999999
1
1
1
0.999999
0.999999
0.999999
0.999999
0.999998
1
1
1
1
1
1
1
1
1
1
1
1
1
1
1
1
1
1
1
0.999999
0.999999
0.999999
0.999999
1
1
1
1
1
1
1
1
1
1
1
1
1
1
1
1
1
1
1
0.999999
0.999999
0.999999
0.999999
1
1
1
1
1
1
1
1
1
1
1
1
1
1
1
1
1
1
1
1
1
0.999999
1
1
1
1
1
1
1
1
1
1
1
1
1
1
1
1
1
1
1
1
1
1
1
0.999999
1
1
1
1
1
1
1
1
1
1
1
1
1
1
1
1
1
1
1
1
1
1
1
1
1
1
1
1
1
1
1
1
1
1
1
1
1
1
1
1
1
1
1
1
1
1
1
1
1
1
1
1
1
1
1
1
1
1
1
1
1
1
1
1
1
1
1
1
1
1
1
1
1
1
1
1
1
1
1
1
1
1
1
1
1
1
1
1
1
1
1
1
1
1
1
1
1
1
1
1
1
1
1
1
1
1
1
1
1
1
1
1
1
1
1
1
1
1
1
1
1
1
1
1
1
1
1
1
1
1
1
1
1
1
1
1
1
1
1
1
1
1
1
1
1
1
1
1
1
1
1
1
1
1
0.999999
0.999999
0.999999
0.999999
1
1
1
1
1
1
1
1
1
1
1
1
1
1
1
1
1
1
0.999999
0.999999
0.999999
0.999999
0.999999
0.999999
1
1
1
1
1
1
1
1
1
1
1
1
1
1
1
1
1
1
1
1
1
1
1
1
1
7.8934e-17
0.00138404
0.140041
0.701042
2.08006e-16
7.02545e-05
0.00846885
0.0703549
6.10232e-16
4.17277e-07
5.53487e-05
0.000516033
1.51645e-13
4.34297e-10
2.7733e-08
1.44136e-07
1.69679e-12
3.19049e-12
6.22291e-12
1.73529e-11
6.2137e-10
1.01951e-09
1.46065e-09
1.98306e-09
1.02123e-08
1.63531e-08
1.89098e-08
2.6083e-08
7.10437e-08
1.06364e-07
1.8393e-07
2.56661e-07
9.40603e-07
6.21426e-06
4.97035e-05
0.000297473
0.00104492
0.00423374
0.0181494
0.060189
0.10902
0.226709
0.492665
0.826185
0.905385
0.984698
0.999259
0.999989
1
0.999991
1
1
1
1
1
1
1
1
1
0.999999
1
1
0.999999
0.999999
0.999999
0.999999
0.999999
0.999999
0.999998
0.999999
0.999999
0.999999
1
1
1
1
1
1
1
1
1
1
1
1
1
1
1
1
1
1
1
1
0.999998
0.999999
1
1
0.999999
0.999999
0.999998
0.999999
0.999996
0.999997
0.999998
0.999997
0.999998
0.999998
0.999997
0.999997
0.999996
0.999996
0.999997
0.999997
0.999998
0.999998
0.999997
0.999997
0.999997
0.999997
0.999998
0.999997
0.999999
0.999999
0.999997
0.999998
0.999999
0.999998
0.999998
0.999998
0.999999
0.999999
0.999998
0.999998
1
0.999999
0.999999
0.999998
1
0.999999
0.999999
0.999999
1
0.999999
0.999999
0.999999
1
1
0.999999
0.999999
1
1
0.999999
0.999999
1
0.999999
1
0.999999
1
1
1
1
1
1
1
1
0.999999
1
1
1
0.965833
0.868261
0.364626
0.0265099
0.000299902
7.35116e-07
2.44758e-07
2.67508e-07
8.93105e-06
0.000680186
0.020071
0.292376
0.84121
0.993418
0.999969
1
1
1
0.999975
0.210655
0.106152
0.0113244
0.000248597
1.49074e-06
1.20872e-07
2.54097e-07
2.61988e-05
0.00192224
0.0482566
0.420566
0.904014
0.997423
0.999997
1
1
1
1
1
0.00140654
0.000242327
8.98468e-06
8.47512e-08
6.38112e-08
1.21225e-07
3.98929e-05
0.00338892
0.0778811
0.518713
0.934998
0.998689
1
1
1
1
1
1
1
1.12576e-07
1.46784e-08
5.82791e-09
5.8206e-09
9.73213e-08
3.87899e-05
0.00390217
0.0958896
0.571973
0.947985
0.999106
1
1
1
1
1
1
1
1
1.97715e-11
4.49753e-11
2.81785e-08
3.30441e-07
6.12283e-05
0.00429841
0.0996726
0.586718
0.951203
0.999131
1
1
1
1
1
1
1
1
1
7.71411e-09
1.08642e-07
1.07438e-06
0.000106598
0.00731013
0.117813
0.622782
0.966777
0.999728
1
1
1
1
1
1
1
1
1
1
1.09104e-06
6.13389e-05
0.000360707
0.0121656
0.17415
0.699989
0.978105
0.999832
1
1
1
1
1
1
1
1
1
1
1
2.30639e-05
0.00179863
0.0325964
0.29673
0.830724
0.99473
0.999995
1
1
1
1
1
1
1
1
1
1
1
1
0.00936529
0.123743
0.550994
0.955245
0.999713
1
1
1
1
1
1
1
1
1
1
1
1
1
1
0.338593
0.8732
0.997217
0.999998
1
1
1
1
1
1
1
1
1
1
1
1
1
1
1
0.984913
0.99994
0.999998
0.999999
1
1
1
1
1
1
1
1
1
1
1
1
1
1
1
0.999993
0.999999
0.999999
0.999999
1
1
1
1
1
1
1
1
1
1
1
1
1
1
1
0.999999
0.999999
0.999999
0.999999
0.999999
1
1
1
1
1
1
1
1
1
1
1
1
1
1
0.999999
0.999999
0.999999
0.999999
0.999999
0.999999
1
1
1
1
1
1
1
1
1
1
1
1
1
0.999999
0.999998
0.999998
0.999998
0.999999
0.999999
0.999999
1
1
1
1
1
1
1
1
1
1
1
1
0.999999
0.999999
0.999998
0.999998
0.999998
0.999999
0.999999
0.999999
0.999999
1
1
1
1
1
1
1
1
1
1
0.999999
0.999998
0.999998
0.999998
0.999998
0.999998
0.999999
0.999999
0.999999
0.999999
1
1
1
1
1
1
1
1
1
0.999999
0.999998
0.999998
0.999998
0.999998
0.999998
0.999998
0.999998
0.999998
0.999999
0.999999
1
1
1
1
1
1
1
1
1
0.999999
0.999999
0.999998
0.999998
0.999998
0.999998
0.999998
0.999998
0.999999
0.999999
0.999999
1
1
1
1
1
1
1
1
1
0.999999
0.999999
0.999998
0.999998
0.999998
0.999998
0.999998
0.999999
0.999999
0.999999
0.999999
1
1
1
1
1
1
1
1
1
0.999999
0.999999
0.999998
0.999998
0.999998
0.999998
0.999999
0.999999
0.999999
0.999999
1
1
1
1
1
1
1
1
1
1
0.999999
0.999999
0.999999
0.999999
0.999999
0.999999
0.999999
0.999999
1
1
1
1
0.999999
0.999999
0.999999
1
1
1
1
0.999999
0.999999
0.999999
0.999999
0.999999
0.999999
0.999999
1
1
1
1
1
0.999999
1
0.999999
1
1
1
1
0.999999
0.999999
0.999999
0.999999
0.999999
0.999999
1
1
1
1
1
1
1
0.999999
1
0.999999
0.999999
0.999999
0.999999
0.999999
0.999999
0.999999
0.999999
0.999999
0.999999
1
1
1
1
1
1
1
1
0.999999
0.999998
0.999998
0.999998
0.999998
0.999999
0.999999
0.999999
0.999999
0.999999
0.999999
1
1
1
1
1
1
1
1
1
0.999997
0.999997
0.999998
0.999998
0.999998
0.999999
0.999999
0.999999
0.999999
0.999999
0.999999
1
1
1
1
1
1
1
1
0.999997
0.999997
0.999997
0.999998
0.999998
0.999999
0.999999
0.999999
0.999999
0.999999
0.999999
1
1
1
1
1
1
1
1
0.999997
0.999997
0.999997
0.999997
0.999998
0.999998
0.999999
0.999999
0.999999
0.999999
0.999999
1
1
1
1
1
1
1
1
0.999997
0.999997
0.999997
0.999997
0.999998
0.999998
0.999999
0.999999
0.999999
0.999999
0.999999
1
1
1
1
1
1
1
1
0.999997
0.999997
0.999997
0.999997
0.999998
0.999998
0.999998
0.999999
0.999999
0.999999
0.999999
1
1
1
1
1
1
1
1
0.999998
0.999997
0.999997
0.999997
0.999998
0.999998
0.999998
0.999999
0.999999
0.999999
1
1
1
1
1
1
1
1
1
0.999998
0.999998
0.999998
0.999998
0.999998
0.999998
0.999999
0.999999
0.999999
0.999999
1
1
1
1
1
1
1
1
1
0.999998
0.999998
0.999998
0.999998
0.999998
0.999998
0.999999
0.999999
0.999999
0.999999
1
1
1
1
1
1
1
0.999999
1
0.999999
0.999998
0.999998
0.999998
0.999998
0.999999
0.999999
0.999999
0.999999
0.999999
1
1
1
1
1
1
0.999999
1
0.999999
0.999999
0.999999
0.999999
0.999999
0.999999
0.999999
0.999999
0.999999
0.999999
0.999999
0.999999
1
1
1
1
1
1
0.999999
1
0.999999
0.999999
0.999999
0.999999
0.999999
0.999999
0.999999
0.999999
0.999999
0.999999
0.999999
0.999999
0.999999
0.999999
1
1
0.999999
1
0.999999
0.999999
0.999999
0.999999
0.999999
0.999999
0.999999
0.999999
0.999999
0.999999
0.999999
0.999999
0.999999
0.999999
0.999999
1
1
1
0.999999
1
1
0.999999
0.999999
0.999999
0.999999
0.999999
0.999999
0.999999
0.999999
0.999999
1
1
1
1
1
1
1
0.999999
1
1
0.999999
0.999999
0.999999
1
1
1
1
1
1
1
1
1
1
1
1
1
1
1
1
1
1
0.999999
1
0.999999
1
0.999999
1
1
1
1
1
1
1
1
1
1
1
1
1
1
1
1
1
0.999999
0.999999
0.999999
0.999999
0.999999
1
1
1
1
1
1
1
1
)
;

boundaryField
{
    leftWall
    {
        type            alphaContactAngle;
        thetaProperties 6 ( ( water mercury ) 90 0 0 0 ( water air ) 90 0 0 0 ( water oil ) 90 0 0 0 ( mercury air ) 90 0 0 0 ( oil mercury ) 90 0 0 0 ( oil air ) 90 0 0 0 );
        value           nonuniform List<scalar> 
50
(
8.10385e-24
5.35572e-22
1.69835e-20
3.44769e-19
5.04779e-18
5.70042e-17
5.1891e-16
3.92719e-15
2.53169e-14
2.50112e-13
2.11623e-12
1.72633e-11
4.8031e-10
1.96205e-09
7.19414e-09
2.05634e-08
4.56017e-08
1.68822e-07
3.29365e-06
0.00215776
0.126998
0.784985
0.999661
0.999998
0.999998
0.999998
0.999998
0.999999
0.999999
0.999999
0.999999
0.999999
0.999999
0.999999
0.999999
0.999999
1
1
1
1
1
1
1
1
1
1
1
1
1
1
)
;
    }
    rightWall
    {
        type            alphaContactAngle;
        thetaProperties 6 ( ( water mercury ) 90 0 0 0 ( water air ) 90 0 0 0 ( water oil ) 90 0 0 0 ( mercury air ) 90 0 0 0 ( oil mercury ) 90 0 0 0 ( oil air ) 90 0 0 0 );
        value           nonuniform List<scalar> 
50
(
0.0120167
0.011306
0.0147427
0.0279782
0.170462
0.707386
0.975596
0.999479
0.999975
1
1
1
1
1
1
1
1
1
1
1
1
1
1
1
1
1
1
1
1
0.999999
0.999999
1
0.999999
1
1
1
1
1
1
1
1
1
0.999999
1
0.999999
1
1
1
1
1
)
;
    }
    lowerWall
    {
        type            alphaContactAngle;
        thetaProperties 6 ( ( water mercury ) 90 0 0 0 ( water air ) 90 0 0 0 ( water oil ) 90 0 0 0 ( mercury air ) 90 0 0 0 ( oil mercury ) 90 0 0 0 ( oil air ) 90 0 0 0 );
        value           nonuniform List<scalar> 
62
(
8.10385e-24
5.7201e-24
6.98662e-24
1.30132e-23
2.2188e-23
6.73616e-23
1.58856e-22
1.27199e-21
1.79459e-21
7.2168e-20
2.76293e-19
3.43275e-19
6.2384e-19
1.90777e-18
4.31397e-18
6.25367e-18
5.73264e-18
3.91373e-18
1.7862e-18
7.46429e-19
2.90524e-19
9.42662e-20
1.8857e-20
1.8857e-20
2.00864e-19
1.19259e-18
4.35669e-18
8.59242e-18
1.40389e-17
2.80307e-17
4.69033e-17
7.8934e-17
0.00138404
0.140041
0.701042
0.84204
0.987089
0.999921
1
1
1
1
1
0.84204
0.312228
0.0145987
0.00112849
0.00112849
0.00156473
0.00208815
0.00198257
0.00345785
0.0124999
0.0171709
0.0107749
0.00698651
0.0136758
0.124531
0.214079
0.182878
0.0435365
0.0120167
)
;
    }
    atmosphere
    {
        type            inletOutlet;
        inletValue      uniform 1;
        value           nonuniform List<scalar> 
46
(
1
1
1
1
1
1
1
1
1
1
1
1
1
1
1
1
1
1
1
1
1
1
1
0.999999
1
1
1
1
1
1
1
1
1
0.999999
0.999999
0.999999
0.999999
0.999999
1
1
1
1
1
1
1
1
)
;
    }
    defaultFaces
    {
        type            empty;
    }
}


// ************************************************************************* //
