/*--------------------------------*- C++ -*----------------------------------*\
| =========                 |                                                 |
| \\      /  F ield         | OpenFOAM: The Open Source CFD Toolbox           |
|  \\    /   O peration     | Version:  2.4.0                                 |
|   \\  /    A nd           | Web:      www.OpenFOAM.org                      |
|    \\/     M anipulation  |                                                 |
\*---------------------------------------------------------------------------*/
FoamFile
{
    version     2.0;
    format      ascii;
    class       volScalarField;
    location    "0.2";
    object      alpha.oil;
}
// * * * * * * * * * * * * * * * * * * * * * * * * * * * * * * * * * * * * * //

dimensions      [0 0 0 0 0 0 0];

internalField   nonuniform List<scalar> 
2268
(
1.2202e-40
1.72237e-38
1.59664e-36
1.34252e-34
8.9868e-33
7.8396e-31
3.92111e-29
2.32979e-27
1.67873e-19
1.02003e-14
6.08776e-12
4.14634e-10
8.58616e-09
5.79401e-08
3.25072e-07
1.14313e-06
2.90738e-06
6.04463e-06
1.09434e-05
2.03252e-05
0.000159605
0.000907787
0.00152965
1.77167e-38
2.32351e-36
1.95664e-34
1.46365e-32
8.71383e-31
6.47404e-29
2.97685e-27
1.22704e-25
6.78345e-18
2.37592e-13
9.9481e-11
3.99769e-09
3.7314e-08
2.80442e-07
1.31145e-06
4.11817e-06
9.0446e-06
1.38553e-05
1.7022e-05
2.35143e-05
0.000161571
0.00105888
0.00211957
1.26434e-36
1.54343e-34
1.18226e-32
7.85665e-31
4.15468e-29
2.61475e-27
1.09058e-25
3.23009e-24
1.20647e-16
2.42769e-12
8.32016e-10
1.79367e-08
1.3424e-07
1.30547e-06
7.692e-06
4.23891e-05
0.000199923
0.000563845
0.000646237
0.000415454
0.000315074
0.00117046
0.00254585
5.9126e-35
6.73151e-33
4.69809e-31
2.77234e-29
1.29996e-27
6.89779e-26
2.57446e-24
5.67747e-23
1.23133e-15
1.39196e-11
4.7419e-09
6.02072e-08
1.90162e-06
2.58065e-05
0.000284671
0.00199351
0.00998785
0.0286803
0.0519066
0.0413792
0.0151213
0.00315246
0.00290883
2.03751e-33
2.16752e-31
1.38077e-29
7.24073e-28
3.00403e-26
1.33936e-24
4.41698e-23
7.45712e-22
7.9932e-15
4.81609e-11
2.02414e-08
1.3136e-06
2.46858e-05
0.000325507
0.00356607
0.0232333
0.0947333
0.236234
0.44117
0.598513
0.37291
0.0520309
0.00398357
5.51581e-32
5.49158e-30
3.19827e-28
1.49286e-26
5.4724e-25
2.04329e-23
5.88914e-22
7.77962e-21
3.39965e-14
1.03487e-10
1.82782e-07
1.02548e-05
0.000141271
0.00178792
0.0147791
0.0713862
0.192706
0.361949
0.544631
0.79282
0.810575
0.232048
0.00968664
1.22114e-30
1.13901e-28
6.07242e-27
2.52854e-25
8.18827e-24
2.55218e-22
6.36747e-21
6.65411e-20
9.20812e-14
5.99018e-10
5.63109e-07
3.40404e-05
0.00046447
0.00424482
0.0205229
0.0791733
0.17598
0.34156
0.604912
0.855205
0.94946
0.52603
0.031454
2.27266e-29
1.98632e-27
9.70056e-26
3.61217e-24
1.0342e-22
2.6854e-21
5.73725e-20
4.77206e-19
2.06673e-13
1.77834e-09
8.28397e-07
5.6587e-05
0.000752634
0.00363124
0.0196443
0.065124
0.15713
0.367911
0.705593
0.934357
0.987507
0.819692
0.0779532
0.157969
0.687779
0.985407
0.998876
0.998876
0.998439
0.997915
0.99802
0.996545
0.987503
0.982833
0.989229
0.993017
0.986328
0.875473
0.785926
0.817128
0.95647
0.98799
0.012922
0.0364106
0.392377
0.933894
0.998554
0.999851
0.999894
0.999981
0.999995
0.999995
0.999991
0.999988
0.999903
0.998444
0.999528
0.999655
0.993641
0.989214
0.988698
9.07975e-05
0.000100478
0.00799742
0.242084
0.901717
0.999585
0.999921
0.999993
1
1
1
1
1
1
0.999999
0.999967
0.998036
0.978125
0.985261
1.17511e-05
1.26265e-05
0.000245789
0.0348052
0.574794
0.998344
0.999902
0.999997
1
1
1
1
1
0.999998
0.999929
0.997984
0.885504
0.517389
0.972025
1.1689e-05
1.34203e-05
8.56553e-05
0.0249548
0.80626
0.995672
0.999968
1
1
1
1
1
0.999998
0.999847
0.992481
0.764906
0.199549
0.0349096
0.829542
1.13108e-05
1.22431e-05
0.00118739
0.195931
0.930691
0.999115
0.999998
1
1
1
1
0.999998
0.999769
0.986511
0.672692
0.117712
0.00355078
0.00021248
0.292618
1.08622e-05
1.09207e-05
0.0220917
0.595292
0.98277
0.999917
1
1
1
1
1
0.999873
0.983814
0.64161
0.0962776
0.00190872
7.48836e-06
5.7969e-06
0.024408
1.03294e-05
1.15777e-05
0.162883
0.851656
0.996918
0.999992
1
1
1
1
1
0.992551
0.702514
0.125722
0.00354565
1.4975e-05
4.99025e-06
5.31214e-06
0.000524991
3.62705e-28
2.9675e-26
1.32735e-24
4.42964e-23
1.12271e-21
2.43045e-20
4.37858e-19
2.92125e-18
4.63929e-13
2.78768e-09
8.82202e-07
4.87144e-05
0.000406774
0.00271383
0.0150824
0.0464763
0.151814
0.427523
0.797402
0.97499
0.998029
0.924731
0.345949
9.25622e-27
7.04955e-25
2.87373e-23
8.5729e-22
1.90984e-20
3.42719e-19
4.92907e-18
2.68758e-17
1.01041e-12
1.68879e-09
1.66178e-07
1.17409e-05
0.000125848
0.00117703
0.00740616
0.0371707
0.154416
0.460735
0.831748
0.983791
0.999617
0.973603
0.689918
1.8992e-25
1.34366e-23
5.01521e-22
1.35032e-20
2.66462e-19
3.97603e-18
4.40366e-17
2.01781e-16
5.65377e-13
1.55163e-11
6.58855e-08
1.02141e-05
0.000121868
0.000982963
0.00776406
0.0441601
0.177613
0.486372
0.842547
0.984423
0.999683
0.992327
0.90673
3.30298e-24
2.14619e-22
7.33881e-21
1.74262e-19
3.04413e-18
3.79068e-17
3.19581e-16
1.21242e-15
3.52491e-15
1.74083e-13
2.38497e-07
1.75284e-05
0.000214707
0.00244257
0.0185321
0.0869614
0.274486
0.597319
0.888298
0.989339
0.999795
0.99868
0.986311
4.75188e-23
2.82563e-21
8.80437e-20
1.8305e-18
2.8509e-17
3.00801e-16
1.91884e-15
6.10664e-15
1.65326e-14
4.71166e-13
4.81729e-07
3.60619e-05
0.00051556
0.00623282
0.0424489
0.173654
0.451592
0.778332
0.956247
0.996888
0.999955
0.999935
0.999385
5.6546e-22
3.07937e-20
8.69876e-19
1.60267e-17
2.22718e-16
2.03356e-15
9.80345e-15
2.64021e-14
6.93706e-14
3.88942e-12
6.54967e-07
6.08375e-05
0.00113262
0.0143677
0.0899298
0.31636
0.667187
0.920496
0.992186
0.999756
0.999998
1
0.999997
5.76933e-21
2.85565e-19
7.25045e-18
1.18503e-16
1.48745e-15
1.18007e-14
4.30475e-14
9.78048e-14
2.68676e-13
3.21395e-11
7.15818e-07
9.36291e-05
0.0028464
0.0369183
0.197351
0.539656
0.863182
0.983959
0.999417
0.999995
1
1
1
5.14303e-20
2.29952e-18
5.20988e-17
7.50963e-16
8.63778e-15
5.86329e-14
1.63959e-13
3.14399e-13
1.05487e-12
4.23803e-10
7.32007e-07
0.000165312
0.00967174
0.104923
0.4091
0.792257
0.971551
0.998762
0.999986
1
1
1
1
4.07305e-19
1.63058e-17
3.26605e-16
4.10751e-15
4.40764e-14
2.47662e-13
5.49855e-13
9.0775e-13
5.06994e-12
3.44356e-09
5.22142e-06
0.00159313
0.0507493
0.294112
0.697232
0.946454
0.99698
0.999951
1
1
1
1
1
2.88602e-18
1.02734e-16
1.80167e-15
1.9626e-14
1.98784e-13
8.82051e-13
1.61468e-12
2.41462e-12
1.74736e-10
2.57622e-07
0.000354367
0.0354599
0.248501
0.63856
0.922032
0.994739
0.999873
0.999999
1
1
1
0.999995
0.999833
1.84422e-17
5.79311e-16
8.79724e-15
8.32373e-14
7.79805e-13
2.62666e-12
3.67345e-12
2.16831e-11
3.98214e-08
1.63787e-05
0.00604187
0.215669
0.640935
0.909446
0.991407
0.999661
0.999993
0.999999
0.999997
0.999972
0.999698
0.996027
0.96535
1.07036e-16
2.94428e-15
3.81908e-14
3.27425e-13
2.59873e-12
6.80785e-12
4.29317e-11
4.52642e-09
9.2896e-07
0.000212422
0.0286833
0.442056
0.876161
0.982259
0.998669
0.999539
0.999487
0.999008
0.997023
0.987743
0.949263
0.787004
0.400773
5.67534e-16
1.35877e-14
1.47805e-13
1.32992e-12
7.99577e-12
1.1837e-10
1.74298e-09
9.41704e-08
4.53243e-06
0.000580447
0.0406895
0.360827
0.799827
0.912085
0.932892
0.943107
0.935106
0.904283
0.82433
0.632374
0.317782
0.0458619
0.000598413
2.76409e-15
5.73941e-14
5.12713e-13
6.41031e-12
8.90923e-11
9.2295e-10
1.27696e-08
2.88587e-07
1.03251e-05
0.000334404
0.00186877
0.0199507
0.133506
0.283925
0.336295
0.364374
0.327984
0.230813
0.0987081
0.0131987
0.000229166
2.30166e-06
3.4621e-07
1.23299e-14
2.21416e-13
1.63296e-12
3.38442e-11
3.58245e-10
3.11449e-09
4.2812e-08
4.78879e-07
3.39881e-06
6.66933e-06
7.25568e-06
1.51701e-05
0.000104414
0.000757376
0.00155477
0.00178158
0.000914066
0.000159131
1.03306e-05
1.1619e-06
6.94895e-07
7.91749e-07
2.7339e-07
2.13408e-14
3.9706e-13
4.55373e-12
9.89029e-11
1.0275e-09
8.35414e-09
5.95611e-08
2.65993e-07
4.37509e-07
2.79156e-07
7.01057e-08
3.20165e-08
8.7667e-08
3.30191e-07
6.78788e-07
5.79763e-07
5.70025e-07
6.29739e-07
1.06468e-06
6.97816e-07
6.13585e-07
3.06854e-07
2.69853e-07
2.58949e-15
6.24575e-14
8.51397e-13
1.13726e-11
1.64665e-10
1.79884e-09
1.26769e-08
3.26109e-08
1.97015e-08
1.02461e-08
2.48494e-09
5.74545e-09
3.59341e-08
1.43405e-07
2.20708e-07
5.28573e-07
5.29689e-07
6.16614e-07
1.07035e-06
6.39518e-07
3.2462e-07
3.37441e-07
1.31866e-07
2.1328e-16
1.2264e-14
3.81589e-13
7.43615e-12
8.71763e-11
5.64508e-10
1.30606e-09
1.40396e-09
7.72422e-10
2.51952e-10
3.99146e-10
2.04063e-09
9.80647e-09
5.1281e-08
1.7711e-07
2.33883e-07
5.98281e-07
7.52884e-07
9.80182e-07
3.41139e-07
1.95834e-07
1.21092e-07
1.19259e-07
4.84046e-17
3.60064e-15
1.12565e-13
1.70619e-12
1.03384e-11
4.04709e-11
6.52942e-11
4.11078e-11
4.08241e-11
4.58915e-11
2.26894e-10
7.41744e-10
6.59002e-09
4.5257e-08
9.94768e-08
3.60763e-07
5.38703e-07
8.7282e-07
7.61657e-07
4.56674e-07
2.68862e-07
1.27781e-07
6.24411e-08
2.2847e-17
1.45474e-15
3.72897e-14
4.61022e-13
2.6242e-12
4.9697e-12
7.04849e-12
4.93373e-12
6.38257e-12
2.69079e-11
1.31598e-10
5.31124e-10
4.76614e-09
2.01497e-08
9.71283e-08
1.61831e-07
4.53642e-07
8.55995e-07
7.88963e-07
6.28892e-07
3.89771e-07
1.6713e-07
4.71866e-08
5.19267e-25
9.38945e-23
8.09109e-21
4.3052e-19
1.56213e-17
4.05948e-16
7.79202e-15
1.13275e-13
1.27695e-12
1.13172e-11
8.45086e-11
5.00634e-10
2.30403e-09
8.50531e-09
2.49546e-08
1.06546e-07
1.90064e-07
3.0531e-07
4.26716e-07
4.67847e-07
3.43423e-07
1.68724e-07
4.52574e-08
1.39957e-25
2.05117e-23
1.42003e-21
6.11948e-20
1.83576e-18
4.09357e-17
7.10587e-16
9.92853e-15
1.14031e-13
1.08445e-12
8.45175e-12
5.27889e-11
2.6051e-10
1.04762e-09
4.80802e-09
1.39435e-08
5.27478e-08
1.19795e-07
1.43886e-07
1.5115e-07
1.27343e-07
7.48771e-08
2.437e-08
5.8803e-27
7.02144e-25
3.96203e-23
1.40318e-21
3.48909e-20
6.45977e-19
9.21694e-18
1.03565e-16
9.3242e-16
6.89295e-15
4.46082e-14
2.95443e-13
2.32809e-12
1.95058e-11
1.36979e-10
7.85372e-10
2.57327e-09
1.20198e-08
1.94429e-08
2.94671e-08
2.57712e-08
1.62004e-08
5.4705e-09
9.23781e-28
1.10414e-25
6.23106e-24
2.20854e-22
5.51203e-21
1.0294e-19
1.4933e-18
1.72586e-17
1.61936e-16
1.25212e-15
8.11132e-15
4.58862e-14
2.54774e-13
1.65737e-12
1.2384e-11
8.16692e-11
4.10492e-10
1.18115e-09
3.76014e-09
4.58977e-09
4.15572e-09
1.73386e-09
2.52999e-10
6.02933e-29
7.95577e-27
4.97524e-25
1.96209e-23
5.47252e-22
1.14745e-20
1.87779e-19
2.45984e-18
2.62555e-17
2.31291e-16
1.69895e-15
1.05027e-14
5.51034e-14
2.47994e-13
9.68229e-13
3.25145e-12
8.43069e-12
3.36419e-11
1.53267e-10
2.60112e-10
2.95036e-10
2.61023e-10
1.2383e-10
2.77707e-30
4.09695e-28
2.86373e-26
1.26401e-24
3.95221e-23
9.30769e-22
1.71463e-20
2.53429e-19
3.05886e-18
3.05115e-17
2.53612e-16
1.76854e-15
1.04069e-14
5.19252e-14
2.20369e-13
7.93829e-13
2.39444e-12
5.72241e-12
1.18626e-11
2.25161e-11
3.01086e-11
2.81714e-11
1.5481e-11
1.9714e-32
3.12171e-30
2.35164e-28
1.1224e-26
3.80904e-25
9.77046e-24
1.96632e-22
3.18248e-21
4.21519e-20
4.6301e-19
4.26407e-18
3.32048e-17
2.19801e-16
1.23972e-15
5.96039e-15
2.44161e-14
8.4959e-14
2.49623e-13
6.12596e-13
1.22993e-12
1.94266e-12
2.24676e-12
1.62425e-12
8.67892e-35
1.49338e-32
1.22246e-30
6.35266e-29
2.35299e-27
6.60882e-26
1.46227e-24
2.61468e-23
3.847e-22
4.71892e-21
4.87358e-20
4.26944e-19
3.19092e-18
2.04336e-17
1.12358e-16
5.30345e-16
2.14296e-15
7.36591e-15
2.13005e-14
5.08685e-14
9.71727e-14
1.39858e-13
1.33048e-13
2.60172e-37
4.89929e-35
4.40116e-33
2.51599e-31
1.02797e-29
3.19437e-28
7.84455e-27
1.56206e-25
2.5688e-24
3.53662e-23
4.11895e-22
4.09002e-21
3.48212e-20
2.55128e-19
1.6122e-18
8.79097e-18
4.12856e-17
1.66189e-16
5.6813e-16
1.62268e-15
3.76284e-15
6.72568e-15
8.32487e-15
5.42462e-40
1.1309e-37
1.12557e-35
7.14259e-34
3.24687e-32
1.12553e-30
3.09264e-29
6.91346e-28
1.28091e-26
1.99424e-25
2.63639e-24
2.98319e-23
2.90681e-22
2.44957e-21
1.7898e-20
1.13459e-19
6.23085e-19
2.95143e-18
1.19578e-17
4.08375e-17
1.14655e-16
2.53134e-16
4.02898e-16
8.0673e-43
1.87588e-40
2.08603e-38
1.48183e-36
7.55699e-35
2.94622e-33
9.13025e-32
2.30909e-30
4.85652e-29
8.61416e-28
1.30233e-26
1.69189e-25
1.90025e-24
1.85321e-23
1.57358e-22
1.16443e-21
7.50054e-21
4.18966e-20
2.01429e-19
8.22806e-19
2.79406e-18
7.59715e-18
1.54352e-17
8.5021e-46
2.22967e-43
2.79969e-41
2.24959e-39
1.30029e-37
5.75877e-36
2.0324e-34
5.86969e-33
1.41384e-31
2.88074e-30
5.0186e-29
7.53711e-28
9.81898e-27
1.11457e-25
1.10549e-24
9.59161e-24
7.2738e-23
4.80573e-22
2.74836e-21
1.3454e-20
5.53412e-20
1.85443e-19
4.79693e-19
6.30534e-49
1.88604e-46
2.70473e-44
2.48611e-42
1.64673e-40
8.37388e-39
3.40052e-37
1.1326e-35
3.1538e-34
7.44709e-33
1.50741e-31
2.63736e-30
4.01353e-29
5.33701e-28
6.22004e-27
6.36252e-26
5.71015e-25
4.48494e-24
3.06641e-23
1.80804e-22
9.0533e-22
3.75451e-21
1.23797e-20
3.20937e-52
1.10976e-49
1.8415e-47
1.96106e-45
1.50697e-43
8.90361e-42
4.20776e-40
1.63384e-38
5.31379e-37
1.46844e-35
3.4859e-34
7.16865e-33
1.28537e-31
2.01916e-30
2.78805e-29
3.39e-28
3.63035e-27
3.41813e-26
2.81768e-25
2.01815e-24
1.24036e-23
6.41344e-23
2.70719e-22
1.06839e-55
4.33816e-53
8.45512e-51
1.05852e-48
9.57163e-47
6.66195e-45
3.71355e-43
1.7032e-41
6.55323e-40
2.14612e-38
6.04897e-37
1.48006e-35
3.16483e-34
5.94422e-33
9.84217e-32
1.43981e-30
1.86237e-29
2.12787e-28
2.14082e-27
1.88526e-26
1.43885e-25
9.37389e-25
5.1028e-24
2.13395e-59
1.0391e-56
2.42522e-54
3.63705e-52
3.94195e-50
3.29125e-48
2.2031e-46
1.21482e-44
5.62721e-43
2.22205e-41
7.56484e-40
2.24013e-38
5.81012e-37
1.32699e-35
2.67952e-34
4.79629e-33
7.62041e-32
1.0744e-30
1.34134e-29
1.47612e-28
1.42104e-27
1.18328e-26
8.40007e-26
2.21789e-63
1.33625e-60
3.83707e-58
7.07429e-56
9.42756e-54
9.68473e-52
7.98385e-50
5.42729e-48
3.10281e-46
1.51415e-44
6.37994e-43
2.34224e-41
7.54652e-40
2.14607e-38
5.41027e-37
1.2129e-35
2.42245e-34
4.31219e-33
6.8332e-32
9.60766e-31
1.19185e-29
1.29399e-28
1.21822e-27
9.44075e-68
7.38842e-65
2.71177e-62
6.36767e-60
1.08042e-57
1.41445e-55
1.48842e-53
1.2938e-51
9.47494e-50
5.93208e-48
3.21097e-46
1.51619e-44
6.29125e-43
2.30775e-41
7.51945e-40
2.18423e-38
5.66985e-37
1.31674e-35
2.73501e-34
5.07053e-33
8.35735e-32
1.21789e-30
1.56045e-29
1.08717e-72
1.19275e-69
5.85403e-67
1.81895e-64
4.078e-62
7.06869e-60
9.90223e-58
1.15673e-55
1.14886e-53
9.82723e-52
7.3053e-50
4.75055e-48
2.71635e-46
1.37171e-44
6.14238e-43
2.44892e-41
8.72663e-40
2.78664e-38
7.98098e-37
2.04881e-35
4.70448e-34
9.62991e-33
1.7511e-31
2.30806e-78
3.93388e-75
2.75185e-72
1.1968e-69
3.74474e-67
9.07633e-65
1.77339e-62
2.87076e-60
3.94351e-58
4.68973e-56
4.90613e-54
4.56927e-52
3.8183e-50
2.87518e-48
1.95364e-46
1.196e-44
6.57276e-43
3.23066e-41
1.41648e-39
5.53283e-38
1.92871e-36
6.01971e-35
1.68114e-33
7.73491e-84
1.83632e-80
1.68657e-77
9.33261e-75
3.64182e-72
1.08632e-69
2.61065e-67
5.23398e-65
8.97465e-63
1.34187e-60
1.77818e-58
2.1189e-56
2.30145e-54
2.30639e-52
2.15535e-50
1.89528e-48
1.57881e-46
1.24951e-44
9.36836e-43
6.58186e-41
4.23916e-39
2.43647e-37
1.23003e-35
2.46853e-88
6.4145e-85
6.18562e-82
3.62349e-79
1.51697e-76
4.91802e-74
1.29662e-71
2.87551e-69
5.50059e-67
9.25879e-65
1.39448e-62
1.90717e-60
2.40107e-58
2.81962e-56
3.12844e-54
3.32243e-52
3.42386e-50
3.47538e-48
3.53423e-46
3.67208e-44
3.98456e-42
4.61013e-40
5.71219e-38
0.566927
0.788875
0.794721
0.290576
0.627818
0.708342
0.823008
0.850742
0.814079
0.803896
0.833834
0.883646
0.960202
0.937348
0.923996
0.930432
0.997533
0.993952
0.987676
0.981117
0.999981
0.9999
0.999578
0.9987
1
1
0.999998
0.999987
1
1
1
1
0.999999
0.999994
0.999951
0.999703
0.998956
0.995767
0.981851
0.939812
0.890981
0.773292
0.507337
0.173816
0.0946161
0.0153035
0.000743514
1.1794e-05
2.04713e-06
1.11338e-05
1.37286e-06
3.2335e-07
3.03935e-07
2.57565e-07
2.85731e-07
1.61204e-07
1.34023e-07
9.49758e-08
7.88352e-08
7.37253e-08
4.48829e-08
3.31455e-08
3.0825e-08
2.30103e-08
7.04076e-08
2.13072e-08
2.1442e-08
9.84099e-09
2.8724e-08
3.29206e-08
1.65364e-08
9.80796e-09
2.71244e-08
2.04377e-08
7.60149e-09
7.71736e-09
1.04528e-08
7.39645e-09
4.94145e-09
3.5539e-09
3.1985e-09
2.29217e-09
1.75439e-09
1.28491e-09
9.59964e-10
6.71055e-10
5.37196e-10
4.02742e-10
2.46617e-10
1.63096e-10
1.33838e-10
1.05113e-10
4.21619e-11
3.19479e-11
2.69838e-11
2.23965e-11
9.26362e-12
5.09697e-12
4.26852e-12
3.78779e-12
2.08012e-12
7.33954e-13
5.43398e-13
5.21528e-13
3.93422e-13
1.05634e-13
5.70076e-14
5.91501e-14
5.39873e-14
1.44234e-14
5.00771e-15
5.6034e-15
5.25273e-15
1.63042e-15
3.75837e-16
4.47768e-16
3.7345e-16
1.43394e-16
2.45773e-17
3.04805e-17
2.02311e-17
9.80484e-18
1.42548e-18
1.78447e-18
8.67471e-19
5.32643e-19
7.4191e-20
9.07127e-20
3.04125e-20
2.36066e-20
3.48227e-21
4.0421e-21
8.95516e-22
8.75574e-22
1.47528e-22
1.59343e-22
2.26555e-23
2.78235e-23
5.64433e-24
5.60653e-24
5.01833e-25
7.73681e-25
1.95547e-25
1.77555e-25
9.88784e-27
1.91909e-26
6.17022e-27
5.1004e-27
1.75496e-28
4.32124e-28
1.78871e-28
1.33811e-28
2.83005e-30
8.97633e-30
4.81784e-30
3.22432e-30
4.16969e-32
1.74742e-31
1.22224e-31
7.16216e-32
5.50924e-34
3.21856e-33
2.96143e-33
1.46854e-33
6.55922e-36
5.84938e-35
7.11954e-35
2.73289e-35
0.0341382
0.131727
0.635297
0.97344
0.999691
0.999999
1
1
0.999991
0.99932
0.979929
0.707625
0.158792
0.00658527
3.56832e-05
5.51455e-06
5.1206e-06
5.2781e-06
2.9487e-05
0.774585
0.889432
0.987779
0.999627
0.999991
0.999999
0.999999
0.999974
0.998078
0.951744
0.579435
0.0959871
0.00258024
8.76299e-06
5.29435e-06
4.62978e-06
4.93151e-06
5.42863e-06
5.66934e-06
0.949702
0.98898
0.998332
0.999829
0.999991
0.999996
0.999959
0.996611
0.922119
0.481288
0.0650037
0.00131353
5.63521e-06
4.55033e-06
3.81778e-06
3.86059e-06
4.36287e-06
5.11034e-06
5.68166e-06
0.958092
0.986118
0.997069
0.999636
0.999961
0.999945
0.996096
0.904111
0.428027
0.0520159
0.000896104
5.2138e-06
4.32183e-06
3.26879e-06
2.86818e-06
2.90628e-06
3.324e-06
4.1055e-06
5.00576e-06
0.981557
0.988955
0.99603
0.999214
0.99978
0.995681
0.900327
0.413283
0.0487976
0.000870431
4.52969e-06
3.99729e-06
3.00414e-06
2.2811e-06
1.98772e-06
1.93307e-06
2.13166e-06
2.63571e-06
3.40446e-06
0.996252
0.995258
0.996888
0.99881
0.992395
0.882171
0.377218
0.0332238
0.000273897
3.68553e-06
3.47775e-06
2.76522e-06
1.96115e-06
1.49137e-06
1.25175e-06
1.13504e-06
1.15055e-06
1.32977e-06
1.67174e-06
0.999738
0.998902
0.99841
0.987095
0.825697
0.300007
0.0218955
0.000168832
2.82355e-06
2.67386e-06
2.39534e-06
1.74505e-06
1.1919e-06
8.91141e-07
7.05611e-07
5.86148e-07
5.29131e-07
5.39556e-07
6.06452e-07
0.999974
0.998159
0.967263
0.70316
0.169264
0.0052702
5.83988e-06
1.81447e-06
1.90027e-06
1.82034e-06
1.49765e-06
1.0074e-06
6.64398e-07
4.76775e-07
3.51736e-07
2.65064e-07
2.09365e-07
1.81089e-07
1.70686e-07
0.990635
0.876257
0.449005
0.044755
0.000287171
3.0262e-07
9.22616e-07
1.12467e-06
1.22906e-06
1.12438e-06
8.49958e-07
5.30415e-07
3.34663e-07
2.26219e-07
1.54363e-07
1.04768e-07
7.17432e-08
5.14122e-08
3.89003e-08
0.661407
0.1268
0.00278328
9.26675e-07
5.72492e-08
2.40534e-07
5.12268e-07
6.73573e-07
7.2042e-07
6.23416e-07
4.33899e-07
2.52574e-07
1.50981e-07
9.51425e-08
5.95919e-08
3.62377e-08
2.14249e-08
1.25805e-08
7.41706e-09
0.0150877
5.98756e-05
8.16069e-07
3.46357e-08
4.56305e-08
1.4174e-07
2.77165e-07
3.57736e-07
3.75166e-07
3.0781e-07
1.99117e-07
1.08243e-07
6.08105e-08
3.54689e-08
2.02689e-08
1.10059e-08
5.61445e-09
2.69574e-09
1.21376e-09
6.86235e-06
3.50943e-07
9.07887e-08
2.17899e-08
2.5027e-08
6.29647e-08
1.28357e-07
1.66382e-07
1.72645e-07
1.3565e-07
8.19457e-08
4.16563e-08
2.18605e-08
1.17359e-08
6.09236e-09
2.94887e-09
1.30052e-09
5.12602e-10
1.73871e-10
1.42048e-07
1.57863e-07
3.65983e-08
1.44316e-08
1.25669e-08
2.64934e-08
5.13026e-08
6.81382e-08
7.06985e-08
5.33008e-08
3.01936e-08
1.43847e-08
7.02109e-09
3.455e-09
1.62461e-09
7.01243e-10
2.67502e-10
8.67658e-11
2.22514e-11
1.32119e-07
6.84536e-08
1.67222e-08
5.82988e-09
4.81401e-09
9.28706e-09
1.81496e-08
2.48192e-08
2.58095e-08
1.8657e-08
9.95333e-09
4.45742e-09
2.01833e-09
9.07837e-10
3.85943e-10
1.48539e-10
4.94017e-11
1.33698e-11
2.59357e-12
5.86429e-08
2.44765e-08
5.86989e-09
1.76168e-09
1.49836e-09
2.85748e-09
5.68843e-09
8.08339e-09
8.39507e-09
5.82043e-09
2.93471e-09
1.23916e-09
5.20327e-10
2.13619e-10
8.20605e-11
2.82147e-11
8.22071e-12
1.88341e-12
2.79475e-13
1.67897e-08
7.21596e-09
1.15433e-09
4.12781e-10
3.92381e-10
7.92424e-10
1.59814e-09
2.35787e-09
2.50478e-09
1.56324e-09
7.51747e-10
3.06909e-10
1.20388e-10
4.51837e-11
1.56934e-11
4.83026e-12
1.23961e-12
2.43329e-13
2.81555e-14
9.15622e-09
1.53778e-09
2.01918e-10
7.30071e-11
8.89417e-11
1.96431e-10
4.02959e-10
6.11721e-10
6.52407e-10
3.88502e-10
1.71207e-10
6.51042e-11
2.48012e-11
8.62348e-12
2.71212e-12
7.48895e-13
1.70213e-13
2.89318e-14
2.67125e-15
7.25112e-09
7.70896e-10
4.67855e-11
1.45428e-11
1.87458e-11
4.3608e-11
9.08311e-11
1.41587e-10
1.50957e-10
8.54725e-11
3.54987e-11
1.27138e-11
4.62278e-12
1.49024e-12
4.25291e-13
1.05622e-13
2.13726e-14
3.17615e-15
2.39595e-16
4.96509e-09
4.58199e-10
2.27451e-11
5.08719e-12
4.07223e-12
8.65742e-12
1.8245e-11
2.92757e-11
3.09943e-11
1.66847e-11
6.84583e-12
2.368e-12
7.85578e-13
2.33863e-13
6.0725e-14
1.3605e-14
2.46282e-15
3.22829e-16
2.03331e-17
2.36873e-09
2.61765e-10
1.36293e-11
2.5058e-12
1.03198e-12
1.55258e-12
3.25299e-12
5.17567e-12
5.5932e-12
3.0449e-12
1.19468e-12
3.9543e-13
1.21582e-13
3.34095e-14
7.91994e-15
1.60641e-15
2.61364e-16
3.04501e-17
1.63033e-18
8.88376e-10
1.18796e-10
7.22046e-12
1.18742e-12
3.14679e-13
2.61051e-13
5.21943e-13
8.54184e-13
9.14698e-13
4.94267e-13
1.87339e-13
5.94512e-14
1.71276e-14
4.35461e-15
9.46199e-16
1.74428e-16
2.56219e-17
2.66999e-18
1.23306e-19
2.80897e-10
4.29747e-11
3.11466e-12
4.85629e-13
1.01852e-13
4.38222e-14
7.51942e-14
1.25554e-13
1.34993e-13
7.18429e-14
2.65494e-14
8.09338e-15
2.19834e-15
5.18906e-16
1.03811e-16
1.74654e-17
2.32611e-18
2.1805e-19
8.78408e-21
7.55069e-11
1.26145e-11
1.09013e-12
1.67108e-13
3.07105e-14
7.79418e-15
9.8441e-15
1.64478e-14
1.79549e-14
9.40793e-15
3.40534e-15
1.00079e-15
2.57385e-16
5.66399e-17
1.04829e-17
1.61672e-18
1.96057e-19
1.66163e-20
5.88734e-22
1.67015e-11
3.05772e-12
3.13344e-13
4.78419e-14
8.16648e-15
1.47856e-15
1.19912e-15
1.93923e-15
2.15514e-15
1.11341e-15
3.95831e-16
1.12576e-16
2.75205e-17
5.67341e-18
9.76277e-19
1.38662e-19
1.53762e-20
1.18352e-21
3.71143e-23
3.01912e-12
6.23875e-13
7.4224e-14
1.14393e-14
1.88655e-15
2.8403e-16
1.40413e-16
2.07316e-16
2.34031e-16
1.19354e-16
4.17667e-17
1.15348e-17
2.69089e-18
5.2242e-19
8.40027e-20
1.10402e-20
1.1243e-21
7.89227e-23
2.20191e-24
4.44705e-13
1.07391e-13
1.45984e-14
2.3071e-15
3.77331e-16
5.19127e-17
1.63587e-17
2.02639e-17
2.3062e-17
1.16185e-17
4.00931e-18
1.07845e-18
2.41021e-19
4.43012e-20
6.68902e-21
8.17391e-22
7.67813e-23
4.93566e-24
1.23063e-25
5.42534e-14
1.55718e-14
2.41038e-15
3.96578e-16
6.54232e-17
8.67282e-18
1.93458e-18
1.83155e-18
2.06953e-18
1.03014e-18
3.51049e-19
9.22138e-20
1.98174e-20
3.46599e-21
4.93732e-22
5.6365e-23
4.90557e-24
2.89948e-25
6.4876e-27
5.55259e-15
1.90964e-15
3.37764e-16
5.8637e-17
9.87506e-18
1.30041e-18
2.30562e-19
1.5541e-19
1.69827e-19
8.34743e-20
2.81197e-20
7.22978e-21
1.49938e-21
2.50669e-22
3.38383e-23
3.62571e-24
2.9367e-25
1.60258e-26
3.23074e-28
4.82364e-16
1.99626e-16
4.05697e-17
7.51787e-18
1.30516e-18
1.73989e-19
2.69399e-20
1.26068e-20
1.28089e-20
6.20466e-21
2.06726e-21
5.21234e-22
1.04659e-22
1.67938e-23
2.15721e-24
2.17906e-25
1.64981e-26
8.34688e-28
1.52216e-29
3.59438e-17
1.79583e-17
4.21584e-18
8.42142e-19
1.52008e-19
2.07771e-20
2.99576e-21
9.95558e-22
8.93554e-22
4.24763e-22
1.39966e-22
3.46627e-23
6.75852e-24
1.04465e-24
1.28171e-25
1.22566e-26
8.71141e-28
4.10313e-29
6.79597e-31
2.32057e-18
1.40391e-18
3.82401e-19
8.30358e-20
1.57023e-20
2.22114e-21
3.10474e-22
7.74978e-23
5.81112e-23
2.69034e-23
8.7601e-24
2.13331e-24
4.04976e-25
6.04853e-26
7.11273e-27
6.46402e-28
4.33057e-29
1.90673e-30
2.88e-32
1.31071e-19
9.62939e-20
3.05389e-20
7.25995e-21
1.44807e-21
2.13494e-22
2.9657e-23
5.96051e-24
3.55732e-24
1.58472e-24
5.08867e-25
1.21942e-25
2.25881e-26
3.26869e-27
3.69542e-28
3.20297e-29
2.03043e-30
8.39032e-32
1.16042e-33
6.53866e-21
5.84883e-21
2.16553e-21
5.67e-22
1.2e-22
1.85445e-23
2.60043e-24
4.4959e-25
2.07314e-25
8.73413e-26
2.75571e-26
6.49856e-27
1.17671e-27
1.65361e-28
1.80225e-29
1.49458e-30
8.99684e-32
3.50252e-33
4.45338e-35
2.90801e-22
3.17444e-22
1.37494e-22
3.98487e-23
8.99479e-24
1.46365e-24
2.09345e-25
3.28544e-26
1.1643e-26
4.53632e-27
1.39808e-27
3.24219e-28
5.74608e-29
7.85649e-30
8.27459e-31
6.58425e-32
3.77594e-33
1.38986e-34
1.63094e-36
1.16361e-23
1.55324e-23
7.88194e-24
2.53892e-24
6.13921e-25
1.05576e-25
1.55139e-26
2.29941e-27
6.37337e-28
2.23882e-28
6.68191e-29
1.52109e-29
2.64041e-30
3.51787e-31
3.58779e-32
2.74626e-33
1.5048e-34
5.25437e-36
5.71166e-38
4.22684e-25
6.91178e-25
4.11361e-25
1.47755e-25
3.84132e-26
7.00171e-27
1.0626e-27
1.52908e-28
3.42929e-29
1.0599e-29
3.02725e-30
6.74346e-31
1.14652e-31
1.49012e-32
1.47416e-33
1.08785e-34
5.71033e-36
1.89721e-37
1.9171e-39
1.40612e-26
2.82179e-26
1.97104e-26
7.91389e-27
2.21862e-27
4.29595e-28
6.75963e-29
9.62325e-30
1.82095e-30
4.86242e-31
1.30929e-31
2.84011e-32
4.72568e-33
5.99521e-34
5.76103e-35
4.1063e-36
2.06965e-37
6.56073e-39
6.18266e-41
4.32038e-28
1.06629e-27
8.74428e-28
3.93143e-28
1.19117e-28
2.45421e-29
4.01545e-30
5.72808e-31
9.53834e-32
2.18336e-32
5.44873e-33
1.14304e-33
1.85792e-34
2.30097e-35
2.14988e-36
1.4824e-37
7.18828e-39
2.17942e-40
1.92108e-42
1.23618e-29
3.76289e-29
3.62266e-29
1.82561e-29
5.9872e-30
1.31393e-30
2.24004e-31
3.22977e-32
4.9121e-33
9.67856e-34
2.20053e-34
4.42414e-35
7.00359e-36
8.46304e-37
7.69315e-38
5.13806e-39
2.40112e-40
6.97793e-42
5.76877e-44
3.31962e-31
1.25163e-30
1.41415e-30
7.9903e-31
2.83898e-31
6.63952e-32
1.18113e-32
1.73148e-33
2.47823e-34
4.26339e-35
8.70463e-36
1.65872e-36
2.54596e-37
2.9978e-38
2.65152e-39
1.71673e-40
7.74205e-42
2.16048e-43
1.67918e-45
8.42902e-33
3.9569e-32
5.24005e-32
3.31713e-32
1.27687e-32
3.18205e-33
5.91201e-34
8.84858e-35
1.2195e-35
1.87048e-36
3.40023e-37
6.06744e-38
8.97758e-39
1.02797e-39
8.84473e-41
5.55536e-42
2.42068e-43
6.49713e-45
4.75816e-47
2.02964e-34
1.20566e-33
1.87073e-33
1.3248e-33
5.51884e-34
1.46345e-34
2.83797e-35
4.3449e-36
5.85756e-37
8.18946e-38
1.3228e-38
2.18314e-39
3.09061e-40
3.43033e-41
2.86791e-42
1.74714e-43
7.35919e-45
1.90163e-46
1.31458e-48
)
;

boundaryField
{
    leftWall
    {
        type            zeroGradient;
    }
    rightWall
    {
        type            zeroGradient;
    }
    lowerWall
    {
        type            zeroGradient;
    }
    atmosphere
    {
        type            inletOutlet;
        inletValue      uniform 0;
        value           nonuniform List<scalar> 
46
(
0
0
0
0
0
0
0
0
0
0
0
0
0
0
0
0
0
0
0
0
0
0
0
6.55922e-36
5.84938e-35
7.11954e-35
2.73289e-35
2.02964e-34
1.20566e-33
1.87073e-33
1.3248e-33
5.51884e-34
1.46345e-34
2.83797e-35
4.3449e-36
5.85756e-37
8.18946e-38
1.3228e-38
2.18314e-39
3.09061e-40
3.43033e-41
2.86791e-42
1.74714e-43
7.35919e-45
1.90163e-46
1.31458e-48
)
;
    }
    defaultFaces
    {
        type            empty;
    }
}


// ************************************************************************* //
