/*--------------------------------*- C++ -*----------------------------------*\
| =========                 |                                                 |
| \\      /  F ield         | OpenFOAM: The Open Source CFD Toolbox           |
|  \\    /   O peration     | Version:  2.4.0                                 |
|   \\  /    A nd           | Web:      www.OpenFOAM.org                      |
|    \\/     M anipulation  |                                                 |
\*---------------------------------------------------------------------------*/
FoamFile
{
    version     2.0;
    format      ascii;
    class       volScalarField;
    location    "0.2";
    object      alpha.mercury;
}
// * * * * * * * * * * * * * * * * * * * * * * * * * * * * * * * * * * * * * //

dimensions      [0 0 0 0 0 0 0];

internalField   nonuniform List<scalar> 
2268
(
1
1
1
1
1
1
1
1
1
1
1
1
1
1
1
0.999999
0.999997
0.999994
0.999989
0.999979
0.99984
0.999091
0.998469
1
1
1
1
1
1
1
1
1
1
1
1
1
1
0.999999
0.999996
0.999991
0.999986
0.999983
0.999976
0.999838
0.99894
0.997879
1
1
1
1
1
1
1
1
1
1
1
1
1
0.999999
0.999992
0.999949
0.999753
0.999325
0.999288
0.99956
0.99968
0.998829
0.997453
1
1
1
1
1
1
1
1
1
1
1
1
0.999998
0.999966
0.999489
0.995838
0.981221
0.953815
0.934309
0.951903
0.983838
0.996796
0.99709
1
1
1
1
1
1
1
1
1
1
1
0.999998
0.999925
0.998732
0.983318
0.899667
0.711154
0.49145
0.32305
0.27055
0.581546
0.945482
0.996001
1
1
1
1
1
1
1
1
1
1
0.999983
0.999625
0.995497
0.961921
0.787556
0.416194
0.116116
0.0169084
0.00108179
0.0044878
0.104613
0.761477
0.990269
1
1
1
1
1
1
1
1
1
0.999877
0.997244
0.979426
0.89948
0.659267
0.242746
0.0390219
0.00209077
6.36922e-05
1.49485e-06
6.80252e-06
0.00465912
0.463979
0.968417
1
1
1
1
1
1
1
1
0.999665
0.987234
0.927925
0.781117
0.499878
0.165588
0.0260539
0.00343921
0.000147471
4.53806e-06
5.66411e-07
9.84461e-07
0.000909572
0.174005
0.921779
5.63439e-12
7.63889e-12
1.18142e-11
2.20253e-11
8.13303e-11
1.99704e-10
2.27009e-10
1.27646e-10
6.72726e-11
2.58716e-11
1.41447e-11
8.56424e-12
6.1201e-12
4.78116e-12
3.5504e-12
2.48494e-12
1.71474e-12
1.15337e-12
7.10265e-13
4.41382e-12
1.25576e-11
1.46012e-10
4.91137e-10
9.62164e-10
2.12713e-09
2.01991e-09
1.1463e-09
4.88838e-10
2.27425e-10
1.19513e-10
6.65491e-11
2.84303e-11
1.04029e-11
7.26846e-12
4.99124e-12
3.32417e-12
2.09658e-12
1.10042e-12
4.33257e-12
5.96448e-12
1.12055e-10
1.75725e-09
4.96884e-09
6.22177e-09
5.13409e-09
2.74438e-09
1.01805e-09
6.01029e-10
3.87093e-10
2.44929e-10
9.12343e-11
1.83537e-11
8.58851e-12
6.28847e-12
4.4161e-12
2.86757e-12
1.45437e-12
5.11216e-12
1.1563e-11
5.9e-11
1.0561e-09
7.12608e-09
9.36236e-09
7.23458e-09
3.58336e-09
1.55584e-09
8.89529e-10
5.73456e-10
2.83248e-10
1.0205e-10
1.72411e-11
8.32419e-12
6.24844e-12
4.63413e-12
3.32025e-12
1.66214e-12
4.4359e-12
9.32231e-12
2.68976e-11
1.3233e-10
1.09007e-08
1.49339e-08
8.43533e-09
3.56349e-09
1.83321e-09
8.43251e-10
5.90953e-10
2.98518e-10
8.14672e-11
1.19561e-11
7.06583e-12
5.05421e-12
4.04505e-12
3.14903e-12
1.88969e-12
3.56122e-12
4.93086e-12
4.25611e-11
4.41403e-09
1.13447e-07
7.66824e-08
1.18521e-08
3.28936e-09
1.07602e-09
5.74395e-10
4.55013e-10
2.37313e-10
6.58438e-11
9.577e-12
5.56437e-12
4.27251e-12
3.36423e-12
2.54158e-12
1.84045e-12
2.92434e-12
2.58638e-12
2.46344e-10
3.90038e-07
1.2569e-06
3.29477e-07
1.57748e-08
2.32336e-09
7.56597e-10
4.45996e-10
2.4213e-10
7.78225e-11
1.35027e-11
5.77997e-12
4.31694e-12
3.20336e-12
2.62116e-12
2.12931e-12
1.68733e-12
2.38258e-12
1.76948e-12
1.65368e-12
7.24548e-06
5.02186e-06
5.58461e-07
1.42762e-08
2.8931e-09
1.00501e-09
2.84118e-10
7.7586e-11
1.54262e-11
4.37655e-12
3.54838e-12
2.63666e-12
2.05609e-12
1.89132e-12
1.67033e-12
1.5053e-12
0.993297
0.992345
0.990104
0.986068
0.979664
0.965584
0.942373
0.893987
0.816993
0.68631
0.47393
0.262032
0.0914888
0.0143965
0.00436593
0.000521823
3.3846e-05
1.73529e-06
3.63732e-07
5.82432e-07
0.000438937
0.0738881
0.653768
0.799101
0.785235
0.756786
0.713205
0.657879
0.569553
0.461739
0.329829
0.201775
0.0939035
0.0273669
0.00502506
0.000534092
0.000200471
4.76427e-05
1.06586e-05
4.45825e-06
1.54367e-06
2.96761e-07
2.78749e-07
7.24587e-05
0.0263313
0.310002
0.186558
0.172235
0.146904
0.11412
0.0829417
0.0491601
0.0241662
0.00936099
0.0028766
0.000668357
0.00012699
3.34892e-05
2.34242e-05
1.22449e-05
5.77102e-06
2.74132e-06
2.0507e-06
1.51338e-06
4.81913e-07
1.67778e-07
3.15724e-05
0.00763859
0.0932634
0.0021839
0.00188174
0.00138433
0.000855683
0.000483684
0.000230769
0.000102408
4.62949e-05
2.18198e-05
1.01124e-05
3.50376e-06
2.53511e-06
1.78553e-06
1.24574e-06
7.58635e-07
3.8036e-07
3.83061e-07
4.85702e-07
3.62366e-07
1.22917e-07
1.11862e-05
0.00129279
0.0136879
4.95054e-07
3.98263e-07
2.68784e-07
3.2645e-07
3.16348e-07
2.59852e-07
2.23581e-07
1.9878e-07
1.73029e-07
1.24176e-07
9.27877e-08
8.65223e-08
7.33578e-08
5.79734e-08
3.30625e-08
1.60258e-08
2.52626e-08
7.59504e-08
1.22052e-07
5.66104e-08
6.95497e-07
5.58214e-05
0.000614078
3.19265e-11
3.07283e-11
2.39007e-11
3.55175e-11
4.0163e-11
4.18318e-11
4.66456e-11
4.99222e-11
5.08486e-11
4.21273e-11
3.97553e-11
3.97088e-11
3.6756e-11
2.77411e-11
2.85569e-11
5.15861e-11
2.85317e-10
1.73792e-09
8.9245e-09
7.51386e-09
4.11379e-09
1.5761e-07
2.58709e-06
2.18127e-52
2.08044e-50
1.04997e-48
3.67743e-47
1.02983e-45
2.59536e-44
6.44883e-43
1.71094e-41
4.35545e-40
1.07954e-38
4.36476e-37
1.10461e-35
6.50369e-35
1.75273e-34
4.37329e-34
8.11725e-34
7.69694e-34
2.05099e-12
4.68087e-11
8.22792e-11
2.26074e-11
2.49583e-09
8.39806e-10
4.46152e-51
3.9388e-49
1.82222e-47
5.84727e-46
1.52714e-44
3.72683e-43
9.1021e-42
2.27432e-40
5.02879e-39
1.15015e-37
4.288e-36
9.36117e-35
5.16576e-34
1.49761e-33
4.52317e-33
1.35852e-32
4.0227e-32
2.94916e-14
1.19195e-12
3.44933e-13
2.46679e-13
9.38357e-13
2.72078e-14
8.1673e-50
6.62266e-48
2.81157e-46
8.37387e-45
2.1067e-43
5.12629e-42
1.22573e-40
2.78126e-39
5.16587e-38
1.13951e-36
3.8028e-35
7.13949e-34
3.85886e-33
1.29938e-32
5.28013e-32
2.95616e-31
2.06148e-30
2.58812e-29
5.96852e-28
1.57175e-26
2.91342e-25
7.79109e-24
1.50101e-22
1.33796e-48
9.9557e-47
3.91429e-45
1.11358e-43
2.81003e-42
6.89388e-41
1.56294e-39
3.07715e-38
4.74738e-37
1.0534e-35
3.05712e-34
5.00645e-33
2.81738e-32
1.22717e-31
7.52713e-31
7.02427e-30
6.47113e-29
8.29562e-28
1.70856e-26
2.8606e-25
4.05166e-24
8.57013e-23
1.1454e-21
1.9652e-47
1.35006e-45
5.02503e-44
1.42573e-42
3.71659e-41
8.99707e-40
1.8476e-38
3.0389e-37
4.03318e-36
9.19437e-35
2.28827e-33
3.33336e-32
2.15738e-31
1.33826e-30
1.15339e-29
1.2619e-28
1.23075e-27
1.64819e-26
2.80682e-25
3.26571e-24
4.30222e-23
6.6776e-22
7.64556e-21
2.59155e-46
1.6735e-44
6.14626e-43
1.82265e-41
4.89006e-40
1.11198e-38
1.96986e-37
2.65277e-36
3.44246e-35
7.8136e-34
1.71838e-32
2.30206e-31
1.7925e-30
1.41711e-29
1.41539e-28
1.57117e-27
1.73714e-26
2.43998e-25
3.16977e-24
2.73936e-23
3.81701e-22
3.73356e-21
4.85363e-20
3.08216e-45
1.94564e-43
7.49459e-42
2.37383e-40
6.25392e-39
1.25651e-37
1.82904e-36
2.0937e-35
3.3333e-34
7.04619e-33
1.43792e-31
1.45963e-30
1.19418e-29
1.07916e-28
1.25288e-27
1.51475e-26
2.09948e-25
2.78961e-24
2.62196e-23
1.90357e-22
3.07789e-21
1.6617e-20
2.65902e-19
3.38764e-44
2.24032e-42
9.54565e-41
3.13198e-39
7.51077e-38
1.22086e-36
1.41813e-35
1.70763e-34
3.78758e-33
7.1136e-32
6.42973e-31
5.62476e-30
5.78116e-29
6.07354e-28
8.2684e-27
1.33414e-25
2.22341e-24
2.52572e-23
1.65885e-22
1.46847e-21
2.43512e-20
1.14741e-19
3.99014e-19
3.6662e-43
2.74464e-41
1.27278e-39
3.97431e-38
8.10401e-37
1.07518e-35
9.60081e-35
6.32429e-34
3.61963e-33
1.99734e-32
3.08971e-31
9.66533e-30
2.25578e-28
3.02494e-27
4.83685e-26
1.19473e-24
2.04594e-23
1.90728e-22
9.8073e-22
3.29522e-21
1.12875e-20
6.36693e-20
3.01984e-19
5.00229e-43
1.98277e-41
3.65526e-40
4.54385e-39
4.88481e-38
6.13455e-37
1.11489e-35
2.57756e-34
5.3788e-33
9.16287e-32
2.18973e-30
7.1082e-29
1.63681e-27
2.00227e-26
1.49648e-25
7.40217e-25
2.72641e-24
9.4171e-24
4.50076e-23
6.23221e-22
7.98817e-21
4.24561e-20
1.40217e-19
1.33363e-46
1.0778e-44
1.16394e-42
1.36928e-40
1.2311e-38
7.63467e-37
3.28785e-35
1.04985e-33
2.5333e-32
4.79259e-31
7.83553e-30
9.73814e-29
8.00991e-28
5.23662e-27
3.29376e-26
2.17662e-25
1.58355e-24
1.42597e-23
1.534e-22
1.17943e-21
5.07863e-21
1.64727e-20
4.76595e-20
8.97322e-47
2.86982e-44
4.62391e-42
4.62127e-40
3.12217e-38
1.51042e-36
5.44007e-35
1.5083e-33
3.29928e-32
5.89689e-31
8.91933e-30
1.10772e-28
1.0987e-27
9.65446e-27
7.96542e-26
6.2536e-25
4.43802e-24
2.66851e-23
1.27079e-22
4.75379e-22
1.51989e-21
4.49462e-21
1.232e-20
2.94454e-47
1.10857e-44
2.07158e-42
2.42451e-40
1.91995e-38
1.06709e-36
4.2805e-35
1.27662e-33
2.89707e-32
5.11973e-31
7.23505e-30
8.13006e-29
7.4193e-28
5.7978e-27
4.05619e-26
2.54446e-25
1.385e-24
6.36889e-24
2.4784e-23
8.40705e-23
2.66262e-22
8.0425e-22
2.26061e-21
2.53292e-47
8.04234e-45
1.20914e-42
1.11569e-40
7.00555e-39
3.13591e-37
1.032e-35
2.57653e-34
5.02116e-33
7.87871e-32
1.0255e-30
1.09937e-29
9.81507e-29
7.54898e-28
5.09237e-27
2.9622e-26
1.45502e-25
6.04291e-25
2.21058e-24
7.57939e-24
2.54597e-23
8.57449e-23
2.77034e-22
2.10584e-48
5.7051e-46
7.27868e-44
5.73024e-42
3.10642e-40
1.22998e-38
3.70182e-37
8.74675e-36
1.66768e-34
2.62391e-33
3.44824e-32
3.77504e-31
3.47357e-30
2.74848e-29
1.88967e-28
1.13195e-27
5.89471e-27
2.69094e-26
1.10799e-25
4.34338e-25
1.67217e-24
6.38636e-24
2.46602e-23
6.26675e-50
1.45809e-47
1.62355e-45
1.14313e-43
5.68236e-42
2.1204e-40
6.18423e-39
1.45136e-37
2.80497e-36
4.55248e-35
6.27513e-34
7.36642e-33
7.36614e-32
6.32879e-31
4.73749e-30
3.13949e-29
1.86752e-28
1.00765e-27
5.00426e-27
2.33496e-26
1.05705e-25
4.75338e-25
2.11955e-24
8.46599e-52
1.93871e-49
2.13e-47
1.49636e-45
7.53909e-44
2.89991e-42
8.85543e-41
2.20419e-39
4.55803e-38
7.92756e-37
1.16666e-35
1.46091e-34
1.57627e-33
1.48661e-32
1.24045e-31
9.21149e-31
6.17079e-30
3.81686e-29
2.22423e-28
1.23221e-27
6.54657e-27
3.37743e-26
1.69719e-25
8.01376e-54
1.92875e-51
2.23134e-49
1.65449e-47
8.8141e-46
3.58444e-44
1.15479e-42
3.02279e-41
6.55232e-40
1.19384e-38
1.85143e-37
2.48238e-36
2.93217e-35
3.08555e-34
2.9222e-33
2.51788e-32
1.98057e-31
1.42236e-30
9.35761e-30
5.76476e-29
3.42646e-28
1.98275e-27
1.1104e-26
5.67222e-56
1.41935e-53
1.71039e-51
1.32484e-49
7.40607e-48
3.18031e-46
1.09082e-44
3.07028e-43
7.23421e-42
1.44909e-40
2.50097e-39
3.7646e-38
4.98897e-37
5.86608e-36
6.15423e-35
5.8024e-34
4.98198e-33
3.96293e-32
2.97001e-31
2.11541e-30
1.43254e-29
9.22582e-29
5.69912e-28
2.88013e-58
7.57925e-56
9.61921e-54
7.87448e-52
4.67318e-50
2.14206e-48
7.89268e-47
2.40337e-45
6.17093e-44
1.35582e-42
2.57869e-41
4.29168e-40
6.31691e-39
8.31151e-38
9.88169e-37
1.0709e-35
1.06544e-34
9.76543e-34
8.27251e-33
6.53675e-32
4.88942e-31
3.50787e-30
2.42886e-29
1.11937e-60
3.17719e-58
4.36745e-56
3.88454e-54
2.51281e-52
1.25887e-50
5.0795e-49
1.69551e-47
4.77517e-46
1.15298e-44
2.42038e-43
4.47096e-42
7.33641e-41
1.07734e-39
1.42568e-38
1.71396e-37
1.88746e-36
1.92176e-35
1.82791e-34
1.63904e-33
1.39298e-32
1.128e-31
8.78301e-31
3.2737e-63
1.00809e-60
1.50272e-58
1.45142e-56
1.02143e-54
5.58167e-53
2.46502e-51
9.0434e-50
2.81238e-48
7.53054e-47
1.75829e-45
3.61878e-44
6.63019e-43
1.09147e-41
1.62794e-40
2.21618e-39
2.7736e-38
3.21333e-37
3.47105e-36
3.5233e-35
3.38971e-34
3.11691e-33
2.75962e-32
7.43992e-66
2.50312e-63
4.08623e-61
4.32987e-59
3.3497e-57
2.0166e-55
9.83386e-54
3.9932e-52
1.37812e-50
4.10752e-49
1.07125e-47
2.47161e-46
5.09204e-45
9.44496e-44
1.58967e-42
2.44649e-41
3.46834e-40
4.5633e-39
5.61424e-38
6.50704e-37
7.15616e-36
7.52188e-35
7.61241e-34
1.28266e-68
4.76997e-66
8.60917e-64
1.00991e-61
8.66323e-60
5.79413e-58
3.14575e-56
1.42555e-54
5.5041e-53
1.83983e-51
5.3937e-50
1.40203e-48
3.26242e-47
6.8542e-46
1.3104e-44
2.29652e-43
3.71577e-42
5.58986e-41
7.87397e-40
1.04601e-38
1.32e-37
1.59365e-36
1.85323e-35
1.69515e-71
7.01942e-69
1.41254e-66
1.84987e-64
1.77424e-62
1.32904e-60
8.09706e-59
4.12619e-57
1.79553e-55
6.78018e-54
2.2508e-52
6.64071e-51
1.75777e-49
4.20961e-48
9.19249e-47
1.84387e-45
3.42136e-44
5.91349e-43
9.58593e-42
1.46737e-40
2.1357e-39
2.97551e-38
3.99361e-37
1.68212e-74
7.84208e-72
1.77788e-69
2.626e-67
2.84424e-65
2.40944e-63
1.66271e-61
9.6138e-60
4.75525e-58
2.04482e-56
7.74468e-55
2.61195e-53
7.91872e-52
2.17642e-50
5.46499e-49
1.26282e-47
2.70403e-46
5.40155e-45
1.0133e-43
1.7969e-42
3.0321e-41
4.89985e-40
7.62837e-39
1.22793e-77
6.51377e-75
1.6817e-72
2.83146e-70
3.49962e-68
3.38718e-66
2.67418e-64
1.77154e-62
1.00549e-60
4.96937e-59
2.16671e-57
8.4263e-56
2.95068e-54
9.3826e-53
2.73015e-51
7.32213e-50
1.82238e-48
4.23686e-47
9.26064e-46
1.91506e-44
3.77059e-43
7.11178e-42
1.29219e-40
6.33272e-81
3.87262e-78
1.15319e-75
2.24126e-73
3.20035e-71
3.58198e-69
3.27373e-67
2.51342e-65
1.65532e-63
9.50502e-62
4.82147e-60
2.18443e-58
8.92402e-57
3.3152e-55
1.12855e-53
3.54562e-52
1.035e-50
2.82525e-49
7.25687e-48
1.76473e-46
4.08764e-45
9.07116e-44
1.93884e-42
2.17142e-84
1.55545e-81
5.42541e-79
1.23576e-76
2.06918e-74
2.71751e-72
2.91655e-70
2.63172e-68
2.03895e-66
1.37866e-64
8.24371e-63
4.40759e-61
2.12733e-59
9.34754e-58
3.76802e-56
1.40331e-54
4.8607e-53
1.57573e-51
4.80998e-50
1.39077e-48
3.83121e-47
1.01109e-45
2.56902e-44
4.49622e-88
3.85602e-85
1.60737e-82
4.37513e-80
8.75579e-78
1.37484e-75
1.76495e-73
1.90594e-71
1.76822e-69
1.43263e-67
1.02723e-65
6.59111e-64
3.82101e-62
2.0184e-60
9.78979e-59
4.39062e-57
1.83278e-55
7.16493e-54
2.63882e-52
9.20857e-51
3.06176e-49
9.75022e-48
2.98748e-46
4.8144e-92
5.10327e-89
2.61299e-86
8.7252e-84
2.14133e-81
4.12355e-79
6.49379e-77
8.60431e-75
9.79687e-73
9.74416e-71
8.57956e-69
6.76238e-67
4.81777e-65
3.12909e-63
1.86704e-61
1.03063e-59
5.29762e-58
2.55123e-56
1.15782e-54
4.97932e-53
2.04003e-51
8.00097e-50
3.0162e-48
2.05444e-96
2.82595e-93
1.84573e-90
7.82935e-88
2.43892e-85
5.96409e-83
1.19396e-80
2.01317e-78
2.91954e-76
3.7003e-74
4.15161e-72
4.16822e-70
3.78072e-68
3.12467e-66
2.37147e-64
1.66459e-62
1.08774e-60
6.65807e-59
3.84003e-57
2.09835e-55
1.09189e-53
5.43424e-52
2.59552e-50
2.22746e-101
4.27914e-98
3.71756e-95
2.07493e-92
8.49339e-90
2.73549e-87
7.25445e-85
1.63634e-82
3.204e-80
5.52208e-78
8.46219e-76
1.16205e-73
1.43956e-71
1.61892e-69
1.66347e-67
1.57294e-65
1.37944e-63
1.13028e-61
8.70851e-60
6.34675e-58
4.39871e-56
2.91094e-54
1.84328e-52
5.20424e-107
1.52681e-103
1.85266e-100
1.41499e-97
7.88545e-95
3.4569e-92
1.24232e-89
3.76743e-87
9.89295e-85
2.29949e-82
4.81751e-80
9.22574e-78
1.63074e-75
2.67672e-73
4.09303e-71
5.83176e-69
7.72845e-67
9.51669e-65
1.09028e-62
1.16664e-60
1.17522e-58
1.12489e-56
1.0259e-54
3.43841e-112
1.31406e-108
1.96372e-105
1.79215e-102
1.17053e-99
5.93702e-97
2.46737e-94
8.71004e-92
2.68091e-89
7.34612e-87
1.82448e-84
4.17561e-82
8.94836e-80
1.82261e-77
3.5769e-75
6.84834e-73
1.2927e-70
2.42211e-68
4.50884e-66
8.27499e-64
1.46785e-61
2.45204e-59
3.80117e-57
1.97322e-116
7.93198e-113
1.19763e-109
1.1116e-106
7.46738e-104
3.93746e-101
1.71297e-98
6.36626e-96
2.07506e-93
6.05906e-91
1.61399e-88
3.98698e-86
9.27675e-84
2.06479e-81
4.4651e-79
9.5343e-77
2.04572e-74
4.49755e-72
1.03603e-69
2.56548e-67
7.02519e-65
2.18227e-62
7.67641e-60
0.43307
0.20974
0.0652397
0.0083887
0.372155
0.291582
0.168522
0.0789029
0.185914
0.1961
0.166109
0.115838
0.0397977
0.0626513
0.0760035
0.0695675
0.00246711
0.0060474
0.0123238
0.0188821
1.86784e-05
9.94339e-05
0.000421723
0.00129924
4.32406e-09
9.09864e-08
1.3901e-06
1.33661e-05
1.54845e-15
9.24558e-17
9.89014e-12
-2.16813e-10
3.52938e-22
1.67259e-21
7.9436e-21
5.35343e-20
2.70699e-21
1.03209e-20
7.09988e-20
4.40413e-19
1.65101e-20
3.92979e-20
5.69704e-19
3.3558e-18
1.03066e-19
1.07958e-19
5.01434e-18
2.55269e-17
1.40008e-18
2.79015e-18
5.71914e-18
1.49965e-17
1.44736e-18
3.00889e-18
5.59826e-18
1.02955e-17
9.14847e-19
1.67886e-18
2.94233e-18
4.9524e-18
3.93154e-19
6.78104e-19
1.13126e-18
1.81622e-18
1.24806e-19
2.07634e-19
3.35398e-19
5.23445e-19
3.12978e-20
5.06428e-20
7.90815e-20
1.20793e-19
5.82116e-21
9.35993e-21
1.47091e-20
2.31254e-20
7.65794e-22
1.31144e-21
2.26015e-21
3.82889e-21
8.34088e-23
1.64955e-22
3.17274e-22
5.63009e-22
9.00085e-24
1.97801e-23
3.93441e-23
7.05096e-23
8.26678e-25
1.95141e-24
3.96645e-24
7.37123e-24
5.99462e-26
1.52132e-25
3.28206e-25
6.48925e-25
3.42177e-27
9.44008e-27
2.23671e-26
4.84678e-26
1.62858e-28
4.95678e-28
1.31183e-27
3.17499e-27
6.63573e-30
2.27023e-29
6.78227e-29
1.83673e-28
2.36903e-31
9.19512e-31
3.10606e-30
9.42824e-30
7.47019e-33
3.30314e-32
1.26351e-31
4.29943e-31
2.08903e-34
1.05421e-33
4.57054e-33
1.74605e-32
5.19404e-36
2.99552e-35
1.47398e-34
6.33546e-34
1.15038e-37
7.5971e-37
4.25134e-36
2.0618e-35
2.27313e-39
1.72412e-38
1.10037e-37
6.04242e-37
4.00983e-41
3.50849e-40
2.56389e-39
1.60088e-38
6.31139e-43
6.40951e-42
5.3913e-41
3.84778e-40
8.84149e-45
1.05096e-43
1.02467e-42
8.41393e-42
1.09657e-46
1.5433e-45
1.76031e-44
1.67697e-43
1.19256e-48
2.01907e-47
2.72777e-46
3.04754e-45
1.11874e-50
2.33081e-49
3.79271e-48
5.04009e-47
8.83409e-53
2.33676e-51
4.68279e-50
7.53963e-49
5.51684e-55
1.97076e-53
5.05086e-52
1.012e-50
2.59174e-57
1.33334e-55
4.50633e-54
1.14407e-52
4.03403e-05
2.10046e-05
8.16801e-05
5.17471e-05
9.71532e-06
4.26641e-07
3.68961e-08
1.33641e-08
1.58697e-09
9.29744e-11
1.92803e-11
4.17661e-12
3.0633e-12
2.13118e-12
1.16762e-12
7.57201e-13
9.32062e-13
9.58511e-13
1.14426e-12
0.0147623
0.00441613
0.000896177
0.000124011
7.18029e-06
3.19287e-07
2.08029e-07
4.00376e-08
1.46747e-09
7.98792e-12
1.69188e-12
1.54818e-12
1.25002e-12
5.57871e-13
2.82184e-13
3.36876e-13
4.95953e-13
5.59566e-13
8.33067e-13
0.0488913
0.0107769
0.00165892
0.000170665
8.76577e-06
3.39262e-06
1.00397e-06
5.53634e-08
4.11953e-10
1.18934e-12
8.95842e-13
7.33772e-13
3.98182e-13
1.74163e-13
1.30418e-13
1.71107e-13
2.47509e-13
3.19757e-13
5.44996e-13
0.0419074
0.0138819
0.0029308
0.000363958
3.85887e-05
1.57315e-05
1.50118e-06
2.20433e-08
3.58964e-11
6.61394e-13
4.17947e-13
3.16899e-13
1.61946e-13
7.18139e-14
6.40517e-14
8.26119e-14
1.14065e-13
1.60801e-13
2.9424e-13
0.0184422
0.0110446
0.00396964
0.000785973
0.000158373
2.04333e-05
4.39994e-07
1.21373e-09
5.58328e-13
2.34161e-13
2.17876e-13
1.62254e-13
6.60768e-14
3.09462e-14
2.94963e-14
3.63881e-14
4.72649e-14
6.54648e-14
1.20079e-13
0.00374787
0.00474208
0.00311129
0.00108334
0.000295135
1.54337e-05
7.20525e-08
1.76117e-11
3.72083e-13
1.30337e-13
1.34715e-13
7.66822e-14
2.6038e-14
1.29057e-14
1.23752e-14
1.43548e-14
1.71126e-14
2.13499e-14
3.60997e-14
0.000260566
0.00103697
0.00122971
0.00073966
0.000153219
3.62598e-06
4.41611e-09
2.83624e-13
7.28817e-14
8.70122e-14
7.25265e-14
3.2407e-14
9.62119e-15
4.99774e-15
4.64556e-15
4.99785e-15
5.38149e-15
5.74377e-15
8.2719e-15
2.75193e-06
4.24006e-05
0.000140271
0.000110401
1.24384e-05
6.80067e-08
2.79402e-12
5.07908e-14
4.9633e-14
5.12203e-14
3.44363e-14
1.22223e-14
3.28563e-15
1.74971e-15
1.54506e-15
1.52557e-15
1.46909e-15
1.31189e-15
1.51459e-15
9.6872e-10
1.84197e-07
1.09077e-06
2.10297e-07
1.0215e-09
1.23509e-14
5.90232e-14
2.64565e-14
3.0014e-14
2.63164e-14
1.44844e-14
4.13687e-15
1.02511e-15
5.48516e-16
4.54758e-16
4.07867e-16
3.48449e-16
2.59008e-16
2.30514e-16
1.3363e-18
1.75912e-12
8.0093e-13
2.40543e-14
2.51991e-13
7.32629e-15
1.33263e-14
1.52185e-14
1.57779e-14
1.18494e-14
5.36725e-15
1.25618e-15
2.91126e-16
1.54353e-16
1.18659e-16
9.57709e-17
7.20723e-17
4.4745e-17
3.00406e-17
4.03348e-18
2.17512e-16
5.44431e-15
2.6407e-15
1.7043e-14
4.53886e-15
6.69545e-15
7.83033e-15
7.23065e-15
4.67457e-15
1.76788e-15
3.43568e-16
7.54236e-17
3.90716e-17
2.7541e-17
1.98443e-17
1.30782e-17
6.82446e-18
3.42825e-18
4.50357e-17
1.38968e-16
3.91216e-16
8.86047e-16
2.06691e-15
2.41289e-15
3.23479e-15
3.50434e-15
2.89332e-15
1.63362e-15
5.21027e-16
8.52384e-17
1.79281e-17
8.92585e-18
5.7109e-18
3.64916e-18
2.09722e-18
9.25482e-19
3.48659e-19
3.26047e-17
9.18642e-17
2.16147e-16
4.28842e-16
7.4703e-16
1.08866e-15
1.3623e-15
1.3658e-15
1.02368e-15
5.08462e-16
1.38219e-16
1.93786e-17
3.94048e-18
1.84897e-18
1.06349e-18
5.99234e-19
2.99402e-19
1.12355e-19
3.20379e-20
1.81268e-17
4.54226e-17
9.86777e-17
1.82837e-16
2.98807e-16
4.21364e-16
5.01208e-16
4.68799e-16
3.2216e-16
1.41487e-16
3.32079e-17
4.08964e-18
8.08131e-19
3.49445e-19
1.78888e-19
8.84468e-20
3.83274e-20
1.22903e-20
2.68979e-21
8.00814e-18
1.82825e-17
3.72331e-17
6.63794e-17
1.04507e-16
1.42608e-16
1.62092e-16
1.42777e-16
9.03317e-17
3.53327e-17
7.27253e-18
8.12365e-19
1.56012e-19
6.06898e-20
2.73605e-20
1.18149e-20
4.43268e-21
1.21936e-21
2.08143e-22
2.80347e-18
6.03175e-18
1.18167e-17
2.07861e-17
3.18926e-17
4.2576e-17
4.63003e-17
3.87205e-17
2.26046e-17
7.94517e-18
1.46088e-18
1.53654e-19
2.85339e-20
9.76308e-21
3.83309e-21
1.43876e-21
4.66655e-22
1.10446e-22
1.49554e-23
7.91717e-19
1.66742e-18
3.2561e-18
5.69122e-18
8.52689e-18
1.1239e-17
1.17196e-17
9.35992e-18
5.05837e-18
1.61339e-18
2.70619e-19
2.7817e-20
4.95662e-21
1.4662e-21
4.95876e-22
1.60978e-22
4.50765e-23
9.1987e-24
1.00378e-24
1.81721e-19
3.90646e-19
7.8612e-19
1.3622e-18
2.00548e-18
2.63409e-18
2.63341e-18
2.01899e-18
1.01379e-18
2.96594e-19
4.63965e-20
4.80648e-21
8.16149e-22
2.06975e-22
5.97452e-23
1.66881e-23
4.02837e-24
7.09752e-25
6.32963e-26
3.59273e-20
7.99807e-20
1.65753e-19
2.8419e-19
4.18435e-19
5.47163e-19
5.27038e-19
3.88858e-19
1.82289e-19
4.94639e-20
7.37312e-21
7.85598e-22
1.26684e-22
2.75925e-23
6.76071e-24
1.6171e-24
3.35914e-25
5.11458e-26
3.77158e-27
6.271e-21
1.44638e-20
3.03268e-20
5.18586e-20
7.81025e-20
1.00186e-19
9.43525e-20
6.6883e-20
2.94629e-20
7.49718e-21
1.08561e-21
1.20119e-22
1.84058e-23
3.47966e-24
7.2388e-25
1.47786e-25
2.63737e-26
3.47117e-27
2.13557e-28
9.50345e-22
2.25846e-21
4.80894e-21
8.41174e-21
1.29785e-20
1.62247e-20
1.51351e-20
1.02828e-20
4.28872e-21
1.03431e-21
1.47833e-22
1.70121e-23
2.4858e-24
4.14546e-25
7.37235e-26
1.28418e-26
1.96665e-27
2.23684e-28
1.15623e-29
1.20313e-22
2.97518e-22
6.6979e-22
1.22212e-21
1.89688e-21
2.34967e-21
2.17075e-21
1.41692e-21
5.6315e-22
1.30067e-22
1.85743e-23
2.21569e-24
3.10316e-25
4.6488e-26
7.15769e-27
1.06773e-27
1.40352e-28
1.37947e-29
6.02162e-31
1.30773e-23
3.41099e-23
8.29213e-23
1.57714e-22
2.4432e-22
3.05651e-22
2.78232e-22
1.75496e-22
6.68188e-23
1.4929e-23
2.14823e-24
2.64213e-25
3.5664e-26
4.88474e-27
6.61893e-28
8.52662e-29
9.64539e-30
8.19672e-31
3.03203e-32
1.22309e-24
3.47004e-24
9.11617e-24
1.79447e-23
2.80731e-23
3.56317e-23
3.19585e-23
1.95788e-23
7.17891e-24
1.56599e-24
2.28297e-25
2.87852e-26
3.76446e-27
4.78762e-28
5.81077e-29
6.54442e-30
6.40733e-31
4.71571e-32
1.48233e-33
1.00687e-25
3.15696e-25
8.83712e-25
1.80782e-24
2.89782e-24
3.72045e-24
3.30157e-24
1.97131e-24
7.0009e-25
1.50312e-25
2.22703e-26
2.86382e-27
3.64551e-28
4.36089e-29
4.82119e-30
4.8173e-31
4.11834e-32
2.63444e-33
7.05837e-35
7.29137e-27
2.55531e-26
7.56579e-26
1.62304e-25
2.69096e-25
3.48855e-25
3.07712e-25
1.7957e-25
6.21315e-26
1.32203e-26
1.9937e-27
2.60357e-28
3.23882e-29
3.6821e-30
3.76329e-31
3.38714e-32
2.55745e-33
1.43034e-34
3.27913e-36
4.67255e-28
1.83064e-27
5.75547e-27
1.3052e-26
2.24898e-26
2.94834e-26
2.59426e-26
1.48413e-26
5.03154e-27
1.06713e-27
1.63879e-28
2.16598e-29
2.64198e-30
2.87793e-31
2.75308e-32
2.26433e-33
1.52934e-34
7.54015e-36
1.48687e-37
2.6547e-29
1.16196e-28
3.91232e-28
9.43722e-28
1.69468e-27
2.25394e-27
1.98388e-27
1.11639e-27
3.72847e-28
7.91957e-29
1.23826e-29
1.65219e-30
1.98151e-31
2.0815e-32
1.88253e-33
1.43297e-34
8.77009e-36
3.85014e-37
6.57532e-39
1.34126e-30
6.56086e-30
2.38702e-29
6.15488e-29
1.15477e-28
1.56391e-28
1.38028e-28
7.66784e-29
2.53548e-29
5.41473e-30
8.61494e-31
1.15826e-31
1.369e-32
1.39384e-33
1.2014e-34
8.5552e-36
4.80269e-37
1.89814e-38
2.83112e-40
6.04876e-32
3.31237e-31
1.31241e-30
3.63257e-30
7.14054e-30
9.88239e-30
8.76622e-30
4.82539e-30
1.58711e-30
3.41849e-31
5.53052e-32
7.48256e-33
8.73262e-34
8.65226e-35
7.15277e-36
4.80756e-37
2.50254e-38
9.00351e-40
1.18403e-41
2.44539e-33
1.5031e-32
6.52797e-32
1.94709e-31
4.02202e-31
5.70739e-31
5.10057e-31
2.7922e-31
9.17395e-32
1.99792e-32
3.28429e-33
4.46741e-34
5.1564e-35
4.98784e-36
3.97495e-37
2.53995e-38
1.23746e-39
4.09556e-41
4.79668e-43
8.90275e-35
6.16202e-34
2.94965e-33
9.51588e-33
2.07201e-32
3.024e-32
2.7293e-32
1.49126e-32
4.91322e-33
1.08401e-33
1.80932e-34
2.4728e-35
2.82661e-36
2.67642e-37
2.0645e-38
1.26149e-39
5.79751e-41
1.7819e-42
1.87712e-44
2.93209e-36
2.29359e-35
1.21604e-34
4.25862e-34
9.80474e-34
1.4759e-33
1.3486e-33
7.38011e-34
2.44666e-34
5.47697e-35
9.27585e-36
1.27324e-36
1.44301e-37
1.34036e-38
1.00403e-39
5.89449e-41
2.57192e-42
7.40175e-44
7.07882e-46
8.77515e-38
7.78969e-37
4.59549e-36
1.75328e-35
4.28107e-35
6.66423e-35
6.18004e-35
3.39844e-35
1.13711e-35
2.58556e-36
4.44061e-37
6.12017e-38
6.8838e-39
6.28376e-40
4.58334e-41
2.5952e-42
1.08077e-43
2.9328e-45
2.56776e-47
2.39678e-39
2.42594e-38
1.59981e-37
6.67334e-37
1.73316e-36
2.79687e-36
2.63847e-36
1.46249e-36
4.95175e-37
1.14459e-37
1.99241e-38
2.75669e-39
3.07972e-40
2.76689e-41
1.96947e-42
1.07891e-43
4.30702e-45
1.1085e-46
8.94985e-49
5.99853e-41
6.96208e-40
5.1571e-39
2.36061e-38
6.53913e-38
1.09638e-37
1.05451e-37
5.90844e-38
2.02882e-38
4.76992e-39
8.41127e-40
1.16816e-40
1.29712e-41
1.14839e-42
7.99168e-44
4.24652e-45
1.63076e-46
4e-48
2.99672e-50
1.38055e-42
1.8502e-41
1.54773e-40
7.80382e-40
2.31179e-39
4.03527e-39
3.96525e-39
2.25154e-39
7.85491e-40
1.87896e-40
3.35494e-41
4.67635e-42
5.16385e-43
4.50988e-44
3.07302e-45
1.58723e-46
5.88066e-48
1.38019e-49
9.64502e-52
2.93012e-44
4.57492e-43
4.3488e-42
2.42511e-41
7.70196e-41
1.40209e-40
1.41023e-40
8.13302e-41
2.88688e-41
7.02678e-42
1.26979e-42
1.77614e-43
1.95128e-44
1.68253e-45
1.12399e-46
5.653e-48
2.0255e-49
4.56372e-51
2.98785e-53
5.74529e-46
1.05731e-44
1.15064e-43
7.12779e-43
2.43251e-42
4.62506e-42
4.76905e-42
2.79873e-42
1.01184e-42
2.50583e-43
4.58061e-44
6.42864e-45
7.02881e-46
5.98803e-47
3.92598e-48
1.92552e-49
6.68552e-51
1.45007e-52
8.9268e-55
1.03997e-47
2.29199e-46
2.88277e-45
1.99391e-44
7.32902e-44
1.45733e-43
1.54262e-43
9.22601e-44
3.39966e-44
8.56362e-45
1.5826e-45
2.22793e-46
2.42467e-47
2.04187e-48
1.31495e-49
6.29656e-51
2.12189e-52
4.44026e-54
2.5781e-56
1.74083e-49
4.69186e-48
6.89192e-47
5.34601e-46
2.11904e-45
4.40845e-45
4.79454e-45
2.92575e-45
1.09937e-45
2.81593e-46
5.25881e-47
7.42489e-48
8.04509e-49
6.70063e-50
4.24204e-51
1.98552e-52
6.50409e-54
1.31568e-55
7.22424e-58
2.56555e-51
8.88068e-50
1.56498e-48
1.37914e-47
5.9218e-47
1.29067e-46
1.44297e-46
8.98776e-47
3.44284e-47
8.95941e-48
1.68941e-48
2.39112e-49
2.57927e-50
2.12511e-51
1.32311e-52
6.05651e-54
1.93016e-55
3.77911e-57
1.96644e-59
)
;

boundaryField
{
    leftWall
    {
        type            zeroGradient;
    }
    rightWall
    {
        type            zeroGradient;
    }
    lowerWall
    {
        type            zeroGradient;
    }
    atmosphere
    {
        type            inletOutlet;
        inletValue      uniform 0;
        value           nonuniform List<scalar> 
46
(
0
0
0
0
0
0
0
0
0
0
0
0
0
0
0
0
0
0
0
0
0
0
0
2.59174e-57
1.33334e-55
4.50633e-54
1.14407e-52
2.56555e-51
8.88068e-50
1.56498e-48
1.37914e-47
5.9218e-47
1.29067e-46
1.44297e-46
8.98776e-47
3.44284e-47
8.95941e-48
1.68941e-48
2.39112e-49
2.57927e-50
2.12511e-51
1.32311e-52
6.05651e-54
1.93016e-55
3.77911e-57
1.96644e-59
)
;
    }
    defaultFaces
    {
        type            empty;
    }
}


// ************************************************************************* //
