/*--------------------------------*- C++ -*----------------------------------*\
| =========                 |                                                 |
| \\      /  F ield         | OpenFOAM: The Open Source CFD Toolbox           |
|  \\    /   O peration     | Version:  2.4.0                                 |
|   \\  /    A nd           | Web:      www.OpenFOAM.org                      |
|    \\/     M anipulation  |                                                 |
\*---------------------------------------------------------------------------*/
FoamFile
{
    version     2.0;
    format      ascii;
    class       volScalarField;
    location    "0.2";
    object      p;
}
// * * * * * * * * * * * * * * * * * * * * * * * * * * * * * * * * * * * * * //

dimensions      [1 -1 -2 0 0 0 0];

internalField   nonuniform List<scalar> 
2268
(
10807.8
10773.9
10706.6
10603.6
10470.4
10298.3
10091.3
9871.63
9556.97
9286.2
8928.02
8458.66
7998.83
7563.33
7122.81
6690.09
6378.85
6369.82
6669.72
7971.37
10327.8
13550.6
17450.8
10011.4
9977.39
9909.75
9806.26
9672.48
9499.31
9292.43
9067.43
8760.69
8477.94
8115.13
7648.24
7185.83
6740.16
6286.43
5835.86
5501.55
5419.01
5708.61
6811.26
9017.01
12351.9
16086.7
9214.92
9180.67
9112.45
9008.07
8872.92
8697.78
8490.92
8258.72
7959.77
7662.03
7287.54
6824.22
6357.3
5890.55
5401.4
4917.74
4522.01
4363.57
4661.51
5557.21
7489
10631.6
14628.5
8418.5
8383.9
8314.84
8209.13
8071.81
7894.15
7685.89
7448.29
7153.18
6838.97
6447.7
5987.7
5513.46
5010.34
4467.65
3930.55
3426.3
2987.37
2829.41
3277.47
5288.03
8417.7
12693.4
7622.33
7587.31
7517.16
7409.66
7269.42
7088.38
6877.89
6635.13
6342.53
6010.34
5598.97
5144.97
4651.33
4086.88
3484.28
2852.89
2295.5
1960.22
1899.23
2019.07
2619.84
5430.96
10034.1
6826.8
6791.28
6719.85
6610.12
6466.22
6281.15
6067.03
5820.1
5529.61
5180.13
4746.91
4291.55
3752.37
3132.5
2418.67
1987.16
1778.15
1775.49
1829.15
1898.77
1895.5
3247.17
6718.05
6032.25
5996.26
5923.47
5811.02
5662.89
5472.56
5253.21
5003.71
4718.71
4352.27
3893.47
3408.08
2795.58
2154.2
1831.77
1768.04
1772.17
1766.21
1744.97
1802.62
1835.2
2116.7
3801.59
5238.11
5201.66
5127.4
5011.11
4857.29
4657.08
4425.95
4164.09
3891.17
3497.67
3040.19
2534.81
2065.47
1707.37
1717.68
1721.25
1674.74
1629.32
1609.77
1663.3
1724.71
1663.4
1991.62
-758.606
-759.805
-734.347
-628.347
-349.042
381.505
836.942
943.358
918.871
847.078
752.733
657.233
571.052
504.793
457.434
486.458
683.061
1220.11
2612.69
-763.531
-766.451
-763.924
-721.421
-359.754
312.798
757.131
872.273
860.372
792.522
699.463
604.482
511.959
431.937
379.72
400.91
568.044
1031.76
2339.5
-763.034
-764.962
-768.064
-757.611
-502.641
252.442
666.252
785.779
789.515
733.561
650.178
556.974
459.893
371.02
306.163
296.326
399.471
545.555
1915.29
-763.732
-766.183
-767.214
-767.137
-641.274
161.064
561.604
685.204
704.923
657.265
581.685
491.051
390.311
291.718
225.418
182.786
54.3876
69.8098
1332.36
-764.713
-767.344
-767.865
-766.964
-699.716
52.6373
448.526
585.336
615.347
576.783
506.294
418.516
316.301
221.869
141.289
24.2177
6.14236
2.27245
226.402
-765.26
-767.629
-768.068
-767.44
-684.815
-35.6012
336.29
486.096
522.234
491.801
425.727
340.451
247.55
139.447
17.8597
1.25011
2.26862
0.344389
18.4035
-765.224
-767.573
-767.927
-762.373
-624.744
-99.0137
232.909
389.228
431.245
404.746
343.874
266.155
169.25
21.9191
1.58519
0.603029
2.1577
0.23531
11.7539
-764.911
-767.468
-767.98
-747.528
-565.421
-143.152
147.199
297.237
343.883
319.379
263.252
191.81
44.973
3.49921
0.626219
0.297583
1.3281
-1.10034
8.4182
3988.43
3951.2
3874.73
3751.61
3589.73
3363.91
3073.18
2731.05
2383.57
2082.3
1787.6
1639.01
1583.85
1612.83
1602.62
1562.32
1525.58
1499
1494.35
1486.26
1475.48
1435.42
216.086
2151.54
2116.94
2054.4
1975.4
1890.4
1791.73
1660.12
1560.15
1479.66
1440.38
1437.14
1458.85
1472.82
1454.53
1414.93
1366.73
1334.47
1310.74
1294.57
1296.95
1252.07
1269.7
958.782
1346.56
1342.44
1334.27
1324.6
1312.52
1309.07
1327.33
1350.72
1368.51
1376.97
1369.11
1343.89
1308.95
1273.94
1229.94
1181.38
1142.74
1117.2
1118.9
1129.35
1109.54
1097.35
975.903
1274.31
1275.39
1277.11
1279.51
1283.92
1287.62
1280.72
1263.53
1243.56
1224.07
1202.07
1181.04
1150.93
1107.17
1053.78
1000.65
955.354
939.258
957.948
975.836
972.942
948.177
873.609
1145.03
1143.74
1141.6
1137.88
1132.47
1125.66
1117.38
1108.48
1097.87
1081.87
1059.14
1032.2
993.232
940.897
883.642
832.223
790.653
793.043
821.244
841.026
843.766
818.24
765.187
1011.51
1010.73
1009.1
1006.44
1001.53
993.835
985.011
974.23
959.879
939.402
914.163
880.72
833.693
778.509
723.781
676.418
656.681
675.905
705.449
721.315
723.492
698.321
650.088
881.029
879.567
876.609
871.839
864.756
855.565
844.456
831.233
815.18
793.634
768.404
733.01
680.712
624.168
571.225
533.303
545.865
572.544
598.68
610.559
608.678
583.014
537.016
747.334
745.529
741.746
735.851
727.583
717.159
704.917
690.616
673.668
651.613
625.11
586.721
532.294
479
435.358
428.817
452.65
478.678
497.597
504.274
496.571
469.928
426.206
613.377
611.249
606.81
599.766
590.072
577.842
563.947
548.868
532.485
511.831
486.218
445.118
388.996
343.198
323.039
343.852
369.986
391.02
402.919
400.839
386.814
357.732
315.977
479.751
477.492
472.661
464.707
453.169
438.395
422.123
406.66
392.743
375.806
355.186
310.872
256.974
231.448
241.041
268.145
290.211
303.74
307.232
298.333
278.424
246.124
206.305
348.178
346.118
341.345
332.738
318.712
298.555
275.282
255.628
243.118
229.791
213.739
183.904
156.946
153.179
172.603
199.957
213.226
219.012
213.913
196.967
172.902
129.881
71.5028
206.442
204.637
200.108
190.931
173.773
144.759
106.074
73.8785
60.5218
61.2179
64.0841
59.2858
69.3099
90.9041
112.278
126.995
135.189
135.403
120.691
85.3656
51.2299
22.1515
4.61586
48.6283
49.0762
49.8223
50.8432
50.618
44.2383
26.6835
12.7803
6.52359
3.43529
2.18026
7.66765
17.7064
23.731
30.0982
35.1243
36.997
36.4318
30.0536
10.8727
3.78008
2.69592
3.22917
4.88501
4.60999
4.06696
3.32379
2.48983
1.86438
1.97176
2.44582
2.93725
3.44072
3.6524
3.14231
3.62461
4.2979
4.82652
5.0128
4.44286
3.54322
2.7919
2.95609
3.44732
3.82736
3.58018
3.27383
3.34882
3.49983
3.72776
4.02626
4.36718
4.68406
4.63261
4.35151
4.05625
3.81887
3.65837
3.41829
3.10153
2.98921
3.00049
3.12422
3.33117
3.59129
3.85057
3.58566
3.2828
3.24719
4.09433
4.05595
3.98465
3.89479
3.80756
3.70555
3.50398
3.40439
3.34488
3.34164
3.39184
3.40345
3.41842
3.58787
3.70467
3.72707
3.63597
3.45417
3.26277
3.13671
3.14996
3.17314
3.16794
3.14095
3.16748
3.21396
3.27716
3.34618
3.39746
3.40776
3.4265
3.44989
3.43852
3.38714
3.2816
3.17015
3.06723
2.99902
2.97783
2.98685
3.0072
3.03702
3.06886
3.11034
3.0774
3.04982
3.47586
3.46565
3.4543
3.43948
3.41986
3.39182
3.35476
3.3264
3.30718
3.28801
3.25272
3.21132
3.186
3.18665
3.18795
3.17435
3.14495
3.09383
3.04542
3.01006
2.97783
2.95959
2.9411
3.24648
3.24453
3.23897
3.23118
3.22095
3.20756
3.19092
3.17549
3.16228
3.14776
3.12506
3.09732
3.07338
3.05908
3.04853
3.0312
3.00003
2.96119
2.92926
2.90533
2.8845
2.86309
2.83905
3.093
3.0923
3.08933
3.08431
3.07692
3.06694
3.05478
3.042
3.02897
3.01401
2.99501
2.97279
2.95258
2.93614
2.92213
2.90679
2.88653
2.86176
2.83487
2.80486
2.77954
2.75702
2.7316
2.95059
2.9493
2.94633
2.94162
2.9351
2.9267
2.91661
2.90549
2.89351
2.87975
2.86373
2.84729
2.83209
2.8177
2.80376
2.78863
2.77113
2.75089
2.72598
2.69726
2.67047
2.64499
2.61898
2.80811
2.80681
2.80414
2.80001
2.79441
2.78734
2.77892
2.7694
2.75878
2.74681
2.7338
2.72071
2.70737
2.69382
2.67959
2.6644
2.64778
2.62876
2.60655
2.58188
2.55458
2.5307
2.50658
2.6666
2.66542
2.66305
2.65944
2.65456
2.64846
2.64121
2.63292
2.62357
2.61321
2.60214
2.59052
2.57833
2.56553
2.55187
2.53729
2.52106
2.50258
2.48283
2.46102
2.43819
2.41513
2.39169
2.52596
2.5249
2.52277
2.51957
2.5153
2.50997
2.50363
2.4963
2.48801
2.47885
2.46901
2.45849
2.44725
2.43538
2.42302
2.40979
2.39504
2.37831
2.35926
2.33911
2.31881
2.29792
2.27692
2.386
2.38505
2.38315
2.3803
2.3765
2.37178
2.36616
2.35967
2.35236
2.34431
2.33559
2.32616
2.31608
2.30525
2.2935
2.28055
2.26634
2.2511
2.2346
2.21678
2.19773
2.17819
2.15812
2.24663
2.24578
2.2441
2.24157
2.23822
2.23405
2.22907
2.22332
2.21682
2.20963
2.20175
2.19317
2.18384
2.17374
2.16286
2.15109
2.13819
2.12405
2.10875
2.09255
2.07568
2.05794
2.03959
2.10764
2.10689
2.10539
2.10315
2.10019
2.09649
2.09208
2.08698
2.0812
2.07475
2.06764
2.05985
2.05137
2.04217
2.03217
2.02126
2.00942
1.99664
1.98288
1.96815
1.95264
1.93647
1.91989
1.96904
1.96837
1.96704
1.96505
1.96241
1.95912
1.9552
1.95065
1.94548
1.93971
1.93332
1.92629
1.91859
1.91018
1.90101
1.89106
1.88026
1.86858
1.85607
1.84284
1.82894
1.81436
1.79931
1.83082
1.83023
1.82906
1.82731
1.82499
1.82209
1.81862
1.81459
1.80999
1.80483
1.79908
1.79273
1.78576
1.77814
1.76984
1.76081
1.75104
1.7405
1.72922
1.71726
1.70469
1.69156
1.67799
1.69285
1.69233
1.6913
1.68976
1.68772
1.68516
1.6821
1.67854
1.67446
1.66987
1.66475
1.65908
1.65283
1.64599
1.63851
1.63038
1.62158
1.61211
1.60199
1.59127
1.58001
1.56823
1.55605
1.55518
1.55473
1.55384
1.5525
1.55072
1.54849
1.54582
1.5427
1.53911
1.53506
1.53052
1.52548
1.51993
1.51382
1.50716
1.4999
1.49205
1.4836
1.47457
1.46501
1.45495
1.44444
1.43356
1.41772
1.41734
1.41657
1.41542
1.41388
1.41196
1.40965
1.40694
1.40382
1.40029
1.39632
1.39191
1.38702
1.38165
1.37576
1.36935
1.36241
1.35494
1.34695
1.33848
1.32957
1.32025
1.31059
1.28048
1.28015
1.27951
1.27853
1.27723
1.2756
1.27363
1.27132
1.26865
1.26561
1.2622
1.25838
1.25414
1.24947
1.24435
1.23876
1.2327
1.22617
1.21917
1.21174
1.20391
1.19572
1.18721
1.14341
1.14314
1.14261
1.1418
1.14072
1.13937
1.13773
1.1358
1.13356
1.13101
1.12812
1.12489
1.12129
1.11731
1.11292
1.10813
1.10292
1.09728
1.09124
1.0848
1.07801
1.07088
1.06346
1.0065
1.00628
1.00585
1.00521
1.00434
1.00325
1.00193
1.00037
0.998549
0.996465
0.994099
0.991436
0.988456
0.985143
0.981481
0.977455
0.973061
0.968296
0.963165
0.957682
0.951871
0.945757
0.939377
0.869703
0.869536
0.869214
0.868723
0.868064
0.867231
0.866214
0.865006
0.863595
0.861966
0.860106
0.857998
0.855623
0.852965
0.850004
0.84673
0.843132
0.839206
0.834956
0.830389
0.825523
0.82038
0.814991
0.733009
0.732888
0.732666
0.732323
0.731861
0.731273
0.730551
0.729687
0.72867
0.727486
0.72612
0.724555
0.722774
0.720757
0.718485
0.715942
0.713119
0.710009
0.706612
0.702929
0.698974
0.694763
0.690323
0.596381
0.596296
0.596169
0.595965
0.595693
0.595342
0.594905
0.594377
0.593746
0.592997
0.592115
0.591086
0.58989
0.588505
0.586908
0.585082
0.583013
0.580696
0.578128
0.575304
0.572229
0.568915
0.565391
0.459772
0.459703
0.459667
0.459601
0.459517
0.459402
0.459256
0.459066
0.458818
0.458494
0.458083
0.457577
0.456956
0.456191
0.45526
0.454135
0.452802
0.451261
0.449504
0.447516
0.445289
0.442845
0.440216
0.323247
0.323178
0.323231
0.323298
0.323398
0.323525
0.323665
0.323795
0.323905
0.323978
0.324004
0.323971
0.323856
0.323646
0.323337
0.322921
0.322373
0.321648
0.320715
0.319559
0.318149
0.31648
0.314615
0.186951
0.186945
0.187076
0.187258
0.187513
0.187827
0.188188
0.188594
0.189031
0.189489
0.189949
0.190378
0.190761
0.191099
0.191374
0.191574
0.191684
0.191688
0.191568
0.191307
0.190893
0.190269
0.189274
0.0505442
0.0505946
0.0508063
0.0510948
0.0515014
0.0520169
0.0526321
0.0533338
0.0541101
0.0549481
0.0558316
0.0567483
0.0576822
0.0586059
0.0594915
0.0603136
0.0610467
0.0616646
0.0621443
0.0624721
0.0626519
0.0627145
0.0627494
-1876.26
-988.924
-804.516
-778.463
172.58
-304.158
-679.132
-788.394
598.643
229.482
-145.461
-415.219
714.868
562.669
382.19
218.813
682.851
609.976
521.518
415.14
584.767
533.964
474.075
407.531
486.311
448.15
404.608
357.096
383.015
352.218
317.669
279.218
275.828
247.063
215.826
181.433
162.979
129.896
92.1767
49.5226
30.6767
12.4253
4.70052
3.71659
3.18915
3.37437
3.5242
3.56719
3.30871
3.38624
3.48607
3.4472
3.46144
3.43213
3.41183
3.37772
3.25112
3.24892
3.23844
3.21904
3.1438
3.13085
3.11633
3.09846
3.03184
3.01779
3.00199
2.98557
2.9233
2.90988
2.89487
2.87895
2.8179
2.80333
2.78808
2.77247
2.71004
2.69627
2.68161
2.66611
2.59966
2.58781
2.57484
2.5604
2.48859
2.47723
2.46355
2.44992
2.37537
2.36453
2.35275
2.34021
2.2606
2.25033
2.23982
2.22833
2.14367
2.13438
2.12486
2.11469
2.02609
2.01749
2.00881
1.99968
1.90751
1.89961
1.89169
1.88348
1.78805
1.78084
1.77364
1.76625
1.66781
1.66127
1.65474
1.6481
1.54688
1.54098
1.53509
1.52912
1.42536
1.42006
1.41477
1.40943
1.3033
1.29858
1.29386
1.2891
1.18078
1.17661
1.17242
1.16822
1.05784
1.05419
1.05052
1.04683
0.934525
0.931374
0.928198
0.925
0.810875
0.808197
0.805493
0.802766
0.686914
0.684691
0.682439
0.680166
0.562659
0.560874
0.559062
0.557225
0.438128
0.436763
0.435374
0.433964
0.313247
0.31233
0.311376
0.310388
0.188385
0.187789
0.187175
0.186558
0.0626207
0.0625195
0.0624003
0.0622546
-764.388
-767.669
-769.115
-709.417
-489.851
-181.738
48.7522
175.726
215.909
198.217
140.044
24.371
2.53134
0.87274
0.69641
-0.483558
0.0984612
-2.67707
3.68908
-773.304
-768.265
-696.551
-522.322
-338.884
-161.627
-19.034
63.704
84.7498
55.0795
10.2845
2.11714
1.15226
1.3858
0.835553
-0.245916
0.273948
-2.30121
2.22806
-607.26
-514.146
-424.92
-332.812
-228.96
-124.892
-36.5691
14.0446
18.7694
4.55635
1.91153
1.86445
1.86465
1.60404
1.24142
0.732834
0.827133
0.207424
3.14989
-12.0892
-168.22
-190.893
-168.53
-131.298
-71.4506
-16.2299
4.30125
2.22708
1.91214
1.96586
1.92112
1.93823
1.86569
1.73558
1.63977
1.89898
2.41681
4.15847
232.957
59.3337
-28.5177
-52.8024
-45.7025
-15.6683
6.45676
2.80525
1.75414
1.92246
2.00593
2.05745
2.10749
2.13344
2.17757
2.31786
2.74049
3.49312
4.38211
293.466
161.146
68.3907
19.3883
8.54179
9.6627
3.18631
2.21806
2.07163
1.95899
2.10306
2.20155
2.28263
2.37122
2.51273
2.74961
3.12139
3.75355
4.2215
274.435
172.964
95.6962
46.3525
13.4489
3.71795
2.5787
2.52059
2.35943
2.28895
2.29374
2.3564
2.442
2.55532
2.71854
2.95385
3.27527
3.7103
3.97376
212.42
130.905
59.9959
14.8654
3.51436
2.74106
2.90878
2.54261
2.50737
2.46144
2.46172
2.50192
2.5737
2.68567
2.84135
3.04622
3.29584
3.58792
3.74742
116.595
38.3326
6.86274
3.07916
2.96791
2.97316
2.78534
2.69124
2.61683
2.58045
2.58118
2.61203
2.67455
2.77301
2.90684
3.07248
3.25838
3.45451
3.55644
12.102
3.56958
3.0637
3.63514
3.1345
2.99587
2.85928
2.76479
2.70046
2.66402
2.6621
2.68749
2.74077
2.82254
2.93109
3.05978
3.19602
3.32839
3.39606
3.43635
3.56379
3.59665
3.24863
3.11527
2.99586
2.88871
2.806
2.74862
2.71697
2.71234
2.73172
2.77502
2.84082
2.92604
3.02377
3.12285
3.21289
3.25911
3.68539
3.45494
3.30671
3.22434
3.09156
2.98306
2.89192
2.81981
2.77028
2.74231
2.73607
2.75013
2.7838
2.83504
2.90028
2.97333
3.04534
3.10636
3.13878
3.33373
3.32478
3.25246
3.1485
3.04458
2.95367
2.87482
2.81475
2.77066
2.74523
2.73752
2.74681
2.77188
2.81059
2.85949
2.91329
2.96516
3.00726
3.03003
3.33005
3.23259
3.1504
3.06658
2.98475
2.90801
2.84301
2.79125
2.75266
2.72938
2.72044
2.72555
2.74327
2.77161
2.80747
2.84655
2.88364
2.91298
2.92893
3.1807
3.1216
3.05299
2.98279
2.91655
2.85198
2.79777
2.75313
2.7193
2.69785
2.68795
2.68955
2.70121
2.72119
2.74684
2.77478
2.80105
2.82153
2.83263
3.06582
3.01549
2.95785
2.89836
2.84222
2.78774
2.74169
2.70321
2.67325
2.65335
2.64274
2.64147
2.64826
2.66163
2.67941
2.69896
2.7173
2.7315
2.7392
2.95725
2.91352
2.8625
2.81161
2.76369
2.71692
2.67709
2.64354
2.61671
2.59812
2.58701
2.58347
2.58642
2.59465
2.60641
2.61967
2.6322
2.64188
2.64711
2.85243
2.81104
2.76706
2.72322
2.68081
2.64066
2.60556
2.57577
2.55154
2.53399
2.52256
2.51727
2.51726
2.52154
2.52874
2.5373
2.54556
2.55197
2.55544
2.74723
2.71004
2.67082
2.63218
2.59412
2.55929
2.528
2.50128
2.47916
2.46248
2.45087
2.44427
2.44201
2.4433
2.44708
2.45214
2.45726
2.4613
2.46351
2.64207
2.60853
2.57278
2.53808
2.50441
2.47342
2.44529
2.42103
2.40068
2.38477
2.3731
2.36556
2.36163
2.36069
2.36192
2.36439
2.36721
2.36951
2.37075
2.53671
2.50544
2.47314
2.44143
2.41149
2.3835
2.35807
2.33587
2.31701
2.30182
2.2902
2.28202
2.27689
2.27431
2.27366
2.27423
2.27536
2.27642
2.277
2.43013
2.401
2.37128
2.34245
2.31546
2.29
2.26687
2.24646
2.22888
2.2144
2.20292
2.19435
2.18839
2.18464
2.18263
2.18183
2.18173
2.18189
2.18203
2.32059
2.2945
2.26735
2.2411
2.21656
2.19334
2.17219
2.15335
2.13692
2.12313
2.11189
2.10313
2.09663
2.09207
2.08911
2.08733
2.08636
2.08586
2.08564
2.20974
2.18597
2.16139
2.13749
2.11509
2.09386
2.07444
2.057
2.04164
2.02853
2.01762
2.00884
2.00202
1.99694
1.99332
1.99087
1.98928
1.98832
1.98785
2.09778
2.07565
2.05345
2.03172
2.01126
1.99185
1.97398
1.95782
1.94348
1.93105
1.92052
1.91185
1.90491
1.89953
1.8955
1.89259
1.8906
1.88933
1.88869
1.98433
1.96399
1.94375
1.924
1.90532
1.88756
1.87114
1.85617
1.84278
1.83105
1.82097
1.81252
1.80559
1.80008
1.79581
1.79263
1.79038
1.78892
1.78818
1.86961
1.85098
1.83255
1.81458
1.79751
1.78127
1.76618
1.75235
1.73988
1.72885
1.71926
1.71111
1.70432
1.6988
1.69444
1.69113
1.68873
1.68715
1.68635
1.75373
1.73674
1.71999
1.70365
1.68806
1.67323
1.65938
1.64662
1.63504
1.62472
1.61566
1.60787
1.6013
1.59588
1.59154
1.58819
1.58574
1.58411
1.58328
1.63682
1.62139
1.6062
1.59137
1.57717
1.56364
1.55095
1.53922
1.52851
1.51889
1.5104
1.50302
1.49673
1.4915
1.48726
1.48395
1.4815
1.47987
1.47904
1.519
1.50505
1.49132
1.4779
1.465
1.45269
1.44111
1.43035
1.42049
1.41159
1.40367
1.39674
1.39079
1.3858
1.38172
1.37851
1.37613
1.37453
1.37372
1.40038
1.38783
1.37547
1.36336
1.3517
1.34054
1.33002
1.3202
1.31117
1.30298
1.29565
1.28921
1.28364
1.27893
1.27506
1.272
1.26971
1.26818
1.2674
1.28105
1.26983
1.25875
1.2479
1.2374
1.22735
1.21783
1.20893
1.20071
1.19323
1.1865
1.18056
1.17539
1.17101
1.16738
1.1645
1.16235
1.1609
1.16016
1.1611
1.15113
1.14128
1.13161
1.12223
1.11322
1.10468
1.09667
1.08925
1.08247
1.07636
1.07093
1.0662
1.06216
1.05881
1.05614
1.05414
1.05279
1.0521
1.0406
1.03183
1.02314
1.01459
1.00628
0.998291
0.990694
0.983553
0.976921
0.97084
0.96534
0.960442
0.956157
0.952489
0.949438
0.946999
0.945164
0.943926
0.943296
0.919598
0.911971
0.904394
0.896926
0.889653
0.882646
0.875969
0.86968
0.863825
0.858443
0.853563
0.849205
0.845382
0.842101
0.839364
0.837171
0.835519
0.834405
0.833836
0.798158
0.791628
0.785122
0.778698
0.772429
0.766378
0.760602
0.755152
0.750068
0.745385
0.741128
0.737318
0.733969
0.731089
0.728681
0.726749
0.725291
0.724305
0.723803
0.676318
0.670848
0.665379
0.65997
0.65468
0.649567
0.644678
0.640057
0.63574
0.631756
0.628128
0.624875
0.622009
0.619541
0.617475
0.615813
0.614558
0.61371
0.613276
0.554113
0.549669
0.545213
0.540796
0.536469
0.53228
0.52827
0.524475
0.520923
0.517641
0.514648
0.511961
0.50959
0.507545
0.505831
0.504451
0.503407
0.502699
0.502338
0.431567
0.428128
0.424667
0.421229
0.417854
0.414583
0.411449
0.408478
0.405696
0.403121
0.400771
0.398657
0.396791
0.39518
0.393828
0.392738
0.39191
0.391349
0.391062
0.308693
0.306241
0.303764
0.301297
0.29887
0.296516
0.294259
0.29212
0.290115
0.288258
0.286561
0.285033
0.283684
0.282517
0.281538
0.280747
0.280144
0.279736
0.279525
0.185526
0.18405
0.182556
0.181063
0.179587
0.17815
0.176776
0.175475
0.174254
0.173123
0.172088
0.171157
0.170335
0.169626
0.169034
0.168558
0.168195
0.167942
0.16781
0.0619641
0.0614944
0.0610023
0.0605053
0.0600197
0.0595457
0.0590767
0.0586216
0.0581902
0.0577887
0.0574216
0.057092
0.0568019
0.0565529
0.0563475
0.0561911
0.0560895
0.0560166
0.055972
)
;

boundaryField
{
    leftWall
    {
        type            fixedFluxPressure;
        gradient        uniform 0;
        value           nonuniform List<scalar> 
50
(
10807.8
10011.4
9214.92
8418.5
7622.33
6826.8
6032.25
5238.11
3988.43
2151.54
1346.56
1274.31
1145.03
1011.51
881.029
747.334
613.377
479.751
348.178
206.442
48.6283
4.88501
3.27383
4.09433
3.14095
3.47586
3.24648
3.093
2.95059
2.80811
2.6666
2.52596
2.386
2.24663
2.10764
1.96904
1.83082
1.69285
1.55518
1.41772
1.28048
1.14341
1.0065
0.869703
0.733009
0.596381
0.459772
0.323247
0.186951
0.0505442
)
;
    }
    rightWall
    {
        type            fixedFluxPressure;
        gradient        uniform 0;
        value           nonuniform List<scalar> 
50
(
2612.69
2339.5
1915.29
1332.36
226.402
18.4035
11.7539
8.4182
3.68908
2.22806
3.14989
4.15847
4.38211
4.2215
3.97376
3.74742
3.55644
3.39606
3.25911
3.13878
3.03003
2.92893
2.83263
2.7392
2.64711
2.55544
2.46351
2.37075
2.277
2.18203
2.08564
1.98785
1.88869
1.78818
1.68635
1.58328
1.47904
1.37372
1.2674
1.16016
1.0521
0.943296
0.833836
0.723803
0.613276
0.502338
0.391062
0.279525
0.16781
0.055972
)
;
    }
    lowerWall
    {
        type            fixedFluxPressure;
        gradient        nonuniform List<scalar> 
62
(
132719
132719
132719
132719
132719
132719
132719
132719
132719
132719
132719
132719
132719
132719
132719
132719
132719
132718
132716
132712
132558
131192
129869
0
0
0
0
0
0
0
0
8867.12
6172.36
642.386
18.9829
0
0
0
0
0
0
0
0
12.5122
89.4081
2915.28
4686.44
4758.44
4733.97
4568.91
4416.82
4111.93
2951.81
2588.97
3147.7
3595.54
2883.1
498.412
279.673
500.666
2651.35
3813.52
)
;
        value           nonuniform List<scalar> 
62
(
11206
11172.1
11104.7
11001.7
10868.6
10696.4
10489.5
10269.8
9955.12
9684.35
9326.17
8856.81
8396.98
7961.48
7520.96
7088.24
6777
6767.96
7067.86
8369.5
10725.5
13944.1
17840.4
17450.8
16086.7
14628.5
12693.4
10034.1
6718.05
3801.59
1991.62
-1819.68
-949.538
-800.417
-778.342
-758.606
-763.531
-763.034
-763.732
-764.713
-765.26
-765.224
-764.911
-758.568
-759.536
-725.602
-614.288
-334.767
395.706
850.648
956.608
931.207
855.934
760.5
666.676
581.838
513.442
458.929
487.297
684.563
1228.06
2624.13
)
;
    }
    atmosphere
    {
        type            totalPressure;
        U               U.air;
        phi             phi.air;
        rho             rho;
        psi             none;
        gamma           1;
        p0              uniform 0;
        value           nonuniform List<scalar> 
46
(
-0.0183078
-0.0186328
-0.0183543
-0.0179325
-0.0173596
-0.016647
-0.0158062
-0.0148491
-0.0137902
-0.0126457
-0.0114335
-0.0101732
-0.00888455
-0.00759039
-0.00631587
-0.00508745
-0.00393223
-0.00287733
-0.0019497
-0.00117651
-0.000584309
-0.000199936
0
0
0
0
0
0
0
0
0
0
0
0
0
0
0
0
0
0
0
0
0
0
0
0
)
;
    }
    defaultFaces
    {
        type            empty;
    }
}


// ************************************************************************* //
