/*--------------------------------*- C++ -*----------------------------------*\
| =========                 |                                                 |
| \\      /  F ield         | OpenFOAM: The Open Source CFD Toolbox           |
|  \\    /   O peration     | Version:  2.4.0                                 |
|   \\  /    A nd           | Web:      www.OpenFOAM.org                      |
|    \\/     M anipulation  |                                                 |
\*---------------------------------------------------------------------------*/
FoamFile
{
    version     2.0;
    format      ascii;
    class       surfaceScalarField;
    location    "0.2";
    object      phi;
}
// * * * * * * * * * * * * * * * * * * * * * * * * * * * * * * * * * * * * * //

dimensions      [0 3 -1 0 0 0 0];

internalField   nonuniform List<scalar> 
4432
(
3.12217e-06
-3.12218e-06
6.27807e-06
-3.15589e-06
9.49586e-06
-3.2178e-06
1.28188e-05
-3.32295e-06
1.62275e-05
-3.40871e-06
1.98932e-05
-3.66565e-06
2.34137e-05
-3.52052e-06
2.82015e-05
-4.78784e-06
3.15039e-05
-3.3024e-06
3.6499e-05
-4.99503e-06
4.28415e-05
-6.34259e-06
4.8457e-05
-5.61549e-06
5.31746e-05
-4.71757e-06
5.80605e-05
-4.88587e-06
6.37035e-05
-5.64302e-06
7.04535e-05
-6.75003e-06
7.68379e-05
-6.38441e-06
8.22879e-05
-5.44999e-06
8.2937e-05
-6.49101e-07
7.82367e-05
4.7003e-06
6.20084e-05
1.62284e-05
3.31099e-05
2.88985e-05
3.31099e-05
3.11664e-06
-6.23882e-06
6.26729e-06
-6.30655e-06
9.48027e-06
-6.43078e-06
1.28001e-05
-6.64279e-06
1.61984e-05
-6.80698e-06
1.98536e-05
-7.32085e-06
2.3478e-05
-7.14495e-06
2.79992e-05
-9.30899e-06
3.14691e-05
-6.77236e-06
3.65955e-05
-1.01214e-05
4.29326e-05
-1.26796e-05
4.82081e-05
-1.0891e-05
5.25527e-05
-9.06215e-06
5.76733e-05
-1.00065e-05
6.44251e-05
-1.23949e-05
7.19501e-05
-1.4275e-05
7.92564e-05
-1.36907e-05
8.47678e-05
-1.09614e-05
8.60294e-05
-1.91068e-06
8.12316e-05
9.49805e-06
6.40107e-05
3.34493e-05
3.66265e-05
5.62826e-05
6.97364e-05
3.10203e-06
-9.34085e-06
6.23811e-06
-9.44263e-06
9.4385e-06
-9.63117e-06
1.27441e-05
-9.94836e-06
1.61284e-05
-1.01913e-05
1.97585e-05
-1.0951e-05
2.34436e-05
-1.08301e-05
2.76537e-05
-1.35191e-05
3.14528e-05
-1.05714e-05
3.65869e-05
-1.52555e-05
4.2643e-05
-1.87358e-05
4.76967e-05
-1.59447e-05
5.22061e-05
-1.35716e-05
5.80032e-05
-1.58035e-05
6.53894e-05
-1.97811e-05
7.35576e-05
-2.24433e-05
8.08633e-05
-2.09963e-05
8.57462e-05
-1.58443e-05
8.81166e-05
-4.28107e-06
8.48893e-05
1.27254e-05
6.95807e-05
4.87578e-05
3.97854e-05
8.6078e-05
0.000109522
3.08019e-06
-1.2421e-05
6.19451e-06
-1.2557e-05
9.37708e-06
-1.28137e-05
1.26578e-05
-1.32291e-05
1.6029e-05
-1.35625e-05
1.96199e-05
-1.45419e-05
2.33099e-05
-1.452e-05
2.72969e-05
-1.75062e-05
3.13852e-05
-1.46598e-05
3.64037e-05
-2.0274e-05
4.18813e-05
-2.42133e-05
4.69019e-05
-2.09653e-05
5.25239e-05
-1.91936e-05
5.94151e-05
-2.26947e-05
6.67866e-05
-2.71526e-05
7.42157e-05
-2.98723e-05
8.08598e-05
-2.76404e-05
8.58089e-05
-2.07934e-05
8.93849e-05
-7.85707e-06
8.35821e-05
1.85282e-05
7.0586e-05
6.17538e-05
4.1795e-05
0.000114869
0.000151317
3.05049e-06
-1.54715e-05
6.13553e-06
-1.5642e-05
9.29364e-06
-1.59719e-05
1.25439e-05
-1.64793e-05
1.58888e-05
-1.69074e-05
1.94447e-05
-1.80978e-05
2.30914e-05
-1.81667e-05
2.68743e-05
-2.12891e-05
3.12752e-05
-1.90606e-05
3.60358e-05
-2.50346e-05
4.07436e-05
-2.89212e-05
4.62515e-05
-2.64732e-05
5.36281e-05
-2.65701e-05
6.14859e-05
-3.05525e-05
6.7521e-05
-3.31878e-05
7.13204e-05
-3.36716e-05
7.53841e-05
-3.17042e-05
7.73578e-05
-2.27671e-05
7.5655e-05
-6.15428e-06
7.13732e-05
2.281e-05
5.53057e-05
7.78214e-05
3.91796e-05
0.000130995
0.000190496
3.01164e-06
-1.84832e-05
6.05875e-06
-1.86891e-05
9.18426e-06
-1.90974e-05
1.23966e-05
-1.96916e-05
1.57014e-05
-2.02122e-05
1.92266e-05
-2.1623e-05
2.27933e-05
-2.17334e-05
2.65493e-05
-2.50451e-05
3.09026e-05
-2.34138e-05
3.54318e-05
-2.95638e-05
3.96521e-05
-3.31415e-05
4.62956e-05
-3.31167e-05
5.51757e-05
-3.54502e-05
6.13312e-05
-3.6708e-05
6.28875e-05
-3.47441e-05
6.74258e-05
-3.821e-05
7.52144e-05
-3.94927e-05
7.77172e-05
-2.527e-05
7.18092e-05
-2.46212e-07
6.18119e-05
3.28074e-05
4.15441e-05
9.80891e-05
2.86308e-05
0.000143908
0.000219127
2.9619e-06
-2.14451e-05
5.96159e-06
-2.16888e-05
9.04493e-06
-2.21807e-05
1.22113e-05
-2.2858e-05
1.54713e-05
-2.34723e-05
1.89714e-05
-2.51231e-05
2.24826e-05
-2.52446e-05
2.61786e-05
-2.87412e-05
3.05346e-05
-2.77699e-05
3.47974e-05
-3.38266e-05
3.91222e-05
-3.74663e-05
4.63894e-05
-4.03839e-05
5.39064e-05
-4.29671e-05
5.63352e-05
-3.91368e-05
6.26056e-05
-4.10146e-05
7.1604e-05
-4.72083e-05
8.01059e-05
-4.79946e-05
8.65764e-05
-3.17405e-05
8.27415e-05
3.58865e-06
6.58722e-05
4.96767e-05
4.50747e-05
0.000118887
2.19221e-05
0.000167061
0.000241049
2.90418e-06
-2.43492e-05
5.85172e-06
-2.46363e-05
8.88927e-06
-2.52182e-05
1.20089e-05
-2.59776e-05
1.52365e-05
-2.66999e-05
1.87242e-05
-2.86109e-05
2.2252e-05
-2.87723e-05
2.58477e-05
-3.23369e-05
3.04743e-05
-3.23965e-05
3.3874e-05
-3.72263e-05
3.8602e-05
-4.21943e-05
4.4877e-05
-4.6659e-05
5.07081e-05
-4.87982e-05
5.33865e-05
-4.18151e-05
6.09793e-05
-4.86074e-05
7.27807e-05
-5.90098e-05
8.056e-05
-5.57738e-05
8.30284e-05
-3.42089e-05
7.67509e-05
9.86611e-06
6.53099e-05
6.11178e-05
4.53202e-05
0.000138876
2.10754e-05
0.000191306
0.000262125
-0.000110315
0.000110315
-0.000125389
1.50749e-05
-0.000147303
2.19136e-05
-0.000157037
9.73366e-06
-0.000146176
-1.08611e-05
-7.62778e-05
-6.98978e-05
-9.69917e-06
-6.65786e-05
3.9132e-05
-4.88312e-05
7.68068e-05
-3.76748e-05
0.000104816
-2.80091e-05
0.000126813
-2.1997e-05
0.000148341
-2.15276e-05
0.00017203
-2.36889e-05
0.00019431
-2.22804e-05
0.000208874
-1.4564e-05
0.000208217
6.57343e-07
0.000188229
1.99879e-05
0.00012957
5.86583e-05
0.00012957
-5.04228e-05
0.000160737
-9.69615e-05
6.16136e-05
-9.07281e-05
1.56802e-05
-9.22715e-05
1.12771e-05
-8.12733e-05
-2.18593e-05
-3.48435e-05
-0.000116328
1.5354e-05
-0.000116776
5.85858e-05
-9.20631e-05
8.9168e-05
-6.8257e-05
0.000114547
-5.33878e-05
0.000138557
-4.60071e-05
0.000161861
-4.48323e-05
0.000181629
-4.34567e-05
0.000195908
-3.65596e-05
0.000204919
-2.35749e-05
0.000209714
-4.13724e-06
0.00019824
3.14614e-05
0.000135516
0.000121383
0.000265087
-7.71122e-05
0.00023785
-0.000119899
0.0001044
-0.000111179
6.96088e-06
-9.9098e-05
-8.04362e-07
-3.64757e-05
-8.44816e-05
7.71696e-06
-0.00016052
4.1503e-05
-0.000150562
7.37373e-05
-0.000124297
0.000103098
-9.76178e-05
0.000128221
-7.85103e-05
0.000150817
-6.86031e-05
0.000171476
-6.54912e-05
0.000187657
-5.96381e-05
0.00019859
-4.74929e-05
0.000203773
-2.87576e-05
0.000206341
-6.70555e-06
0.0002045
3.33026e-05
0.000138436
0.000187446
0.000403523
-9.19698e-05
0.000329819
-0.000200554
0.000212984
-0.000196474
2.88093e-06
-0.000106387
-9.08914e-05
-1.30826e-05
-0.000177786
3.94124e-05
-0.000213015
6.52395e-05
-0.000176389
9.21834e-05
-0.000151241
0.000117242
-0.000122676
0.00013925
-0.000100519
0.000159031
-8.83838e-05
0.000176557
-8.30176e-05
0.000189532
-7.26126e-05
0.000197556
-5.55171e-05
0.000202587
-3.37884e-05
0.00020423
-8.34914e-06
0.000204469
3.30639e-05
0.000100499
0.000291417
0.000504022
-4.73188e-05
0.000377138
-5.63099e-05
0.000221976
-6.97054e-05
1.62764e-05
-3.50608e-06
-0.000157091
4.14726e-05
-0.000222765
5.95988e-05
-0.000231142
8.37184e-05
-0.000200509
0.000104865
-0.000172388
0.000124664
-0.000142475
0.000143479
-0.000119333
0.000162059
-0.000106965
0.000177942
-9.89007e-05
0.000188798
-8.34682e-05
0.000194668
-6.13875e-05
0.000196789
-3.59091e-05
0.000220247
-3.18069e-05
0.000206214
4.70972e-05
0.000156459
0.000341172
0.000660481
-1.88761e-06
0.000379026
1.2904e-05
0.000207184
4.68575e-05
-1.76771e-05
5.34231e-05
-0.000163656
7.28537e-05
-0.000242195
8.18279e-05
-0.000240116
0.000101396
-0.000220077
0.000117813
-0.000188805
0.000133261
-0.000157923
0.000149947
-0.00013602
0.000165272
-0.00012229
0.000177999
-0.000111628
0.000186488
-9.19566e-05
0.000190439
-6.53386e-05
0.000228647
-7.41168e-05
0.000205731
-8.89138e-06
0.000158217
9.46113e-05
0.000187875
0.000311513
0.000848356
3.51529e-05
0.000343873
5.1952e-05
0.000190385
9.7514e-05
-6.32391e-05
8.88937e-05
-0.000155036
9.24116e-05
-0.000245713
9.7412e-05
-0.000245116
0.000110055
-0.00023272
0.000123277
-0.000202027
0.000135466
-0.000170112
0.000149725
-0.000150279
0.000162659
-0.000135224
0.000174173
-0.000123142
0.00018325
-0.000101034
0.000227588
-0.000109676
0.000207503
-5.4032e-05
0.000193816
4.79562e-06
0.000141702
0.000146725
0.00012221
0.000331006
0.000970566
7.59987e-05
0.000267874
9.11539e-05
0.00017523
9.82629e-05
-7.03481e-05
0.000109297
-0.00016607
0.000106318
-0.000242734
0.00011093
-0.000249729
0.000119439
-0.000241228
0.000129422
-0.000212011
0.000140219
-0.000180909
0.000152171
-0.00016223
0.000162448
-0.000145501
0.000172188
-0.000132882
0.000220901
-0.000149746
0.000216445
-0.00010522
0.000218519
-5.6106e-05
0.00018262
4.0695e-05
0.000134987
0.000194358
9.04636e-05
0.000375529
0.00106103
6.0565e-06
-3.04058e-05
1.22276e-05
-3.08075e-05
1.85859e-05
-3.15765e-05
2.50978e-05
-3.24895e-05
3.19471e-05
-3.35491e-05
3.93395e-05
-3.60033e-05
4.76418e-05
-3.70747e-05
5.54285e-05
-4.01236e-05
6.42021e-05
-4.117e-05
7.0177e-05
-4.32012e-05
7.96989e-05
-5.17162e-05
8.59062e-05
-5.28663e-05
8.98533e-05
-5.27453e-05
0.000107068
-5.90299e-05
0.000130335
-7.18744e-05
0.000147451
-7.61259e-05
0.000156897
-6.52192e-05
0.000152934
-3.02469e-05
0.000133761
2.90395e-05
0.000121896
7.2983e-05
0.000130359
0.000130413
0.000122739
0.000198926
0.0002288
0.000156064
6.19201e-06
-3.65978e-05
1.24198e-05
-3.70353e-05
1.85413e-05
-3.7698e-05
2.4419e-05
-3.83673e-05
3.02816e-05
-3.94117e-05
3.66093e-05
-4.23309e-05
4.32992e-05
-4.37646e-05
4.95505e-05
-4.63748e-05
5.64979e-05
-4.81174e-05
6.72734e-05
-5.39767e-05
7.44872e-05
-5.893e-05
8.49421e-05
-6.33212e-05
0.000105278
-7.30814e-05
0.000127403
-8.11546e-05
0.000141523
-8.59944e-05
0.000148289
-8.28918e-05
0.000148504
-6.54341e-05
0.000139631
-2.13736e-05
0.000122945
4.57249e-05
0.000119306
7.66221e-05
0.000131007
0.000118712
0.000169074
0.000160859
0.000212485
0.000185388
5.00614e-06
-4.16039e-05
1.03081e-05
-4.23372e-05
1.55025e-05
-4.28924e-05
2.17607e-05
-4.46255e-05
2.82521e-05
-4.59031e-05
3.47706e-05
-4.88494e-05
4.23106e-05
-5.13047e-05
5.21914e-05
-5.62556e-05
6.36755e-05
-5.96015e-05
7.88568e-05
-6.9158e-05
9.3079e-05
-7.31523e-05
0.000106974
-7.7216e-05
0.000119826
-8.59339e-05
0.000132405
-9.37337e-05
0.000140414
-9.40034e-05
0.000143275
-8.57525e-05
0.000139634
-6.1793e-05
0.000128197
-9.93656e-06
0.000120128
5.37941e-05
0.000119969
7.67807e-05
0.000131455
0.000107227
0.000177771
0.000114543
0.000157614
0.000232642
6.96782e-06
-4.85717e-05
1.41102e-05
-4.94796e-05
2.15621e-05
-5.03444e-05
2.97963e-05
-5.28596e-05
3.83364e-05
-5.44432e-05
4.77179e-05
-5.82309e-05
5.83877e-05
-6.19745e-05
6.9123e-05
-6.69909e-05
7.96598e-05
-7.01383e-05
8.88174e-05
-7.83156e-05
9.65786e-05
-8.09135e-05
0.000105878
-8.65156e-05
0.000116349
-9.64051e-05
0.000125047
-0.000102432
0.000131354
-0.00010031
0.000133202
-8.7601e-05
0.000123905
-5.24958e-05
0.000112226
1.7427e-06
0.000112505
5.3515e-05
0.00012023
6.90551e-05
0.000138973
8.84842e-05
0.000172315
8.12011e-05
9.75436e-05
0.000232385
8.23205e-06
-5.68038e-05
1.62871e-05
-5.75346e-05
2.45498e-05
-5.86071e-05
3.24098e-05
-6.07196e-05
4.09999e-05
-6.30334e-05
4.9083e-05
-6.6314e-05
5.71584e-05
-7.00499e-05
6.44715e-05
-7.4304e-05
7.18268e-05
-7.74937e-05
7.94083e-05
-8.5897e-05
8.60414e-05
-8.75466e-05
9.51979e-05
-9.56721e-05
0.000105586
-0.000106794
0.000114094
-0.000110939
0.000118887
-0.000105103
0.0001161
-8.48137e-05
0.000102167
-3.85635e-05
9.31166e-05
1.07934e-05
0.000100111
4.65211e-05
0.000114204
5.49617e-05
0.000138168
6.45201e-05
0.000166821
5.25477e-05
5.44478e-05
0.000209917
7.26956e-06
-6.40734e-05
1.45468e-05
-6.48119e-05
2.19558e-05
-6.60161e-05
2.89878e-05
-6.77517e-05
3.60203e-05
-7.00659e-05
4.26183e-05
-7.2912e-05
4.90486e-05
-7.64801e-05
5.57189e-05
-8.09743e-05
6.33884e-05
-8.51632e-05
7.09725e-05
-9.34812e-05
8.00185e-05
-9.65925e-05
9.21577e-05
-0.000107811
0.000102745
-0.00011738
0.000108731
-0.000116926
0.000108288
-0.00010466
9.63845e-05
-7.29099e-05
7.99887e-05
-2.21677e-05
7.68946e-05
1.38874e-05
8.91235e-05
3.42922e-05
0.000106791
3.7294e-05
0.000134204
3.71074e-05
0.000160641
2.61102e-05
2.30443e-05
0.000192045
6.72368e-06
-7.07971e-05
1.33719e-05
-7.14601e-05
1.99523e-05
-7.25965e-05
2.63952e-05
-7.41946e-05
3.28876e-05
-7.65583e-05
3.94697e-05
-7.94941e-05
4.63027e-05
-8.33131e-05
5.32581e-05
-8.79298e-05
6.10181e-05
-9.29231e-05
6.81554e-05
-0.000100618
7.58485e-05
-0.000104286
8.58832e-05
-0.000117846
9.29992e-05
-0.000124496
9.61264e-05
-0.000120053
8.95174e-05
-9.80511e-05
7.10446e-05
-5.44372e-05
5.98901e-05
-1.10131e-05
6.48802e-05
8.89727e-06
8.07772e-05
1.83953e-05
0.000101456
1.66156e-05
0.000127471
1.10918e-05
0.000150228
3.35343e-06
-2.82633e-06
0.000176099
5.85478e-06
-7.66518e-05
1.17876e-05
-7.73928e-05
1.76833e-05
-7.84923e-05
2.3655e-05
-8.01663e-05
2.958e-05
-8.24833e-05
3.55305e-05
-8.54445e-05
4.12763e-05
-8.90589e-05
4.674e-05
-9.33936e-05
5.25876e-05
-9.87707e-05
5.80436e-05
-0.000106074
6.52504e-05
-0.000111492
7.51884e-05
-0.000127784
8.00904e-05
-0.000129398
7.68029e-05
-0.000116765
6.0774e-05
-8.20221e-05
4.45561e-05
-3.82194e-05
4.44551e-05
-1.09121e-05
5.66711e-05
-3.31873e-06
7.52906e-05
-2.24245e-07
9.69506e-05
-5.04451e-06
0.000119221
-1.1179e-05
0.00014023
-1.76548e-05
-2.67799e-05
0.000164183
5.44353e-06
-8.20954e-05
1.08659e-05
-8.28152e-05
1.62582e-05
-8.38845e-05
2.15636e-05
-8.54717e-05
2.67126e-05
-8.76323e-05
3.16916e-05
-9.04236e-05
3.65221e-05
-9.38893e-05
4.13042e-05
-9.81756e-05
4.61566e-05
-0.000103623
5.07707e-05
-0.000110689
5.81723e-05
-0.000118894
6.59629e-05
-0.000135575
6.59891e-05
-0.000129425
5.35429e-05
-0.000104319
3.33736e-05
-6.18528e-05
2.71472e-05
-3.1993e-05
3.65906e-05
-2.03554e-05
5.2705e-05
-1.94332e-05
7.22528e-05
-1.9772e-05
9.22751e-05
-2.50669e-05
0.00011149
-3.03934e-05
0.000131192
-3.73577e-05
-4.51104e-05
0.000149523
4.80169e-06
-8.68971e-05
9.58999e-06
-8.76035e-05
1.43617e-05
-8.86562e-05
1.90989e-05
-9.02089e-05
2.3777e-05
-9.23105e-05
2.82579e-05
-9.49045e-05
3.2359e-05
-9.79904e-05
3.58924e-05
-0.000101709
3.8905e-05
-0.000106636
4.11805e-05
-0.000112964
4.56987e-05
-0.000123412
4.81678e-05
-0.000138044
3.82426e-05
-0.0001195
1.91471e-05
-8.52237e-05
9.508e-06
-5.22136e-05
1.7068e-05
-3.9553e-05
3.28218e-05
-3.61092e-05
5.07349e-05
-3.73463e-05
6.94097e-05
-3.84468e-05
8.70194e-05
-4.26766e-05
0.000104381
-4.77546e-05
0.000121599
-5.45758e-05
-6.07392e-05
0.000137228
4.30115e-06
-9.11982e-05
8.58875e-06
-9.18911e-05
1.28628e-05
-9.29302e-05
1.7167e-05
-9.45131e-05
2.13723e-05
-9.65158e-05
2.53982e-05
-9.89303e-05
2.89042e-05
-0.000101496
3.13748e-05
-0.00010418
3.19553e-05
-0.000107216
3.04546e-05
-0.000111463
2.64708e-05
-0.000119429
1.58823e-05
-0.000127455
2.0442e-06
-0.000105661
-7.54453e-06
-7.56349e-05
-1.68939e-07
-5.95892e-05
1.5035e-05
-5.4757e-05
3.27621e-05
-5.38363e-05
4.94168e-05
-5.4001e-05
6.69956e-05
-5.60256e-05
8.21573e-05
-5.78383e-05
9.79875e-05
-6.35849e-05
0.000116789
-7.33778e-05
-7.58093e-05
0.00013186
4.05173e-06
-9.52499e-05
8.03178e-06
-9.58712e-05
1.18873e-05
-9.67857e-05
1.56939e-05
-9.83197e-05
1.9582e-05
-0.000100404
2.35006e-05
-0.000102849
2.69898e-05
-0.000104986
2.85037e-05
-0.000105694
2.60153e-05
-0.000104728
1.65797e-05
-0.000102028
-4.81153e-06
-9.80373e-05
-2.31548e-05
-0.000109112
-2.38954e-05
-0.000104921
-1.62345e-05
-8.32959e-05
-2.46071e-08
-7.57991e-05
1.72732e-05
-7.20548e-05
3.31782e-05
-6.97413e-05
4.84308e-05
-6.92536e-05
6.53379e-05
-7.29327e-05
8.00776e-05
-7.25781e-05
8.69167e-05
-7.0424e-05
9.21774e-05
-7.86384e-05
-9.35545e-05
0.000109923
3.52332e-06
-9.87733e-05
6.80435e-06
-9.91522e-05
9.7154e-06
-9.96968e-05
1.21988e-05
-0.000100803
1.51793e-05
-0.000103384
2.12805e-05
-0.00010895
2.63613e-05
-0.000110066
2.63125e-05
-0.000105645
2.27462e-05
-0.000101162
-1.03261e-05
-6.89554e-05
-6.76244e-05
-4.0739e-05
-5.14307e-05
-0.000125305
-3.07904e-05
-0.000125561
-1.32603e-05
-0.000100826
5.3142e-06
-9.43736e-05
2.01816e-05
-8.69221e-05
3.31712e-05
-8.27309e-05
4.38626e-05
-7.9945e-05
5.62377e-05
-8.53078e-05
6.08195e-05
-7.71598e-05
5.35925e-05
-6.3197e-05
5.99303e-06
-3.1039e-05
-5.994e-06
-8.15674e-05
2.8776e-06
-0.000101651
5.67057e-06
-0.000101945
8.79182e-06
-0.000102818
1.21947e-05
-0.000104206
1.35605e-05
-0.00010475
3.4094e-06
-9.8799e-05
-1.63148e-05
-9.03421e-05
-3.73186e-05
-8.46409e-05
-5.9693e-05
-7.87873e-05
-8.3854e-05
-4.47944e-05
-6.61144e-05
-5.84786e-05
-5.54151e-05
-0.000136005
-2.65823e-05
-0.000154394
-1.96619e-06
-0.000125442
8.64606e-06
-0.000104986
1.80375e-05
-9.63136e-05
2.52074e-05
-8.99008e-05
2.5356e-05
-8.00936e-05
4.85204e-06
-6.48039e-05
-4.34321e-05
-2.88757e-05
-9.68228e-05
-9.80635e-06
-8.62817e-05
-4.15801e-05
-2.11786e-05
-7.10971e-05
-1.48369e-05
-8.68139e-05
-2.93751e-05
-8.7407e-05
-4.54254e-05
-8.67676e-05
-6.27246e-05
-8.69068e-05
-7.99525e-05
-8.75222e-05
-9.30972e-05
-8.56544e-05
-9.02609e-05
-9.31784e-05
-7.25546e-05
-0.000102347
-4.85285e-05
-0.000102813
6.73344e-07
-9.39962e-05
5.82591e-05
-0.000116064
6.73064e-05
-0.000145052
4.77994e-05
-0.000134887
1.48569e-05
-9.24997e-05
-1.98161e-05
-7.03128e-05
-5.08843e-05
-6.52454e-05
-8.05452e-05
-6.024e-05
-0.000106409
-5.423e-05
-0.000114697
-5.65154e-05
-7.42746e-05
-6.92984e-05
-3.39365e-05
-5.01445e-05
-5.88478e-05
-1.66689e-05
1.80764e-05
-9.81027e-05
-7.19822e-06
-7.96156e-05
-1.3064e-05
-8.15412e-05
-1.62489e-05
-8.35826e-05
-1.71807e-05
-8.5975e-05
-1.63148e-05
-8.83881e-05
-1.13599e-05
-9.06092e-05
-9.73228e-06
-9.4806e-05
-1.19247e-05
-0.000100155
-1.42931e-05
-0.000100445
-1.0779e-05
-9.75103e-05
-1.70439e-05
-0.000109799
-3.7334e-05
-0.000124762
-6.29194e-05
-0.000109301
-7.05621e-05
-8.4857e-05
-6.73777e-05
-7.34973e-05
-5.83081e-05
-7.43151e-05
-3.94935e-05
-7.90546e-05
-1.29694e-05
-8.07542e-05
-1.21478e-06
-6.827e-05
-2.40037e-05
-4.65095e-05
-6.84479e-05
-5.7002e-06
-0.00010057
1.54528e-05
2.26167e-05
-0.00010511
-2.01052e-06
-7.76051e-05
-3.59487e-06
-7.99568e-05
-5.90696e-06
-8.12705e-05
-8.86851e-06
-8.30134e-05
-1.21677e-05
-8.50889e-05
-1.50759e-05
-8.7701e-05
-1.87686e-05
-9.11133e-05
-2.43655e-05
-9.45578e-05
-2.88733e-05
-9.59371e-05
-3.00734e-05
-9.63102e-05
-3.70628e-05
-0.00010281
-5.46772e-05
-0.000107147
-6.69984e-05
-9.69803e-05
-6.64105e-05
-8.54449e-05
-5.83426e-05
-8.15652e-05
-4.69198e-05
-8.57378e-05
-3.87778e-05
-8.71967e-05
-4.20084e-05
-7.75235e-05
-6.3524e-05
-4.67545e-05
-9.67934e-05
-1.32401e-05
-0.000108923
6.42944e-06
-0.000107365
1.38952e-05
2.0301e-05
-0.00010505
-2.09997e-06
-7.55051e-05
-4.08535e-06
-7.79714e-05
-6.25715e-06
-7.90987e-05
-8.66719e-06
-8.06033e-05
-1.1289e-05
-8.2467e-05
-1.43424e-05
-8.46476e-05
-1.85415e-05
-8.69142e-05
-2.4116e-05
-8.89832e-05
-2.99693e-05
-9.00838e-05
-3.57395e-05
-9.054e-05
-4.43339e-05
-9.42157e-05
-5.67741e-05
-9.47071e-05
-6.47672e-05
-8.89872e-05
-6.82227e-05
-8.19894e-05
-6.98531e-05
-7.99348e-05
-7.45173e-05
-8.10736e-05
-8.34296e-05
-7.82844e-05
-9.77813e-05
-6.3172e-05
-0.000111599
-3.29363e-05
-0.000117416
-7.42338e-06
-0.000114296
3.3092e-06
-0.000108927
8.52575e-06
1.47378e-05
-0.000103363
-1.31786e-06
-7.41872e-05
-2.87057e-06
-7.64187e-05
-4.85561e-06
-7.71136e-05
-7.37059e-06
-7.80883e-05
-1.05554e-05
-7.92822e-05
-1.45857e-05
-8.06173e-05
-1.96389e-05
-8.1861e-05
-2.5793e-05
-8.28291e-05
-3.26665e-05
-8.32103e-05
-3.97667e-05
-8.34398e-05
-4.86311e-05
-8.53513e-05
-5.81542e-05
-8.5184e-05
-6.58105e-05
-8.13309e-05
-7.10428e-05
-7.67571e-05
-7.7025e-05
-7.39526e-05
-8.67292e-05
-7.13694e-05
-9.95326e-05
-6.5481e-05
-0.000111454
-5.12502e-05
-0.000117209
-2.71818e-05
-0.000115291
-9.34162e-06
-0.000109327
-2.65417e-06
-0.000103006
2.20469e-06
9.26901e-06
-9.75376e-05
-2.04371e-06
-7.21435e-05
-4.26332e-06
-7.41991e-05
-6.79411e-06
-7.45828e-05
-9.69327e-06
-7.51892e-05
-1.31364e-05
-7.5839e-05
-1.72673e-05
-7.64864e-05
-2.20913e-05
-7.7037e-05
-2.75843e-05
-7.73361e-05
-3.34536e-05
-7.7341e-05
-3.94522e-05
-7.74412e-05
-4.71177e-05
-7.76858e-05
-5.57612e-05
-7.65405e-05
-6.35763e-05
-7.35158e-05
-7.07042e-05
-6.96292e-05
-7.94097e-05
-6.52471e-05
-9.04901e-05
-6.0289e-05
-0.000102295
-5.36759e-05
-0.000109734
-4.38111e-05
-0.000108198
-2.87179e-05
-0.00010263
-1.49098e-05
-9.77268e-05
-7.55726e-06
-9.297e-05
-2.55208e-06
4.29894e-06
-8.79999e-05
-2.36309e-06
-6.97804e-05
-4.87187e-06
-7.16903e-05
-7.62706e-06
-7.18276e-05
-1.06853e-05
-7.21309e-05
-1.41063e-05
-7.24181e-05
-1.79288e-05
-7.26639e-05
-2.21538e-05
-7.2812e-05
-2.67407e-05
-7.27492e-05
-3.16455e-05
-7.24363e-05
-3.70842e-05
-7.20024e-05
-4.36471e-05
-7.11229e-05
-5.08459e-05
-6.93417e-05
-5.76485e-05
-6.67132e-05
-6.42589e-05
-6.30188e-05
-7.10136e-05
-5.84925e-05
-7.84879e-05
-5.28147e-05
-8.61447e-05
-4.60191e-05
-9.18325e-05
-3.81233e-05
-9.18604e-05
-2.869e-05
-8.88802e-05
-1.789e-05
-8.63611e-05
-1.00763e-05
-8.35778e-05
-5.33539e-06
1.42354e-06
-8.07023e-05
-2.71483e-06
-6.70656e-05
-5.51943e-06
-6.88857e-05
-8.45827e-06
-6.88888e-05
-1.16102e-05
-6.89789e-05
-1.49981e-05
-6.90302e-05
-1.86412e-05
-6.90208e-05
-2.25592e-05
-6.88939e-05
-2.67263e-05
-6.8582e-05
-3.10781e-05
-6.80845e-05
-3.57482e-05
-6.73322e-05
-4.098e-05
-6.58911e-05
-4.69015e-05
-6.34202e-05
-5.31178e-05
-6.04969e-05
-5.9131e-05
-5.70056e-05
-6.46305e-05
-5.29929e-05
-6.95284e-05
-4.79168e-05
-7.39911e-05
-4.15564e-05
-7.76578e-05
-3.44566e-05
-7.99104e-05
-2.64374e-05
-7.96426e-05
-1.81577e-05
-7.82369e-05
-1.1482e-05
-7.767e-05
-5.90227e-06
3.04583e-07
-7.6551e-05
-2.74519e-06
-6.43204e-05
-5.59603e-06
-6.60348e-05
-8.52991e-06
-6.59549e-05
-1.15939e-05
-6.5915e-05
-1.48118e-05
-6.58123e-05
-1.82148e-05
-6.56177e-05
-2.18345e-05
-6.52743e-05
-2.569e-05
-6.47265e-05
-2.98533e-05
-6.39212e-05
-3.44582e-05
-6.27273e-05
-3.94858e-05
-6.08635e-05
-4.45972e-05
-5.83089e-05
-4.96424e-05
-5.54516e-05
-5.4601e-05
-5.20471e-05
-5.9712e-05
-4.78819e-05
-6.44134e-05
-4.32154e-05
-6.78392e-05
-3.81306e-05
-6.99881e-05
-3.23077e-05
-7.13393e-05
-2.50862e-05
-7.20363e-05
-1.74608e-05
-7.21044e-05
-1.14138e-05
-7.20728e-05
-5.93382e-06
3.79374e-08
-7.18061e-05
-2.6714e-06
-6.16489e-05
-5.44558e-06
-6.32606e-05
-8.30124e-06
-6.30992e-05
-1.1289e-05
-6.29272e-05
-1.44507e-05
-6.26506e-05
-1.78273e-05
-6.22411e-05
-2.14454e-05
-6.16562e-05
-2.531e-05
-6.08619e-05
-2.94226e-05
-5.98085e-05
-3.37651e-05
-5.83848e-05
-3.81269e-05
-5.65016e-05
-4.22342e-05
-5.42016e-05
-4.62607e-05
-5.14251e-05
-5.01266e-05
-4.81812e-05
-5.36543e-05
-4.43542e-05
-5.71554e-05
-3.97142e-05
-6.08094e-05
-3.44767e-05
-6.43547e-05
-2.87623e-05
-6.65051e-05
-2.29358e-05
-6.66464e-05
-1.73195e-05
-6.62484e-05
-1.18118e-05
-6.61957e-05
-5.98652e-06
3.65145e-10
-6.61581e-05
-2.63652e-06
-5.90124e-05
-5.36197e-06
-6.05352e-05
-8.14764e-06
-6.03135e-05
-1.1028e-05
-6.00469e-05
-1.40268e-05
-5.96517e-05
-1.71656e-05
-5.91023e-05
-2.04573e-05
-5.83645e-05
-2.39138e-05
-5.74054e-05
-2.75395e-05
-5.61828e-05
-3.12974e-05
-5.46269e-05
-3.51238e-05
-5.26753e-05
-3.90112e-05
-5.03142e-05
-4.2921e-05
-4.75153e-05
-4.68669e-05
-4.42353e-05
-5.07017e-05
-4.05194e-05
-5.39948e-05
-3.64211e-05
-5.64137e-05
-3.20577e-05
-5.78744e-05
-2.73017e-05
-5.88032e-05
-2.2007e-05
-5.96928e-05
-1.64298e-05
-6.05786e-05
-1.09259e-05
-6.08861e-05
-5.67896e-06
-5.54376e-07
-6.03313e-05
-2.5739e-06
-5.64385e-05
-5.23364e-06
-5.78754e-05
-7.93772e-06
-5.76094e-05
-1.07132e-05
-5.72714e-05
-1.35735e-05
-5.67915e-05
-1.65266e-05
-5.61492e-05
-1.9574e-05
-5.53171e-05
-2.27201e-05
-5.42593e-05
-2.59787e-05
-5.29242e-05
-2.93433e-05
-5.12623e-05
-3.27548e-05
-4.92638e-05
-3.61321e-05
-4.69368e-05
-3.93799e-05
-4.42674e-05
-4.23948e-05
-4.12205e-05
-4.51716e-05
-3.77426e-05
-4.77193e-05
-3.38734e-05
-5.01675e-05
-2.96095e-05
-5.24816e-05
-2.49876e-05
-5.42898e-05
-2.01988e-05
-5.52681e-05
-1.54515e-05
-5.55059e-05
-1.06881e-05
-5.54189e-05
-5.76596e-06
-8.13937e-07
-5.51593e-05
-2.45914e-06
-5.39794e-05
-4.98555e-06
-5.5349e-05
-7.54748e-06
-5.50475e-05
-1.01649e-05
-5.46539e-05
-1.28552e-05
-5.41012e-05
-1.56308e-05
-5.33735e-05
-1.84991e-05
-5.24488e-05
-2.14565e-05
-5.13018e-05
-2.4476e-05
-4.99047e-05
-2.75075e-05
-4.82309e-05
-3.05134e-05
-4.62579e-05
-3.34892e-05
-4.3961e-05
-3.64322e-05
-4.13244e-05
-3.92951e-05
-3.83575e-05
-4.19624e-05
-3.50754e-05
-4.43585e-05
-3.14772e-05
-4.63734e-05
-2.75946e-05
-4.79121e-05
-2.34489e-05
-4.902e-05
-1.90908e-05
-4.98867e-05
-1.45849e-05
-5.05129e-05
-1.00618e-05
-5.06868e-05
-5.59201e-06
-1.09891e-06
-5.04018e-05
-2.33464e-06
-5.16447e-05
-4.7361e-06
-5.29475e-05
-7.16067e-06
-5.26229e-05
-9.62611e-06
-5.21885e-05
-1.21397e-05
-5.15876e-05
-1.47059e-05
-5.08073e-05
-1.7325e-05
-4.98298e-05
-1.99932e-05
-4.86336e-05
-2.27011e-05
-4.71968e-05
-2.54302e-05
-4.55018e-05
-2.81509e-05
-4.35371e-05
-3.08176e-05
-4.12944e-05
-3.33778e-05
-3.87642e-05
-3.57992e-05
-3.59361e-05
-3.80603e-05
-3.28143e-05
-4.01166e-05
-2.94209e-05
-4.19386e-05
-2.57726e-05
-4.34799e-05
-2.19076e-05
-4.46878e-05
-1.78829e-05
-4.55148e-05
-1.37578e-05
-4.59836e-05
-9.59299e-06
-4.61487e-05
-5.42684e-06
-1.23849e-06
-4.60091e-05
-2.19974e-06
-4.9445e-05
-4.453e-06
-5.06943e-05
-6.72318e-06
-5.03528e-05
-9.02278e-06
-4.98889e-05
-1.13574e-05
-4.92529e-05
-1.37298e-05
-4.84349e-05
-1.61383e-05
-4.74213e-05
-1.85749e-05
-4.6197e-05
-2.10242e-05
-4.47474e-05
-2.34661e-05
-4.30599e-05
-2.58799e-05
-4.11233e-05
-2.82451e-05
-3.89291e-05
-3.0535e-05
-3.64743e-05
-3.27083e-05
-3.37628e-05
-3.47206e-05
-3.08021e-05
-3.6538e-05
-2.76034e-05
-3.81213e-05
-2.41893e-05
-3.94391e-05
-2.05897e-05
-4.04799e-05
-1.68421e-05
-4.12477e-05
-1.299e-05
-4.17436e-05
-9.09706e-06
-4.19612e-05
-5.20924e-06
-1.30599e-06
-4.18936e-05
-2.04667e-06
-4.73983e-05
-4.14355e-06
-4.85974e-05
-6.2503e-06
-4.8246e-05
-8.37744e-06
-4.77617e-05
-1.0528e-05
-4.71023e-05
-1.27026e-05
-4.62603e-05
-1.48982e-05
-4.52257e-05
-1.71074e-05
-4.39877e-05
-1.93185e-05
-4.25364e-05
-2.15152e-05
-4.08631e-05
-2.36774e-05
-3.89611e-05
-2.57804e-05
-3.68261e-05
-2.77978e-05
-3.44569e-05
-2.97045e-05
-3.18561e-05
-3.14738e-05
-2.90328e-05
-3.30758e-05
-2.60014e-05
-3.44832e-05
-2.2782e-05
-3.56713e-05
-1.94016e-05
-3.66218e-05
-1.58916e-05
-3.73251e-05
-1.22867e-05
-3.77883e-05
-8.63383e-06
-3.80212e-05
-4.97638e-06
-1.31051e-06
-3.80166e-05
-1.89099e-06
-4.55073e-05
-3.82436e-06
-4.6664e-05
-5.76333e-06
-4.6307e-05
-7.71574e-06
-4.58093e-05
-9.68265e-06
-4.51354e-05
-1.16631e-05
-4.42799e-05
-1.36531e-05
-4.32357e-05
-1.56453e-05
-4.19955e-05
-1.76291e-05
-4.05526e-05
-1.95912e-05
-3.89011e-05
-2.15152e-05
-3.7037e-05
-2.33826e-05
-3.49587e-05
-2.5172e-05
-3.26675e-05
-2.68594e-05
-3.01687e-05
-2.8421e-05
-2.74712e-05
-2.98339e-05
-2.45886e-05
-3.10766e-05
-2.15393e-05
-3.21314e-05
-1.83468e-05
-3.29853e-05
-1.50376e-05
-3.36317e-05
-1.16404e-05
-3.40725e-05
-8.19303e-06
-3.43134e-05
-4.73544e-06
-1.27336e-06
-3.43505e-05
-1.7275e-06
-4.37798e-05
-3.49263e-06
-4.48989e-05
-5.25987e-06
-4.45398e-05
-7.03546e-06
-4.40337e-05
-8.81934e-06
-4.33515e-05
-1.06096e-05
-4.24896e-05
-1.24021e-05
-4.14432e-05
-1.419e-05
-4.02076e-05
-1.5964e-05
-3.87786e-05
-1.77121e-05
-3.71529e-05
-1.94203e-05
-3.53288e-05
-2.10723e-05
-3.33066e-05
-2.26506e-05
-3.10893e-05
-2.41366e-05
-2.86826e-05
-2.55116e-05
-2.60962e-05
-2.67571e-05
-2.33431e-05
-2.78561e-05
-2.04403e-05
-2.87945e-05
-1.74084e-05
-2.95616e-05
-1.42705e-05
-3.01509e-05
-1.1051e-05
-3.05635e-05
-7.78045e-06
-3.08044e-05
-4.49458e-06
-1.20665e-06
-3.0871e-05
-1.56152e-06
-4.22183e-05
-3.15544e-06
-4.33049e-05
-4.74927e-06
-4.2946e-05
-6.34796e-06
-4.2435e-05
-7.95049e-06
-4.1749e-05
-9.55446e-06
-4.08856e-05
-1.11556e-05
-3.98421e-05
-1.27477e-05
-3.86155e-05
-1.43226e-05
-3.72038e-05
-1.587e-05
-3.56055e-05
-1.7378e-05
-3.38208e-05
-1.88332e-05
-3.18514e-05
-2.02211e-05
-2.97015e-05
-2.15262e-05
-2.73775e-05
-2.27333e-05
-2.48891e-05
-2.38277e-05
-2.22487e-05
-2.47962e-05
-1.94718e-05
-2.56277e-05
-1.65769e-05
-2.63138e-05
-1.35844e-05
-2.68489e-05
-1.05159e-05
-2.72328e-05
-7.3966e-06
-2.74692e-05
-4.25821e-06
-1.11878e-06
-2.7557e-05
-1.39266e-06
-4.08256e-05
-2.81385e-06
-4.18837e-05
-4.23346e-06
-4.15263e-05
-5.65584e-06
-4.10126e-05
-7.07938e-06
-4.03254e-05
-8.50139e-06
-3.94636e-05
-9.91779e-06
-3.84257e-05
-1.13229e-05
-3.72105e-05
-1.27093e-05
-3.58173e-05
-1.40684e-05
-3.42464e-05
-1.539e-05
-3.24992e-05
-1.66628e-05
-3.05785e-05
-1.7875e-05
-2.84893e-05
-1.90141e-05
-2.62384e-05
-2.00679e-05
-2.38353e-05
-2.10247e-05
-2.12919e-05
-2.1874e-05
-1.86225e-05
-2.26072e-05
-1.58438e-05
-2.32174e-05
-1.29742e-05
-2.37003e-05
-1.00329e-05
-2.4055e-05
-7.04197e-06
-2.42842e-05
-4.02902e-06
-1.01525e-06
-2.43876e-05
-1.2216e-06
-3.9604e-05
-2.46946e-06
-4.06359e-05
-3.71489e-06
-4.02809e-05
-4.9622e-06
-3.97653e-05
-6.20927e-06
-3.90783e-05
-7.45333e-06
-3.82195e-05
-8.69059e-06
-3.71884e-05
-9.91588e-06
-3.59852e-05
-1.11228e-05
-3.46104e-05
-1.23038e-05
-3.30654e-05
-1.34503e-05
-3.13526e-05
-1.45531e-05
-2.94758e-05
-1.56022e-05
-2.74401e-05
-1.65878e-05
-2.52528e-05
-1.75e-05
-2.29231e-05
-1.83297e-05
-2.04623e-05
-1.90686e-05
-1.78836e-05
-1.97099e-05
-1.52025e-05
-2.02486e-05
-1.24355e-05
-2.06812e-05
-9.60034e-06
-2.10068e-05
-6.71641e-06
-2.12275e-05
-3.80829e-06
-8.9897e-07
-2.13438e-05
-1.04724e-06
-3.85568e-05
-2.12205e-06
-3.9561e-05
-3.19406e-06
-3.92089e-05
-4.2677e-06
-3.86917e-05
-5.34064e-06
-3.80054e-05
-6.41024e-06
-3.71499e-05
-7.47332e-06
-3.61253e-05
-8.52523e-06
-3.49333e-05
-9.56033e-06
-3.35753e-05
-1.05721e-05
-3.20536e-05
-1.15534e-05
-3.03714e-05
-1.24963e-05
-2.85329e-05
-1.33927e-05
-2.65437e-05
-1.42349e-05
-2.44107e-05
-1.5015e-05
-2.2143e-05
-1.57259e-05
-1.97513e-05
-1.63613e-05
-1.72482e-05
-1.6916e-05
-1.46478e-05
-1.73864e-05
-1.19652e-05
-1.77701e-05
-9.21659e-06
-1.80668e-05
-6.41971e-06
-1.82785e-05
-3.59665e-06
-7.71338e-07
-1.84061e-05
-8.67989e-07
-3.76888e-05
-1.77136e-06
-3.86577e-05
-2.67117e-06
-3.83091e-05
-3.57205e-06