/*--------------------------------*- C++ -*----------------------------------*\
| =========                 |                                                 |
| \\      /  F ield         | OpenFOAM: The Open Source CFD Toolbox           |
|  \\    /   O peration     | Version:  2.4.0                                 |
|   \\  /    A nd           | Web:      www.OpenFOAM.org                      |
|    \\/     M anipulation  |                                                 |
\*---------------------------------------------------------------------------*/
FoamFile
{
    version     2.0;
    format      ascii;
    class       surfaceScalarField;
    location    "0.2";
    object      phi.mercury;
}
// * * * * * * * * * * * * * * * * * * * * * * * * * * * * * * * * * * * * * //

dimensions      [0 3 -1 0 0 0 0];

internalField   nonuniform List<scalar> 
4432
(
3.12218e-06
-3.12218e-06
6.27807e-06
-3.15589e-06
9.49586e-06
-3.2178e-06
1.28188e-05
-3.32295e-06
1.62275e-05
-3.40871e-06
1.98932e-05
-3.66565e-06
2.34137e-05
-3.52052e-06
2.82015e-05
-4.78784e-06
3.15039e-05
-3.3024e-06
3.6499e-05
-4.99503e-06
4.28415e-05
-6.34259e-06
4.8457e-05
-5.61549e-06
5.31746e-05
-4.71757e-06
5.80605e-05
-4.88587e-06
6.37035e-05
-5.64302e-06
7.04535e-05
-6.75004e-06
7.6838e-05
-6.38442e-06
8.2288e-05
-5.45001e-06
8.29371e-05
-6.49133e-07
7.82376e-05
4.70023e-06
6.20198e-05
1.62264e-05
3.31349e-05
2.88709e-05
3.30416e-05
3.11664e-06
-6.23882e-06
6.26729e-06
-6.30655e-06
9.48027e-06
-6.43078e-06
1.28001e-05
-6.64279e-06
1.61984e-05
-6.80699e-06
1.98536e-05
-7.32085e-06
2.3478e-05
-7.14495e-06
2.79992e-05
-9.30899e-06
3.14691e-05
-6.77236e-06
3.65955e-05
-1.01214e-05
4.29326e-05
-1.26796e-05
4.82081e-05
-1.0891e-05
5.25527e-05
-9.06215e-06
5.76733e-05
-1.00065e-05
6.44251e-05
-1.23949e-05
7.19501e-05
-1.42751e-05
7.92564e-05
-1.36919e-05
8.47678e-05
-1.09677e-05
8.60294e-05
-1.91712e-06
8.12324e-05
9.49462e-06
6.40243e-05
3.34452e-05
3.66576e-05
5.624e-05
6.96485e-05
3.10203e-06
-9.34085e-06
6.23811e-06
-9.44263e-06
9.4385e-06
-9.63117e-06
1.27441e-05
-9.94837e-06
1.61284e-05
-1.01913e-05
1.97585e-05
-1.0951e-05
2.34436e-05
-1.08301e-05
2.76538e-05
-1.35191e-05
3.14528e-05
-1.05714e-05
3.65869e-05
-1.52555e-05
4.2643e-05
-1.87358e-05
4.76967e-05
-1.59447e-05
5.22061e-05
-1.35716e-05
5.80032e-05
-1.58036e-05
6.53894e-05
-1.97847e-05
7.35579e-05
-2.25004e-05
8.08643e-05
-2.12822e-05
8.57472e-05
-1.67222e-05
8.81191e-05
-5.8442e-06
8.48915e-05
1.15852e-05
6.95943e-05
4.84765e-05
3.98218e-05
8.59797e-05
0.000109399
3.08019e-06
-1.2421e-05
6.19451e-06
-1.2557e-05
9.37708e-06
-1.28137e-05
1.26578e-05
-1.32291e-05
1.6029e-05
-1.35625e-05
1.96199e-05
-1.45419e-05
2.33099e-05
-1.452e-05
2.72969e-05
-1.75062e-05
3.13852e-05
-1.46598e-05
3.64037e-05
-2.0274e-05
4.18813e-05
-2.42133e-05
4.69019e-05
-2.09653e-05
5.25239e-05
-1.91937e-05
5.94171e-05
-2.2709e-05
6.67985e-05
-2.73916e-05
7.41639e-05
-3.17854e-05
8.07467e-05
-3.43058e-05
8.57275e-05
-3.52966e-05
8.95351e-05
-3.18137e-05
8.39538e-05
-1.47932e-05
7.07225e-05
4.40961e-05
4.18495e-05
0.00011324
0.000151127
3.05049e-06
-1.54715e-05
6.13553e-06
-1.5642e-05
9.29365e-06
-1.59719e-05
1.25439e-05
-1.64793e-05
1.58888e-05
-1.69074e-05
1.94447e-05
-1.80978e-05
2.30914e-05
-1.81667e-05
2.68743e-05
-2.12891e-05
3.12752e-05
-1.90606e-05
3.60358e-05
-2.50346e-05
4.07436e-05
-2.89212e-05
4.62516e-05
-2.64766e-05
5.36349e-05
-2.66268e-05
6.14539e-05
-3.11918e-05
6.72971e-05
-3.74406e-05
7.08316e-05
-4.96603e-05
7.42981e-05
-7.24542e-05
7.62683e-05
-8.16131e-05
7.72288e-05
-8.22849e-05
7.87245e-05
-5.82492e-05
6.08187e-05
2.55412e-05
3.97171e-05
0.000123589
0.000190063
3.01164e-06
-1.84832e-05
6.05875e-06
-1.86891e-05
9.18426e-06
-1.90974e-05
1.23966e-05
-1.96916e-05
1.57014e-05
-2.02122e-05
1.92266e-05
-2.1623e-05
2.27933e-05
-2.17334e-05
2.65493e-05
-2.50451e-05
3.09026e-05
-2.34138e-05
3.54318e-05
-2.95646e-05
3.96537e-05
-3.31814e-05
4.62996e-05
-3.34141e-05
5.50763e-05
-3.7206e-05
6.09491e-05
-4.41346e-05
6.20863e-05
-6.01037e-05
6.12258e-05
-9.52274e-05
6.17145e-05
-0.000120369
6.03693e-05
-8.98798e-05
6.4184e-05
-5.06483e-05
7.8131e-05
-5.16747e-05
6.0321e-05
1.36147e-05
3.10161e-05
0.00012603
0.000217953
2.9619e-06
-2.14451e-05
5.96159e-06
-2.16888e-05
9.04493e-06
-2.21807e-05
1.22113e-05
-2.2858e-05
1.54713e-05
-2.34723e-05
1.89714e-05
-2.51231e-05
2.24826e-05
-2.52446e-05
2.61786e-05
-2.87412e-05
3.0535e-05
-2.7773e-05
3.48055e-05
-3.39999e-05
3.90745e-05
-3.86771e-05
4.61391e-05
-4.46896e-05
5.30126e-05
-5.55865e-05
5.42316e-05
-7.20132e-05
5.31298e-05
-0.000105263
5.13594e-05
-0.000131759
5.15897e-05
-0.000114747
5.10601e-05
-5.73901e-05
6.79926e-05
-4.56941e-06
5.83427e-05
1.9691e-05
5.90164e-05
4.90234e-05
2.6859e-05
0.000128656
0.000238874
2.90418e-06
-2.44056e-05
5.85172e-06
-2.47012e-05
8.88927e-06
-2.53033e-05
1.20089e-05
-2.60995e-05
1.52365e-05
-2.68803e-05
1.87242e-05
-2.89274e-05
2.2252e-05
-2.93081e-05
2.58488e-05
-3.34108e-05
3.0491e-05
-3.39634e-05
3.37369e-05
-4.11088e-05
3.80724e-05
-5.08971e-05
4.34347e-05
-6.43311e-05
4.5546e-05
-8.27645e-05
4.40659e-05
-0.000102899
4.44373e-05
-0.000131382
4.7036e-05
-0.000134945
5.57867e-05
-9.84083e-05
6.39806e-05
-3.73744e-05
7.54123e-05
3.97217e-06
3.71173e-05
5.41199e-05
3.4074e-05
0.000111249
2.71889e-05
0.000142614
0.000258064
-0.000117052
-0.000126859
-0.000124849
-7.65709e-05
-0.00014712
-1.85579e-05
-0.000156986
6.97342e-06
-0.00014605
-1.08458e-05
-7.61546e-05
-6.99422e-05
-9.65222e-06
-6.66878e-05
3.91145e-05
-4.89325e-05
7.6648e-05
-3.78118e-05
0.000104438
-2.84835e-05
0.000126457
-2.26254e-05
0.000148133
-2.19141e-05
0.000171844
-2.39698e-05
0.000193315
-2.30651e-05
0.000210254
-2.3121e-05
0.000217399
-1.44517e-05
0.000197553
9.17576e-06
0.000132991
5.62397e-05
0.000127847
-8.76011e-05
-3.88592e-05
-8.64237e-05
-4.52039e-05
-8.32849e-05
-7.15173e-05
-9.03709e-05
-4.70403e-05
-8.11633e-05
-2.59649e-05
-3.48237e-05
-0.000116601
1.53305e-05
-0.000116964
5.85711e-05
-9.2157e-05
8.91652e-05
-6.82856e-05
0.000114547
-5.34057e-05
0.000138557
-4.60192e-05
0.000161861
-4.48407e-05
0.000181619
-4.34611e-05
0.000195899
-3.66096e-05
0.00020492
-2.3588e-05
0.000209798
-4.14609e-06
0.000198624
3.09412e-05
0.000136725
0.000118406
0.000262484
-7.77458e-05
0.00022533
-7.50092e-05
9.97386e-05
-3.70136e-05
-6.79379e-05
-4.28909e-05
-0.000122356
-3.27399e-05
-0.000118238
7.7393e-06
-0.000160739
4.14575e-05
-0.000150642
7.36954e-05
-0.00012433
0.000103091
-9.76322e-05
0.000128218
-7.85178e-05
0.000150815
-6.8608e-05
0.000171473
-6.54942e-05
0.000187656
-5.9641e-05
0.00019859
-4.74958e-05
0.000203774
-2.87638e-05
0.000206354
-6.78442e-06
0.000204594
1.94484e-05
0.000140151
7.97433e-05
0.000399599
-9.1781e-05
0.000328183
-0.000178619
0.000211337
-2.86909e-05
-1.17473e-05
1.11186e-05
-0.000132687
2.05752e-05
-0.000196221
3.94777e-05
-0.000213387
6.5171e-05
-0.000176507
9.21415e-05
-0.00015127
0.00011723
-0.000122697
0.000139246
-0.000100524
0.000159027
-8.83887e-05
0.000176555
-8.30211e-05
0.000189531
-7.26153e-05
0.000197556
-5.55216e-05
0.000202585
-3.40456e-05
0.000203193
-3.13739e-05
0.0002061
-5.30901e-05
0.000149509
3.10728e-05
0.00046125
-4.73203e-05
0.000376099
-5.43093e-05
0.000221143
2.04677e-05
-4.92214e-06
6.661e-05
-0.000136386
5.29661e-05
-0.000221665
5.97272e-05
-0.000229643
8.3645e-05
-0.000200689
0.000104838
-0.000172415
0.000124649
-0.00014248
0.000143475
-0.000119336
0.000162055
-0.000106967
0.00017794
-9.89027e-05
0.000188797
-8.34734e-05
0.000194637
-6.18429e-05
0.000193967
-6.83749e-05
0.000204036
-0.000106951
0.00023732
-0.000125029
0.000208244
1.5686e-05
0.000497746
-2.05193e-06
0.000378573
1.83128e-05
0.00020701
8.86579e-05
-6.68818e-05
8.7377e-05
-0.000112899
7.68474e-05
-0.000192326
8.09179e-05
-0.000234075
0.000101289
-0.000220405
0.000117791
-0.000188807
0.000133256
-0.000157922
0.000149946
-0.000136019
0.00016527
-0.000122288
0.000177997
-0.000111628
0.000186399
-9.24877e-05
0.000185298
-0.000100269
0.000197288
-0.000142782
0.000203914
-0.000155896
0.000202306
-6.45972e-06
0.000267584
0.000271874
0.000674571
3.49436e-05
0.000343717
5.58563e-05
0.000190215
7.51938e-05
-9.21691e-05
0.000105249
-9.98517e-05
8.82664e-05
-0.000203852
8.94533e-05
-0.000244437
0.000109896
-0.000233023
0.000123269
-0.000202044
0.000135464
-0.000170117
0.000149724
-0.000150278
0.000162658
-0.000135222
0.000174083
-0.000123381
0.000176075
-0.000127711
0.000186666
-0.000170575
0.000184648
-0.000175019
0.000187485
-4.53529e-05
0.000142148
0.000145627
0.000251287
0.000328931
0.000955283
7.573e-05
8.10613e-05
7.85626e-05
4.49924e-05
5.9925e-05
7.65655e-06
0.000110812
-0.000105608
8.58631e-05
-0.000214186
9.49417e-05
-0.000250427
0.000119357
-0.000241292
0.000129417
-0.000212078
0.000140215
-0.000180925
0.00015217
-0.000162236
0.000162427
-0.000145982
0.000166859
-0.000149339
0.000177904
-0.000187881
0.000176818
-0.000208628
0.000197057
-0.000120168
0.000182635
3.95309e-05
0.000134995
0.00019374
0.000201287
0.000374326
0.00114256
6.05176e-06
-3.38387e-05
1.22158e-05
-3.45072e-05
1.85606e-05
-3.58363e-05
2.50483e-05
-3.76533e-05
3.18413e-05
-3.99546e-05
3.91068e-05
-4.47118e-05
4.71318e-05
-4.89475e-05
5.44482e-05
-5.72158e-05
6.25983e-05
-6.53809e-05
6.69351e-05
-7.83966e-05
7.40809e-05
-9.8889e-05
7.46874e-05
-0.00011324
7.26626e-05
-0.000122802
7.82542e-05
-0.00011776
8.37559e-05
-0.000108317
9.78829e-05
-9.38852e-05
0.000104432
-6.92566e-05
0.000141959
-3.35084e-05
0.000133842
2.1083e-05
6.70449e-05
6.74179e-05
8.79439e-05
0.000145605
9.47829e-05
0.000196125
0.000248111
0.000119171
6.00949e-06
-6.07537e-05
1.20412e-05
-6.23397e-05
1.79467e-05
-6.53102e-05
2.36028e-05
-6.95373e-05
2.90358e-05
-7.48471e-05
3.40421e-05
-8.31804e-05
3.95209e-05
-9.00175e-05
4.32975e-05
-9.92078e-05
4.69687e-05
-0.000109382
5.2961e-05
-0.000124519
5.69179e-05
-0.000112638
6.14674e-05
-9.74858e-05
7.25724e-05
-0.00010172
9.70256e-05
-9.6853e-05
0.000119545
-8.34481e-05
0.000141399
-7.80328e-05
0.000132405
-6.4051e-05
0.00013182
-2.48534e-05
0.000126544
3.75946e-05
7.0285e-05
7.24365e-05
0.000114764
0.000124253
0.000143517
0.000208395
0.000246373
0.000145133
4.12572e-06
-9.88064e-05
8.37529e-06
-0.000100851
1.22388e-05
-0.000104079
1.64652e-05
-0.000109326
2.0384e-05
-0.000112592
2.4886e-05
-0.000112841
3.08668e-05
-0.000101286
3.7861e-05
-9.34828e-05
4.57944e-05
-9.07084e-05
5.56742e-05
-9.31842e-05
7.74851e-05
-7.94295e-05
0.000103743
-6.95043e-05
0.000112741
-7.07146e-05
0.000123216
-7.37295e-05
0.000132647
-7.51623e-05
0.000141453
-6.98352e-05
0.000139582
-5.65757e-05
0.000123845
-1.42466e-05
0.000120054
4.55883e-05
7.13358e-05
7.37008e-05
0.000123205
8.71753e-05
0.000154347
0.000195862
0.000232063
0.000173948
5.1601e-06
-5.42056e-05
1.03011e-05
-5.41307e-05
1.55959e-05
-5.38056e-05
2.15955e-05
-5.68281e-05
2.88415e-05
-5.75744e-05
3.90064e-05
-5.65012e-05
5.39829e-05
-5.21275e-05
6.70939e-05
-4.77381e-05
7.52582e-05
-4.58504e-05
7.97395e-05
-4.89316e-05
9.52368e-05
-5.41612e-05
0.000104162
-5.95194e-05
0.000114244
-7.0366e-05
0.000122368
-8.10041e-05
0.000128952
-8.98174e-05
0.000133902
-8.65322e-05
0.000123644
-5.42009e-05
0.000112389
-3.98119e-06
0.000111841
4.61192e-05
7.19351e-05
6.69419e-05
0.000114567
5.73372e-05
0.000159751
0.000143984
0.000216231
0.00018768
8.09276e-06
-5.23727e-05
1.59904e-05
-5.41876e-05
2.46363e-05
-5.66575e-05
3.23914e-05
-5.78874e-05
4.08444e-05
-6.00708e-05
4.89871e-05
-6.38662e-05
5.7096e-05
-6.7862e-05
6.44225e-05
-7.22577e-05
7.16297e-05
-7.57009e-05
7.92719e-05
-8.46861e-05
8.60148e-05
-8.67575e-05
9.5117e-05
-9.48883e-05
0.00010547
-0.000106172
0.000114319
-0.000110698
0.000119193
-0.000104945
0.000115903
-8.5269e-05
0.000101957
-4.19441e-05
9.42198e-05
4.77701e-06
0.000100442
4.20467e-05
0.00010002
5.4303e-05
9.17091e-05
5.28984e-05
0.000150273
5.57108e-05
0.000115119
0.000188323
7.26961e-06
-6.40731e-05
1.45469e-05
-6.48116e-05
2.19559e-05
-6.60158e-05
2.8988e-05
-6.77514e-05
3.60205e-05
-7.00656e-05
4.26185e-05
-7.29118e-05
4.90487e-05
-7.648e-05
5.57191e-05
-8.09743e-05
6.33885e-05
-8.51632e-05
7.09727e-05
-9.34813e-05
8.00188e-05
-9.65928e-05
9.21489e-05
-0.000107812
0.000102777
-0.00011736
0.000108832
-0.000116732
0.000108272
-0.000104532
9.62041e-05
-7.47456e-05
8.03912e-05
-2.74091e-05
7.76281e-05
9.44296e-06
8.89536e-05
3.33409e-05
0.000106683
3.7376e-05
0.000130391
3.71988e-05
0.000133424
2.76498e-05
3.72306e-05
0.000165892
6.72371e-06
-7.07969e-05
1.33719e-05
-7.14599e-05
1.99524e-05
-7.25964e-05
2.63953e-05
-7.41945e-05
3.28877e-05
-7.65581e-05
3.94698e-05
-7.9494e-05
4.63028e-05
-8.33131e-05
5.32582e-05
-8.79299e-05
6.10181e-05
-9.29233e-05
6.81555e-05
-0.000100619
7.58488e-05
-0.000104286
8.58654e-05
-0.000117846
9.30669e-05
-0.000124438
9.61964e-05
-0.000119777
8.94085e-05
-9.88611e-05
7.12884e-05
-5.8463e-05
6.05445e-05
-1.60742e-05
6.48278e-05
7.35323e-06
8.07042e-05
1.83627e-05
0.000101453
1.66162e-05
0.000127511
1.10918e-05
0.000150192
3.39255e-06
-2.80735e-06
0.000176189
5.8548e-06
-7.66517e-05
1.17876e-05
-7.73927e-05
1.76834e-05
-7.84921e-05
2.3655e-05
-8.01661e-05
2.95801e-05
-8.24832e-05
3.55305e-05
-8.54445e-05
4.12763e-05
-8.90589e-05
4.674e-05
-9.33937e-05
5.25876e-05
-9.8771e-05
5.80436e-05
-0.000106075
6.52504e-05
-0.000111493
7.51522e-05
-0.000127777
8.01897e-05
-0.000129205
7.67531e-05
-0.000116887
6.07705e-05
-8.49358e-05
4.4967e-05
-4.30338e-05
4.4637e-05
-1.31633e-05
5.65793e-05
-3.38304e-06
7.52893e-05
-2.24803e-07
9.69496e-05
-5.04488e-06
0.00011922
-1.1179e-05
0.000140228
-1.76544e-05
-2.6779e-05
0.000164182
5.44356e-06
-8.20955e-05
1.0866e-05
-8.28153e-05
1.62582e-05
-8.38846e-05
2.15636e-05
-8.54718e-05
2.67126e-05
-8.76325e-05
3.16916e-05
-9.04238e-05
3.6522e-05
-9.38896e-05
4.13041e-05
-9.8176e-05
4.61565e-05
-0.000103624
5.07706e-05
-0.000110689
5.81656e-05
-0.000118896
6.59878e-05
-0.000135486
6.59945e-05
-0.000129269
5.3711e-05
-0.000106474
3.41328e-05
-6.64804e-05
2.76018e-05
-3.49296e-05
3.65121e-05
-2.05181e-05
5.27026e-05
-1.94332e-05
7.22521e-05
-1.97724e-05
9.22744e-05
-2.50671e-05
0.000111489
-3.03933e-05
0.000131192
-3.73573e-05
-4.51107e-05
0.000149523
4.80172e-06
-8.68975e-05
9.59002e-06
-8.7604e-05
1.43617e-05
-8.86567e-05
1.90988e-05
-9.02095e-05
2.37769e-05
-9.23111e-05
2.82578e-05
-9.49052e-05
3.23588e-05
-9.79916e-05
3.58922e-05
-0.000101714
3.89049e-05
-0.000106662
4.11809e-05
-0.000113056
4.56393e-05
-0.000123636
4.81482e-05
-0.000138047
3.84303e-05
-0.000121414
1.97581e-05
-8.94452e-05
9.88573e-06
-5.51229e-05
1.7055e-05
-3.98022e-05
3.28181e-05
-3.61071e-05
5.07345e-05
-3.73468e-05
6.94092e-05
-3.84472e-05
8.7019e-05
-4.26768e-05
0.00010438
-4.77577e-05
0.000121598
-5.4691e-05
-6.18486e-05
0.000137206
4.30117e-06
-9.12498e-05
8.58876e-06
-9.19511e-05
1.28628e-05
-9.30101e-05
1.71669e-05
-9.46343e-05
2.13722e-05
-9.6724e-05
2.53979e-05
-9.93255e-05
2.89032e-05
-0.000102281
3.13715e-05
-0.000105751
3.19428e-05
-0.000110215
3.04039e-05
-0.000116894
2.62879e-05
-0.000128406
1.62821e-05
-0.000137131
2.83656e-06
-0.00011045
-7.00504e-06
-7.85059e-05
-9.10943e-08
-6.01249e-05
1.50313e-05
-5.47551e-05
3.27619e-05
-5.38435e-05
4.94165e-05
-5.4023e-05
6.69953e-05
-5.61054e-05
8.21564e-05
-5.8207e-05
9.7943e-05
-6.52576e-05
0.000116229
-8.30386e-05
-0.000116031
0.000129073
4.05005e-06
-9.96124e-05
8.02664e-06
-0.000100547
1.1873e-05
-0.000102129
1.56524e-05
-0.000104764
1.94628e-05
-0.000108571
2.32188e-05
-0.000113824
2.65587e-05
-0.000121497
2.81663e-05
-0.00013066
2.6048e-05
-0.000140563
1.67447e-05
-0.000152025
-5.32456e-06
-0.000163717
-2.17181e-05
-0.000159053
-2.31253e-05
-0.000114783
-1.60364e-05
-8.68335e-05
-1.85821e-08
-7.79155e-05
1.72747e-05
-7.38977e-05
3.31781e-05
-7.18995e-05
4.84101e-05
-7.25339e-05
6.51794e-05
-7.94564e-05
7.94854e-05
-9.09978e-05
8.40711e-05
-0.000113237
8.05939e-05
-0.0001475
-0.000198169
8.8308e-05
3.54887e-06
-0.000137156
6.8526e-06
-0.000139104
9.79777e-06
-0.000142742
1.21779e-05
-0.000148723
1.41102e-05
-0.000158362
1.59639e-05
-0.000174901
1.73744e-05
-0.000188023
1.69635e-05
-0.000202599
1.21568e-05
-0.00022228
-1.13674e-05
-0.000247526
-4.73532e-05
-0.000228639
-4.36211e-05
-0.00019307
-2.98349e-05
-0.000158682
-1.28411e-05
-0.00013049
5.54981e-06
-0.000123949
2.02632e-05
-0.000116283
3.31433e-05
-0.000116012
4.32085e-05
-0.000122993
5.02367e-05
-0.000142843
5.13969e-05
-0.000157591
4.54599e-05
-0.000192669
2.58846e-05
-9.90396e-05
-2.13312e-05
-7.37401e-05
1.82999e-06
-0.000222718
3.25261e-06
-0.000225367
4.53805e-06
-0.000235077
5.24915e-06
-0.000246955
4.88222e-06
-0.000255411
2.92323e-06
-0.000216967
-3.01204e-06
-0.000147614
-1.74526e-05
-0.000126027
-4.43416e-05
-9.96666e-05
-7.4998e-05
-5.98143e-05
-6.94739e-05
-9.66336e-05
-5.48626e-05
-0.000210247
-2.08581e-05
-0.000258931
3.80419e-07
-0.000220542
9.69324e-06
-0.000201858
1.69915e-05
-0.000190257
2.24799e-05
-0.000192718
2.16118e-05
-0.000204548
1.38073e-05
-0.00016973
-1.41622e-05
-8.32472e-05
-9.11322e-05
-1.98975e-05
-8.62746e-05
-4.15849e-05
-2.11782e-05
-7.10961e-05
-1.20443e-05
-9.87347e-05
-2.50779e-05
-9.62914e-05
-4.10171e-05
-9.24994e-05
-5.97132e-05
-9.01651e-05
-7.88884e-05
-8.86993e-05
-9.2973e-05
-8.57887e-05
-9.02544e-05
-9.31885e-05
-7.25507e-05
-0.000102355
-4.85357e-05
-0.000102819
5.96704e-07
-9.40007e-05
5.77569e-05
-0.000116083
6.39762e-05
-0.000145093
4.06621e-05
-0.000136062
1.36615e-05
-0.000102282
-1.19775e-05
-8.96483e-05
-3.52799e-05
-8.43243e-05
-6.60651e-05
-7.51294e-05
-0.000101441
-5.9783e-05
-0.000114504
-5.67255e-05
-7.42734e-05
-6.93004e-05
-3.39352e-05
-5.01451e-05
-5.88457e-05
-1.66693e-05
1.80764e-05
-9.81012e-05
-7.19903e-06
-7.9621e-05
-1.30653e-05
-8.15464e-05
-1.62503e-05
-8.35877e-05
-1.71815e-05
-8.59797e-05
-1.63145e-05
-8.83929e-05
-1.13595e-05
-9.06144e-05
-9.7322e-06
-9.48114e-05
-1.1925e-05
-0.00010016
-1.42939e-05
-0.00010045
-1.07806e-05
-9.75154e-05
-1.70462e-05
-0.000109804
-3.73361e-05
-0.000124765
-6.29212e-05
-0.000109304
-7.05638e-05
-8.48589e-05
-6.73791e-05
-7.34988e-05
-5.8309e-05
-7.43162e-05
-3.94932e-05
-7.90553e-05
-1.29677e-05
-8.07549e-05
-1.21274e-06
-6.82705e-05
-2.40017e-05
-4.65102e-05
-6.84457e-05
-5.70059e-06
-0.000100568
1.54527e-05
2.26168e-05
-0.000105108
-2.01112e-06
-7.76089e-05
-3.59574e-06
-7.99605e-05
-5.90769e-06
-8.1274e-05
-8.86876e-06
-8.30166e-05
-1.21675e-05
-8.5092e-05
-1.50756e-05
-8.77042e-05
-1.87684e-05
-9.11165e-05
-2.43656e-05
-9.45611e-05
-2.88738e-05
-9.59403e-05
-3.00744e-05
-9.63132e-05
-3.70643e-05
-0.000102813
-5.46788e-05
-0.000107149
-6.7e-05
-9.69815e-05
-6.64119e-05
-8.54456e-05
-5.83433e-05
-8.15654e-05
-4.69199e-05
-8.57379e-05
-3.87767e-05
-8.71969e-05
-4.20062e-05
-7.75233e-05
-6.35216e-05
-4.67545e-05
-9.67909e-05
-1.32401e-05
-0.000108921
6.42938e-06
-0.000107363
1.38952e-05
2.03009e-05
-0.000105048
-2.10054e-06
-7.55077e-05
-4.08616e-06
-7.79739e-05
-6.25791e-06
-7.91009e-05
-8.66762e-06
-8.06053e-05
-1.12891e-05
-8.24689e-05
-1.43423e-05
-8.46495e-05
-1.85414e-05
-8.69161e-05
-2.41161e-05
-8.89851e-05
-2.99696e-05
-9.00856e-05
-3.574e-05
-9.05416e-05
-4.43346e-05
-9.42169e-05
-5.67751e-05
-9.4708e-05
-6.47681e-05
-8.89875e-05
-6.82234e-05
-8.19893e-05
-6.98538e-05
-7.99345e-05
-7.45174e-05
-8.10727e-05
-8.34285e-05
-7.82829e-05
-9.77797e-05
-6.31707e-05
-0.000111597
-3.29352e-05
-0.000117414
-7.42267e-06
-0.000114294
3.30964e-06
-0.000108925
8.52593e-06
1.47379e-05
-0.000103362
-1.31823e-06
-7.41883e-05
-2.87119e-06
-7.64196e-05
-4.85623e-06
-7.71143e-05
-7.371e-06
-7.80888e-05
-1.05556e-05
-7.92824e-05
-1.45857e-05
-8.06175e-05
-1.96389e-05
-8.18613e-05
-2.57931e-05
-8.28294e-05
-3.26666e-05
-8.32105e-05
-3.9767e-05
-8.34398e-05
-4.86314e-05
-8.53512e-05
-5.81546e-05
-8.51836e-05
-6.58109e-05
-8.13302e-05
-7.10433e-05
-7.6756e-05
-7.70249e-05
-7.39511e-05
-8.67289e-05
-7.13678e-05
-9.95317e-05
-6.54793e-05
-0.000111453
-5.12487e-05
-0.000117207
-2.71805e-05
-0.000115289
-9.34064e-06
-0.000109326
-2.65348e-06
-0.000103005
2.20515e-06
9.26926e-06
-9.7536e-05
-2.04393e-06
-7.21439e-05
-4.26365e-06
-7.41993e-05
-6.79445e-06
-7.45829e-05
-9.69352e-06
-7.51891e-05
-1.31365e-05
-7.58389e-05
-1.72673e-05
-7.64862e-05
-2.20913e-05
-7.70368e-05
-2.75843e-05
-7.73359e-05
-3.34536e-05
-7.73408e-05
-3.94522e-05
-7.74408e-05
-4.71177e-05
-7.76853e-05
-5.57613e-05
-7.65398e-05
-6.35764e-05
-7.35148e-05
-7.07042e-05
-6.96279e-05
-7.94096e-05
-6.52457e-05
-9.04896e-05
-6.02873e-05
-0.000102294
-5.36742e-05
-0.000109733
-4.38095e-05
-0.000108197
-2.87165e-05
-0.000102628
-1.49087e-05
-9.77251e-05
-7.55638e-06
-9.29684e-05
-2.55145e-06
4.29935e-06
-8.79984e-05
-2.36323e-06
-6.97803e-05
-4.87209e-06
-7.16901e-05
-7.62729e-06
-7.18274e-05
-1.06855e-05
-7.21305e-05
-1.41064e-05
-7.24177e-05
-1.79288e-05
-7.26635e-05
-2.21537e-05
-7.28115e-05
-2.67406e-05
-7.27487e-05
-3.16454e-05
-7.24357e-05
-3.70841e-05
-7.20018e-05
-4.3647e-05
-7.11221e-05
-5.08458e-05
-6.93408e-05
-5.76483e-05
-6.67121e-05
-6.42587e-05
-6.30176e-05
-7.10132e-05
-5.8491e-05
-7.84874e-05
-5.28132e-05
-8.61441e-05
-4.60176e-05
-9.18316e-05
-3.81218e-05
-9.18593e-05
-2.86886e-05
-8.88789e-05
-1.78888e-05
-8.63597e-05
-1.00754e-05
-8.35763e-05
-5.33465e-06
1.42406e-06
-8.0701e-05
-2.71491e-06
-6.70652e-05
-5.51956e-06
-6.88852e-05
-8.45842e-06
-6.88883e-05
-1.16103e-05
-6.89784e-05
-1.49982e-05
-6.90296e-05
-1.86412e-05
-6.90202e-05
-2.25591e-05
-6.88933e-05
-2.67262e-05
-6.85813e-05
-3.10779e-05
-6.80838e-05
-3.5748e-05
-6.73315e-05
-4.09797e-05
-6.58902e-05
-4.69012e-05
-6.34193e-05
-5.31174e-05
-6.04958e-05
-5.91306e-05
-5.70044e-05
-6.46301e-05
-5.29917e-05
-6.9528e-05
-4.79154e-05
-7.39906e-05
-4.1555e-05
-7.76572e-05
-3.44553e-05
-7.99096e-05
-2.64362e-05
-7.96416e-05
-1.81566e-05
-7.82358e-05
-1.14811e-05
-7.76688e-05
-5.9015e-06
3.05166e-07
-7.65499e-05
-2.74524e-06
-6.43198e-05
-5.59611e-06
-6.60342e-05
-8.53001e-06
-6.59543e-05
-1.1594e-05
-6.59143e-05
-1.48119e-05
-6.58116e-05
-1.82148e-05
-6.5617e-05
-2.18344e-05
-6.52736e-05
-2.56898e-05
-6.47257e-05
-2.9853e-05
-6.39203e-05
-3.44579e-05
-6.27265e-05
-3.94854e-05
-6.08626e-05
-4.45967e-05
-5.83079e-05
-4.9642e-05
-5.54506e-05
-5.46005e-05
-5.2046e-05
-5.97115e-05
-4.78807e-05
-6.4413e-05
-4.32142e-05
-6.78388e-05
-3.81294e-05
-6.99877e-05
-3.23066e-05
-7.13388e-05
-2.50851e-05
-7.20356e-05
-1.74598e-05
-7.21036e-05
-1.14129e-05
-7.20719e-05
-5.93308e-06
3.85284e-08
-7.18052e-05
-2.67143e-06
-6.16483e-05
-5.44563e-06
-6.32599e-05
-8.3013e-06
-6.30985e-05
-1.1289e-05
-6.29265e-05
-1.44507e-05
-6.26498e-05
-1.78273e-05
-6.22403e-05
-2.14453e-05
-6.16554e-05
-2.53098e-05
-6.0861e-05
-2.94223e-05
-5.98077e-05
-3.37647e-05
-5.83839e-05
-3.81265e-05
-5.65007e-05
-4.22337e-05
-5.42006e-05
-4.62601e-05
-5.14241e-05
-5.0126e-05
-4.81802e-05
-5.36537e-05
-4.43532e-05
-5.71549e-05
-3.97132e-05
-6.08089e-05
-3.44756e-05
-6.43543e-05
-2.87613e-05
-6.65047e-05
-2.29348e-05
-6.66459e-05
-1.73186e-05
-6.62478e-05
-1.1811e-05
-6.6195e-05
-5.98584e-06
9.3826e-10
-6.61574e-05
-2.63655e-06
-5.90117e-05
-5.36201e-06
-6.05344e-05
-8.14768e-06
-6.03128e-05
-1.1028e-05
-6.00461e-05
-1.40268e-05
-5.96509e-05
-1.71656e-05
-5.91015e-05
-2.04572e-05
-5.83636e-05
-2.39136e-05
-5.74045e-05
-2.75392e-05
-5.61819e-05
-3.1297e-05
-5.4626e-05
-3.51233e-05
-5.26744e-05
-3.90107e-05
-5.03132e-05
-4.29204e-05
-4.75144e-05
-4.68664e-05
-4.42344e-05
-5.07011e-05
-4.05185e-05
-5.39943e-05
-3.64202e-05
-5.64133e-05
-3.20568e-05
-5.7874e-05
-2.73008e-05
-5.88028e-05
-2.20062e-05
-5.96924e-05
-1.6429e-05
-6.05781e-05
-1.09252e-05
-6.08856e-05
-5.67833e-06
-5.53844e-07
-6.03308e-05
-2.57391e-06
-5.64377e-05
-5.23366e-06
-5.78746e-05
-7.93775e-06
-5.76087e-05
-1.07133e-05
-5.72706e-05
-1.35735e-05
-5.67906e-05
-1.65265e-05
-5.61483e-05
-1.95739e-05
-5.53162e-05
-2.27199e-05
-5.42584e-05
-2.59784e-05
-5.29233e-05
-2.93429e-05
-5.12614e-05
-3.27543e-05
-4.92629e-05
-3.61316e-05
-4.6936e-05
-3.93794e-05
-4.42666e-05
-4.23942e-05
-4.12196e-05
-4.5171e-05
-3.77418e-05
-4.77188e-05
-3.38726e-05
-5.01671e-05
-2.96087e-05
-5.24812e-05
-2.49868e-05
-5.42895e-05
-2.01981e-05
-5.52677e-05
-1.54508e-05
-5.55056e-05
-1.06874e-05
-5.54185e-05
-5.76541e-06
-8.13456e-07
-5.51589e-05
-2.45915e-06
-5.39786e-05
-4.98557e-06
-5.53482e-05
-7.54749e-06
-5.50467e-05
-1.01649e-05
-5.46531e-05
-1.28552e-05
-5.41003e-05
-1.56308e-05
-5.33727e-05
-1.84989e-05
-5.2448e-05
-2.14563e-05
-5.13009e-05
-2.44757e-05
-4.99038e-05
-2.75071e-05
-4.823e-05
-3.05129e-05
-4.62571e-05
-3.34886e-05
-4.39602e-05
-3.64316e-05
-4.13236e-05
-3.92946e-05
-3.83568e-05
-4.19618e-05
-3.50747e-05
-4.4358e-05
-3.14765e-05
-4.6373e-05
-2.7594e-05
-4.79118e-05
-2.34482e-05
-4.90197e-05
-1.90902e-05
-4.98864e-05
-1.45843e-05
-5.05126e-05
-1.00613e-05
-5.06865e-05
-5.59152e-06
-1.09848e-06
-5.04015e-05
-2.33464e-06
-5.1644e-05
-4.73611e-06
-5.29468e-05
-7.16067e-06
-5.26222e-05
-9.62609e-06
-5.21877e-05
-1.21397e-05
-5.15868e-05
-1.47058e-05
-5.08065e-05
-1.73248e-05
-4.98289e-05
-1.9993e-05
-4.86328e-05
-2.27008e-05
-4.71959e-05
-2.54298e-05
-4.5501e-05
-2.81505e-05
-4.35363e-05
-3.08171e-05
-4.12936e-05
-3.33773e-05
-3.87635e-05
-3.57987e-05
-3.59354e-05
-3.80598e-05
-3.28137e-05
-4.01161e-05
-2.94203e-05
-4.19382e-05
-2.5772e-05
-4.34795e-05
-2.1907e-05
-4.46874e-05
-1.78824e-05
-4.55145e-05
-1.37573e-05
-4.59833e-05
-9.59252e-06
-4.61484e-05
-5.42641e-06
-1.23811e-06
-4.60088e-05
-2.19974e-06
-4.94442e-05
-4.453e-06
-5.06935e-05
-6.72317e-06
-5.0352e-05
-9.02275e-06
-4.98881e-05
-1.13574e-05
-4.92521e-05
-1.37297e-05
-4.84342e-05
-1.61381e-05
-4.74205e-05
-1.85747e-05
-4.61962e-05
-2.10239e-05
-4.47467e-05
-2.34657e-05
-4.30591e-05
-2.58795e-05
-4.11226e-05
-2.82447e-05
-3.89284e-05
-3.05345e-05
-3.64736e-05
-3.27078e-05
-3.37622e-05
-3.47201e-05
-3.08015e-05
-3.65376e-05
-2.76029e-05
-3.81209e-05
-2.41888e-05
-3.94388e-05
-2.05893e-05
-4.04796e-05
-1.68417e-05
-4.12474e-05
-1.29895e-05
-4.17434e-05
-9.09666e-06
-4.19609e-05
-5.20887e-06
-1.30565e-06
-4.18934e-05
-2.04667e-06
-4.73976e-05
-4.14355e-06
-4.85966e-05
-6.25029e-06
-4.82453e-05
-8.3774e-06
-4.7761e-05
-1.0528e-05
-4.71015e-05
-1.27025e-05
-4.62596e-05
-1.4898e-05
-4.5225e-05
-1.71072e-05
-4.3987e-05
-1.93182e-05
-4.25357e-05
-2.15149e-05
-4.08624e-05
-2.36771e-05
-3.89604e-05
-2.578e-05
-3.68254e-05
-2.77974e-05
-3.44563e-05
-2.9704e-05
-3.18556e-05
-3.14734e-05
-2.90323e-05
-3.30754e-05
-2.60009e-05
-3.44828e-05
-2.27815e-05
-3.5671e-05
-1.94012e-05
-3.66216e-05
-1.58912e-05
-3.73248e-05
-1.22863e-05
-3.77881e-05
-8.63348e-06
-3.80209e-05
-4.97605e-06
-1.31021e-06
-3.80164e-05
-1.89099e-06
-4.55066e-05
-3.82434e-06
-4.66633e-05
-5.76331e-06
-4.63063e-05
-7.7157e-06
-4.58086e-05
-9.68258e-06
-4.51347e-05
-1.1663e-05
-4.42792e-05
-1.36529e-05
-4.3235e-05
-1.56451e-05
-4.19948e-05
-1.76289e-05
-4.05519e-05
-1.95909e-05
-3.89004e-05
-2.15149e-05
-3.70364e-05
-2.33822e-05
-3.49581e-05
-2.51716e-05
-3.26669e-05
-2.6859e-05
-3.01682e-05
-2.84206e-05
-2.74707e-05
-2.98335e-05
-2.45881e-05
-3.10762e-05
-2.15389e-05
-3.21311e-05
-1.83464e-05
-3.29851e-05
-1.50372e-05
-3.36315e-05
-1.16401e-05
-3.40723e-05
-8.19272e-06
-3.43132e-05
-4.73516e-06
-1.27309e-06
-3.43503e-05
-1.72749e-06
-4.37791e-05
-3.49262e-06
-4.48982e-05
-5.25984e-06
-4.45391e-05
-7.03542e-06
-4.4033e-05
-8.81927e-06
-4.33508e-05
-1.06095e-05
-4.24889e-05
-1.2402e-05
-4.14425e-05
-1.41898e-05
-4.0207e-05
-1.59637e-05
-3.8778e-05
-1.77118e-05
-3.71523e-05
-1.942e-05
-3.53282e-05
-2.1072e-05
-3.33061e-05
-2.26502e-05
-3.10887e-05
-2.41362e-05
-2.86821e-05
-2.55112e-05
-2.60958e-05
-2.67567e-05
-2.33427e-05
-2.78558e-05
-2.04399e-05
-2.87942e-05
-1.74081e-05
-2.95613e-05
-1.42702e-05
-3.01507e-05
-1.10507e-05
-3.05633e-05
-7.78018e-06
-3.08041e-05
-4.49432e-06
-1.20642e-06
-3.08708e-05
-1.56151e-06
-4.22176e-05
-3.15543e-06
-4.33043e-05
-4.74924e-06
-4.29453e-05
-6.34791e-06
-4.24344e-05
-7.95042e-06
-4.17483e-05
-9.55437e-06
-4.0885e-05
-1.11555e-05
-3.98414e-05
-1.27476e-05
-3.86149e-05
-1.43224e-05
-3.72032e-05
-1.58697e-05
-3.56049e-05
-1.73777e-05
-3.38202e-05
-1.88329e-05
-3.18509e-05
-2.02207e-05
-2.97009e-05
-2.15258e-05
-2.73771e-05
-2.27329e-05
-2.48887e-05
-2.38274e-05
-2.22483e-05
-2.47959e-05
-1.94715e-05
-2.56275e-05
-1.65766e-05
-2.63136e-05
-1.35841e-05
-2.68487e-05
-1.05156e-05
-2.72326e-05
-7.39636e-06
-2.7469e-05
-4.25798e-06
-1.11857e-06
-2.75568e-05
-1.39265e-06
-4.0825e-05
-2.81384e-06
-4.18831e-05
-4.23343e-06
-4.15257e-05
-5.6558e-06
-4.1012e-05
-7.07932e-06
-4.03248e-05
-8.50131e-06
-3.9463e-05
-9.91767e-06
-3.8425e-05
-1.13227e-05
-3.72098e-05
-1.27091e-05
-3.58167e-05
-1.40682e-05
-3.42459e-05
-1.53897e-05
-3.24986e-05
-1.66626e-05
-3.0578e-05
-1.78747e-05
-2.84888e-05
-1.90138e-05
-2.6238e-05
-2.00676e-05
-2.38349e-05
-2.10244e-05
-2.12915e-05
-2.18738e-05
-1.86222e-05
-2.26069e-05
-1.58435e-05
-2.32172e-05
-1.29739e-05
-2.37001e-05
-1.00327e-05
-2.40548e-05
-7.04174e-06
-2.4284e-05
-4.02881e-06
-1.01506e-06
-2.43875e-05
-1.22159e-06
-3.96034e-05
-2.46945e-06
-4.06352e-05
-3.71486e-06
-4.02803e-05
-4.96215e-06
-3.97647e-05
-6.20921e-06
-3.90777e-05
-7.45325e-06
-3.82189e-05
-8.69049e-06
-3.71878e-05
-9.91574e-06
-3.59846e-05
-1.11226e-05
-3.46098e-05
-1.23036e-05
-3.30649e-05
-1.34501e-05
-3.13521e-05
-1.45528e-05
-2.94753e-05
-1.5602e-05
-2.74397e-05
-1.65875e-05
-2.52524e-05
-1.74998e-05
-2.29227e-05
-1.83294e-05
-2.04619e-05
-1.90684e-05
-1.78833e-05
-1.97097e-05
-1.52022e-05
-2.02484e-05
-1.24353e-05
-2.06811e-05
-9.60011e-06
-2.10066e-05
-6.7162e-06
-2.12274e-05
-3.8081e-06
-8.98795e-07
-2.13436e-05
-1.04723e-06
-3.85562e-05
-2.12204e-06
-3.95604e-05
-3.19403e-06
-3.92083e-05
-4.26766e-06
-3.86911e-05
-5.34058e-06
-3.80048e-05
-6.41017e-06
-3.71494e-05
-7.47323e-06
-3.61247e-05
-8.52512e-06
-3.49327e-05
-9.56019e-06
-3.35748e-05
-1.0572e-05
-3.20531e-05
-1.15532e-05
-3.03709e-05
-1.24961e-05
-2.85324e-05
-1.33925e-05
-2.65432e-05
-1.42346e-05
-2.44103e-05
-1.50147e-05
-2.21427e-05
-1.57257e-05
-1.9751e-05
-1.63611e-05
-1.7248e-05
-1.69158e-05
-1.46475e-05
-1.73862e-05
-1.19649e-05
-1.777e-05
-9.21638e-06
-1.80667e-05
-6.41952e-06
-1.82783e-05
-3.59647e-06
-7.71184e-07
-1.8406e-05
-8.67982e-07
-3.76882e-05