/*--------------------------------*- C++ -*----------------------------------*\
| =========                 |                                                 |
| \\      /  F ield         | OpenFOAM: The Open Source CFD Toolbox           |
|  \\    /   O peration     | Version:  2.4.0                                 |
|   \\  /    A nd           | Web:      www.OpenFOAM.org                      |
|    \\/     M anipulation  |                                                 |
\*---------------------------------------------------------------------------*/
FoamFile
{
    version     2.0;
    format      ascii;
    class       surfaceScalarField;
    location    "0.2";
    object      phi.oil;
}
// * * * * * * * * * * * * * * * * * * * * * * * * * * * * * * * * * * * * * //

dimensions      [0 3 -1 0 0 0 0];

internalField   nonuniform List<scalar> 
4432
(
3.12219e-06
-3.12212e-06
6.2781e-06
-3.15584e-06
9.4959e-06
-3.21775e-06
1.28189e-05
-3.32291e-06
1.62276e-05
-3.40867e-06
1.98932e-05
-3.66561e-06
2.34137e-05
-3.52049e-06
2.82016e-05
-4.78782e-06
3.1504e-05
-3.30238e-06
3.6499e-05
-4.99501e-06
4.28416e-05
-6.34255e-06
4.84577e-05
-5.61446e-06
5.31779e-05
-4.70636e-06
5.80716e-05
-4.80321e-06
6.36954e-05
-5.31851e-06
7.04601e-05
-6.02994e-06
7.67487e-05
-5.219e-06
8.20201e-05
-3.74779e-06
8.20066e-05
1.64513e-06
6.90981e-05
7.81834e-06
4.06986e-05
2.87474e-05
1.26721e-05
5.69735e-05
7.05001e-05
3.11665e-06
-6.23868e-06
6.26732e-06
-6.30642e-06
9.48031e-06
-6.43065e-06
1.28002e-05
-6.64268e-06
1.61984e-05
-6.80688e-06
1.98536e-05
-7.32076e-06
2.34781e-05
-7.14487e-06
2.79992e-05
-9.30892e-06
3.14692e-05
-6.7723e-06
3.65956e-05
-1.01214e-05
4.2933e-05
-1.26794e-05
4.82106e-05
-1.08856e-05
5.2566e-05
-9.01884e-06
5.76442e-05
-9.71505e-06
6.4385e-05
-1.14591e-05
7.1948e-05
-1.09192e-05
7.92481e-05
-3.0346e-06
8.46493e-05
9.23798e-06
8.53997e-05
1.69873e-05
7.34207e-05
2.5014e-05
4.16918e-05
5.06463e-05
1.71427e-05
9.44639e-05
0.000107379
3.10204e-06
-9.34068e-06
6.23814e-06
-9.44247e-06
9.43854e-06
-9.63101e-06
1.27441e-05
-9.94822e-06
1.61284e-05
-1.01912e-05
1.97585e-05
-1.09508e-05
2.34436e-05
-1.083e-05
2.76538e-05
-1.35191e-05
3.14529e-05
-1.05714e-05
3.6587e-05
-1.52554e-05
4.26445e-05
-1.87344e-05
4.7704e-05
-1.5925e-05
5.2131e-05
-1.31908e-05
5.78322e-05
-1.33244e-05
6.49475e-05
-5.79732e-06
7.16283e-05
4.91623e-06
7.86309e-05
1.05392e-05
8.43445e-05
2.32168e-05
8.36601e-05
4.35831e-05
7.89153e-05
6.07756e-05
5.13546e-05
8.4213e-05
2.02147e-05
0.000131467
0.000154282
3.0802e-06
-1.24208e-05
6.19454e-06
-1.25567e-05
9.37711e-06
-1.28135e-05
1.26578e-05
-1.32289e-05
1.6029e-05
-1.35623e-05
1.962e-05
-1.45418e-05
2.33099e-05
-1.45199e-05
2.7297e-05
-1.75061e-05
3.13853e-05
-1.46597e-05
3.64041e-05
-2.02739e-05
4.18858e-05
-2.42069e-05
4.6774e-05
-2.06563e-05
5.16833e-05
-1.66118e-05
5.49457e-05
-7.73506e-06
6.36828e-05
1.64394e-06
7.86798e-05
6.07229e-06
8.43169e-05
1.15586e-05
8.73243e-05
1.97693e-05
8.70192e-05
3.45846e-05
7.25841e-05
7.28029e-05
5.71972e-05
0.000126114
2.39127e-05
0.000171922
0.000206182
3.0505e-06
-1.54713e-05
6.13555e-06
-1.56418e-05
9.29367e-06
-1.59717e-05
1.25439e-05
-1.64791e-05
1.58888e-05
-1.69072e-05
1.94447e-05
-1.80977e-05
2.30914e-05
-1.81666e-05
2.68744e-05
-2.1289e-05
3.12752e-05
-1.90605e-05
3.60371e-05
-2.50345e-05
4.06898e-05
-2.88693e-05
4.53398e-05
-2.49552e-05
4.88322e-05
-1.79495e-05
5.93511e-05
-2.41925e-06
7.1354e-05
1.8034e-06
7.28692e-05
6.10797e-07
7.53745e-05
2.46341e-06
7.56327e-05
5.42392e-06
7.39866e-05
1.27453e-05
6.72561e-05
3.83777e-05
3.7528e-05
0.000107439
2.14718e-05
0.000174259
0.000253385
3.01165e-06
-1.8483e-05
6.05877e-06
-1.86889e-05
9.18428e-06
-1.90972e-05
1.23966e-05
-1.96915e-05
1.57015e-05
-2.02121e-05
1.92266e-05
-2.16229e-05
2.27933e-05
-2.17334e-05
2.65494e-05
-2.50451e-05
3.09026e-05
-2.34138e-05
3.54419e-05
-2.95633e-05
3.90354e-05
-3.29269e-05
4.38081e-05
-2.97019e-05
4.97942e-05
-1.76215e-05
6.43057e-05
-3.7783e-06
6.21966e-05
-6.807e-06
6.70739e-05
-9.71627e-06
7.50379e-05
-2.07515e-05
7.70967e-05
-9.65507e-06
7.01004e-05
1.16335e-05
5.94207e-05
3.89016e-05
2.73525e-05
0.000105824
1.17973e-05
0.000172269
0.000274995
2.96191e-06
-2.14449e-05
5.96161e-06
-2.16887e-05
9.04495e-06
-2.21806e-05
1.22113e-05
-2.28579e-05
1.54714e-05
-2.34722e-05
1.89715e-05
-2.5123e-05
2.24826e-05
-2.52445e-05
2.61786e-05
-2.87412e-05
3.05346e-05
-2.77677e-05
3.47858e-05
-3.36705e-05
3.7629e-05
-3.71539e-05
4.19173e-05
-3.77145e-05
5.15842e-05
-2.84839e-05
5.52906e-05
-2.17852e-05
6.40815e-05
-1.79438e-05
7.35594e-05
-2.86277e-05
8.17232e-05
-3.41701e-05
8.88122e-05
-1.96075e-05
8.27479e-05
1.43583e-05
6.53352e-05
5.40513e-05
4.0629e-05
0.000120656
9.38902e-06
0.000185188
0.000278592
2.90419e-06
-2.42816e-05
5.85174e-06
-2.45604e-05
8.88929e-06
-2.51238e-05
1.20089e-05
-2.58529e-05
1.52365e-05
-2.65347e-05
1.87243e-05
-2.83705e-05
2.2252e-05
-2.84472e-05
2.5847e-05
-3.18755e-05
3.04593e-05
-3.19587e-05
3.38683e-05
-3.73063e-05
3.71981e-05
-4.47018e-05
3.77336e-05
-5.23884e-05
4.76939e-05
-5.48902e-05
5.43226e-05
-3.08452e-05
6.2326e-05
-3.08631e-05
7.59421e-05
-4.39078e-05
8.32047e-05
-4.19294e-05
8.55673e-05
-2.0963e-05
7.68537e-05
1.82525e-05
6.51035e-05
6.33689e-05
4.63229e-05
0.000139432
1.36383e-05
0.000199555
0.000282852
-0.000117733
-0.000192812
-0.00012482
-9.09875e-05
-0.000147108
-2.1916e-05
-0.000156982
6.73741e-06
-0.000146048
-1.08738e-05
-7.61515e-05
-6.99298e-05
-9.64966e-06
-6.66567e-05
3.91114e-05
-4.89216e-05
7.66351e-05
-3.78193e-05
0.00010441
-2.85159e-05
0.000126431
-2.26684e-05
0.000148118
-2.19399e-05
0.000171831
-2.39884e-05
0.000193249
-2.312e-05
0.000210348
-2.36827e-05
0.000218052
-1.55335e-05
0.000198302
8.27569e-06
0.000133352
5.5983e-05
0.000127666
-0.000103934
-0.000198321
-8.48428e-05
-9.12382e-05
-8.27168e-05
-8.80855e-05
-9.0212e-05
-5.30695e-05
-8.12159e-05
-2.61327e-05
-3.48412e-05
-0.000116333
1.53541e-05
-0.000116778
5.85858e-05
-9.20631e-05
8.91679e-05
-6.82569e-05
0.000114547
-5.33878e-05
0.000138557
-4.6007e-05
0.000161861
-4.48323e-05
0.000181619
-4.34571e-05
0.000195899
-3.66113e-05
0.00020492
-2.35841e-05
0.000209806
-4.14377e-06
0.000198667
3.08925e-05
0.000136857
0.000118068
0.000262199
-8.93754e-05
-8.74837e-05
-2.92357e-05
-7.22014e-05
-2.29755e-05
-0.000157188
-3.75041e-05
-0.000145293
-3.25062e-05
-0.000120935
7.72355e-06
-0.000160566
4.15031e-05
-0.000150564
7.37373e-05
-0.000124297
0.000103098
-9.76178e-05
0.000128221
-7.85102e-05
0.000150817
-6.86031e-05
0.000171476
-6.54912e-05
0.000187657
-5.9638e-05
0.00019859
-4.74929e-05
0.000203773
-2.8758e-05
0.000206355
-6.7898e-06
0.000204607
1.821e-05
0.00014031
6.96171e-05
0.000399093
-6.68567e-05
0.000102818
6.54672e-06
3.00749e-05
4.5673e-05
-0.000128931
2.89227e-05
-0.000147758
2.36266e-05
-0.000197459
3.94439e-05
-0.000213207
6.52396e-05
-0.00017639
9.21834e-05
-0.000151241
0.000117242
-0.000122676
0.00013925
-0.000100519
0.000159031
-8.83838e-05
0.000176557
-8.30176e-05
0.000189532
-7.26126e-05
0.000197556
-5.55185e-05
0.000202585
-3.40617e-05
0.000203101
-3.31925e-05
0.000206243
-6.10285e-05
0.000153983
-3.83031e-06
0.00045731
-4.62202e-05
0.000206791
2.00424e-05
9.07499e-05
6.61446e-05
-0.000106028
7.81238e-05
-0.000131938
5.37555e-05
-0.000221077
5.96938e-05
-0.000231287
8.37184e-05
-0.000200509
0.000104865
-0.000172388
0.000124664
-0.000142475
0.000143479
-0.000119333
0.000162059
-0.000106965
0.000177942
-9.89007e-05
0.000188798
-8.34711e-05
0.000194635
-6.18808e-05
0.000193743
-7.09427e-05
0.000202532
-0.000114497
0.000243618
-0.000159247
0.000215693
-0.000117028
0.000485171
-3.40186e-05
0.000284389
4.38295e-05
0.000163472
9.74719e-05
-0.000104874
9.3108e-05
-0.000137045
7.60017e-05
-0.00024018
8.18449e-05
-0.000240132
0.000101396
-0.000220077
0.000117813
-0.000188805
0.000133261
-0.000157923
0.000149947
-0.00013602
0.000165272
-0.00012229
0.000177999
-0.000111629
0.000186392
-9.25345e-05
0.000184889
-0.000103099
0.000194093
-0.000150195
0.000203378
-0.00019309
0.000293219
-0.000194188
0.000278634
-4.27555e-05
0.000642931
-1.41208e-05
0.000318349
5.85571e-05
0.00015168
0.000110839
-9.87689e-05
0.000104668
-0.00014497
9.30438e-05
-0.000245223
9.74122e-05
-0.000245116
0.000110055
-0.00023272
0.000123277
-0.000202027
0.000135466
-0.000170112
0.000149725
-0.000150279
0.000162659
-0.000135224
0.000174076
-0.000123404
0.000175493
-0.000129848
0.000182242
-0.000176829
0.000178228
-0.000209243
0.000166567
-0.000207541
0.000195414
-4.35243e-05
0.000303693
0.000157409
0.000944603
2.88588e-05
0.000169223
7.82051e-05
6.85485e-05
0.000113526
-8.55755e-05
0.000113644
-0.000161909
0.000106413
-0.000242646
0.00011093
-0.000249729
0.000119439
-0.000241228
0.000129422
-0.000212011
0.000140219
-0.000180909
0.000152171
-0.000162241
0.000162425
-0.000146026
0.000166432
-0.000150653
0.000173485
-0.000191016
0.000167027
-0.000229145
0.00015166
-0.000234468
0.000178666
-0.000116887
0.000151345
8.7722e-05
0.00049408
0.00026734
0.00134307
6.0605e-06
-3.06399e-05
1.22364e-05
-3.11433e-05
1.86009e-05
-3.21375e-05
2.5119e-05
-3.34318e-05
3.19716e-05
-3.50389e-05
3.93478e-05
-3.85374e-05
4.75674e-05
-4.10983e-05
5.51378e-05
-4.66235e-05
6.35519e-05
-5.10374e-05
6.86467e-05
-5.79672e-05
7.67623e-05
-7.17834e-05
6.5863e-05
-7.72934e-05
7.04398e-05
-7.6743e-05
0.000113106
-4.67427e-05
0.000134645
-5.60243e-05
0.000152877
-6.06823e-05
0.000162491
-5.06664e-05
0.000155054
-1.73663e-05
0.000133103
3.61797e-05
0.000121675
7.39014e-05
0.000132012
0.000130462
0.000138786
0.000199122
0.000210835
0.000193556
6.12272e-06
-4.64955e-05
1.22694e-05
-4.74659e-05
1.82904e-05
-4.91856e-05
2.40538e-05
-5.14164e-05
2.96942e-05
-5.42619e-05
3.53529e-05
-5.94327e-05
4.14431e-05
-6.32351e-05
4.65789e-05
-6.84965e-05
5.23425e-05
-7.30581e-05
6.21894e-05
-7.98194e-05
7.25822e-05
-7.22074e-05
6.78176e-05
-7.1375e-05
9.19013e-05
-6.87319e-05
0.000132887
-6.61056e-05
0.000147692
-7.10107e-05
0.0001529
-6.80899e-05
0.000151846
-5.08997e-05
0.000140349
-8.84951e-06
0.000122052
5.25067e-05
0.000119349
7.73068e-05
0.000131229
0.000118722
0.000174242
0.000160037
0.000203926
0.000207279
4.60719e-06
-6.48955e-05
9.44691e-06
-6.5945e-05
1.40969e-05
-6.70644e-05
1.96052e-05
-6.91554e-05
2.53572e-05
-6.95881e-05
3.17428e-05
-6.84897e-05
3.97429e-05
-6.28628e-05
5.02193e-05
-6.14624e-05
6.24674e-05
-6.16605e-05
7.83649e-05
-6.96758e-05
8.95573e-05
-7.31922e-05
7.95778e-05
-7.56966e-05
0.000101528
-7.96991e-05
0.000138107
-7.90421e-05
0.000145952
-7.92634e-05
0.000147665
-7.08918e-05
0.000141989
-4.73225e-05
0.000128173
1.93275e-06
0.000119496
5.93367e-05
0.000120041
7.73032e-05
0.000131492
0.000107234
0.000179015
0.000114178
0.000153407
0.000243506
6.84544e-06
-4.88546e-05
1.38855e-05
-4.96894e-05
2.12871e-05
-5.04691e-05
2.95335e-05
-5.29578e-05
3.81524e-05
-5.44905e-05
4.76384e-05
-5.82188e-05
5.83749e-05
-6.19507e-05
6.91219e-05
-6.69804e-05
7.96592e-05
-7.01345e-05
8.88482e-05
-7.83143e-05
8.60761e-05
-8.09086e-05
7.79508e-05
-8.34267e-05
0.000102198
-8.33295e-05
0.000131141
-8.83226e-05
0.000136512
-8.57018e-05
0.000137182
-7.29857e-05
0.000125028
-3.90233e-05
0.000111959
1.07512e-05
0.000112188
5.65689e-05
0.000120311
6.93056e-05
0.000138993
8.84876e-05
0.00017241
8.11587e-05
9.66888e-05
0.000233835
8.23211e-06
-5.68037e-05
1.62872e-05
-5.75345e-05
2.45499e-05
-5.86071e-05
3.241e-05
-6.07196e-05
4.10002e-05
-6.30333e-05
4.90833e-05
-6.6314e-05
5.71586e-05
-7.005e-05
6.44717e-05
-7.43041e-05
7.18271e-05
-7.7494e-05
7.94531e-05
-8.58974e-05
6.66851e-05
-8.75414e-05
7.20195e-05
-9.24776e-05
0.000101903
-9.04517e-05
0.000120234
-9.65236e-05
0.000123475
-9.0351e-05
0.00011903
-7.08574e-05
0.000102312
-2.75679e-05
9.27693e-05
1.55433e-05
0.000100022
4.74729e-05
0.000114246
5.50089e-05
0.00013817
6.45207e-05
0.000166827
5.25476e-05
5.44291e-05
0.000209958
7.26961e-06
-6.40732e-05
1.45469e-05
-6.48117e-05
2.19559e-05
-6.60159e-05
2.8988e-05
-6.77516e-05
3.60205e-05
-7.00658e-05
4.26185e-05
-7.2912e-05
4.90487e-05
-7.64802e-05
5.57191e-05
-8.09745e-05
6.33886e-05
-8.51634e-05
7.10296e-05
-9.34815e-05
5.60599e-05
-9.65682e-05
7.16264e-05
-0.000104226
0.000108637
-0.000103507
0.000113752
-0.000102617
0.000111073
-8.99114e-05
9.72687e-05
-6.07428e-05
7.9547e-05
-1.54843e-05
7.67294e-05
1.54551e-05
8.91575e-05
3.44165e-05
0.000106798
3.72963e-05
0.000134204
3.71074e-05
0.000160641
2.61102e-05
2.30443e-05
0.000192045
6.72371e-06
-7.07969e-05
1.33719e-05
-7.14599e-05
1.99524e-05
-7.25964e-05
2.63953e-05
-7.41945e-05
3.28877e-05
-7.65581e-05
3.94698e-05
-7.9494e-05
4.63028e-05
-8.33131e-05
5.32582e-05
-8.79299e-05
6.10181e-05
-9.29233e-05
6.82125e-05
-0.000100619
4.89612e-05
-0.000104255
6.93157e-05
-0.000111824
9.88756e-05
-0.00011094
9.99589e-05
-0.000105242
9.06749e-05
-8.42721e-05
7.06104e-05
-4.62506e-05
5.95851e-05
-8.48352e-06
6.48889e-05
9.15101e-06
8.07867e-05
1.83995e-05
0.000101456
1.66156e-05
0.000127471
1.10918e-05
0.000150228
3.35343e-06
-2.82633e-06
0.000176099
5.8548e-06
-7.66517e-05
1.17876e-05
-7.73927e-05
1.76834e-05
-7.84921e-05
2.3655e-05
-8.01661e-05
2.95801e-05
-8.24832e-05
3.55305e-05
-8.54445e-05
4.12763e-05
-8.90589e-05
4.674e-05
-9.33937e-05
5.25876e-05
-9.8771e-05
5.80795e-05
-0.000106075
3.9491e-05
-0.000110219
6.42894e-05
-9.86808e-05
8.48216e-05
-0.000115355
7.86875e-05
-0.000101421
6.07837e-05
-7.18771e-05
4.42857e-05
-3.47313e-05
4.4419e-05
-1.04408e-05
5.66821e-05
-3.3109e-06
7.52908e-05
-2.24259e-07
9.69507e-05
-5.04451e-06
0.000119221
-1.1179e-05
0.00014023
-1.76548e-05
-2.67799e-05
0.000164183
5.44356e-06
-8.20955e-05
1.0866e-05
-8.28153e-05
1.62582e-05
-8.38846e-05
2.15636e-05
-8.54718e-05
2.67126e-05
-8.76325e-05
3.16916e-05
-9.04238e-05
3.6522e-05
-9.38896e-05
4.13041e-05
-9.8176e-05
4.61568e-05
-0.000103624
5.0095e-05
-0.000110691
3.06191e-05
-6.76325e-05
6.80458e-05
-0.000124303
6.67111e-05
-0.000113029
5.27188e-05
-9.23947e-05
3.26501e-05
-5.71911e-05
2.70269e-05
-3.11903e-05
3.66005e-05
-2.03346e-05
5.27057e-05
-1.94334e-05
7.22528e-05
-1.9772e-05
9.22751e-05
-2.50669e-05
0.00011149
-3.03934e-05
0.000131192
-3.73577e-05
-4.51116e-05
0.000149523
4.80172e-06
-8.68975e-05
9.59002e-06
-8.7604e-05
1.43617e-05
-8.86567e-05
1.90988e-05
-9.02095e-05
2.37769e-05
-9.23111e-05
2.82578e-05
-9.49052e-05
3.23588e-05
-9.79916e-05
3.58922e-05
-0.000101714
3.89126e-05
-0.000106662
2.06756e-05
-0.000102078
3.79555e-05
-0.00010343
4.68019e-05
-0.000123659
3.70044e-05
-0.000107175
1.84236e-05
-8.00881e-05
9.38256e-06
-5.12127e-05
1.70699e-05
-3.95163e-05
3.28227e-05
-3.61099e-05
5.07349e-05
-3.73463e-05
6.94097e-05
-3.84468e-05
8.70194e-05
-4.26767e-05
0.000104381
-4.7758e-05
0.000121598
-5.46994e-05
-6.19345e-05
0.000137204
4.30117e-06
-9.12498e-05
8.58876e-06
-9.19511e-05
1.28628e-05
-9.30101e-05
1.71669e-05
-9.46343e-05
2.13722e-05
-9.6724e-05
2.53979e-05
-9.93255e-05
2.89032e-05
-0.000102281
3.13729e-05
-0.000105753
2.82699e-05
-0.000110523
1.78159e-05
-8.86267e-05
2.13198e-05
-0.000119697
1.2449e-05
-0.000123082
1.07553e-06
-0.000101516
-7.74611e-06
-7.46198e-05
-1.81735e-07
-5.95119e-05
1.50357e-05
-5.47642e-05
3.27621e-05
-5.38433e-05
4.94168e-05
-5.40238e-05
6.69956e-05
-5.61103e-05
8.21565e-05
-5.8233e-05
9.794e-05
-6.53806e-05
0.000116186
-8.37049e-05
-0.000119248
0.000128875
4.05005e-06
-9.96124e-05
8.02664e-06
-0.000100547
1.1873e-05
-0.000102129
1.56524e-05
-0.000104764
1.94628e-05
-0.000108571
2.32188e-05
-0.000113824
2.65588e-05
-0.000121499
2.81561e-05
-0.000130821
1.15098e-05
-0.000143814
6.09466e-06
-0.000137201
-1.22539e-05
-0.000143356
-2.36102e-05
-0.00013916
-2.38929e-05
-0.00011042
-1.62349e-05
-8.59935e-05
-2.0424e-08
-7.80556e-05
1.7275e-05
-7.40212e-05
3.31781e-05
-7.2046e-05
4.84089e-05
-7.27589e-05
6.51684e-05
-7.99012e-05
7.94419e-05
-9.22673e-05
8.38743e-05
-0.000116803
7.97067e-05
-0.000157102
-0.000214349
8.50965e-05
3.54887e-06
-0.000137156
6.8526e-06
-0.000139104
9.79777e-06
-0.000142742
1.21779e-05
-0.000148723
1.41102e-05
-0.000158363
1.59639e-05
-0.00017491
1.73781e-05
-0.000188222
1.57506e-05
-0.000207634
-4.9494e-07
-0.000197784
-2.08674e-05
-0.000189915
-4.31688e-05
-0.000198426
-4.136e-05
-0.000189477
-2.98771e-05
-0.000161483
-1.28173e-05
-0.00013295
5.5658e-06
-0.000126247
2.02687e-05
-0.000118531
3.31413e-05
-0.000118656
4.31643e-05
-0.000126814
4.98298e-05
-0.00014944
5.06126e-05
-0.000170915
4.41001e-05
-0.000214251
3.50854e-05
-0.000124666
-0.000119886
-6.22414e-06
1.82999e-06
-0.000222718
3.25261e-06
-0.000225367
4.53805e-06
-0.000235077
5.24911e-06
-0.000246955
4.88166e-06
-0.000255418
2.91226e-06
-0.000217299
-3.4505e-06
-0.000155281
-1.75034e-05
-0.000152941
-2.44877e-05
-0.000127154
-5.11342e-05
-0.000151714
-7.22244e-05
-0.000214195
-5.47448e-05
-0.000264094
-2.01032e-05
-0.000286556
6.16971e-07
-0.000240182
9.79108e-06
-0.000221268
1.6893e-05
-0.000208349
2.2187e-05
-0.000212322
2.10441e-05
-0.000228357
1.65756e-05
-0.000196082
1.36908e-05
-0.00012778
-2.19053e-05
-0.000142943
-6.3468e-05
-5.78931e-05
-2.46476e-05
-7.23008e-05
-1.20443e-05
-9.87347e-05
-2.50779e-05
-9.62914e-05
-4.10175e-05
-9.25003e-05
-5.97207e-05
-9.0182e-05
-7.897e-05
-8.88304e-05
-9.26057e-05
-8.63552e-05
-7.21773e-05
-9.47511e-05
-5.964e-05
-0.000108088
-5.55526e-05
-9.48567e-05
-3.50709e-05
-8.76266e-05
-2.16326e-05
-0.000123285
-2.37561e-05
-0.000152618
-8.0278e-07
-0.000169137
1.00474e-05
-0.000159273
6.83507e-06
-0.000156495
7.42351e-06
-0.000144925
4.07924e-06
-0.000147593
-1.59723e-05
-0.000156858
-5.46303e-05
-0.000122164
-7.26765e-05
-7.90849e-05
-3.80783e-05
-5.42889e-05
-4.88768e-05
-2.4472e-05
1.74078e-05
-9.46315e-05
-7.19903e-06
-7.9621e-05
-1.30653e-05
-8.15465e-05
-1.62507e-05
-8.35882e-05
-1.71828e-05
-8.59905e-05
-1.63009e-05
-8.84858e-05
-1.12124e-05
-9.11512e-05
-9.32929e-06
-9.60017e-05
-1.22903e-05
-9.39412e-05
-1.41061e-05
-7.882e-05
-1.06613e-05
-7.98296e-05
-1.60433e-05
-0.000106874
-3.79911e-05
-0.000125287
-6.09774e-05
-0.000109992
-6.74063e-05
-8.82827e-05
-6.85418e-05
-7.76139e-05
-6.12401e-05
-7.93641e-05
-4.34284e-05
-8.34544e-05
-1.51191e-05
-8.35787e-05
-4.08915e-06
-6.87262e-05
-2.40035e-05
-4.73804e-05
-6.15097e-05
-7.91665e-06
-0.000100226
1.46167e-05
2.12961e-05
-9.68527e-05
-2.01112e-06
-7.76089e-05
-3.59574e-06
-7.99605e-05
-5.90772e-06
-8.1274e-05
-8.86914e-06
-8.30164e-05
-1.21722e-05
-8.50889e-05
-1.51066e-05
-8.76643e-05
-1.88243e-05
-9.08009e-05
-2.42508e-05
-9.37083e-05
-2.88467e-05
-9.56723e-05
-3.0064e-05
-9.6292e-05
-3.71513e-05
-0.000102834
-5.50211e-05
-0.000107195
-6.54375e-05
-9.66726e-05
-6.60449e-05
-8.2657e-05
-5.38216e-05
-8.05747e-05
-4.68075e-05
-7.99217e-05
-3.8437e-05
-8.70367e-05
-4.14233e-05
-7.76454e-05
-6.00777e-05
-4.73365e-05
-8.91054e-05
-1.35858e-05
-0.000109342
5.47877e-06
-0.000102725
1.23933e-05
1.99508e-05
-0.000104392
-2.10054e-06
-7.55077e-05
-4.08616e-06
-7.79739e-05
-6.25793e-06
-7.91009e-05
-8.66788e-06
-8.06054e-05
-1.1291e-05
-8.24697e-05
-1.43464e-05
-8.4655e-05
-1.85433e-05
-8.693e-05
-2.41123e-05
-8.90019e-05
-2.99671e-05
-9.00952e-05
-3.57419e-05
-9.05443e-05
-4.43593e-05
-9.422e-05
-5.68579e-05
-9.47211e-05
-6.44663e-05
-8.90148e-05
-6.5924e-05
-8.21319e-05
-6.97944e-05
-7.94087e-05
-7.00304e-05
-8.1058e-05
-8.4441e-05
-8.0201e-05
-9.83585e-05
-6.51015e-05
-9.94529e-05
-3.57889e-05
-0.000114965
-8.13382e-06
-0.000113397
2.6125e-06
-0.000108992
8.17403e-06
1.45835e-05
-0.000101447
-1.31823e-06
-7.41883e-05
-2.87119e-06
-7.64196e-05
-4.85623e-06
-7.71143e-05
-7.37103e-06
-7.80888e-05
-1.05557e-05
-7.92825e-05
-1.45859e-05
-8.0618e-05
-1.96388e-05
-8.1862e-05
-2.57931e-05
-8.28298e-05
-3.26667e-05
-8.3211e-05
-3.9769e-05
-8.34401e-05
-4.86375e-05
-8.53525e-05
-5.82037e-05
-8.51876e-05
-6.56006e-05
-8.13661e-05
-7.06846e-05
-7.69214e-05
-7.19254e-05
-7.43037e-05
-8.65815e-05
-7.09414e-05
-9.83982e-05
-6.70447e-05
-0.000111764
-5.36647e-05
-0.000114094
-2.9247e-05
-0.000113131
-1.08449e-05
-0.000106994
-3.86369e-06
-0.000102274
1.60431e-06
9.18815e-06
-9.72816e-05
-2.04393e-06
-7.21439e-05
-4.26365e-06
-7.41993e-05
-6.79445e-06
-7.45829e-05
-9.69353e-06
-7.51891e-05
-1.31365e-05
-7.58389e-05
-1.72673e-05
-7.64862e-05
-2.20913e-05
-7.70369e-05
-2.75843e-05
-7.7336e-05
-3.34537e-05
-7.73409e-05
-3.94531e-05
-7.7441e-05
-4.7122e-05
-7.7686e-05
-5.57942e-05
-7.65417e-05
-6.36217e-05
-7.35448e-05
-6.99086e-05
-6.97161e-05
-7.92485e-05
-6.4885e-05
-8.56043e-05
-6.06917e-05
-9.94053e-05
-5.27102e-05
-0.000110156
-4.18433e-05
-0.000108358
-2.87764e-05
-0.000101116
-1.59501e-05
-9.39235e-05
-8.5483e-06
-9.03063e-05
-3.07176e-06
4.16105e-06
-8.76577e-05
-2.36323e-06
-6.97803e-05
-4.87209e-06
-7.16901e-05
-7.62729e-06
-7.18274e-05
-1.06855e-05
-7.21305e-05
-1.41064e-05
-7.24177e-05
-1.79288e-05
-7.26635e-05
-2.21537e-05
-7.28115e-05
-2.67406e-05
-7.27487e-05
-3.16454e-05
-7.24358e-05
-3.70847e-05
-7.20019e-05
-4.36505e-05
-7.1123e-05
-5.08593e-05
-6.93454e-05
-5.76875e-05
-6.67331e-05
-6.43085e-05
-6.3082e-05
-7.00978e-05
-5.85662e-05
-7.79622e-05
-5.19745e-05
-8.53837e-05
-4.49496e-05
-9.13706e-05
-3.75775e-05
-9.21159e-05
-2.81628e-05
-8.86131e-05
-1.74044e-05
-8.40157e-05
-9.9183e-06
-8.09247e-05
-5.48188e-06
1.33052e-06
-8.02213e-05
-2.71491e-06
-6.70652e-05
-5.51956e-06
-6.88852e-05
-8.45842e-06
-6.88883e-05
-1.16103e-05
-6.89784e-05
-1.49982e-05
-6.90296e-05
-1.86412e-05
-6.90202e-05
-2.25591e-05
-6.88933e-05
-2.67262e-05
-6.85813e-05
-3.10779e-05
-6.80838e-05
-3.5748e-05
-6.73315e-05
-4.098e-05
-6.58903e-05
-4.69027e-05
-6.34196e-05
-5.31232e-05
-6.04975e-05
-5.91534e-05
-5.70099e-05
-6.46625e-05
-5.30158e-05
-6.92948e-05
-4.79611e-05
-7.33774e-05
-4.14022e-05
-7.77081e-05
-3.35251e-05
-8.00157e-05
-2.53763e-05
-7.96752e-05
-1.76037e-05
-7.78978e-05
-1.15036e-05
-7.70195e-05
-6.0625e-06
2.81333e-07
-7.63929e-05
-2.74524e-06
-6.43198e-05
-5.59611e-06
-6.60342e-05
-8.53001e-06
-6.59543e-05
-1.1594e-05
-6.59143e-05
-1.48119e-05
-6.58116e-05
-1.82148e-05
-6.5617e-05
-2.18344e-05
-6.52736e-05
-2.56898e-05
-6.47257e-05
-2.9853e-05
-6.39203e-05
-3.44579e-05
-6.27265e-05
-3.94854e-05
-6.08626e-05
-4.45967e-05
-5.83079e-05
-4.96421e-05
-5.54506e-05
-5.46012e-05
-5.20461e-05
-5.97154e-05
-4.78816e-05
-6.44216e-05
-4.32191e-05
-6.78456e-05
-3.81436e-05
-6.99889e-05
-3.23779e-05
-7.13367e-05
-2.52006e-05
-7.2049e-05
-1.75542e-05
-7.20846e-05
-1.14051e-05
-7.20434e-05
-5.92927e-06
2.38545e-08
-7.18009e-05
-2.67143e-06
-6.16483e-05
-5.44563e-06
-6.32599e-05
-8.3013e-06
-6.30985e-05
-1.1289e-05
-6.29265e-05
-1.44507e-05
-6.26498e-05
-1.78273e-05
-6.22403e-05
-2.14453e-05
-6.16554e-05
-2.53098e-05
-6.0861e-05
-2.94223e-05
-5.98077e-05
-3.37647e-05
-5.83839e-05
-3.81265e-05
-5.65007e-05
-4.22337e-05
-5.42006e-05
-4.62601e-05
-5.14241e-05
-5.0126e-05
-4.81802e-05
-5.3654e-05
-4.43532e-05
-5.71564e-05
-3.97135e-05
-6.08126e-05
-3.44772e-05
-6.43643e-05
-2.87623e-05
-6.65078e-05
-2.29285e-05
-6.66487e-05
-1.73154e-05
-6.62482e-05
-1.18228e-05
-6.61944e-05
-5.99155e-06
4.67973e-10
-6.61576e-05
-2.63655e-06
-5.90117e-05
-5.36201e-06
-6.05344e-05
-8.14768e-06
-6.03128e-05
-1.1028e-05
-6.00461e-05
-1.40268e-05
-5.96509e-05
-1.71656e-05
-5.91015e-05
-2.04572e-05
-5.83636e-05
-2.39136e-05
-5.74045e-05
-2.75392e-05
-5.61819e-05
-3.1297e-05
-5.4626e-05
-3.51233e-05
-5.26744e-05
-3.90107e-05
-5.03132e-05
-4.29204e-05
-4.75144e-05
-4.68664e-05
-4.42344e-05
-5.07011e-05
-4.05185e-05
-5.39943e-05
-3.64202e-05
-5.64134e-05
-3.20569e-05
-5.78742e-05
-2.7301e-05
-5.8803e-05
-2.20072e-05
-5.96925e-05
-1.64302e-05
-6.05782e-05
-1.09258e-05
-6.08858e-05
-5.67862e-06
-5.54054e-07
-6.03308e-05
-2.57391e-06
-5.64377e-05
-5.23366e-06
-5.78746e-05
-7.93775e-06
-5.76087e-05
-1.07133e-05
-5.72706e-05
-1.35735e-05
-5.67906e-05
-1.65265e-05
-5.61483e-05
-1.95739e-05
-5.53162e-05
-2.27199e-05
-5.42584e-05
-2.59784e-05
-5.29233e-05
-2.93429e-05
-5.12614e-05
-3.27543e-05
-4.92629e-05
-3.61316e-05
-4.6936e-05
-3.93794e-05
-4.42666e-05
-4.23942e-05
-4.12196e-05
-4.5171e-05
-3.77418e-05
-4.77188e-05
-3.38726e-05
-5.01671e-05
-2.96088e-05
-5.24813e-05
-2.49868e-05
-5.42895e-05
-2.01981e-05
-5.52677e-05
-1.54509e-05
-5.55056e-05
-1.06875e-05
-5.54185e-05
-5.76547e-06
-8.13478e-07
-5.51589e-05
-2.45915e-06
-5.39786e-05
-4.98557e-06
-5.53482e-05
-7.54749e-06
-5.50467e-05
-1.01649e-05
-5.46531e-05
-1.28552e-05
-5.41003e-05
-1.56308e-05
-5.33727e-05
-1.84989e-05
-5.2448e-05
-2.14563e-05
-5.13009e-05
-2.44757e-05
-4.99038e-05
-2.75071e-05
-4.823e-05
-3.05129e-05
-4.62571e-05
-3.34886e-05
-4.39602e-05
-3.64316e-05
-4.13236e-05
-3.92946e-05
-3.83568e-05
-4.19618e-05
-3.50747e-05
-4.4358e-05
-3.14765e-05
-4.6373e-05
-2.7594e-05
-4.79118e-05
-2.34482e-05
-4.90197e-05
-1.90902e-05
-4.98864e-05
-1.45843e-05
-5.05126e-05
-1.00613e-05
-5.06865e-05
-5.59153e-06
-1.09848e-06
-5.04015e-05
-2.33464e-06
-5.1644e-05
-4.73611e-06
-5.29468e-05
-7.16067e-06
-5.26222e-05
-9.62609e-06
-5.21877e-05
-1.21397e-05
-5.15868e-05
-1.47058e-05
-5.08065e-05
-1.73248e-05
-4.98289e-05
-1.9993e-05
-4.86328e-05
-2.27008e-05
-4.71959e-05
-2.54298e-05
-4.5501e-05
-2.81505e-05
-4.35363e-05
-3.08171e-05
-4.12936e-05
-3.33773e-05
-3.87635e-05
-3.57987e-05
-3.59354e-05
-3.80598e-05
-3.28137e-05
-4.01161e-05
-2.94203e-05
-4.19382e-05
-2.5772e-05
-4.34795e-05
-2.1907e-05
-4.46874e-05
-1.78824e-05
-4.55145e-05
-1.37573e-05
-4.59833e-05
-9.59252e-06
-4.61484e-05
-5.42641e-06
-1.23811e-06
-4.60088e-05
-2.19974e-06
-4.94442e-05
-4.453e-06
-5.06935e-05
-6.72317e-06
-5.0352e-05
-9.02275e-06
-4.98881e-05
-1.13574e-05
-4.92521e-05
-1.37297e-05
-4.84342e-05
-1.61381e-05
-4.74205e-05
-1.85747e-05
-4.61962e-05
-2.10239e-05
-4.47467e-05
-2.34657e-05
-4.30591e-05
-2.58795e-05
-4.11226e-05
-2.82447e-05
-3.89284e-05
-3.05345e-05
-3.64736e-05
-3.27078e-05
-3.37622e-05
-3.47201e-05
-3.08015e-05
-3.65376e-05
-2.76029e-05
-3.81209e-05
-2.41888e-05
-3.94388e-05
-2.05893e-05
-4.04796e-05
-1.68417e-05
-4.12474e-05
-1.29895e-05
-4.17434e-05
-9.09666e-06
-4.19609e-05
-5.20887e-06
-1.30565e-06
-4.18934e-05
-2.04667e-06
-4.73976e-05
-4.14355e-06
-4.85966e-05
-6.25029e-06
-4.82453e-05
-8.3774e-06
-4.7761e-05
-1.0528e-05
-4.71015e-05
-1.27025e-05
-4.62596e-05
-1.4898e-05
-4.5225e-05
-1.71072e-05
-4.3987e-05
-1.93182e-05
-4.25357e-05
-2.15149e-05
-4.08624e-05
-2.36771e-05
-3.89604e-05
-2.578e-05
-3.68254e-05
-2.77974e-05
-3.44563e-05
-2.9704e-05
-3.18556e-05
-3.14734e-05
-2.90323e-05
-3.30754e-05
-2.60009e-05
-3.44828e-05
-2.27815e-05
-3.5671e-05
-1.94012e-05
-3.66216e-05
-1.58912e-05
-3.73248e-05
-1.22863e-05
-3.77881e-05
-8.63348e-06
-3.80209e-05
-4.97605e-06
-1.31021e-06
-3.80164e-05
-1.89099e-06
-4.55066e-05
-3.82434e-06
-4.66633e-05
-5.76331e-06
-4.63063e-05
-7.7157e-06
-4.58086e-05
-9.68258e-06
-4.51347e-05
-1.1663e-05
-4.42792e-05
-1.36529e-05
-4.3235e-05
-1.56451e-05
-4.19948e-05
-1.76289e-05
-4.05519e-05
-1.95909e-05
-3.89004e-05
-2.15149e-05
-3.70364e-05
-2.33822e-05
-3.49581e-05
-2.51716e-05
-3.26669e-05
-2.6859e-05
-3.01682e-05
-2.84206e-05
-2.74707e-05
-2.98335e-05
-2.45881e-05
-3.10762e-05
-2.15389e-05
-3.21311e-05
-1.83464e-05
-3.29851e-05
-1.50372e-05
-3.36315e-05
-1.16401e-05
-3.40723e-05
-8.19272e-06
-3.43132e-05
-4.73516e-06
-1.27309e-06
-3.43503e-05
-1.72749e-06
-4.37791e-05
-3.49262e-06
-4.48982e-05
-5.25984e-06
-4.45391e-05
-7.03542e-06
-4.4033e-05
-8.81927e-06
-4.33508e-05
-1.06095e-05
-4.24889e-05
-1.2402e-05
-4.14425e-05
-1.41898e-05
-4.0207e-05
-1.59637e-05
-3.8778e-05
-1.77118e-05
-3.71523e-05
-1.942e-05
-3.53282e-05
-2.1072e-05
-3.33061e-05
-2.26502e-05
-3.10887e-05
-2.41362e-05
-2.86821e-05
-2.55112e-05
-2.60958e-05
-2.67567e-05
-2.33427e-05
-2.78558e-05
-2.04399e-05
-2.87942e-05
-1.74081e-05
-2.95613e-05
-1.42702e-05
-3.01507e-05
-1.10507e-05
-3.05633e-05
-7.78018e-06
-3.08041e-05
-4.49432e-06
-1.20642e-06
-3.08708e-05
-1.56151e-06
-4.22176e-05
-3.15543e-06
-4.33043e-05
-4.74924e-06
-4.29453e-05
-6.34791e-06
-4.24344e-05
-7.95042e-06
-4.17483e-05
-9.55437e-06
-4.0885e-05
-1.11555e-05
-3.98414e-05
-1.27476e-05
-3.86149e-05
-1.43224e-05
-3.72032e-05
-1.58697e-05
-3.56049e-05
-1.73777e-05
-3.38202e-05
-1.88329e-05
-3.18509e-05
-2.02207e-05
-2.97009e-05
-2.15258e-05
-2.73771e-05
-2.27329e-05
-2.48887e-05
-2.38274e-05
-2.22483e-05
-2.47959e-05
-1.94715e-05
-2.56275e-05
-1.65766e-05
-2.63136e-05
-1.35841e-05
-2.68487e-05
-1.05156e-05
-2.72326e-05
-7.39636e-06
-2.7469e-05
-4.25798e-06
-1.11857e-06
-2.75568e-05
-1.39265e-06
-4.0825e-05
-2.81384e-06
-4.18831e-05
-4.23343e-06
-4.15257e-05
-5.6558e-06
-4.1012e-05
-7.07932e-06
-4.03248e-05
-8.50131e-06
-3.9463e-05
-9.91767e-06
-3.8425e-05
-1.13227e-05
-3.72098e-05
-1.27091e-05
-3.58167e-05
-1.40682e-05
-3.42459e-05
-1.53897e-05
-3.24986e-05
-1.66626e-05
-3.0578e-05
-1.78747e-05
-2.84888e-05
-1.90138e-05
-2.6238e-05
-2.00676e-05
-2.38349e-05
-2.10244e-05
-2.12915e-05
-2.18738e-05
-1.86222e-05
-2.26069e-05
-1.58435e-05
-2.32172e-05
-1.29739e-05
-2.37001e-05
-1.00327e-05
-2.40548e-05
-7.04174e-06
-2.4284e-05
-4.02881e-06
-1.01506e-06
-2.43875e-05
-1.22159e-06
-3.96034e-05
-2.46945e-06
-4.06352e-05
-3.71486e-06
-4.02803e-05
-4.96215e-06
-3.97647e-05
-6.20921e-06
-3.90777e-05
-7.45325e-06
-3.82189e-05
-8.69049e-06
-3.71878e-05
-9.91574e-06
-3.59846e-05
-1.11226e-05
-3.46098e-05
-1.23036e-05
-3.30649e-05
-1.34501e-05
-3.13521e-05
-1.45528e-05
-2.94753e-05
-1.5602e-05
-2.74397e-05
-1.65875e-05
-2.52524e-05
-1.74998e-05
-2.29227e-05
-1.83294e-05
-2.04619e-05
-1.90684e-05
-1.78833e-05
-1.97097e-05
-1.52022e-05
-2.02484e-05
-1.24353e-05
-2.06811e-05
-9.60011e-06
-2.10066e-05
-6.7162e-06
-2.12274e-05
-3.8081e-06
-8.98795e-07
-2.13436e-05
-1.04723e-06
-3.85562e-05
-2.12204e-06
-3.95604e-05
-3.19403e-06
-3.92083e-05
-4.26766e-06
-3.86911e-05
-5.34058e-06
-3.80048e-05
-6.41017e-06
-3.71494e-05
-7.47323e-06
-3.61247e-05
-8.52512e-06
-3.49327e-05
-9.56019e-06
-3.35748e-05
-1.0572e-05
-3.20531e-05
-1.15532e-05
-3.03709e-05
-1.24961e-05
-2.85324e-05
-1.33925e-05
-2.65432e-05
-1.42346e-05
-2.44103e-05
-1.50147e-05
-2.21427e-05
-1.57257e-05
-1.9751e-05
-1.63611e-05
-1.7248e-05
-1.69158e-05
-1.46475e-05
-1.73862e-05
-1.19649e-05
-1.777e-05
-9.21638e-06
-1.80667e-05
-6.41952e-06
-1.82783e-05
-3.59647e-06
-7.71184e-07
-1.8406e-05
-8.67982e-07
-3.76882e-05
-1.77134e-06
-3.86571e-05
-2.67115e-06