/*--------------------------------*- C++ -*----------------------------------*\
| =========                 |                                                 |
| \\      /  F ield         | OpenFOAM: The Open Source CFD Toolbox           |
|  \\    /   O peration     | Version:  2.4.0                                 |
|   \\  /    A nd           | Web:      www.OpenFOAM.org                      |
|    \\/     M anipulation  |                                                 |
\*---------------------------------------------------------------------------*/
FoamFile
{
    version     2.0;
    format      ascii;
    class       surfaceScalarField;
    location    "0.2";
    object      phi.water;
}
// * * * * * * * * * * * * * * * * * * * * * * * * * * * * * * * * * * * * * //

dimensions      [0 3 -1 0 0 0 0];

internalField   nonuniform List<scalar> 
4432
(
3.12219e-06
-3.12212e-06
6.2781e-06
-3.15584e-06
9.4959e-06
-3.21775e-06
1.28189e-05
-3.32291e-06
1.62276e-05
-3.40867e-06
1.98932e-05
-3.66561e-06
2.34137e-05
-3.52049e-06
2.82016e-05
-4.78781e-06
3.1504e-05
-3.30236e-06
3.6499e-05
-4.99486e-06
4.28416e-05
-6.34219e-06
4.84571e-05
-5.61502e-06
5.31746e-05
-4.71718e-06
5.80605e-05
-4.88559e-06
6.37035e-05
-5.64273e-06
7.04536e-05
-6.74922e-06
7.68379e-05
-6.38097e-06
8.22878e-05
-5.44035e-06
8.29369e-05
-6.41996e-07
7.82366e-05
4.70468e-06
6.20032e-05
1.6231e-05
3.30985e-05
2.89155e-05
3.31411e-05
3.11665e-06
-6.23867e-06
6.26732e-06
-6.30641e-06
9.48031e-06
-6.43064e-06
1.28002e-05
-6.64266e-06
1.61984e-05
-6.80686e-06
1.98536e-05
-7.32074e-06
2.34781e-05
-7.14485e-06
2.79992e-05
-9.30886e-06
3.14692e-05
-6.77213e-06
3.65957e-05
-1.01206e-05
4.29328e-05
-1.26777e-05
4.82082e-05
-1.08887e-05
5.25528e-05
-9.06021e-06
5.76734e-05
-1.00017e-05
6.44251e-05
-1.22876e-05
7.19482e-05
-1.31234e-05
7.92547e-05
-9.14823e-06
8.47659e-05
-2.64912e-06
8.60257e-05
3.26333e-06
8.1228e-05
1.17727e-05
6.4004e-05
3.38527e-05
3.66101e-05
5.63527e-05
6.97846e-05
3.10204e-06
-9.34059e-06
6.23814e-06
-9.44241e-06
9.43854e-06
-9.63096e-06
1.27441e-05
-9.94816e-06
1.61284e-05
-1.01911e-05
1.97585e-05
-1.09508e-05
2.34437e-05
-1.08299e-05
2.76538e-05
-1.35187e-05
3.14531e-05
-1.05706e-05
3.65875e-05
-1.52525e-05
4.26436e-05
-1.87294e-05
4.76971e-05
-1.59383e-05
5.22058e-05
-1.35298e-05
5.79029e-05
-1.46217e-05
6.50314e-05
-6.19842e-06
7.19433e-05
4.29916e-06
7.95752e-05
6.73484e-06
8.44015e-05
1.66406e-05
8.63107e-05
3.23285e-05
8.36875e-05
4.4888e-05
6.91691e-05
5.91127e-05
3.97226e-05
8.61152e-05
0.000109517
3.0802e-06
-1.24205e-05
6.19454e-06
-1.25566e-05
9.37712e-06
-1.28134e-05
1.26578e-05
-1.32287e-05
1.6029e-05
-1.35622e-05
1.962e-05
-1.45416e-05
2.331e-05
-1.45195e-05
2.72972e-05
-1.75049e-05
3.13859e-05
-1.46571e-05
3.64054e-05
-2.0265e-05
4.18824e-05
-2.41984e-05
4.68762e-05
-2.07469e-05
5.18008e-05
-1.3866e-05
4.8152e-05
1.73883e-06
5.98445e-05
4.98217e-08
7.86826e-05
4.43482e-06
8.40991e-05
7.7231e-06
8.68167e-05
1.44535e-05
8.63293e-05
2.89877e-05
7.09326e-05
6.21445e-05
4.71893e-05
0.000119012
3.78397e-05
0.000120923
0.000151363
3.05049e-06
-1.54706e-05
6.13555e-06
-1.56414e-05
9.29368e-06
-1.59714e-05
1.25439e-05
-1.64788e-05
1.58888e-05
-1.69069e-05
1.94447e-05
-1.80973e-05
2.30916e-05
-1.81657e-05
2.68749e-05
-2.12858e-05
3.12773e-05
-1.90538e-05
3.60377e-05
-2.50025e-05
4.06576e-05
-2.60022e-05
4.33165e-05
-7.88987e-06
4.17545e-05
-1.2678e-06
6.65899e-05
1.51599e-06
7.10558e-05
-5.02956e-07
7.35498e-05
-3.48594e-06
7.81909e-05
-4.71844e-06
8.14044e-05
-8.15942e-06
7.78379e-05
2.60587e-06
5.85417e-05
2.47119e-05
3.73163e-05
8.41188e-05
1.85359e-05
0.000170259
0.000197253
3.01162e-06
-1.84814e-05
6.05877e-06
-1.86883e-05
9.18429e-06
-1.90968e-05
1.23966e-05
-1.96912e-05
1.57015e-05
-2.02118e-05
1.92268e-05
-2.16221e-05
2.27938e-05
-2.1731e-05
2.65509e-05
-2.50385e-05
3.08941e-05
-2.33944e-05
3.46829e-05
-1.70231e-05
3.1294e-05
-4.38019e-06
4.47055e-05
-4.96631e-06
6.02171e-05
-3.68934e-06
6.39775e-05
-4.943e-06
6.43295e-05
-7.83707e-06
7.02452e-05
-2.26708e-05
7.66574e-05
-3.7741e-05
7.85306e-05
-3.29985e-05
7.53526e-05
-1.626e-05
6.89547e-05
4.99671e-06
2.54853e-05
6.45482e-05
1.18884e-05
0.00016884
0.00022934
2.96179e-06
-2.14386e-05
5.96159e-06
-2.16834e-05
9.04495e-06
-2.21739e-05
1.22113e-05
-2.28486e-05
1.54715e-05
-2.34592e-05
1.89719e-05
-2.51018e-05
2.24834e-05
-2.52132e-05
2.61759e-05
-2.86876e-05
2.54174e-05
-9.28895e-06
2.91551e-05
-7.09537e-06
4.31696e-05
-6.31793e-06
5.0309e-05
-8.71654e-06
5.71227e-05
-1.35365e-05
5.81273e-05
-1.60216e-05
6.41644e-05
-3.135e-05
7.17997e-05
-4.6707e-05
7.95819e-05
-5.06712e-05
8.45699e-05
-3.84097e-05
8.27246e-05
-1.68809e-05
7.11392e-05
1.2475e-05
4.55402e-05
6.60026e-05
1.35785e-05
0.000173707
0.000250566
2.90429e-06
1.8702e-06
5.85189e-06
1.77804e-06
8.8896e-06
1.55989e-06
1.20094e-05
1.25751e-06
1.52376e-05
8.70499e-07
1.87264e-05
-1.68084e-07
2.22566e-05
-2.37462e-07
1.92589e-05
-1.73233e-06
2.79304e-05
-7.29343e-06
3.69694e-05
-5.489e-06
4.17137e-05
-1.08399e-05
4.74577e-05
-1.84107e-05
5.33007e-05
-2.88849e-05
5.43749e-05
-3.37136e-05
6.11775e-05
-4.72988e-05
7.24368e-05
-5.97591e-05
7.9621e-05
-5.83164e-05
8.00868e-05
-4.25705e-05
7.62831e-05
-1.33887e-05
7.07789e-05
2.06103e-05
5.39914e-05
7.55284e-05
1.75447e-05
0.000164758
0.000274795
-0.000117052
-0.00012686
-0.000124849
-7.65729e-05
-0.00014712
-1.85602e-05
-0.000156986
6.96871e-06
-0.000146058
-1.08732e-05
-7.61583e-05
-6.99278e-05
-9.64906e-06
-6.66506e-05
3.91165e-05
-4.89159e-05
7.66491e-05
-3.78108e-05
0.000104439
-2.84845e-05
0.000126457
-2.26259e-05
0.000148133
-2.19142e-05
0.000171844
-2.39698e-05
0.000193315
-2.30651e-05
0.000210254
-2.31211e-05
0.000217399
-1.44517e-05
0.000197553
9.17569e-06
0.000132991
5.62396e-05
0.000127847
-8.76017e-05
-3.88875e-05
-8.64309e-05
-4.52082e-05
-8.32886e-05
-7.15024e-05
-9.03699e-05
-4.69273e-05
-8.12189e-05
-2.57469e-05
-3.48376e-05
-0.000116334
1.5358e-05
-0.000116776
5.85895e-05
-9.20621e-05
8.9171e-05
-6.82568e-05
0.000114549
-5.33882e-05
0.000138558
-4.60079e-05
0.000161862
-4.48339e-05
0.00018162
-4.34591e-05
0.000195899
-3.66094e-05
0.00020492
-2.35879e-05
0.000209798
-4.14603e-06
0.000198624
3.09413e-05
0.000136725
0.000118406
0.000262484
-7.77405e-05
0.000225324
-7.50411e-05
9.97327e-05
-3.70391e-05
-6.79263e-05
-4.28833e-05
-0.000122351
-3.28614e-05
-0.000118145
7.72745e-06
-0.000160563
4.15071e-05
-0.000150562
7.37408e-05
-0.000124296
0.000103101
-9.76172e-05
0.000128223
-7.85103e-05
0.000150818
-6.86037e-05
0.000171476
-6.54925e-05
0.000187657
-5.96403e-05
0.00019859
-4.74956e-05
0.000203774
-2.87638e-05
0.000206354
-6.78436e-06
0.000204594
1.94485e-05
0.00014015
7.97433e-05
0.000399599
-9.17592e-05
0.000328192
-0.000178651
0.000211369
-2.85102e-05
-1.17409e-05
1.12056e-05
-0.000132735
2.03604e-05
-0.000196
3.94451e-05
-0.000213185
6.52437e-05
-0.000176387
9.21868e-05
-0.000151239
0.000117245
-0.000122675
0.000139252
-0.000100519
0.000159032
-8.83844e-05
0.000176558
-8.30191e-05
0.000189532
-7.26148e-05
0.000197556
-5.55215e-05
0.000202585
-3.40455e-05
0.000203193
-3.13739e-05
0.0002061
-5.309e-05
0.000149509
3.10724e-05
0.00046125
-4.73115e-05
0.000376104
-5.43291e-05
0.000221149
2.05193e-05
-4.93882e-06
6.68072e-05
-0.000136591
5.27663e-05
-0.000221196
5.96895e-05
-0.000231268
8.3722e-05
-0.000200504
0.000104868
-0.000172385
0.000124666
-0.000142473
0.00014348
-0.000119332
0.00016206
-0.000106964
0.000177943
-9.89013e-05
0.000188798
-8.34729e-05
0.000194637
-6.18428e-05
0.000193967
-6.83748e-05
0.000204035
-0.000106951
0.00023732
-0.00012503
0.000208243
1.56712e-05
0.000497746
-2.04997e-06
0.000378573
1.831e-05
0.000207005
8.8989e-05
-6.687e-05
8.96285e-05
-0.000139429
7.57409e-05
-0.000240345
8.18486e-05
-0.000240125
0.0001014
-0.000220071
0.000117816
-0.000188801
0.000133263
-0.00015792
0.000149949
-0.000136018
0.000165273
-0.000122288
0.000177999
-0.000111629
0.000186399
-9.24887e-05
0.000185298
-0.000100269
0.000197287
-0.000142782
0.000203909
-0.000155894
0.000202308
-6.47567e-06
0.000267581
0.000271865
0.000674571
3.49472e-05
0.000343795
5.59148e-05
0.000190241
0.000109297
-9.19358e-05
0.000103581
-0.000145628
9.29917e-05
-0.000245257
9.74162e-05
-0.000245111
0.000110058
-0.000232713
0.00012328
-0.000202023
0.000135468
-0.000170109
0.000149727
-0.000150276
0.00016266
-0.000135222
0.000174084
-0.000123382
0.000176075
-0.000127711
0.000186666
-0.000170575
0.00018464
-0.000175017
0.000187475
-4.53541e-05
0.000142145
0.00014563
0.000251288
0.000328936
0.000955278
7.57771e-05
0.00019867
8.03814e-05
9.29513e-05
0.000112274
-8.30291e-05
0.000113356
-0.000161998
0.000106407
-0.000242637
0.000110934
-0.000249724
0.000119442
-0.000241221
0.000129425
-0.000212006
0.000140221
-0.000180905
0.000152172
-0.000162237
0.000162427
-0.000145983
0.000166859
-0.000149339
0.000177904
-0.000187881
0.000176813
-0.000208627
0.000197049
-0.000120169
0.000182635
3.95369e-05
0.000134994
0.000193744
0.000201291
0.000374331
0.00114256
6.7128e-06
-7.66172e-07
1.35635e-05
-1.23911e-06
2.06817e-05
-2.17684e-06
2.7937e-05
-3.31143e-06
3.57046e-05
-4.60996e-06
4.4163e-05
-7.24458e-06
5.3365e-05
-9.0984e-06
6.12318e-05
-1.31741e-05
6.90561e-05
-1.60329e-05
7.46561e-05
-2.06892e-05
8.29701e-05
-3.59375e-05
8.83213e-05
-4.35612e-05
9.08479e-05
-4.93587e-05
0.000107289
-5.86214e-05
0.000130316
-7.19736e-05
0.000146869
-7.67952e-05
0.000154616
-6.78503e-05
0.000149584
-4.05382e-05
0.000138888
-2.3275e-06
0.000139204
2.93364e-05
0.000121176
7.39296e-05
9.32144e-05
0.00013576
0.000220403
9.28661e-05
6.88766e-06
-1.31249e-05
1.36945e-05
-1.37954e-05
2.01902e-05
-1.49371e-05
2.61986e-05
-1.63767e-05
3.22608e-05
-1.85637e-05
3.93423e-05
-2.40334e-05
4.57742e-05
-2.89211e-05
5.18142e-05
-3.55847e-05
5.81511e-05
-4.11339e-05
6.81972e-05
-5.04755e-05
7.47764e-05
-5.81814e-05
8.50087e-05
-6.32345e-05
0.000105299
-7.3074e-05
0.000127383
-8.11692e-05
0.000141383
-8.6109e-05
0.0001478
-8.35193e-05
0.000147019
-6.83273e-05
0.000138318
-3.26393e-05
0.000131736
1.08632e-05
0.00011439
3.42227e-05
0.000108483
8.42908e-05
0.000164635
0.000166584
0.000211301
0.000159207
5.19861e-06
-3.56431e-05
1.0675e-05
-3.67573e-05
1.59924e-05
-3.79925e-05
2.23395e-05
-4.06791e-05
2.88085e-05
-4.30002e-05
3.51468e-05
-4.72291e-05
4.25058e-05
-5.06908e-05
5.22796e-05
-5.60797e-05
6.37072e-05
-5.95563e-05
7.8866e-05
-6.91499e-05
9.30803e-05
-7.31519e-05
0.000106976
-7.72161e-05
0.000119836
-8.59351e-05
0.00013238
-9.3759e-05
0.000140267
-9.41999e-05
0.000142728
-8.67952e-05
0.000138463
-6.60194e-05
0.000128244
-2.39741e-05
0.000126801
1.81514e-05
0.000111042
3.74717e-05
0.000100043
7.88143e-05
0.000167502
0.000126101
0.00019007
0.000198699
6.97151e-06
-4.85656e-05
1.41164e-05
-4.94752e-05
2.15688e-05
-5.0342e-05
2.98018e-05
-5.28579e-05
3.83398e-05
-5.44425e-05
4.77194e-05
-5.82311e-05
5.8388e-05
-6.1975e-05
6.91231e-05
-6.69914e-05
7.96599e-05
-7.01386e-05
8.88175e-05
-7.83157e-05
9.65787e-05
-8.09136e-05
0.000105882
-8.65157e-05
0.000116368
-9.64099e-05
0.000124983
-0.000102493
0.000131067
-0.000100769
0.000132324
-8.97909e-05
0.000123037
-6.01745e-05
0.000112995
-1.81061e-05
0.000117369
1.72793e-05
0.000105536
3.29324e-05
0.000106999
6.13349e-05
0.000157436
8.2443e-05
0.000126505
0.000214052
8.23205e-06
-5.68038e-05
1.62871e-05
-5.75346e-05
2.45498e-05
-5.86072e-05
3.24098e-05
-6.07196e-05
4.1e-05
-6.30334e-05
4.9083e-05
-6.6314e-05
5.71584e-05
-7.00499e-05
6.44715e-05
-7.4304e-05
7.18268e-05
-7.74937e-05
7.94083e-05
-8.5897e-05
8.60418e-05
-8.75466e-05
9.52043e-05
-9.56723e-05
0.000105599
-0.000106807
0.000113941
-0.000111089
0.000118331
-0.000106148
0.000114767
-8.93428e-05
0.000101936
-5.25233e-05
9.53864e-05
-1.59998e-05
0.000103814
1.05578e-05
8.75311e-05
2.69094e-05
0.000115463
4.27067e-05
0.000157265
4.76378e-05
5.73542e-05
0.000207612
7.26956e-06
-6.40734e-05
1.45468e-05
-6.48119e-05
2.19558e-05
-6.60161e-05
2.89878e-05
-6.77517e-05
3.60203e-05
-7.00659e-05
4.26183e-05
-7.2912e-05
4.90486e-05
-7.64801e-05
5.57189e-05
-8.09743e-05
6.33884e-05
-8.51632e-05
7.09725e-05
-9.34812e-05
8.00192e-05
-9.65925e-05
9.217e-05
-0.000107812
0.000102699
-0.000117408
0.000108455
-0.000117302
0.000107578
-0.000107134
9.5529e-05
-8.20143e-05
8.16894e-05
-4.39465e-05
8.05137e-05
-1.73604e-05
8.07223e-05
4.81299e-06
5.53357e-05
1.92856e-05
0.000129972
3.83218e-05
0.000160172
2.64537e-05
2.31101e-05
0.000191956
6.72368e-06
-7.07971e-05
1.33719e-05
-7.14601e-05
1.99523e-05
-7.25965e-05
2.63952e-05
-7.41946e-05
3.28876e-05
-7.65583e-05
3.94697e-05
-7.94941e-05
4.63027e-05
-8.33131e-05
5.32581e-05
-8.79298e-05
6.10181e-05
-9.29231e-05
6.81554e-05
-0.000100618
7.58498e-05
-0.000104286
8.59076e-05
-0.000117847
9.288e-05
-0.000124582
9.56179e-05
-0.000121183
8.88419e-05
-0.000104047
7.20647e-05
-7.07583e-05
6.35754e-05
-3.90959e-05
6.38504e-05
-2.02193e-05
4.82538e-05
4.03102e-06
8.45616e-05
1.74819e-05
0.000127444
1.11341e-05
0.000150211
3.36978e-06
-2.82015e-06
0.000176094
5.85478e-06
-7.66518e-05
1.17876e-05
-7.73928e-05
1.76833e-05
-7.84923e-05
2.3655e-05
-8.01663e-05
2.958e-05
-8.24833e-05
3.55305e-05
-8.54445e-05
4.12763e-05
-8.90589e-05
4.674e-05
-9.33935e-05
5.25876e-05
-9.87707e-05
5.80436e-05
-0.000106074
6.52526e-05
-0.000111492
7.52422e-05
-0.00012781
7.98028e-05
-0.000129836
7.61511e-05
-0.00012059
6.07593e-05
-9.45813e-05
4.65757e-05
-6.14304e-05
4.68476e-05
-4.03931e-05
3.90617e-05
-1.5474e-05
4.87765e-05
1.74756e-06
9.68937e-05
-5.00092e-06
0.00011922
-1.11788e-05
0.000140228
-1.76544e-05
-2.6779e-05
0.000164182
5.44353e-06
-8.20954e-05
1.08659e-05
-8.28152e-05
1.62582e-05
-8.38845e-05
2.15636e-05
-8.54717e-05
2.67126e-05
-8.76323e-05
3.16916e-05
-9.04236e-05
3.65221e-05
-9.38893e-05
4.13042e-05
-9.81756e-05
4.61566e-05
-0.000103623
5.07707e-05
-0.000110689
5.81943e-05
-0.000118903
6.59069e-05
-0.000135787
6.58387e-05
-0.00013231
5.43529e-05
-0.000114739
3.67113e-05
-8.16787e-05
3.12808e-05
-5.84894e-05
3.01437e-05
-3.35506e-05
2.64601e-05
-1.17717e-05
7.19773e-05
-1.95599e-05
9.22742e-05
-2.50674e-05
0.000111489
-3.03933e-05
0.000131192
-3.73573e-05
-4.51107e-05
0.000149523
4.80169e-06
-8.6897e-05
9.58999e-06
-8.76035e-05
1.43616e-05
-8.86562e-05
1.90989e-05
-9.02089e-05
2.3777e-05
-9.23104e-05
2.82579e-05
-9.49045e-05
3.2359e-05
-9.7991e-05
3.58924e-05
-0.000101714
3.8905e-05
-0.000106662
4.11841e-05
-0.000113058
4.58399e-05
-0.000123726
4.83937e-05
-0.000140316
3.92295e-05
-0.000129386
2.17168e-05
-0.000102813
1.23968e-05
-7.43402e-05
1.63673e-05
-5.27032e-05
1.88347e-05
-2.54026e-05
4.93426e-05
-3.62251e-05
6.94036e-05
-3.84562e-05
8.70185e-05
-4.26775e-05
0.00010438
-4.77578e-05
0.000121598
-5.4691e-05
-6.18486e-05
0.000137206
4.30115e-06
-9.12506e-05
8.58875e-06
-9.19521e-05
1.28628e-05
-9.30118e-05
1.71669e-05
-9.46372e-05
2.13723e-05
-9.67295e-05
2.5398e-05
-9.93369e-05
2.89034e-05
-0.000102305
3.13716e-05
-0.000105802
3.19425e-05
-0.000110316
3.04528e-05
-0.000117087
2.70049e-05
-0.000128976
1.83836e-05
-0.000143456
5.38539e-06
-0.000122907
-3.67872e-06
-9.53256e-05
2.69623e-06
-7.82032e-05
1.04366e-05
-4.50972e-05
2.57023e-05
-4.94269e-05
4.93875e-05
-5.404e-05
6.69813e-05
-5.6096e-05
8.21556e-05
-5.82057e-05
9.79429e-05
-6.52576e-05
0.000116229
-8.30386e-05
-0.000116031
0.000129073
4.05e-06
-9.9758e-05
8.02649e-06
-0.000100704
1.18725e-05
-0.000102309
1.56512e-05
-0.000104984
1.94592e-05
-0.000108855
2.32101e-05
-0.000114214
2.65447e-05
-0.0001221
2.81546e-05
-0.000131627
2.60508e-05
-0.000142142
1.70178e-05
-0.000154686
-2.79913e-06
-0.00016991
-1.94566e-05
-0.000182695
-2.00226e-05
-0.000131231
-1.19753e-05
-0.000105711
7.85953e-07
-7.70426e-05
1.05197e-05
-5.28156e-05
3.15923e-05
-6.90882e-05
4.836e-05
-7.2434e-05
6.51766e-05
-7.94511e-05
7.94854e-05
-9.09977e-05
8.40711e-05
-0.000113237
8.05939e-05
-0.0001475
-0.000198169
8.8308e-05
3.54972e-06
-0.000139007
6.85422e-06
-0.00014108
9.80053e-06
-0.000144986
1.21768e-05
-0.000151449
1.40695e-05
-0.000161942
1.57537e-05
-0.000180132
1.69773e-05
-0.000195779
1.64618e-05
-0.000214505
1.13987e-05
-0.000239298
-1.04515e-05
-0.000277378
-4.9775e-05
-0.000280266
-5.11624e-05
-0.000231079
-2.74403e-05
-0.00017281
-1.19433e-05
-0.000129123
2.11683e-06
-8.54055e-05
1.88031e-05
-0.000108023
3.30481e-05
-0.000115209
4.32053e-05
-0.000122947
5.02366e-05
-0.000142842
5.13969e-05
-0.000157591
4.54599e-05
-0.000192669
2.58846e-05
-9.90396e-05
-2.13312e-05
-7.37401e-05
1.7491e-06
-0.000240487
3.05185e-06
-0.000243746
4.13634e-06
-0.000255434
4.44699e-06
-0.000270327
3.52701e-06
-0.000283412
2.80523e-06
-0.000245539
2.78768e-06
-0.000170565
1.57553e-06
-0.00016182
-4.60335e-06
-0.000149892
-4.09378e-05
-0.00016057
-7.1275e-05
-0.000155959
-4.96491e-05
-0.000141741
-2.13931e-05
-0.00012185
-3.24712e-06
-0.000104656
7.31164e-06
-0.000164562
1.68795e-05
-0.000187308
2.2478e-05
-0.000192626
2.16119e-05
-0.000204547
1.38073e-05
-0.00016973
-1.41622e-05
-8.32472e-05
-9.11322e-05
-1.98974e-05
-8.62746e-05
-4.15849e-05
-2.11782e-05
-7.10961e-05
2.37386e-07
-0.000168128
-9.36786e-07
-0.000157551
-2.04381e-06
-0.000152108
-5.71236e-06
-0.000156457
-2.03508e-05
-0.000160078
-5.11372e-05
-0.000133177
-7.18733e-05
-0.000101112
-6.39594e-05
-9.85531e-05
-5.0746e-05
-0.000106957
-3.61717e-07
-9.59825e-05
6.01813e-05
-0.000117114
5.18555e-05
-0.000130358
3.87774e-05
-8.30636e-05
1.80313e-05
-6.30238e-05
-1.02301e-05
-7.75067e-05
-3.5264e-05
-8.42499e-05
-6.6065e-05
-7.5129e-05
-0.000101441
-5.9783e-05
-0.000114504
-5.67254e-05
-7.42735e-05
-6.93004e-05
-3.39352e-05
-5.01451e-05
-5.88457e-05
-1.66693e-05
1.80764e-05
-9.81012e-05
-6.17546e-06
-8.78616e-05
-1.28663e-05
-8.91806e-05
-1.6497e-05
-8.80548e-05
-1.73754e-05
-8.87954e-05
-1.62352e-05
-9.01405e-05
-1.11075e-05
-9.27401e-05
-9.50835e-06
-9.41958e-05
-1.16317e-05
-0.000100165
-1.42951e-05
-0.000100435
-1.07734e-05
-9.75055e-05
-1.71087e-05
-0.000109798
-3.75649e-05
-0.000124846
-6.30267e-05
-0.000109923
-7.01937e-05
-8.61413e-05
-6.73891e-05
-7.36425e-05
-5.8309e-05
-7.43163e-05
-3.94932e-05
-7.90554e-05
-1.29677e-05
-8.07549e-05
-1.21274e-06
-6.82705e-05
-2.40017e-05
-4.65102e-05
-6.84457e-05
-5.70059e-06
-0.000100568
1.54527e-05
2.26168e-05
-0.000105108
-1.96094e-06
-7.62254e-05
-3.57889e-06
-7.94987e-05
-5.89344e-06
-8.0947e-05
-8.86115e-06
-8.27242e-05
-1.21731e-05
-8.47237e-05
-1.50962e-05
-8.70958e-05
-1.87059e-05
-9.03358e-05
-2.42349e-05
-9.42685e-05
-2.88734e-05
-9.594e-05
-3.0076e-05
-9.63144e-05
-3.70817e-05
-0.000102817
-5.47375e-05
-0.000107161
-6.70394e-05
-9.69729e-05
-6.64533e-05
-8.52648e-05
-5.83471e-05
-8.15612e-05
-4.69199e-05
-8.57379e-05
-3.87767e-05
-8.71969e-05
-4.20062e-05
-7.75233e-05
-6.35216e-05
-4.67545e-05
-9.67909e-05
-1.32401e-05
-0.000108921
6.42938e-06
-0.000107363
1.38952e-05
2.03009e-05
-0.000105048
-2.0953e-06
-7.55144e-05
-4.08535e-06
-7.79787e-05
-6.25763e-06
-7.91052e-05
-8.66798e-06
-8.06095e-05
-1.12903e-05
-8.24743e-05
-1.43439e-05
-8.46573e-05
-1.85419e-05
-8.69263e-05
-2.41124e-05
-8.89955e-05
-2.99694e-05
-9.00889e-05
-3.5743e-05
-9.0544e-05
-4.43382e-05
-9.42232e-05
-5.67794e-05
-9.47141e-05
-6.47685e-05
-8.89907e-05
-6.82213e-05
-8.1989e-05
-6.98531e-05
-7.99348e-05
-7.45174e-05
-8.10727e-05
-8.34285e-05
-7.82829e-05
-9.77797e-05
-6.31707e-05
-0.000111597
-3.29352e-05
-0.000117414
-7.42267e-06
-0.000114294
3.30964e-06
-0.000108925
8.52593e-06
1.47379e-05
-0.000103362
-1.31829e-06
-7.41885e-05
-2.87111e-06
-7.64203e-05
-4.85622e-06
-7.71145e-05
-7.37099e-06
-7.80889e-05
-1.05556e-05
-7.92825e-05
-1.45857e-05
-8.06176e-05
-1.9639e-05
-8.18613e-05
-2.57933e-05
-8.28296e-05
-3.26666e-05
-8.3211e-05
-3.97673e-05
-8.34402e-05
-4.86318e-05
-8.53518e-05
-5.8155e-05
-8.51847e-05
-6.58111e-05
-8.13319e-05
-7.10426e-05
-7.6758e-05
-7.70248e-05
-7.39514e-05
-8.67289e-05
-7.13678e-05
-9.95317e-05
-6.54793e-05
-0.000111453
-5.12487e-05
-0.000117207
-2.71805e-05
-0.000115289
-9.34064e-06
-0.000109326
-2.65348e-06
-0.000103005
2.20515e-06
9.26926e-06
-9.7536e-05
-2.04393e-06
-7.21439e-05
-4.26365e-06
-7.41993e-05
-6.79445e-06
-7.45829e-05
-9.69352e-06
-7.51891e-05
-1.31365e-05
-7.58389e-05
-1.72673e-05
-7.64862e-05
-2.20913e-05
-7.70368e-05
-2.75843e-05
-7.73359e-05
-3.34536e-05
-7.73408e-05
-3.94522e-05
-7.74408e-05
-4.71177e-05
-7.76853e-05
-5.57613e-05
-7.65398e-05
-6.35764e-05
-7.35148e-05
-7.07042e-05
-6.96279e-05
-7.94096e-05
-6.52457e-05
-9.04896e-05
-6.02873e-05
-0.000102294
-5.36742e-05
-0.000109733
-4.38095e-05
-0.000108197
-2.87165e-05
-0.000102628
-1.49087e-05
-9.77251e-05
-7.55638e-06
-9.29684e-05
-2.55145e-06
4.29935e-06
-8.79984e-05
-2.36323e-06
-6.97803e-05
-4.87209e-06
-7.16901e-05
-7.62729e-06
-7.18274e-05
-1.06855e-05
-7.21305e-05
-1.41064e-05
-7.24177e-05
-1.79288e-05
-7.26635e-05
-2.21537e-05
-7.28115e-05
-2.67406e-05
-7.27487e-05
-3.16454e-05
-7.24357e-05
-3.70841e-05
-7.20018e-05
-4.3647e-05
-7.11221e-05
-5.08458e-05
-6.93408e-05
-5.76483e-05
-6.67121e-05
-6.42587e-05
-6.30176e-05
-7.10132e-05
-5.8491e-05
-7.84874e-05
-5.28132e-05
-8.61441e-05
-4.60176e-05
-9.18316e-05
-3.81218e-05
-9.18593e-05
-2.86886e-05
-8.88789e-05
-1.78888e-05
-8.63597e-05
-1.00754e-05
-8.35763e-05
-5.33465e-06
1.42406e-06
-8.0701e-05
-2.71491e-06
-6.70652e-05
-5.51956e-06
-6.88852e-05
-8.45842e-06
-6.88883e-05
-1.16103e-05
-6.89784e-05
-1.49982e-05
-6.90296e-05
-1.86412e-05
-6.90202e-05
-2.25591e-05
-6.88933e-05
-2.67262e-05
-6.85813e-05
-3.10779e-05
-6.80838e-05
-3.5748e-05
-6.73315e-05
-4.09797e-05
-6.58902e-05
-4.69012e-05
-6.34193e-05
-5.31174e-05
-6.04958e-05
-5.91306e-05
-5.70044e-05
-6.46301e-05
-5.29917e-05
-6.9528e-05
-4.79154e-05
-7.39906e-05
-4.1555e-05
-7.76572e-05
-3.44553e-05
-7.99096e-05
-2.64362e-05
-7.96416e-05
-1.81566e-05
-7.82358e-05
-1.14811e-05
-7.76688e-05
-5.9015e-06
3.05166e-07
-7.65499e-05
-2.74524e-06
-6.43198e-05
-5.59611e-06
-6.60342e-05
-8.53001e-06
-6.59543e-05
-1.1594e-05
-6.59143e-05
-1.48119e-05
-6.58116e-05
-1.82148e-05
-6.5617e-05
-2.18344e-05
-6.52736e-05
-2.56898e-05
-6.47257e-05
-2.9853e-05
-6.39203e-05
-3.44579e-05
-6.27265e-05
-3.94854e-05
-6.08626e-05
-4.45967e-05
-5.83079e-05
-4.9642e-05
-5.54506e-05
-5.46005e-05
-5.2046e-05
-5.97115e-05
-4.78807e-05
-6.4413e-05
-4.32142e-05
-6.78388e-05
-3.81294e-05
-6.99877e-05
-3.23066e-05
-7.13388e-05
-2.50851e-05
-7.20356e-05
-1.74598e-05
-7.21036e-05
-1.14129e-05
-7.20719e-05
-5.93308e-06
3.85284e-08
-7.18052e-05
-2.67143e-06
-6.16483e-05
-5.44563e-06
-6.32599e-05
-8.3013e-06
-6.30985e-05
-1.1289e-05
-6.29265e-05
-1.44507e-05
-6.26498e-05
-1.78273e-05
-6.22403e-05
-2.14453e-05
-6.16554e-05
-2.53098e-05
-6.0861e-05
-2.94223e-05
-5.98077e-05
-3.37647e-05
-5.83839e-05
-3.81265e-05
-5.65007e-05
-4.22337e-05
-5.42006e-05
-4.62601e-05
-5.14241e-05
-5.0126e-05
-4.81802e-05
-5.36537e-05
-4.43532e-05
-5.71549e-05
-3.97132e-05
-6.08089e-05
-3.44756e-05
-6.43543e-05
-2.87613e-05
-6.65047e-05
-2.29348e-05
-6.66459e-05
-1.73186e-05
-6.62478e-05
-1.1811e-05
-6.6195e-05
-5.98584e-06
9.3826e-10
-6.61574e-05
-2.63655e-06
-5.90117e-05
-5.36201e-06
-6.05344e-05
-8.14768e-06
-6.03128e-05
-1.1028e-05
-6.00461e-05
-1.40268e-05
-5.96509e-05
-1.71656e-05
-5.91015e-05
-2.04572e-05
-5.83636e-05
-2.39136e-05
-5.74045e-05
-2.75392e-05
-5.61819e-05
-3.1297e-05
-5.4626e-05
-3.51233e-05
-5.26744e-05
-3.90107e-05
-5.03132e-05
-4.29204e-05
-4.75144e-05
-4.68664e-05
-4.42344e-05
-5.07011e-05
-4.05185e-05
-5.39943e-05
-3.64202e-05
-5.64133e-05
-3.20568e-05
-5.7874e-05
-2.73008e-05
-5.88028e-05
-2.20062e-05
-5.96924e-05
-1.6429e-05
-6.05781e-05
-1.09252e-05
-6.08856e-05
-5.67833e-06
-5.53844e-07
-6.03308e-05
-2.57391e-06
-5.64377e-05
-5.23366e-06
-5.78746e-05
-7.93775e-06
-5.76087e-05
-1.07133e-05
-5.72706e-05
-1.35735e-05
-5.67906e-05
-1.65265e-05
-5.61483e-05
-1.95739e-05
-5.53162e-05
-2.27199e-05
-5.42584e-05
-2.59784e-05
-5.29233e-05
-2.93429e-05
-5.12614e-05
-3.27543e-05
-4.92629e-05
-3.61316e-05
-4.6936e-05
-3.93794e-05
-4.42666e-05
-4.23942e-05
-4.12196e-05
-4.5171e-05
-3.77418e-05
-4.77188e-05
-3.38726e-05
-5.01671e-05
-2.96087e-05
-5.24812e-05
-2.49868e-05
-5.42895e-05
-2.01981e-05
-5.52677e-05
-1.54508e-05
-5.55056e-05
-1.06874e-05
-5.54185e-05
-5.76541e-06
-8.13456e-07
-5.51589e-05
-2.45915e-06
-5.39786e-05
-4.98557e-06
-5.53482e-05
-7.54749e-06
-5.50467e-05
-1.01649e-05
-5.46531e-05
-1.28552e-05
-5.41003e-05
-1.56308e-05
-5.33727e-05
-1.84989e-05
-5.2448e-05
-2.14563e-05
-5.13009e-05
-2.44757e-05
-4.99038e-05
-2.75071e-05
-4.823e-05
-3.05129e-05
-4.62571e-05
-3.34886e-05
-4.39602e-05
-3.64316e-05
-4.13236e-05
-3.92946e-05
-3.83568e-05
-4.19618e-05
-3.50747e-05
-4.4358e-05
-3.14765e-05
-4.6373e-05
-2.7594e-05
-4.79118e-05
-2.34482e-05
-4.90197e-05
-1.90902e-05
-4.98864e-05
-1.45843e-05
-5.05126e-05
-1.00613e-05
-5.06865e-05
-5.59152e-06
-1.09848e-06
-5.04015e-05
-2.33464e-06
-5.1644e-05
-4.73611e-06
-5.29468e-05
-7.16067e-06
-5.26222e-05
-9.62609e-06
-5.21877e-05
-1.21397e-05
-5.15868e-05
-1.47058e-05
-5.08065e-05
-1.73248e-05
-4.98289e-05
-1.9993e-05
-4.86328e-05
-2.27008e-05
-4.71959e-05
-2.54298e-05
-4.5501e-05
-2.81505e-05
-4.35363e-05
-3.08171e-05
-4.12936e-05
-3.33773e-05
-3.87635e-05
-3.57987e-05
-3.59354e-05
-3.80598e-05
-3.28137e-05
-4.01161e-05
-2.94203e-05
-4.19382e-05
-2.5772e-05
-4.34795e-05
-2.1907e-05
-4.46874e-05
-1.78824e-05
-4.55145e-05
-1.37573e-05
-4.59833e-05
-9.59252e-06
-4.61484e-05
-5.42641e-06
-1.23811e-06
-4.60088e-05
-2.19974e-06
-4.94442e-05
-4.453e-06
-5.06935e-05
-6.72317e-06
-5.0352e-05
-9.02275e-06
-4.98881e-05
-1.13574e-05
-4.92521e-05
-1.37297e-05
-4.84342e-05
-1.61381e-05
-4.74205e-05
-1.85747e-05
-4.61962e-05
-2.10239e-05
-4.47467e-05
-2.34657e-05
-4.30591e-05
-2.58795e-05
-4.11226e-05
-2.82447e-05
-3.89284e-05
-3.05345e-05
-3.64736e-05
-3.27078e-05
-3.37622e-05
-3.47201e-05
-3.08015e-05
-3.65376e-05
-2.76029e-05
-3.81209e-05
-2.41888e-05
-3.94388e-05
-2.05893e-05
-4.04796e-05
-1.68417e-05
-4.12474e-05
-1.29895e-05
-4.17434e-05
-9.09666e-06
-4.19609e-05
-5.20887e-06
-1.30565e-06
-4.18934e-05
-2.04667e-06
-4.73976e-05
-4.14355e-06
-4.85966e-05
-6.25029e-06
-4.82453e-05
-8.3774e-06
-4.7761e-05
-1.0528e-05
-4.71015e-05
-1.27025e-05
-4.62596e-05
-1.4898e-05
-4.5225e-05
-1.71072e-05
-4.3987e-05
-1.93182e-05
-4.25357e-05
-2.15149e-05
-4.08624e-05
-2.36771e-05
-3.89604e-05
-2.578e-05
-3.68254e-05
-2.77974e-05
-3.44563e-05
-2.9704e-05
-3.18556e-05
-3.14734e-05
-2.90323e-05
-3.30754e-05
-2.60009e-05
-3.44828e-05
-2.27815e-05
-3.5671e-05
-1.94012e-05
-3.66216e-05
-1.58912e-05
-3.73248e-05
-1.22863e-05
-3.77881e-05
-8.63348e-06
-3.80209e-05
-4.97605e-06
-1.31021e-06
-3.80164e-05
-1.89099e-06
-4.55066e-05
-3.82434e-06
-4.66633e-05
-5.76331e-06
-4.63063e-05
-7.7157e-06
-4.58086e-05
-9.68258e-06
-4.51347e-05
-1.1663e-05
-4.42792e-05
-1.36529e-05
-4.3235e-05
-1.56451e-05
-4.19948e-05
-1.76289e-05
-4.05519e-05
-1.95909e-05
-3.89004e-05
-2.15149e-05
-3.70364e-05
-2.33822e-05
-3.49581e-05
-2.51716e-05
-3.26669e-05
-2.6859e-05
-3.01682e-05
-2.84206e-05
-2.74707e-05
-2.98335e-05
-2.45881e-05
-3.10762e-05
-2.15389e-05
-3.21311e-05
-1.83464e-05
-3.29851e-05
-1.50372e-05
-3.36315e-05
-1.16401e-05
-3.40723e-05
-8.19272e-06
-3.43132e-05
-4.73516e-06
-1.27309e-06
-3.43503e-05
-1.72749e-06
-4.37791e-05
-3.49262e-06
-4.48982e-05
-5.25984e-06
-4.45391e-05
-7.03542e-06
-4.4033e-05
-8.81927e-06
-4.33508e-05
-1.06095e-05
-4.24889e-05
-1.2402e-05
-4.14425e-05
-1.41898e-05
-4.0207e-05
-1.59637e-05
-3.8778e-05
-1.77118e-05
-3.71523e-05
-1.942e-05
-3.53282e-05
-2.1072e-05
-3.33061e-05
-2.26502e-05
-3.10887e-05
-2.41362e-05
-2.86821e-05
-2.55112e-05
-2.60958e-05
-2.67567e-05
-2.33427e-05
-2.78558e-05
-2.04399e-05
-2.87942e-05
-1.74081e-05
-2.95613e-05
-1.42702e-05
-3.01507e-05
-1.10507e-05
-3.05633e-05
-7.78018e-06
-3.08041e-05
-4.49432e-06
-1.20642e-06
-3.08708e-05
-1.56151e-06
-4.22176e-05
-3.15543e-06
-4.33043e-05
-4.74924e-06
-4.29453e-05
-6.34791e-06
-4.24344e-05
-7.95042e-06
-4.17483e-05
-9.55437e-06
-4.0885e-05
-1.11555e-05
-3.98414e-05
-1.27476e-05
-3.86149e-05
-1.43224e-05
-3.72032e-05
-1.58697e-05
-3.56049e-05
-1.73777e-05
-3.38202e-05
-1.88329e-05
-3.18509e-05
-2.02207e-05
-2.97009e-05
-2.15258e-05
-2.73771e-05
-2.27329e-05
-2.48887e-05
-2.38274e-05
-2.22483e-05
-2.47959e-05
-1.94715e-05
-2.56275e-05
-1.65766e-05
-2.63136e-05
-1.35841e-05
-2.68487e-05
-1.05156e-05
-2.72326e-05
-7.39636e-06
-2.7469e-05
-4.25798e-06
-1.11857e-06
-2.75568e-05
-1.39265e-06
-4.0825e-05
-2.81384e-06
-4.18831e-05
-4.23343e-06
-4.15257e-05
-5.6558e-06
-4.1012e-05
-7.07932e-06
-4.03248e-05
-8.50131e-06
-3.9463e-05
-9.91767e-06
-3.8425e-05
-1.13227e-05
-3.72098e-05
-1.27091e-05
-3.58167e-05
-1.40682e-05
-3.42459e-05
-1.53897e-05
-3.24986e-05
-1.66626e-05
-3.0578e-05
-1.78747e-05
-2.84888e-05
-1.90138e-05
-2.6238e-05
-2.00676e-05
-2.38349e-05
-2.10244e-05
-2.12915e-05
-2.18738e-05
-1.86222e-05
-2.26069e-05
-1.58435e-05
-2.32172e-05
-1.29739e-05
-2.37001e-05
-1.00327e-05
-2.40548e-05
-7.04174e-06
-2.4284e-05
-4.02881e-06
-1.01506e-06
-2.43875e-05
-1.22159e-06
-3.96034e-05
-2.46945e-06
-4.06352e-05
-3.71486e-06
-4.02803e-05
-4.96215e-06
-3.97647e-05
-6.20921e-06
-3.90777e-05
-7.45325e-06
-3.82189e-05
-8.69049e-06
-3.71878e-05
-9.91574e-06
-3.59846e-05
-1.11226e-05
-3.46098e-05
-1.23036e-05
-3.30649e-05
-1.34501e-05
-3.13521e-05
-1.45528e-05
-2.94753e-05
-1.5602e-05
-2.74397e-05
-1.65875e-05
-2.52524e-05
-1.74998e-05
-2.29227e-05
-1.83294e-05
-2.04619e-05
-1.90684e-05
-1.78833e-05
-1.97097e-05
-1.52022e-05
-2.02484e-05
-1.24353e-05
-2.06811e-05
-9.60011e-06
-2.10066e-05
-6.7162e-06
-2.12274e-05
-3.8081e-06
-8.98795e-07
-2.13436e-05
-1.04723e-06
-3.85562e-05
-2.12204e-06
-3.95604e-05
-3.19403e-06
-3.92083e-05
-4.26766e-06
-3.86911e-05
-5.34058e-06
-3.80048e-05
-6.41017e-06
-3.71494e-05
-7.47323e-06
-3.61247e-05
-8.52512e-06
-3.49327e-05
-9.56019e-06
-3.35748e-05
-1.0572e-05
-3.20531e-05
-1.15532e-05
-3.03709e-05
-1.24961e-05
-2.85324e-05
-1.33925e-05
-2.65432e-05
-1.42346e-05
-2.44103e-05
-1.50147e-05
-2.21427e-05
-1.57257e-05
-1.9751e-05
-1.63611e-05
-1.7248e-05
-1.69158e-05
-1.46475e-05
-1.73862e-05
-1.19649e-05
-1.777e-05
-9.21638e-06
-1.80667e-05
-6.41952e-06
-1.82783e-05
-3.59647e-06
-7.71184e-07
-1.8406e-05
-8.67982e-07
-3.76882e-05
-1.77134e-06
-3.86571e-05
-2.67115e-06