/*--------------------------------*- C++ -*----------------------------------*\
| =========                 |                                                 |
| \\      /  F ield         | OpenFOAM: The Open Source CFD Toolbox           |
|  \\    /   O peration     | Version:  2.4.0                                 |
|   \\  /    A nd           | Web:      www.OpenFOAM.org                      |
|    \\/     M anipulation  |                                                 |
\*---------------------------------------------------------------------------*/
FoamFile
{
    version     2.0;
    format      ascii;
    class       volScalarField;
    location    "0.2";
    object      rho;
}
// * * * * * * * * * * * * * * * * * * * * * * * * * * * * * * * * * * * * * //

dimensions      [1 -3 0 0 0 0 0];

internalField   nonuniform List<scalar> 
2268
(
13529
13529
13529
13529
13529
13529
13529
13529
13529
13529
13529
13529
13529
13529
13529
13529
13529
13528.9
13528.9
13528.7
13526.9
13517.2
13509.1
13529
13529
13529
13529
13529
13529
13529
13529
13529
13529
13529
13529
13529
13529
13529
13528.9
13528.9
13528.8
13528.8
13528.7
13526.9
13515.2
13501.4
13529
13529
13529
13529
13529
13529
13529
13529
13529
13529
13529
13529
13529
13529
13528.9
13528.3
13525.8
13520.3
13519.8
13523.3
13524.8
13513.7
13495.8
13529
13529
13529
13529
13529
13529
13529
13529
13529
13529
13529
13529
13529
13528.6
13522.5
13475.9
13288.7
12936
12680
12905.7
13318.9
13487.3
13491.1
13529
13529
13529
13529
13529
13529
13529
13529
13529
13529
13529
13529
13528
13513
13318.2
12260.3
9862.68
7039.25
4826.9
4090.47
8099.74
12819.9
13476.9
13529
13529
13529
13529
13529
13529
13529
13529
13529
13529
13528.8
13524.3
13472.5
13051
10859.9
6178.8
2358.46
1030.87
741.238
659.817
1905.41
10424.5
13402.2
13529
13529
13529
13529
13529
13529
13529
13529
13529
13527.5
13494.5
13271.2
12269.4
9257.83
4031.1
1449.32
938.205
830.018
697.562
572.482
583.644
6550.17
13117.6
13529
13529
13529
13529
13529
13529
13529
13529
13524.8
13369.1
12626
10786.6
7262.6
3072.84
1316.61
1010.53
923.282
816.101
647.21
532.833
517.642
2770.26
12510
79.8263
344.202
492.718
499.439
499.439
499.221
498.959
499.012
498.276
493.764
491.434
494.625
496.516
493.178
437.861
393.177
408.747
478.279
494.007
7.44807
19.1689
196.796
467.013
499.278
499.926
499.947
499.99
499.998
499.997
499.996
499.994
499.952
499.224
499.764
499.828
496.827
494.618
494.36
1.04532
1.05015
4.99073
121.8
450.957
499.793
499.961
499.997
500
500
500
500
500
500
499.999
499.984
499.02
489.085
492.645
1.00588
1.00631
1.12266
18.3678
287.822
499.174
499.951
499.998
500
500
500
500
500
499.999
499.965
498.994
442.866
259.177
486.04
1.00584
1.00671
1.04276
13.4525
403.324
497.84
499.984
500
500
500
500
500
499.999
499.924
496.248
382.688
100.575
18.4199
414.941
1.00566
1.00612
1.59252
98.7696
465.416
499.559
499.999
500
500
500
500
499.999
499.885
493.269
336.673
59.7385
2.77184
1.10603
147.017
1.00543
1.00546
12.0238
298.056
491.419
499.963
500
500
500
500
500
499.936
491.923
321.163
49.0425
1.95246
1.00374
1.0029
13.1796
1.00517
1.00579
82.2784
426.074
498.53
500.003
500
500
500
500
500
496.283
351.555
63.735
2.76928
1.00748
1.00249
1.00266
1.26197
13445
13433.1
13405
13354.4
13274.2
13097.8
12807
12200.8
11236.1
9598.78
6937.87
4282.97
2146.06
1179.02
1047.16
983.3
924.517
786.26
601.303
512.512
506.485
1463.38
9018.08
11011.9
10838.2
10481.8
9935.75
9242.57
8135.94
6785.13
5132.42
3528.03
2176.52
1342.88
1062.95
1006.63
1001.92
996.894
981.548
922.848
769.652
584.13
508.108
501.099
843.103
4539.05
3337.38
3157.94
2840.56
2429.81
2039.18
1615.93
1302.78
1117.28
1036.04
1008.37
1001.59
1000.41
1000.23
999.662
996.19
977.954
911.219
756.833
578.733
507.791
500.554
599.54
1715.13
1027.36
1023.58
1017.34
1010.72
1006.06
1002.89
1001.28
1000.58
1000.27
1000.13
1000.04
1000.02
999.915
998.794
990.743
956.524
862.762
701.346
555.855
505.332
500.243
516.857
678.34
1000.01
1000
1000
1000
1000
1000
1000
1000
1000
1000
1000
999.983
999.743
996.884
978.776
913.173
774.204
610.835
521.878
501.557
500.031
500.732
508.001
1000
1000
1000
1000
1000
1000
1000
1000
1000
1000
1000
999.97
999.434
992.816
955.035
841.82
666.406
539.752
503.907
500.122
500.001
500.002
500.034
1000
1000
1000
1000
1000
1000
1000
1000
1000
1000
1000
999.953
998.577
981.541
901.324
730.172
568.409
508.02
500.291
500.002
500
500
500
1000
1000
1000
1000
1000
1000
1000
1000
1000
1000
1000
999.917
995.164
947.539
795.45
603.871
514.224
500.619
500.007
500
500
500
500
1000
1000
1000
1000
1000
1000
1000
1000
1000
1000
999.998
999.204
974.626
852.944
651.384
526.773
501.51
500.024
500
500
500
500
500
1000
1000
1000
1000
1000
1000
1000
1000
999.999
999.992
999.784
982.236
875.746
680.72
538.984
502.63
500.064
500
500
500
500
499.997
499.917
999.997
999.996
999.995
999.99
999.979
999.949
999.861
999.601
998.826
996.474
988.027
886.146
679.001
545.251
504.295
500.141
500.002
499.999
499.998
499.986
499.849
498.017
482.71
997.845
997.537
996.818
995.372
992.474
986.626
975.215
953.287
913.385
844.152
746.604
623.273
540.918
505.771
500
499.788
499.745
499.505
498.514
493.884
474.682
393.715
200.985
873.129
863.803
843.845
810.068
756.814
678.55
573.173
442.149
301.863
172.727
105.225
208.622
410.913
457.386
466.558
471.612
467.618
452.237
412.341
316.555
159.573
23.8851
1.29861
215.8
200.801
172.465
134.242
90.8364
50.2411
21.3168
6.88545
2.14554
1.29367
1.94722
11.0079
67.9026
142.767
168.815
182.823
164.664
116.176
50.2553
7.58617
1.11436
1.00115
1.00017
1.33763
1.26701
1.14973
1.06269
1.01764
1.00363
1.001
1.00052
1.00175
1.00334
1.00363
1.00768
1.05264
1.37887
1.77596
1.88901
1.45612
1.07941
1.00516
1.00058
1.00035
1.0004
1.00014
1.00018
1.00009
1.00004
1.00002
1.00002
1.00004
1.00013
1.00016
1.00022
1.00014
1.00003
1.00002
1.00005
1.00018
1.00034
1.00029
1.00028
1.00031
1.00053
1.00035
1.00031
1.00015
1.00013
1.00001
1
1
1
1
1.00001
1.00002
1.00002
1.00001
1
1
1
1.00002
1.00008
1.00011
1.00026
1.00026
1.00031
1.00053
1.00032
1.00016
1.00017
1.00006
1
0.999999
0.999998
0.999998
0.999998
0.999999
1
1
0.999999
0.999999
1
1
1
1.00003
1.00009
1.00012
1.0003
1.00037
1.00049
1.00017
1.0001
1.00006
1.00006
0.999998
0.999998
0.999998
0.999998
0.999998
0.999999
0.999999
0.999999
0.999999
0.999999
1
1
1
1.00002
1.00005
1.00018
1.00027
1.00044
1.00038
1.00023
1.00013
1.00006
1.00003
0.999999
0.999999
0.999999
0.999999
0.999999
0.999999
0.999999
0.999999
1
1
1
1
1
1.00001
1.00005
1.00008
1.00023
1.00043
1.00039
1.00032
1.0002
1.00009
1.00003
0.999999
0.999999
0.999999
0.999999
0.999999
0.999999
1
1
1
1
1
1
1
1
1.00001
1.00005
1.00009
1.00015
1.00021
1.00023
1.00017
1.00009
1.00002
0.999999
0.999999
0.999999
0.999999
0.999999
1
1
1
1
1
1
1
1
1
1
1.00001
1.00003
1.00006
1.00007
1.00008
1.00006
1.00004
1.00001
0.999999
0.999999
0.999999
0.999999
1
1
1
1
1
1
1
1
1
1
1
1
1
1
1.00001
1.00001
1.00001
1.00001
1
0.999999
0.999999
0.999999
0.999999
1
1
1
1
1
1
1
1
1
1
1
0.999999
0.999999
0.999999
1
1
1
1
1
0.999999
0.999999
0.999999
1
1
1
1
1
1
1
1
1
1
1
0.999999
1
0.999999
0.999999
0.999998
0.999998
0.999998
0.999999
0.999998
0.999999
0.999999
0.999999
1
1
1
1
1
1
1
1
1
1
1
1
0.999999
0.999999
0.999999
0.999999
0.999999
0.999999
0.999998
0.999998
0.999999
0.999999
1
1
1
1
1
1
1
1
1
1
1
1
1
1
0.999999
0.999999
0.999999
0.999998
0.999998
0.999998
0.999997
0.999999
0.999999
1
1
1
1
1
1
1
1
1
1
1
1
1
0.999999
1
0.999999
0.999999
0.999999
0.999999
0.999998
0.999999
1
1
1
1
1
1
1
1
1
1
1
1
1
1
0.999999
1
1
1
0.999999
0.999999
0.999999
0.999999
0.999998
1
1
1
1
1
1
1
1
1
1
1
1
1
1
1
1
1
1
1
0.999999
0.999999
0.999999
0.999999
1
1
1
1
1
1
1
1
1
1
1
1
1
1
1
1
1
1
1
0.999999
0.999999
0.999999
0.999999
1
1
1
1
1
1
1
1
1
1
1
1
1
1
1
1
1
1
1
1
1
0.999999
1
1
1
1
1
1
1
1
1
1
1
1
1
1
1
1
1
1
1
1
1
1
1
0.999999
1
1
1
1
1
1
1
1
1
1
1
1
1
1
1
1
1
1
1
1
1
1
1
1
1
1
1
1
1
1
1
1
1
1
1
1
1
1
1
1
1
1
1
1
1
1
1
1
1
1
1
1
1
1
1
1
1
1
1
1
1
1
1
1
1
1
1
1
1
1
1
1
1
1
1
1
1
1
1
1
1
1
1
1
1
1
1
1
1
1
1
1
1
1
1
1
1
1
1
1
1
1
1
1
1
1
1
1
1
1
1
1
1
1
1
1
1
1
1
1
1
1
1
1
1
1
1
1
1
1
1
1
1
1
1
1
1
1
1
1
1
1
1
1
1
1
1
1
1
1
1
1
1
1
0.999999
0.999999
0.999999
0.999999
1
1
1
1
1
1
1
1
1
1
1
1
1
1
1
1
1
1
0.999999
0.999999
0.999999
0.999999
0.999999
0.999999
1
1
1
1
1
1
1
1
1
1
1
1
1
1
1
1
1
1
1
1
1
1
1
1
1
6142.47
3232.01
1280.13
259.48
5348.82
4298.99
2691.45
1492.92
2922.28
3054.99
2664.21
2008.99
1018.52
1316.28
1490.25
1406.4
532.144
578.791
660.566
746.015
500.243
501.295
505.494
516.928
500
500.001
500.018
500.174
500
500
500
500
500
499.997
499.975
499.852
499.479
497.888
490.944
469.966
445.6
386.873
254.161
87.7343
48.2134
8.63645
1.37102
1.00589
1.00102
1.00556
1.00069
1.00016
1.00015
1.00013
1.00014
1.00008
1.00007
1.00005
1.00004
1.00004
1.00002
1.00002
1.00001
1.00001
1.00003
1.00001
1.00001
1
1.00001
1.00002
1.00001
1
1.00001
1.00001
1
1
1.00001
1
1
1
1
1
1
1
1
1
1
1
1
1
1
1
0.999998
0.999999
1
1
0.999999
0.999999
0.999998
0.999999
0.999996
0.999997
0.999998
0.999997
0.999998
0.999998
0.999997
0.999997
0.999996
0.999996
0.999997
0.999997
0.999998
0.999998
0.999997
0.999997
0.999997
0.999997
0.999998
0.999997
0.999999
0.999999
0.999997
0.999998
0.999999
0.999998
0.999998
0.999998
0.999999
0.999999
0.999998
0.999998
1
0.999999
0.999999
0.999998
1
0.999999
0.999999
0.999999
1
0.999999
0.999999
0.999999
1
1
0.999999
0.999999
1
1
0.999999
0.999999
1
0.999999
1
0.999999
1
1
1
1
1
1
1
1
0.999999
1
1
1
18.5807
67.0159
319.118
487.446
499.977
500.005
500
500
499.996
499.661
489.985
354.105
80.237
4.28605
1.01781
1.00276
1.00256
1.00264
1.01472
587.222
504.568
506.025
501.492
500.093
500.004
500.003
499.987
499.041
475.92
290.138
48.8976
2.28754
1.00438
1.00265
1.00232
1.00247
1.00271
1.00283
1136.3
640.291
521.609
502.223
500.114
500.044
499.993
498.31
461.138
241.163
33.4369
1.65546
1.00282
1.00228
1.00191
1.00193
1.00218
1.00256
1.00284
1046.01
680.867
538.185
504.742
500.503
500.186
498.072
452.152
214.586
26.9559
1.44716
1.00261
1.00216
1.00164
1.00144
1.00146
1.00166
1.00205
1.0025
740.283
643.9
551.72
510.24
502.033
498.121
450.269
207.228
25.35
1.43435
1.00226
1.002
1.00151
1.00114
1.001
1.00097
1.00107
1.00132
1.0017
548.831
561.784
540.536
514.062
500.198
441.412
189.233
17.5787
1.13668
1.00184
1.00174
1.00139
1.00098
1.00075
1.00063
1.00057
1.00058
1.00067
1.00084
503.394
513.48
515.842
503.566
415.096
150.753
11.9259
1.08425
1.00141
1.00134
1.0012
1.00088
1.0006
1.00045
1.00036
1.0003
1.00027
1.00027
1.00031
500.024
499.655
485.562
353.37
85.6309
3.63075
1.00291
1.00091
1.00095
1.00091
1.00075
1.00051
1.00034
1.00024
1.00018
1.00014
1.00011
1.00009
1.00009
495.327
438.255
225.068
23.3356
1.14331
1.00015
1.00046
1.00056
1.00062
1.00056
1.00043
1.00027
1.00017
1.00012
1.00008
1.00006
1.00004
1.00003
1.00002
331.042
64.2733
2.38886
1.00046
1.00003
1.00012
1.00026
1.00034
1.00036
1.00031
1.00022
1.00013
1.00008
1.00005
1.00003
1.00002
1.00001
1.00001
1.00001
8.52877
1.02988
1.00041
1.00002
1.00002
1.00007
1.00014
1.00018
1.00019
1.00016
1.0001
1.00006
1.00003
1.00002
1.00001
1.00001
1
1
1
1.00342
1.00017
1.00004
1.00001
1.00001
1.00003
1.00006
1.00008
1.00009
1.00007
1.00004
1.00002
1.00001
1.00001
1
1
1
1
1
1.00007
1.00008
1.00002
1.00001
1.00001
1.00001
1.00003
1.00003
1.00004
1.00003
1.00002
1.00001
1
1
1
1
1
1
1
1.00007
1.00003
1.00001
1
1
1
1.00001
1.00001
1.00001
1.00001
1.00001
1
1
1
1
1
1
1
1
1.00003
1.00001
1
0.999999
0.999999
1
1
1
1
1
1
1
1
1
1
1
1
1
1
1.00001
1
0.999999
0.999999
0.999999
0.999999
1
1
1
1
1
1
1
1
1
1
1
1
1
1
0.999999
0.999998
0.999998
0.999998
0.999998
0.999999
0.999999
0.999999
1
1
1
1
1
1
1
1
1
1
1
0.999999
0.999998
0.999998
0.999998
0.999998
0.999998
0.999998
0.999999
0.999999
0.999999
1
1
1
1
1
1
1
1
1
0.999999
0.999999
0.999998
0.999998
0.999998
0.999998
0.999998
0.999998
0.999999
0.999999
0.999999
1
1
1
1
1
1
1
1
1
0.999999
0.999999
0.999998
0.999998
0.999998
0.999998
0.999998
0.999999
0.999999
0.999999
0.999999
1
1
1
1
1
1
1
1
1
0.999999
0.999999
0.999998
0.999998
0.999998
0.999998
0.999999
0.999999
0.999999
0.999999
1
1
1
1
1
1
1
1
1
1
0.999999
0.999999
0.999999
0.999999
0.999999
0.999999
0.999999
0.999999
1
1
1
1
0.999999
0.999999
0.999999
1
1
1
1
0.999999
0.999999
0.999999
0.999999
0.999999
0.999999
0.999999
1
1
1
1
1
0.999999
1
0.999999
1
1
1
1
0.999999
0.999999
0.999999
0.999999
0.999999
0.999999
1
1
1
1
1
1
1
0.999999
1
0.999999
0.999999
0.999999
0.999999
0.999999
0.999999
0.999999
0.999999
0.999999
0.999999
1
1
1
1
1
1
1
1
0.999999
0.999998
0.999998
0.999998
0.999998
0.999999
0.999999
0.999999
0.999999
0.999999
0.999999
1
1
1
1
1
1
1
1
1
0.999997
0.999997
0.999998
0.999998
0.999998
0.999999
0.999999
0.999999
0.999999
0.999999
0.999999
1
1
1
1
1
1
1
1
0.999997
0.999997
0.999997
0.999998
0.999998
0.999999
0.999999
0.999999
0.999999
0.999999
0.999999
1
1
1
1
1
1
1
1
0.999997
0.999997
0.999997
0.999997
0.999998
0.999998
0.999999
0.999999
0.999999
0.999999
0.999999
1
1
1
1
1
1
1
1
0.999997
0.999997
0.999997
0.999997
0.999998
0.999998
0.999999
0.999999
0.999999
0.999999
0.999999
1
1
1
1
1
1
1
1
0.999997
0.999997
0.999997
0.999997
0.999998
0.999998
0.999998
0.999999
0.999999
0.999999
0.999999
1
1
1
1
1
1
1
1
0.999998
0.999997
0.999997
0.999997
0.999998
0.999998
0.999998
0.999999
0.999999
0.999999
1
1
1
1
1
1
1
1
1
0.999998
0.999998
0.999998
0.999998
0.999998
0.999998
0.999999
0.999999
0.999999
0.999999
1
1
1
1
1
1
1
1
1
0.999998
0.999998
0.999998
0.999998
0.999998
0.999998
0.999999
0.999999
0.999999
0.999999
1
1
1
1
1
1
1
0.999999
1
0.999999
0.999998
0.999998
0.999998
0.999998
0.999999
0.999999
0.999999
0.999999
0.999999
1
1
1
1
1
1
0.999999
1
0.999999
0.999999
0.999999
0.999999
0.999999
0.999999
0.999999
0.999999
0.999999
0.999999
0.999999
0.999999
1
1
1
1
1
1
0.999999
1
0.999999
0.999999
0.999999
0.999999
0.999999
0.999999
0.999999
0.999999
0.999999
0.999999
0.999999
0.999999
0.999999
0.999999
1
1
0.999999
1
0.999999
0.999999
0.999999
0.999999
0.999999
0.999999
0.999999
0.999999
0.999999
0.999999
0.999999
0.999999
0.999999
0.999999
0.999999
1
1
1
0.999999
1
1
0.999999
0.999999
0.999999
0.999999
0.999999
0.999999
0.999999
0.999999
0.999999
1
1
1
1
1
1
1
0.999999
1
1
0.999999
0.999999
0.999999
1
1
1
1
1
1
1
1
1
1
1
1
1
1
1
1
1
1
0.999999
1
0.999999
1
0.999999
1
1
1
1
1
1
1
1
1
1
1
1
1
1
1
1
1
0.999999
0.999999
0.999999
0.999999
0.999999
1
1
1
1
1
1
1
1
)
;

boundaryField
{
    leftWall
    {
        type            calculated;
        value           nonuniform List<scalar> 
50
(
13529
13529
13529
13529
13529
13529
13529
13529
13445
11011.9
3337.38
1027.36
1000.01
1000
1000
1000
1000
1000
999.997
997.845
873.129
215.8
1.33763
1.00018
1.00001
1
0.999998
0.999999
0.999999
0.999999
0.999999
0.999999
0.999999
0.999999
0.999999
0.999999
1
1
1
1
1
1
1
1
1
1
1
1
1
1
)
;
    }
    rightWall
    {
        type            calculated;
        value           nonuniform List<scalar> 
50
(
494.007
494.36
492.645
486.04
414.941
147.017
13.1796
1.26197
1.01472
1.00283
1.00284
1.0025
1.0017
1.00084
1.00031
1.00009
1.00002
1.00001
1
1
1
1
1
1
1
1
1
1
1
0.999999
0.999999
1
0.999999
1
1
1
1
1
1
1
1
1
0.999999
1
0.999999
1
1
1
1
1
)
;
    }
    lowerWall
    {
        type            calculated;
        value           nonuniform List<scalar> 
62
(
13529
13529
13529
13529
13529
13529
13529
13529
13529
13529
13529
13529
13529
13529
13529
13529
13529
13528.9
13528.9
13528.7
13526.9
13517.2
13509.1
13509.1
13501.4
13495.8
13491.1
13476.9
13402.2
13117.6
12510
6142.47
3232.01
1280.13
259.48
79.8263
7.44807
1.04532
1.00588
1.00584
1.00566
1.00543
1.00517
79.8263
344.202
492.718
499.439
499.439
499.221
498.959
499.012
498.276
493.764
491.434
494.625
496.516
493.178
437.861
393.177
408.747
478.279
494.007
)
;
    }
    atmosphere
    {
        type            calculated;
        value           nonuniform List<scalar> 
46
(
1
1
1
1
1
1
1
1
1
1
1
1
1
1
1
1
1
1
1
1
1
1
1
0.999999
1
1
1
1
1
1
1
1
1
0.999999
0.999999
0.999999
0.999999
0.999999
1
1
1
1
1
1
1
1
)
;
    }
    defaultFaces
    {
        type            empty;
    }
}


// ************************************************************************* //
