/*--------------------------------*- C++ -*----------------------------------*\
| =========                 |                                                 |
| \\      /  F ield         | OpenFOAM: The Open Source CFD Toolbox           |
|  \\    /   O peration     | Version:  2.4.0                                 |
|   \\  /    A nd           | Web:      www.OpenFOAM.org                      |
|    \\/     M anipulation  |                                                 |
\*---------------------------------------------------------------------------*/
FoamFile
{
    version     2.0;
    format      ascii;
    class       volVectorField;
    location    "0.2";
    object      U.air;
}
// * * * * * * * * * * * * * * * * * * * * * * * * * * * * * * * * * * * * * //

dimensions      [0 1 -1 0 0 0 0];

internalField   nonuniform List<vector> 
2268
(
(0.0178452 -0.00843079 0)
(0.053662 -0.00851942 0)
(0.0903348 -0.00868662 0)
(0.126779 -0.00896534 0)
(0.167866 -0.00923574 0)
(0.202285 -0.00974932 0)
(0.254146 -0.00991872 0)
(0.286006 -0.0123428 0)
(0.348863 -0.00916639 0)
(0.383497 -0.0143503 0)
(0.44286 -0.0165422 0)
(0.527875 -0.0143967 0)
(0.588766 -0.0128649 0)
(0.627159 -0.013222 0)
(0.688095 -0.0147811 0)
(0.753037 -0.0196764 0)
(0.848565 -0.0155408 0)
(0.899376 -0.0186366 0)
(0.952669 -0.00229786 0)
(0.929937 0.01665 0)
(0.845939 0.0511889 0)
(0.570165 0.119881 0)
(0.255486 0.0317031 0)
(0.0178121 -0.0252856 0)
(0.053572 -0.0255605 0)
(0.0901787 -0.0260623 0)
(0.126593 -0.0269228 0)
(0.167628 -0.0275715 0)
(0.20177 -0.029864 0)
(0.254041 -0.0280871 0)
(0.286481 -0.0396938 0)
(0.346342 -0.0258469 0)
(0.383943 -0.0406158 0)
(0.445643 -0.0517178 0)
(0.528914 -0.0463141 0)
(0.582013 -0.0384201 0)
(0.619762 -0.0395588 0)
(0.686959 -0.0452019 0)
(0.770592 -0.0533321 0)
(0.868004 -0.0535108 0)
(0.935914 -0.0422345 0)
(0.983641 -0.0045738 0)
(0.960772 0.0289459 0)
(0.875828 0.113277 0)
(0.602821 0.198733 0)
(0.304071 0.301557 0)
(0.0177282 -0.0420797 0)
(0.0533282 -0.0425375 0)
(0.0897544 -0.0433796 0)
(0.126095 -0.0448118 0)
(0.166836 -0.045925 0)
(0.200841 -0.0492677 0)
(0.253204 -0.0488427 0)
(0.284813 -0.0612932 0)
(0.344049 -0.0466312 0)
(0.384289 -0.0696501 0)
(0.446668 -0.085376 0)
(0.525137 -0.0718933 0)
(0.573887 -0.0599742 0)
(0.618958 -0.0684206 0)
(0.696173 -0.0887667 0)
(0.788512 -0.100978 0)
(0.889736 -0.0956947 0)
(0.954656 -0.0688052 0)
(1.00235 -0.00964778 0)
(0.982876 0.0888433 0)
(0.929254 0.267714 0)
(0.64883 0.411568 0)
(0.338898 0.485125 0)
(0.0176028 -0.058781 0)
(0.0529633 -0.059423 0)
(0.0891197 -0.0606209 0)
(0.125385 -0.0626056 0)
(0.165519 -0.0641339 0)
(0.199948 -0.0689348 0)
(0.251096 -0.0681989 0)
(0.282695 -0.084251 0)
(0.341269 -0.0679182 0)
(0.383951 -0.0951742 0)
(0.444347 -0.118451 0)
(0.514925 -0.10177 0)
(0.565446 -0.0872946 0)
(0.630314 -0.103354 0)
(0.715986 -0.12627 0)
(0.809004 -0.142406 0)
(0.897629 -0.138732 0)
(0.954232 -0.121007 0)
(1.01683 -0.058565 0)
(0.978783 0.0213846 0)
(0.936108 0.238603 0)
(0.668443 0.509395 0)
(0.371655 0.712213 0)
(0.0174332 -0.0753701 0)
(0.0524644 -0.0761964 0)
(0.0882694 -0.0777745 0)
(0.124399 -0.0802702 0)
(0.163828 -0.0823426 0)
(0.19856 -0.0881449 0)
(0.24862 -0.0884946 0)
(0.27895 -0.104878 0)
(0.337746 -0.090387 0)
(0.383378 -0.124477 0)
(0.437818 -0.145084 0)
(0.500323 -0.126202 0)
(0.563153 -0.120931 0)
(0.653813 -0.145966 0)
(0.74236 -0.171651 0)
(0.813381 -0.203928 0)
(0.857358 -0.221356 0)
(0.893953 -0.220711 0)
(0.885781 -0.179803 0)
(0.831478 -0.0251522 0)
(0.838444 0.264514 0)
(0.590886 0.652955 0)
(0.397795 0.864774 0)
(0.0172127 -0.0916931 0)
(0.0518074 -0.0927103 0)
(0.0871741 -0.0947045 0)
(0.123074 -0.0977034 0)
(0.161684 -0.10033 0)
(0.196706 -0.107409 0)
(0.245456 -0.107894 0)
(0.27444 -0.125063 0)
(0.336395 -0.115408 0)
(0.374737 -0.145358 0)
(0.433632 -0.168016 0)
(0.484156 -0.156981 0)
(0.571591 -0.169143 0)
(0.681883 -0.191061 0)
(0.746279 -0.229702 0)
(0.768291 -0.276162 0)
(0.73883 -0.319189 0)
(0.842606 -0.188262 0)
(0.888019 0.0066894 0)
(0.79897 0.0538708 0)
(0.704726 0.332939 0)
(0.403984 0.763083 0)
(0.35823 1.1132 0)
(0.0169315 -0.107537 0)
(0.0509599 -0.108745 0)
(0.0858054 -0.111158 0)
(0.121327 -0.114566 0)
(0.159098 -0.117624 0)
(0.194409 -0.125617 0)
(0.24176 -0.125823 0)
(0.270456 -0.143002 0)
(0.333108 -0.134006 0)
(0.36765 -0.168304 0)
(0.430115 -0.184382 0)
(0.477244 -0.202297 0)
(0.585363 -0.234712 0)
(0.675695 -0.268938 0)
(0.672349 -0.29914 0)
(0.688461 -0.32915 0)
(0.85913 -0.30758 0)
(0.981523 -0.228535 0)
(1.03113 -0.0765267 0)
(0.923392 0.135594 0)
(0.662253 0.443503 0)
(0.258379 0.738797 0)
(0.37654 1.27527 0)
(0.0166225 -0.123191 0)
(0.050028 -0.124549 0)
(0.0843836 -0.127319 0)
(0.119466 -0.131063 0)
(0.156673 -0.134548 0)
(0.192434 -0.144145 0)
(0.238698 -0.144587 0)
(0.268098 -0.164079 0)
(0.330476 -0.158978 0)
(0.364655 -0.194751 0)
(0.418908 -0.227747 0)
(0.478138 -0.271628 0)
(0.574894 -0.322686 0)
(0.570783 -0.337266 0)
(0.596415 -0.358652 0)
(0.735523 -0.380456 0)
(0.920953 -0.303056 0)
(0.977029 -0.176469 0)
(0.997977 0.0297499 0)
(0.800626 0.283194 0)
(0.763693 0.674444 0)
(0.246669 0.800397 0)
(0.368935 1.39968 0)
(-1.40827 -0.255405 0)
(-1.48483 -0.355137 0)
(-1.84478 0.232147 0)
(-2.2503 0.266728 0)
(-2.68582 -0.0779888 0)
(-2.14829 -0.201801 0)
(-0.963835 -0.0558377 0)
(0.0604286 0.120708 0)
(0.838519 0.113967 0)
(1.31931 0.0984446 0)
(1.64488 0.1093 0)
(1.87971 0.126426 0)
(2.07279 0.148043 0)
(2.2986 0.184396 0)
(2.36296 0.206063 0)
(2.1378 0.234658 0)
(1.63238 0.195272 0)
(0.628971 0.296399 0)
(0.76533 0.53196 0)
(-0.557636 1.20211 0)
(-0.865091 1.01985 0)
(-1.18732 0.482575 0)
(-1.51405 0.62265 0)
(-1.84867 0.307767 0)
(-1.10738 -0.213734 0)
(-0.237924 -0.17425 0)
(0.410357 -0.0711554 0)
(0.846959 0.00128406 0)
(1.15841 0.0626409 0)
(1.44441 0.0859365 0)
(1.72366 0.0804726 0)
(2.04484 0.106299 0)
(2.29482 0.325717 0)
(2.33469 0.361579 0)
(2.21533 0.431432 0)
(1.93328 0.815955 0)
(0.936611 1.25737 0)
(0.905978 1.96306 0)
(-0.684717 0.888725 0)
(-1.20588 0.00767514 0)
(-2.06779 0.357829 0)
(-1.53507 0.176857 0)
(-1.70064 0.152777 0)
(-0.68956 -0.557046 0)
(0.0864424 -0.599724 0)
(0.594195 -0.570032 0)
(1.00179 -0.456643 0)
(1.31553 -0.367161 0)
(1.58547 -0.318029 0)
(1.82547 -0.303926 0)
(2.05274 -0.258397 0)
(2.2322 -0.0756835 0)
(2.33485 -0.0352291 0)
(2.31371 0.241842 0)
(2.29615 1.09095 0)
(1.35652 2.06129 0)
(1.07211 2.55773 0)
(-0.726684 1.22394 0)
(-1.67109 0.724116 0)
(-2.71873 -0.136951 0)
(-2.99549 0.174397 0)
(-1.15658 -0.344246 0)
(-0.74883 -0.682784 0)
(0.311656 -0.685856 0)
(0.834199 -0.630524 0)
(1.17755 -0.509875 0)
(1.45382 -0.415506 0)
(1.68367 -0.362908 0)
(1.90065 -0.344777 0)
(2.09806 -0.31096 0)
(2.24548 -0.20043 0)
(2.36296 0.0721975 0)
(2.49048 0.661871 0)
(2.48516 1.03296 0)
(0.979015 1.8559 0)
(0.645163 3.73031 0)
(-0.538094 1.73696 0)
(-0.796956 1.20101 0)
(-0.374721 0.102425 0)
(-1.8218 -0.680823 0)
(-0.244176 -0.864548 0)
(-0.293517 -0.789117 0)
(0.524199 -0.914805 0)
(1.02725 -0.821914 0)
(1.2809 -0.67461 0)
(1.50977 -0.562331 0)
(1.72763 -0.500508 0)
(1.93668 -0.452582 0)
(2.12704 -0.320097 0)
(2.30604 -0.0500985 0)
(2.46761 0.43471 0)
(2.50126 0.467655 0)
(2.70718 0.511509 0)
(0.485108 2.63972 0)
(1.88924 4.31406 0)
(-0.331308 1.96758 0)
(0.227643 1.13906 0)
(0.139448 0.084979 0)
(0.166491 -0.765978 0)
(0.0755472 -1.30356 0)
(0.195014 -0.898164 0)
(0.810671 -1.00219 0)
(1.21356 -0.861085 0)
(1.39014 -0.71658 0)
(1.59599 -0.605236 0)
(1.79395 -0.545795 0)
(1.99042 -0.458094 0)
(2.22039 -0.176826 0)
(2.42863 0.274069 0)
(2.44934 0.251678 0)
(2.52762 0.226363 0)
(2.54894 0.658733 0)
(0.356289 1.63327 0)
(3.77243 4.11426 0)
(-0.215746 1.88291 0)
(0.808171 0.850512 0)
(0.482859 -0.184402 0)
(0.645864 -0.851899 0)
(0.393065 -1.3411 0)
(0.676744 -1.10497 0)
(1.1467 -1.12145 0)
(1.3079 -0.981867 0)
(1.42958 -0.820245 0)
(1.60928 -0.713839 0)
(1.80075 -0.635527 0)
(2.02729 -0.372055 0)
(2.33373 0.0693942 0)
(2.38797 0.0881075 0)
(2.61621 0.0499296 0)
(2.37792 0.0674649 0)
(2.44689 0.50949 0)
(0.0606483 1.40103 0)
(3.72349 4.44724 0)
(0.292931 1.56119 0)
(1.15469 1.13742 0)
(0.826745 -0.274533 0)
(0.83045 -0.938659 0)
(0.653531 -1.43318 0)
(0.937123 -1.19628 0)
(1.32244 -1.14193 0)
(1.40455 -1.001 0)
(1.48912 -0.848016 0)
(1.64069 -0.655339 0)
(1.86579 -0.502298 0)
(2.16222 -0.0717955 0)
(2.31634 -0.0780141 0)
(2.6245 -0.211698 0)
(2.73052 -0.252713 0)
(2.18702 -0.0100925 0)
(2.36707 0.778192 0)
(0.0509758 1.61089 0)
(2.66977 4.85503 0)
(0.0163149 -0.147882 0)
(0.0490661 -0.149588 0)
(0.0830431 -0.153317 0)
(0.117432 -0.158667 0)
(0.154331 -0.165538 0)
(0.191255 -0.183511 0)
(0.235035 -0.195235 0)
(0.275966 -0.229225 0)
(0.320374 -0.250664 0)
(0.366967 -0.280155 0)
(0.386078 -0.339931 0)
(0.460459 -0.385238 0)
(0.429355 -0.345084 0)
(0.48646 -0.316225 0)
(0.608693 -0.405035 0)
(0.75934 -0.3972 0)
(0.862245 -0.32435 0)
(0.898497 -0.168625 0)
(0.82755 0.0512619 0)
(0.622898 0.366768 0)
(0.741085 0.727379 0)
(0.623498 1.07209 0)
(0.568156 1.47105 0)
(0.0165127 -0.216275 0)
(0.0491983 -0.221074 0)
(0.0825906 -0.229854 0)
(0.113433 -0.240495 0)
(0.145932 -0.252727 0)
(0.17597 -0.276302 0)
(0.203589 -0.295169 0)
(0.245172 -0.322301 0)
(0.254086 -0.338172 0)
(0.306968 -0.347572 0)
(0.347674 -0.329332 0)
(0.420875 -0.290179 0)
(0.489581 -0.353736 0)
(0.624263 -0.424443 0)
(0.730877 -0.449502 0)
(0.804819 -0.435348 0)
(0.836439 -0.359203 0)
(0.835389 -0.16757 0)
(0.737089 0.163631 0)
(0.64157 0.382362 0)
(0.624746 0.692503 0)
(0.833132 1.07156 0)
(0.835753 1.31909 0)
(0.0121833 -0.315721 0)
(0.036373 -0.318729 0)
(0.0620924 -0.322391 0)
(0.0857837 -0.3242 0)
(0.117414 -0.324285 0)
(0.145647 -0.315802 0)
(0.184603 -0.287785 0)
(0.236071 -0.274778 0)
(0.301331 -0.279865 0)
(0.375949 -0.352247 0)
(0.469809 -0.404699 0)
(0.53242 -0.430118 0)
(0.605246 -0.45591 0)
(0.679275 -0.476601 0)
(0.746447 -0.488296 0)
(0.781108 -0.458616 0)
(0.799659 -0.355689 0)
(0.76825 -0.0990164 0)
(0.682696 0.233275 0)
(0.647957 0.405519 0)
(0.652895 0.632322 0)
(0.812968 0.838456 0)
(1.03045 1.1515 0)
(0.0183672 -0.230223 0)
(0.0543272 -0.237469 0)
(0.0931337 -0.24497 0)
(0.134075 -0.267724 0)
(0.179843 -0.286912 0)
(0.231026 -0.324898 0)
(0.284442 -0.354351 0)
(0.34354 -0.38468 0)
(0.398922 -0.392379 0)
(0.451058 -0.420695 0)
(0.502754 -0.42408 0)
(0.541685 -0.432292 0)
(0.595768 -0.482105 0)
(0.649065 -0.529099 0)
(0.699646 -0.526507 0)
(0.733936 -0.473906 0)
(0.735499 -0.328481 0)
(0.658038 -0.0496616 0)
(0.61019 0.253325 0)
(0.624233 0.389134 0)
(0.693162 0.520417 0)
(0.81722 0.5762 0)
(1.07132 0.88004 0)
(0.0222056 -0.322753 0)
(0.0657142 -0.324696 0)
(0.110164 -0.326412 0)
(0.152354 -0.333113 0)
(0.196573 -0.338358 0)
(0.242282 -0.347 0)
(0.28463 -0.357646 0)
(0.331049 -0.374647 0)
(0.364305 -0.390374 0)
(0.406459 -0.437018 0)
(0.449906 -0.448781 0)
(0.480321 -0.492103 0)
(0.535414 -0.552847 0)
(0.594807 -0.581438 0)
(0.643519 -0.559844 0)
(0.662384 -0.478952 0)
(0.625505 -0.262678 0)
(0.52689 0.0140496 0)
(0.518988 0.255547 0)
(0.56882 0.334057 0)
(0.683191 0.424771 0)
(0.800822 0.371855 0)
(1.03513 0.468117 0)
(0.0194697 -0.306568 0)
(0.058754 -0.31129 0)
(0.0976478 -0.318815 0)
(0.137663 -0.330558 0)
(0.174704 -0.34495 0)
(0.212766 -0.363145 0)
(0.245489 -0.384869 0)
(0.282422 -0.41167 0)
(0.316574 -0.433622 0)
(0.361236 -0.484902 0)
(0.404636 -0.499108 0)
(0.455152 -0.549361 0)
(0.52519 -0.606196 0)
(0.579318 -0.615955 0)
(0.605275 -0.572881 0)
(0.589145 -0.452404 0)
(0.492844 -0.184735 0)
(0.410118 0.0503906 0)
(0.447294 0.214785 0)
(0.514274 0.257694 0)
(0.655356 0.27937 0)
(0.785938 0.208916 0)
(0.963045 0.195309 0)
(0.0181688 -0.373878 0)
(0.054208 -0.377777 0)
(0.0894979 -0.384204 0)
(0.124685 -0.393282 0)
(0.15986 -0.406365 0)
(0.193951 -0.422104 0)
(0.229598 -0.442366 0)
(0.268375 -0.467293 0)
(0.303648 -0.492737 0)
(0.348331 -0.531481 0)
(0.390013 -0.546457 0)
(0.425114 -0.611821 0)
(0.485117 -0.660102 0)
(0.520449 -0.64638 0)
(0.533312 -0.571197 0)
(0.461989 -0.37904 0)
(0.347347 -0.108837 0)
(0.32327 0.0579686 0)
(0.391616 0.146716 0)
(0.480814 0.150065 0)
(0.625489 0.12495 0)
(0.746458 0.0758147 0)
(0.878455 0.0553141 0)
(0.0157359 -0.395966 0)
(0.0472446 -0.399211 0)
(0.0794717 -0.405171 0)
(0.110907 -0.413512 0)
(0.143134 -0.426159 0)
(0.175197 -0.441898 0)
(0.206413 -0.461871 0)
(0.237724 -0.485843 0)
(0.264406 -0.513593 0)
(0.300056 -0.556831 0)
(0.329666 -0.583382 0)
(0.369659 -0.664804 0)
(0.42814 -0.683597 0)
(0.440355 -0.65057 0)
(0.409087 -0.522249 0)
(0.278425 -0.260516 0)
(0.229671 -0.0562586 0)
(0.262481 0.0224796 0)
(0.354876 0.0532425 0)
(0.459765 0.0313655 0)
(0.592875 -0.00411254 0)
(0.690546 -0.0383817 0)
(0.823657 -0.0839692 0)
(0.0146028 -0.429556 0)
(0.0439939 -0.434027 0)
(0.0727451 -0.439861 0)
(0.102081 -0.449501 0)
(0.129793 -0.460904 0)
(0.157303 -0.47703 0)
(0.183359 -0.496094 0)
(0.209301 -0.519289 0)
(0.235329 -0.549822 0)
(0.261889 -0.586532 0)
(0.289406 -0.616256 0)
(0.332941 -0.70889 0)
(0.366489 -0.709734 0)
(0.356215 -0.636669 0)
(0.246634 -0.426006 0)
(0.143401 -0.193957 0)
(0.164563 -0.0795556 0)
(0.236537 -0.0574309 0)
(0.335422 -0.0537955 0)
(0.444768 -0.0837223 0)
(0.555259 -0.114496 0)
(0.643671 -0.150019 0)
(0.779187 -0.161694 0)
(0.0129554 -0.456377 0)
(0.0386197 -0.45968 0)
(0.0645158 -0.465071 0)
(0.0898139 -0.471982 0)
(0.115568 -0.482063 0)
(0.139854 -0.490319 0)
(0.163634 -0.493926 0)
(0.183805 -0.482969 0)
(0.202974 -0.454275 0)
(0.217821 -0.469422 0)
(0.239202 -0.510424 0)
(0.25732 -0.601853 0)
(0.257346 -0.662166 0)
(0.176204 -0.557238 0)
(0.0516983 -0.302728 0)
(0.0639839 -0.173831 0)
(0.12684 -0.144026 0)
(0.229008 -0.152399 0)
(0.320913 -0.157765 0)
(0.42753 -0.1772 0)
(0.515002 -0.154128 0)
(0.621521 -0.0908929 0)
(0.802157 -0.0582544 0)
(0.0115689 -0.355097 0)
(0.0347166 -0.356448 0)
(0.0576611 -0.357158 0)
(0.0813955 -0.358475 0)
(0.105412 -0.357654 0)
(0.131008 -0.353978 0)
(0.157903 -0.339777 0)
(0.180886 -0.307333 0)
(0.201734 -0.257887 0)
(0.19719 -0.273631 0)
(0.223381 -0.323976 0)
(0.176753 -0.331937 0)
(0.112303 -0.403563 0)
(-0.0381938 -0.319176 0)
(-0.0363386 -0.211515 0)
(0.0282917 -0.176592 0)
(0.128842 -0.173228 0)
(0.225814 -0.133756 0)
(0.30964 -0.112167 0)
(0.426033 -0.0995327 0)
(0.550939 -0.0455974 0)
(0.739393 0.08193 0)
(0.814559 0.0738945 0)
(0.0129365 -0.183019 0)
(0.0394844 -0.185494 0)
(0.0688562 -0.189751 0)
(0.102961 -0.198152 0)
(0.144926 -0.21118 0)
(0.187283 -0.225308 0)
(0.208597 -0.231127 0)
(0.195148 -0.241405 0)
(0.164804 -0.253916 0)
(0.119085 -0.266447 0)
(0.0687549 -0.287445 0)
(-0.123688 -0.240309 0)
(-0.206499 -0.190688 0)
(-0.219202 -0.104881 0)
(-0.112166 -0.0959028 0)
(0.0149201 -0.0892582 0)
(0.126794 -0.0663492 0)
(0.253219 0.00410842 0)
(0.391087 0.0212254 0)
(0.514095 0.0615572 0)
(0.550011 0.0200033 0)
(0.615993 -0.187586 0)
(0.505337 -0.405413 0)
(0.00920756 -0.229066 0)
(0.0266332 -0.232095 0)
(0.0429024 -0.236676 0)
(0.0584623 -0.245915 0)
(0.0814725 -0.262809 0)
(0.130132 -0.301623 0)
(0.177617 -0.388925 0)
(0.18374 -0.471384 0)
(0.164142 -0.497541 0)
(0.112393 -0.425532 0)
(-0.272449 -0.17479 0)
(-0.431491 -0.317115 0)
(-0.266934 -0.36198 0)
(-0.159038 -0.229741 0)
(-0.0337836 -0.169688 0)
(0.05511 -0.116576 0)
(0.141722 -0.0833213 0)
(0.223057 -0.0768782 0)
(0.331841 -0.133082 0)
(0.388472 -0.273304 0)
(0.342927 -0.334996 0)
(0.233687 0.203184 0)
(-0.136248 0.375828 0)
(0.00910833 -0.450819 0)
(0.025101 -0.444125 0)
(0.0422084 -0.423851 0)
(0.0601568 -0.378482 0)
(0.0734035 -0.282933 0)
(0.0556097 -0.102996 0)
(-0.0227265 0.152124 0)
(-0.132841 0.329216 0)
(-0.257098 0.341615 0)
(-0.337494 0.452142 0)
(-0.574601 0.324197 0)
(-0.279132 -0.24444 0)
(-0.208398 -0.527907 0)
(-0.051337 -0.52444 0)
(0.021651 -0.480842 0)
(0.0707703 -0.421528 0)
(0.123681 -0.394085 0)
(0.151617 -0.349598 0)
(0.102477 -0.180454 0)
(-0.0441152 0.414755 0)
(-0.377113 0.511969 0)
(-0.576675 -0.2945 0)
(-0.438781 -0.397223 0)
(-0.0394463 0.136597 0)
(-0.118122 0.11636 0)
(-0.199354 0.0818455 0)
(-0.289631 0.00242289 0)
(-0.382377 -0.144428 0)
(-0.466851 -0.378083 0)
(-0.49735 -0.65133 0)
(-0.441908 -0.859542 0)
(-0.348954 -0.910408 0)
(-0.153734 -0.814932 0)
(0.161494 -0.910153 0)
(0.441026 -0.895138 0)
(0.291541 -0.522114 0)
(0.183645 -0.0913317 0)
(-0.0212398 0.108184 0)
(-0.185295 0.16129 0)
(-0.344266 0.200678 0)
(-0.501549 0.188679 0)
(-0.620356 -0.0829775 0)
(-0.524394 -0.54395 0)
(-0.264078 -0.58102 0)
(-0.153162 -0.271793 0)
(-0.446309 0.110358 0)
(-0.0203335 -0.833383 0)
(-0.0569966 -0.834089 0)
(-0.0815685 -0.827011 0)
(-0.0914595 -0.807361 0)
(-0.0912134 -0.771492 0)
(-0.0748056 -0.712082 0)
(-0.0552371 -0.62198 0)
(-0.0547996 -0.524657 0)
(-0.0777243 -0.448541 0)
(-0.0742898 -0.392291 0)
(-0.0324689 -0.503709 0)
(-0.153312 -0.795837 0)
(-0.26926 -0.806608 0)
(-0.363034 -0.708381 0)
(-0.378358 -0.661548 0)
(-0.347455 -0.662817 0)
(-0.275406 -0.683671 0)
(-0.145551 -0.67601 0)
(-0.00427114 -0.586055 0)
(-0.0133567 -0.36456 0)
(-0.220538 -0.0590034 0)
(-0.490445 0.11044 0)
(-0.575476 0.112687 0)
(-0.00578606 -0.233232 0)
(-0.014979 -0.24716 0)
(-0.0239903 -0.261624 0)
(-0.039227 -0.28343 0)
(-0.0552885 -0.311752 0)
(-0.0718869 -0.349228 0)
(-0.0895494 -0.400495 0)
(-0.114598 -0.453664 0)
(-0.14628 -0.494872 0)
(-0.153789 -0.524866 0)
(-0.159154 -0.57342 0)
(-0.258036 -0.599077 0)
(-0.340757 -0.484975 0)
(-0.366087 -0.364978 0)
(-0.337288 -0.303248 0)
(-0.28272 -0.316896 0)
(-0.224571 -0.336429 0)
(-0.202794 -0.328156 0)
(-0.254011 -0.217551 0)
(-0.42328 -0.077658 0)
(-0.579561 0.0215932 0)
(-0.593449 0.0691007 0)
(-0.572127 0.119629 0)
(-0.00569315 -0.445013 0)
(-0.0166975 -0.459349 0)
(-0.0267125 -0.467956 0)
(-0.0395156 -0.478365 0)
(-0.0524752 -0.48966 0)
(-0.0676596 -0.50041 0)
(-0.08671 -0.510834 0)
(-0.113527 -0.520136 0)
(-0.14557 -0.52205 0)
(-0.168582 -0.518816 0)
(-0.211538 -0.533976 0)
(-0.278147 -0.523766 0)
(-0.336948 -0.485621 0)
(-0.356715 -0.445044 0)
(-0.365864 -0.445505 0)
(-0.379927 -0.468297 0)
(-0.413548 -0.472428 0)
(-0.490556 -0.402871 0)
(-0.574865 -0.226902 0)
(-0.621859 -0.0492242 0)
(-0.626877 0.0361586 0)
(-0.605195 0.0705524 0)
(-0.565733 0.0970126 0)
(-0.00340557 -0.437621 0)
(-0.0111249 -0.44865 0)
(-0.0201013 -0.450395 0)
(-0.0321613 -0.452981 0)
(-0.0470366 -0.457239 0)
(-0.0661826 -0.463174 0)
(-0.090366 -0.46941 0)
(-0.120892 -0.474318 0)
(-0.154875 -0.475059 0)
(-0.19004 -0.473229 0)
(-0.239011 -0.477088 0)
(-0.291328 -0.483559 0)
(-0.338636 -0.473842 0)
(-0.364126 -0.451968 0)
(-0.391576 -0.444118 0)
(-0.430765 -0.439087 0)
(-0.495146 -0.408896 0)
(-0.577862 -0.314534 0)
(-0.627823 -0.154111 0)
(-0.632674 -0.0401256 0)
(-0.607795 0.00434518 0)
(-0.568828 0.0284994 0)
(-0.53392 0.0681644 0)
(-0.00529111 -0.38676 0)
(-0.0167572 -0.399443 0)
(-0.0292225 -0.403553 0)
(-0.0435886 -0.40913 0)
(-0.0604432 -0.415207 0)
(-0.0805644 -0.421239 0)
(-0.104759 -0.426561 0)
(-0.132414 -0.43026 0)
(-0.161848 -0.431633 0)
(-0.193826 -0.433084 0)
(-0.232516 -0.438983 0)
(-0.279938 -0.43983 0)
(-0.321539 -0.421076 0)
(-0.356656 -0.397684 0)
(-0.397461 -0.375292 0)
(-0.45073 -0.351226 0)
(-0.517214 -0.313185 0)
(-0.57718 -0.246413 0)
(-0.597064 -0.139405 0)
(-0.572937 -0.0612163 0)
(-0.541033 -0.0326876 0)
(-0.509228 -0.00538481 0)
(-0.48109 0.0332449 0)
(-0.00611359 -0.382525 0)
(-0.0192585 -0.393555 0)
(-0.0332375 -0.39563 0)
(-0.0487269 -0.399132 0)
(-0.0660901 -0.402748 0)
(-0.0854812 -0.406022 0)
(-0.107095 -0.408554 0)
(-0.13051 -0.409891 0)
(-0.155093 -0.409762 0)
(-0.183168 -0.409411 0)
(-0.217984 -0.406606 0)
(-0.255095 -0.395226 0)
(-0.289833 -0.381178 0)
(-0.325584 -0.359934 0)
(-0.360718 -0.330744 0)
(-0.399 -0.297109 0)
(-0.438989 -0.259889 0)
(-0.478101 -0.220986 0)
(-0.504206 -0.171098 0)
(-0.492163 -0.098006 0)
(-0.472082 -0.0465437 0)
(-0.458424 -0.0235954 0)
(-0.438978 0.0109848 0)
(-0.00701611 -0.366426 0)
(-0.0220303 -0.376649 0)
(-0.037305 -0.376892 0)
(-0.0535858 -0.377686 0)
(-0.0711002 -0.378448 0)
(-0.0899827 -0.379014 0)
(-0.110227 -0.378918 0)
(-0.131694 -0.377558 0)
(-0.154544 -0.37485 0)
(-0.17975 -0.370716 0)
(-0.206896 -0.363924 0)
(-0.234714 -0.354565 0)
(-0.267184 -0.338158 0)
(-0.300202 -0.31648 0)
(-0.332115 -0.296298 0)
(-0.360186 -0.269808 0)
(-0.38269 -0.235961 0)
(-0.406324 -0.192636 0)
(-0.424956 -0.140852 0)
(-0.433608 -0.0963354 0)
(-0.43166 -0.0661397 0)
(-0.415599 -0.0354784 0)
(-0.414071 0.00516882 0)
(-0.00716838 -0.355734 0)
(-0.0223331 -0.365358 0)
(-0.0378244 -0.365322 0)
(-0.053892 -0.36574 0)
(-0.070734 -0.365908 0)
(-0.08849 -0.365585 0)
(-0.107297 -0.364499 0)
(-0.127236 -0.362366 0)
(-0.148916 -0.359025 0)
(-0.172872 -0.353757 0)
(-0.198533 -0.344378 0)
(-0.225414 -0.329453 0)
(-0.25208 -0.314006 0)
(-0.278602 -0.296819 0)
(-0.305801 -0.273673 0)
(-0.332777 -0.246672 0)
(-0.355791 -0.216327 0)
(-0.372673 -0.186593 0)
(-0.380387 -0.150398 0)
(-0.387334 -0.104232 0)
(-0.387804 -0.0587974 0)
(-0.38999 -0.0276125 0)
(-0.388415 -0.00213695 0)
(-0.00700015 -0.337783 0)
(-0.021753 -0.346624 0)
(-0.0368229 -0.345874 0)
(-0.0524764 -0.345079 0)
(-0.0689393 -0.343844 0)
(-0.0864727 -0.341994 0)
(-0.105217 -0.339291 0)
(-0.125371 -0.335445 0)
(-0.146998 -0.330059 0)
(-0.169859 -0.322792 0)
(-0.193139 -0.313638 0)
(-0.215436 -0.302652 0)
(-0.236954 -0.288112 0)
(-0.258837 -0.26937 0)
(-0.278297 -0.246942 0)
(-0.295978 -0.22184 0)
(-0.315295 -0.19315 0)
(-0.336227 -0.156241 0)
(-0.355945 -0.117086 0)
(-0.360467 -0.0867998 0)
(-0.356886 -0.0665803 0)
(-0.355725 -0.0369513 0)
(-0.357183 0.00261599 0)
(-0.00693824 -0.327264 0)
(-0.0214678 -0.335876 0)
(-0.0362137 -0.334988 0)
(-0.0514165 -0.334059 0)
(-0.0671953 -0.332495 0)
(-0.0836609 -0.330131 0)
(-0.100925 -0.326736 0)
(-0.119074 -0.322133 0)
(-0.138172 -0.316158 0)
(-0.157973 -0.308275 0)
(-0.178061 -0.297703 0)
(-0.198594 -0.284099 0)
(-0.219584 -0.267769 0)
(-0.24032 -0.249555 0)
(-0.261702 -0.229776 0)
(-0.281363 -0.206533 0)
(-0.297781 -0.182255 0)
(-0.308014 -0.158454 0)
(-0.31299 -0.132065 0)
(-0.317375 -0.0974013 0)
(-0.323144 -0.0599096 0)
(-0.328757 -0.0289867 0)
(-0.326682 -0.00268004 0)
(-0.00674171 -0.309503 0)
(-0.0209745 -0.317321 0)
(-0.0353205 -0.315895 0)
(-0.0500322 -0.31408 0)
(-0.0651619 -0.311531 0)
(-0.0807754 -0.308138 0)
(-0.0968986 -0.30377 0)
(-0.113544 -0.298232 0)
(-0.130703 -0.291251 0)
(-0.148378 -0.28262 0)
(-0.166513 -0.272339 0)
(-0.184774 -0.260515 0)
(-0.202597 -0.246853 0)
(-0.219584 -0.230214 0)
(-0.234872 -0.210155 0)
(-0.249101 -0.188413 0)
(-0.262345 -0.164065 0)
(-0.275677 -0.136588 0)
(-0.287593 -0.107966 0)
(-0.295015 -0.0827889 0)
(-0.297249 -0.0593983 0)
(-0.298187 -0.0326232 0)
(-0.298243 -0.0034338 0)
(-0.00649199 -0.2991 0)
(-0.0199906 -0.306792 0)
(-0.0336216 -0.305343 0)
(-0.0475145 -0.303503 0)
(-0.0617535 -0.300868 0)
(-0.0764196 -0.297326 0)
(-0.0915696 -0.292719 0)
(-0.107219 -0.286872 0)
(-0.123278 -0.279577 0)
(-0.139506 -0.270585 0)
(-0.155657 -0.25968 0)
(-0.171641 -0.246678 0)
(-0.187504 -0.231642 0)
(-0.203091 -0.215143 0)
(-0.218065 -0.197266 0)
(-0.231754 -0.177328 0)
(-0.243813 -0.155923 0)
(-0.253337 -0.133172 0)
(-0.260281 -0.108871 0)
(-0.265391 -0.08258 0)
(-0.269491 -0.0559556 0)
(-0.272369 -0.0306271 0)
(-0.272492 -0.0055868 0)
(-0.00613485 -0.284054 0)
(-0.0190011 -0.291183 0)
(-0.0319159 -0.289458 0)
(-0.0450414 -0.287165 0)
(-0.0584047 -0.283985 0)
(-0.0720398 -0.279848 0)
(-0.0859578 -0.274661 0)
(-0.100141 -0.268311 0)
(-0.114544 -0.260684 0)
(-0.129106 -0.25169 0)
(-0.143726 -0.241266 0)
(-0.158204 -0.229358 0)
(-0.172241 -0.215806 0)
(-0.185606 -0.200302 0)
(-0.19817 -0.182873 0)
(-0.209793 -0.163931 0)
(-0.220223 -0.143451 0)
(-0.229351 -0.121679 0)
(-0.23687 -0.0991188 0)
(-0.242263 -0.0764327 0)
(-0.245466 -0.0535666 0)
(-0.247606 -0.0302323 0)
(-0.248327 -0.0065173 0)
(-0.00580204 -0.273095 0)
(-0.0178743 -0.280023 0)
(-0.0299864 -0.27825 0)
(-0.0422485 -0.275864 0)
(-0.0546834 -0.272575 0)
(-0.067314 -0.268315 0)
(-0.080142 -0.26299 0)
(-0.0931391 -0.256496 0)
(-0.106242 -0.24872 0)
(-0.119356 -0.239564 0)
(-0.132372 -0.228953 0)
(-0.145185 -0.216835 0)
(-0.157682 -0.203235 0)
(-0.169679 -0.188258 0)
(-0.180934 -0.171926 0)
(-0.191237 -0.154209 0)
(-0.200396 -0.135257 0)
(-0.208216 -0.115206 0)
(-0.214596 -0.0942354 0)
(-0.219419 -0.0725669 0)
(-0.222661 -0.0507032 0)
(-0.224865 -0.028965 0)
(-0.225839 -0.0070785 0)
(-0.0053925 -0.261033 0)
(-0.0166341 -0.267617 0)
(-0.0278871 -0.265744 0)
(-0.0392474 -0.26318 0)
(-0.0507245 -0.259678 0)
(-0.0623286 -0.255195 0)
(-0.0740513 -0.24967 0)
(-0.0858638 -0.243037 0)
(-0.0977158 -0.235234 0)
(-0.109536 -0.226209 0)
(-0.121229 -0.215913 0)
(-0.132675 -0.204313 0)
(-0.143732 -0.191373 0)
(-0.154267 -0.177075 0)
(-0.164144 -0.161472 0)
(-0.17321 -0.144676 0)
(-0.181306 -0.126795 0)
(-0.188305 -0.107997 0)
(-0.194097 -0.0884764 0)
(-0.198528 -0.0684384 0)
(-0.201523 -0.0481213 0)
(-0.203563 -0.0277402 0)
(-0.204697 -0.00722713 0)
(-0.00498826 -0.250698 0)
(-0.0153573 -0.257061 0)
(-0.0257228 -0.255156 0)
(-0.0361628 -0.252516 0)
(-0.046677 -0.248931 0)
(-0.0572654 -0.244364 0)
(-0.0679142 -0.238768 0)
(-0.0785931 -0.232092 0)
(-0.089255 -0.224288 0)
(-0.0998368 -0.215315 0)
(-0.11026 -0.205145 0)
(-0.120432 -0.193764 0)
(-0.130247 -0.181181 0)
(-0.139584 -0.167431 0)
(-0.148312 -0.152558 0)
(-0.156308 -0.136627 0)
(-0.16345 -0.119743 0)
(-0.169639 -0.102035 0)
(-0.174801 -0.0836554 0)
(-0.178837 -0.0647719 0)
(-0.181656 -0.0456167 0)
(-0.183576 -0.0264082 0)
(-0.184774 -0.00710925 0)
(-0.00455789 -0.240829 0)
(-0.0140257 -0.246964 0)
(-0.0234798 -0.245035 0)
(-0.0329831 -0.242329 0)
(-0.0425305 -0.238674 0)
(-0.0521165 -0.234046 0)
(-0.0617246 -0.228413 0)
(-0.0713256 -0.221742 0)
(-0.080877 -0.214005 0)
(-0.0903227 -0.205177 0)
(-0.0995938 -0.195243 0)
(-0.108609 -0.184199 0)
(-0.117278 -0.172053 0)
(-0.125506 -0.158834 0)
(-0.133191 -0.144593 0)
(-0.140234 -0.129406 0)
(-0.14654 -0.113368 0)
(-0.152026 -0.0965979 0)
(-0.156634 -0.0792276 0)
(-0.160292 -0.0613961 0)
(-0.162912 -0.0432798 0)
(-0.164704 -0.025076 0)
(-0.165907 -0.00680574 0)
(-0.00412251 -0.231997 0)
(-0.012672 -0.237947 0)
(-0.0212025 -0.236013 0)
(-0.0297646 -0.233273 0)
(-0.03835 -0.229586 0)
(-0.0469489 -0.224937 0)
(-0.0555436 -0.219304 0)
(-0.0641063 -0.212667 0)
(-0.0725986 -0.205008 0)
(-0.0809718 -0.196316 0)
(-0.0891672 -0.186585 0)
(-0.0971173 -0.175823 0)
(-0.104747 -0.164049 0)
(-0.111977 -0.151297 0)
(-0.118725 -0.137619 0)
(-0.124911 -0.123083 0)
(-0.130459 -0.107776 0)
(-0.135305 -0.0918034 0)
(-0.139403 -0.0752806 0)
(-0.142701 -0.0583299 0)
(-0.145122 -0.0410978 0)
(-0.146794 -0.0237595 0)
(-0.147972 -0.00636985 0)
(-0.00367839 -0.22401 0)
(-0.0112982 -0.229796 0)
(-0.0188995 -0.227865 0)
(-0.0265199 -0.225103 0)
(-0.0341516 -0.221402 0)
(-0.0417818 -0.216752 0)
(-0.0493924 -0.211141 0)
(-0.0569576 -0.204559 0)
(-0.0644429 -0.196998 0)
(-0.0718056 -0.188454 0)
(-0.0789956 -0.178933 0)
(-0.0859561 -0.168447 0)
(-0.0926249 -0.157019 0)
(-0.0989373 -0.144688 0)
(-0.104827 -0.131502 0)
(-0.110231 -0.11753 0)
(-0.115088 -0.10285 0)
(-0.119348 -0.0875576 0)
(-0.122974 -0.0717567 0)
(-0.125929 -0.0555556 0)
(-0.128151 -0.0390785 0)
(-0.12971 -0.0224803 0)
(-0.130843 -0.00583986 0)
(-0.0032285 -0.216958 0)
(-0.00990877 -0.222597 0)
(-0.0165824 -0.220676 0)
(-0.0232642 -0.217902 0)
(-0.0299526 -0.214197 0)
(-0.0366315 -0.209558 0)
(-0.043284 -0.20398 0)
(-0.0498863 -0.197459 0)
(-0.0564076 -0.189996 0)
(-0.0628108 -0.181595 0)
(-0.0690534 -0.172267 0)
(-0.0750875 -0.162028 0)
(-0.0808622 -0.150907 0)
(-0.0863245 -0.138943 0)
(-0.0914217 -0.126184 0)
(-0.0961032 -0.112694 0)
(-0.100322 -0.098547 0)
(-0.104038 -0.083829 0)
(-0.107221 -0.0686344 0)
(-0.109848 -0.0530616 0)
(-0.111872 -0.0372198 0)
(-0.113324 -0.0212456 0)
(-0.114409 -0.00523487 0)
(-0.00276994 -0.210833 0)
(-0.00849771 -0.216332 0)
(-0.0142536 -0.214424 0)
(-0.0200007 -0.211638 0)
(-0.0257559 -0.207934 0)
(-0.0314992 -0.20331 0)
(-0.0372159 -0.197766 0)
(-0.0428858 -0.191307 0)
(-0.048481 -0.183939 0)
(-0.0539695 -0.175671 0)
(-0.0593146 -0.166517 0)
(-0.0644761 -0.1565 0)
(-0.0694117 -0.145648 0)
(-0.0740789 -0.134 0)
(-0.078436 -0.121605 0)
(-0.0824432 -0.108522 0)
(-0.0860645 -0.0948224 0)
(-0.0892688 -0.0805836 0)
(-0.0920338 -0.065892 0)
(-0.094344 -0.0508382 0)
(-0.0961698 -0.0355205 0)
(-0.0975205 -0.0200618 0)
(-0.0985616 -0.00456819 0)
(-0.00229526 -0.205644 0)
(-0.00705954 -0.210983 0)
(-0.0119142 -0.20909 0)
(-0.0167302 -0.206295 0)
(-0.0215567 -0.202596 0)
(-0.0263708 -0.19799 0)
(-0.0311628 -0.192481 0)
(-0.0359194 -0.186081 0)
(-0.0406164 -0.178799 0)
(-0.0452265 -0.170648 0)
(-0.0497183 -0.161647 0)
(-0.0540564 -0.151821 0)
(-0.0582041 -0.1412 0)
(-0.0621262 -0.12982 0)
(-0.0657902 -0.117727 0)
(-0.0691658 -0.104981 0)
(-0.0722253 -0.0916476 0)
(-0.0749449 -0.0778001 0)
(-0.0773089 -0.0635159 0)
(-0.07931 -0.0488788 0)
(-0.0809355 -0.033979 0)
(-0.0821882 -0.0189281 0)
(-0.0831932 -0.00384109 0)
(-0.00179481 -0.20142 0)
(-0.0056019 -0.206531 0)
(-0.00959683 -0.204664 0)
(-0.0134934 -0.201874 0)
(-0.0173874 -0.19819 0)
(-0.021263 -0.193613 0)
(-0.0251008 -0.188144 0)
(-0.0289119 -0.181795 0)
(-0.0326888 -0.174576 0)
(-0.0364192 -0.166506 0)
(-0.0400813 -0.157615 0)
(-0.0436416 -0.147933 0)
(-0.0470622 -0.137493 0)
(-0.0503067 -0.126329 0)
(-0.0533426 -0.114486 0)
(-0.0561435 -0.102018 0)
(-0.0586888 -0.0889878 0)
(-0.0609591 -0.0754609 0)
(-0.0629427 -0.0615013 0)
(-0.0646418 -0.0471857 0)
(-0.0660609 -0.0325992 0)
(-0.067214 -0.0178474 0)
(-0.0681971 -0.00305984 0)
(-0.00127078 -0.198396 0)
(-0.00420324 -0.203174 0)
(-0.00746689 -0.201354 0)
(-0.0105165 -0.198586 0)
(-0.013518 -0.194922 0)
(-0.01647 -0.190381 0)
(-0.019226 -0.184869 0)
(-0.0219028 -0.178467 0)
(-0.0245429 -0.171208 0)
(-0.0271824 -0.163122 0)
(-0.0298485 -0.154244 0)
(-0.0325505 -0.144609 0)
(-0.0352757 -0.134259 0)
(-0.0379796 -0.123242 0)
(-0.0405936 -0.111611 0)
(-0.0430238 -0.0994047 0)
(-0.04517 -0.086655 0)
(-0.0470864 -0.0734205 0)
(-0.0487661 -0.0597589 0)
(-0.0502065 -0.0457276 0)
(-0.0514273 -0.0313829 0)
(-0.0524868 -0.0167908 0)
(-0.0534494 -0.00210323 0)
(-0.000820814 -0.196329 0)
(-0.00316458 -0.200533 0)