/*--------------------------------*- C++ -*----------------------------------*\
| =========                 |                                                 |
| \\      /  F ield         | OpenFOAM: The Open Source CFD Toolbox           |
|  \\    /   O peration     | Version:  2.4.0                                 |
|   \\  /    A nd           | Web:      www.OpenFOAM.org                      |
|    \\/     M anipulation  |                                                 |
\*---------------------------------------------------------------------------*/
FoamFile
{
    version     2.0;
    format      ascii;
    class       volVectorField;
    location    "0.2";
    object      U.mercury;
}
// * * * * * * * * * * * * * * * * * * * * * * * * * * * * * * * * * * * * * //

dimensions      [0 1 -1 0 0 0 0];

internalField   nonuniform List<vector> 
2268
(
(0.0178451 -0.00843094 0)
(0.0536617 -0.00851956 0)
(0.0903345 -0.00868676 0)
(0.126779 -0.00896546 0)
(0.167865 -0.00923586 0)
(0.202284 -0.00974941 0)
(0.254145 -0.0099188 0)
(0.286005 -0.0123428 0)
(0.348863 -0.00916645 0)
(0.383496 -0.0143504 0)
(0.44286 -0.0165423 0)
(0.527875 -0.0143967 0)
(0.588766 -0.0128649 0)
(0.627159 -0.0132221 0)
(0.688095 -0.0147812 0)
(0.753037 -0.0196765 0)
(0.848565 -0.015541 0)
(0.899377 -0.018637 0)
(0.95267 -0.00229851 0)
(0.929939 0.0166489 0)
(0.845958 0.0511771 0)
(0.570586 0.11964 0)
(0.255915 0.0312169 0)
(0.017812 -0.0252861 0)
(0.0535718 -0.025561 0)
(0.0901783 -0.0260628 0)
(0.126592 -0.0269232 0)
(0.167628 -0.0275719 0)
(0.201769 -0.0298644 0)
(0.254041 -0.0280874 0)
(0.286481 -0.0396941 0)
(0.346342 -0.0258471 0)
(0.383943 -0.040616 0)
(0.445643 -0.051718 0)
(0.528913 -0.0463143 0)
(0.582012 -0.0384203 0)
(0.619762 -0.0395591 0)
(0.686958 -0.0452023 0)
(0.770592 -0.0533326 0)
(0.868004 -0.0535116 0)
(0.935914 -0.0422358 0)
(0.983643 -0.00457591 0)
(0.960774 0.0289424 0)
(0.875848 0.113257 0)
(0.603328 0.198305 0)
(0.304621 0.300694 0)
(0.0177281 -0.0420805 0)
(0.053328 -0.0425383 0)
(0.089754 -0.0433803 0)
(0.126095 -0.0448125 0)
(0.166836 -0.0459257 0)
(0.20084 -0.0492683 0)
(0.253203 -0.0488432 0)
(0.284812 -0.0612936 0)
(0.344049 -0.0466316 0)
(0.384289 -0.0696505 0)
(0.446668 -0.0853763 0)
(0.525136 -0.0718936 0)
(0.573887 -0.0599746 0)
(0.618957 -0.0684212 0)
(0.696172 -0.0887676 0)
(0.788511 -0.100981 0)
(0.889734 -0.0957192 0)
(0.954658 -0.0689602 0)
(1.00238 -0.0098651 0)
(0.982916 0.0887215 0)
(0.929306 0.267635 0)
(0.649389 0.410944 0)
(0.33953 0.484033 0)
(0.0176027 -0.0587821 0)
(0.0529631 -0.059424 0)
(0.0891194 -0.0606218 0)
(0.125385 -0.0626065 0)
(0.165519 -0.0641347 0)
(0.199948 -0.0689355 0)
(0.251095 -0.0681995 0)
(0.282695 -0.0842515 0)
(0.341268 -0.0679187 0)
(0.38395 -0.0951746 0)
(0.444347 -0.118451 0)
(0.514924 -0.101771 0)
(0.565446 -0.0872951 0)
(0.630313 -0.103356 0)
(0.715964 -0.126346 0)
(0.808614 -0.14402 0)
(0.896714 -0.14342 0)
(0.95324 -0.129817 0)
(1.01716 -0.0700057 0)
(0.981331 0.0112015 0)
(0.938352 0.233117 0)
(0.669525 0.507781 0)
(0.372306 0.710751 0)
(0.0174331 -0.0753712 0)
(0.0524642 -0.0761975 0)
(0.0882691 -0.0777755 0)
(0.124399 -0.0802712 0)
(0.163828 -0.0823435 0)
(0.198559 -0.0881457 0)
(0.24862 -0.0884953 0)
(0.278949 -0.104879 0)
(0.337746 -0.0903874 0)
(0.383377 -0.124477 0)
(0.437818 -0.145084 0)
(0.500323 -0.126203 0)
(0.563152 -0.120935 0)
(0.653644 -0.146533 0)
(0.741055 -0.176231 0)
(0.809143 -0.21921 0)
(0.848733 -0.255487 0)
(0.883431 -0.277918 0)
(0.880469 -0.26849 0)
(0.857536 -0.151576 0)
(0.864714 0.20602 0)
(0.598602 0.641754 0)
(0.398595 0.862635 0)
(0.0172127 -0.0916941 0)
(0.0518073 -0.0927114 0)
(0.0871738 -0.0947055 0)
(0.123074 -0.0977043 0)
(0.161684 -0.100331 0)
(0.196705 -0.10741 0)
(0.245455 -0.107894 0)
(0.27444 -0.125064 0)
(0.336395 -0.115408 0)
(0.374736 -0.145358 0)
(0.433632 -0.168017 0)
(0.484131 -0.157072 0)
(0.571034 -0.171024 0)
(0.679241 -0.199152 0)
(0.737575 -0.256161 0)
(0.746588 -0.347877 0)
(0.658007 -0.523522 0)
(0.683548 -0.568715 0)
(0.704185 -0.585758 0)
(0.793547 -0.437811 0)
(0.885981 0.102427 0)
(0.42457 0.73503 0)
(0.359611 1.10916 0)
(0.0169314 -0.107538 0)
(0.0509598 -0.108746 0)
(0.0858052 -0.111159 0)
(0.121327 -0.114567 0)
(0.159098 -0.117625 0)
(0.194409 -0.125617 0)
(0.241759 -0.125824 0)
(0.270456 -0.143003 0)
(0.333107 -0.134006 0)
(0.367647 -0.168317 0)
(0.429774 -0.185691 0)
(0.475761 -0.207484 0)
(0.580201 -0.249382 0)
(0.662603 -0.308378 0)
(0.634015 -0.412081 0)
(0.549767 -0.63269 0)
(0.578407 -0.707228 0)
(0.812844 -0.491991 0)
(1.02964 -0.0878286 0)
(0.888298 0.0204622 0)
(0.936135 0.0449504 0)
(0.289362 0.684185 0)
(0.378735 1.26794 0)
(0.0166225 -0.123192 0)
(0.0500279 -0.124549 0)
(0.0843834 -0.127319 0)
(0.119466 -0.131064 0)
(0.156672 -0.134549 0)
(0.192434 -0.144146 0)
(0.238698 -0.144587 0)
(0.268098 -0.164079 0)
(0.33046 -0.159046 0)
(0.363762 -0.198542 0)
(0.415944 -0.239397 0)
(0.470355 -0.29753 0)
(0.558108 -0.378324 0)
(0.514104 -0.47932 0)
(0.476859 -0.674491 0)
(0.516879 -0.747356 0)
(0.701031 -0.612491 0)
(0.962979 -0.215047 0)
(0.99915 0.0269456 0)
(0.794047 0.283623 0)
(0.469038 0.517061 0)
(0.281918 0.674402 0)
(0.370524 1.38882 0)
(-1.47185 -0.748906 0)
(-1.37368 -0.533403 0)
(-1.59176 -0.154902 0)
(-1.8241 -0.0324007 0)
(-1.87664 -0.151957 0)
(-1.22011 -0.339668 0)
(-0.420675 -0.303234 0)
(0.163781 -0.22232 0)
(0.672654 -0.203033 0)
(1.04154 -0.177588 0)
(1.33333 -0.149129 0)
(1.58203 -0.139656 0)
(1.82216 -0.150326 0)
(2.0914 -0.155185 0)
(2.31762 -0.186867 0)
(2.48562 -0.164372 0)
(2.4202 -0.11797 0)
(1.90887 0.0385375 0)
(1.57128 0.0939013 0)
(-1.17083 -0.127236 0)
(-0.973387 0.0280653 0)
(-0.970889 -0.0391371 0)
(-1.01278 0.0798024 0)
(-1.08231 0.0778601 0)
(-0.614543 -0.346676 0)
(-0.125528 -0.392212 0)
(0.427954 -0.287807 0)
(0.845295 -0.190279 0)
(1.15493 -0.124745 0)
(1.439 -0.0963039 0)
(1.70719 -0.0981357 0)
(1.94896 -0.111462 0)
(2.14463 -0.103776 0)
(2.28812 -0.0757433 0)
(2.36959 -0.0086086 0)
(2.37242 0.183284 0)
(1.93066 0.53018 0)
(1.6142 1.02867 0)
(-0.733396 0.790875 0)
(-1.18283 -0.0153701 0)
(-0.985365 -0.291633 0)
(-0.457591 -0.493671 0)
(-0.5447 -0.382927 0)
(-0.0839779 -0.709272 0)
(0.256126 -0.705446 0)
(0.615299 -0.592777 0)
(1.00112 -0.462284 0)
(1.31362 -0.371716 0)
(1.58334 -0.322655 0)
(1.82367 -0.309112 0)
(2.05167 -0.281815 0)
(2.23152 -0.22404 0)
(2.33397 -0.145333 0)
(2.37222 -0.0263973 0)
(2.40929 0.129039 0)
(2.01128 0.452538 0)
(1.67035 1.51841 0)
(-0.730636 1.21489 0)
(-1.65933 0.716103 0)
(-2.2612 -0.228433 0)
(-0.354938 -0.586816 0)
(0.227655 -0.831971 0)
(0.405911 -0.945077 0)
(0.530267 -0.783219 0)
(0.858041 -0.647622 0)
(1.17759 -0.51452 0)
(1.45273 -0.418855 0)
(1.68242 -0.36556 0)
(1.89925 -0.347388 0)
(2.09611 -0.313893 0)
(2.23529 -0.244287 0)
(2.32147 -0.115089 0)
(2.34616 -0.0466744 0)
(2.39783 -0.00136866 0)
(2.21589 0.295152 0)
(1.83298 2.09319 0)
(-0.540531 1.73096 0)
(-0.792926 1.19407 0)
(-0.334476 0.0781419 0)
(0.0935454 -0.615329 0)
(0.755204 -0.984244 0)
(0.658899 -1.08301 0)
(0.767379 -0.967635 0)
(1.03646 -0.829324 0)
(1.28088 -0.677819 0)
(1.50919 -0.564637 0)
(1.72676 -0.502614 0)
(1.93508 -0.455881 0)
(2.10271 -0.378571 0)
(2.21267 -0.2587 0)
(2.23524 -0.237844 0)
(2.27347 -0.283574 0)
(2.50484 -0.392443 0)
(2.37121 0.397702 0)
(2.4902 2.39504 0)
(-0.333955 1.96362 0)
(0.226329 1.13677 0)
(0.375685 -0.0636076 0)
(0.917845 -0.667133 0)
(1.00006 -1.16083 0)
(0.934241 -1.11871 0)
(1.01491 -1.01594 0)
(1.21469 -0.864315 0)
(1.39021 -0.718945 0)
(1.59548 -0.607305 0)
(1.7926 -0.547514 0)
(1.95596 -0.498484 0)
(2.09111 -0.398771 0)
(2.12319 -0.381386 0)
(2.15661 -0.445818 0)
(2.32617 -0.598787 0)
(2.61917 -0.0113466 0)
(0.827152 1.293 0)
(4.03485 2.96494 0)
(-0.217636 1.88186 0)
(0.805973 0.850868 0)
(1.00969 -0.384205 0)
(1.13492 -0.679216 0)
(1.22245 -1.12044 0)
(1.1322 -1.19568 0)
(1.18215 -1.12494 0)
(1.30871 -0.984372 0)
(1.42965 -0.822249 0)
(1.60892 -0.715244 0)
(1.78136 -0.636531 0)
(1.92242 -0.567061 0)
(1.98897 -0.542103 0)
(2.02167 -0.608552 0)
(2.15092 -0.759038 0)
(2.33746 -0.276086 0)
(2.44853 0.502702 0)
(0.0651174 1.39147 0)
(6.40212 4.44368 0)
(0.290334 1.55881 0)
(1.15274 1.13297 0)
(1.1932 -0.472332 0)
(1.33034 -0.687506 0)
(1.37965 -1.15917 0)
(1.29947 -1.21369 0)
(1.32827 -1.14481 0)
(1.40552 -1.00297 0)
(1.48932 -0.852828 0)
(1.64059 -0.763365 0)
(1.80373 -0.677872 0)
(1.86784 -0.666896 0)
(1.90132 -0.729089 0)
(2.01008 -0.888263 0)
(2.44615 -0.596774 0)
(2.18648 -0.0185382 0)
(2.3673 0.774479 0)
(0.0477447 1.6032 0)
(5.55726 5.57436 0)
(0.0162894 -0.15033 0)
(0.0489815 -0.152266 0)
(0.0828704 -0.156496 0)
(0.117122 -0.162639 0)
(0.153796 -0.170574 0)
(0.190265 -0.190514 0)
(0.233324 -0.205008 0)
(0.272949 -0.243975 0)
(0.315923 -0.272675 0)
(0.359394 -0.314504 0)
(0.373854 -0.398354 0)
(0.442543 -0.489378 0)
(0.3726 -0.546929 0)
(0.390851 -0.639826 0)
(0.438454 -0.751544 0)
(0.509587 -0.742133 0)
(0.76463 -0.464373 0)
(0.896355 -0.177217 0)
(0.827507 0.0505 0)
(0.620961 0.370325 0)
(0.561588 0.868416 0)
(0.453489 0.980133 0)
(0.530393 1.46062 0)
(0.0162317 -0.238997 0)
(0.0483495 -0.245029 0)
(0.0811628 -0.256383 0)
(0.11143 -0.271082 0)
(0.143184 -0.288741 0)
(0.171269 -0.321054 0)
(0.196183 -0.352366 0)
(0.233809 -0.401384 0)
(0.233768 -0.455068 0)
(0.274977 -0.542015 0)
(0.283309 -0.631712 0)
(0.320181 -0.676439 0)
(0.355883 -0.732669 0)
(0.465746 -0.706031 0)
(0.678276 -0.56465 0)
(0.789644 -0.482037 0)
(0.834118 -0.381784 0)
(0.834486 -0.173161 0)
(0.737017 0.162965 0)
(0.639572 0.382292 0)
(0.656624 0.812902 0)
(0.71336 1.17174 0)
(0.765025 1.35169 0)
(0.0111798 -0.43583 0)
(0.0330963 -0.445881 0)
(0.0559128 -0.46431 0)
(0.0747581 -0.49127 0)
(0.0998811 -0.525434 0)
(0.117196 -0.571762 0)
(0.146075 -0.593545 0)
(0.18171 -0.628126 0)
(0.222413 -0.675227 0)
(0.272255 -0.749952 0)
(0.383102 -0.662138 0)
(0.523158 -0.521664 0)
(0.598229 -0.52088 0)
(0.669753 -0.51826 0)
(0.739683 -0.513268 0)
(0.777213 -0.475746 0)
(0.798685 -0.36583 0)
(0.767889 -0.104532 0)
(0.682715 0.231999 0)
(0.646972 0.406381 0)
(0.699277 0.565388 0)
(0.781764 1.15132 0)
(0.908065 1.28108 0)
(0.0142702 -0.585965 0)
(0.0410496 -0.597366 0)
(0.0693646 -0.613191 0)
(0.0980488 -0.642 0)
(0.135727 -0.650215 0)
(0.183507 -0.638472 0)
(0.256024 -0.573846 0)
(0.350812 -0.497622 0)
(0.402659 -0.453452 0)
(0.450363 -0.456672 0)
(0.501286 -0.440562 0)
(0.540962 -0.444425 0)
(0.594827 -0.490943 0)
(0.647596 -0.536322 0)
(0.697905 -0.532541 0)
(0.733087 -0.477549 0)
(0.735052 -0.33153 0)
(0.657984 -0.051529 0)
(0.610157 0.25352 0)
(0.623784 0.389991 0)
(0.70483 0.452978 0)
(0.769887 1.03783 0)
(1.01242 1.27205 0)
(0.0224654 -0.326678 0)
(0.0657416 -0.328251 0)
(0.110183 -0.329447 0)
(0.152382 -0.336425 0)
(0.196553 -0.34163 0)
(0.242255 -0.349975 0)
(0.28463 -0.360433 0)
(0.331083 -0.377242 0)
(0.364347 -0.392737 0)
(0.406397 -0.438965 0)
(0.449824 -0.450353 0)
(0.480223 -0.493548 0)
(0.53525 -0.554162 0)
(0.594472 -0.582965 0)
(0.64297 -0.561565 0)
(0.661762 -0.480618 0)
(0.625291 -0.26379 0)
(0.526809 0.0144349 0)
(0.518842 0.257273 0)
(0.568549 0.33457 0)
(0.685054 0.412305 0)
(0.786181 0.670857 0)
(1.05988 1.18377 0)
(0.0194698 -0.307063 0)
(0.0587539 -0.311717 0)
(0.0976476 -0.319136 0)
(0.137662 -0.330931 0)
(0.174704 -0.345317 0)
(0.212765 -0.363465 0)
(0.245487 -0.38516 0)
(0.282419 -0.411947 0)
(0.316568 -0.43388 0)
(0.361228 -0.485123 0)
(0.404627 -0.499287 0)
(0.455142 -0.549514 0)
(0.525147 -0.606405 0)
(0.579014 -0.616713 0)
(0.604679 -0.574247 0)
(0.588735 -0.453628 0)
(0.492844 -0.18474 0)
(0.4098 0.052282 0)
(0.447093 0.216704 0)
(0.514285 0.257537 0)
(0.655407 0.278566 0)
(0.787145 0.216233 0)
(0.988925 0.386799 0)
(0.0181687 -0.373914 0)
(0.0542075 -0.377816 0)
(0.0894969 -0.384246 0)
(0.124683 -0.393328 0)
(0.159857 -0.406417 0)
(0.193947 -0.422163 0)
(0.229593 -0.442433 0)
(0.268367 -0.467378 0)
(0.303636 -0.492843 0)
(0.348314 -0.53163 0)
(0.389995 -0.546554 0)
(0.425099 -0.611866 0)
(0.485006 -0.660336 0)
(0.519974 -0.647419 0)
(0.532742 -0.572588 0)
(0.461922 -0.379612 0)
(0.34718 -0.107476 0)
(0.322941 0.0601944 0)
(0.391587 0.147086 0)
(0.480815 0.150031 0)
(0.625487 0.124905 0)
(0.746445 0.0754022 0)
(0.878437 0.0541876 0)
(0.0157353 -0.396059 0)
(0.0472429 -0.39931 0)
(0.0794685 -0.405277 0)
(0.110902 -0.413625 0)
(0.143127 -0.426285 0)
(0.175187 -0.442039 0)
(0.2064 -0.462042 0)
(0.237705 -0.486061 0)
(0.264374 -0.513872 0)
(0.300014 -0.557174 0)
(0.329633 -0.583527 0)
(0.369644 -0.664866 0)
(0.427887 -0.684096 0)
(0.439785 -0.651909 0)
(0.40883 -0.523227 0)
(0.278384 -0.25977 0)
(0.229451 -0.0540595 0)
(0.262418 0.0232318 0)
(0.354877 0.0532179 0)
(0.459763 0.0312845 0)
(0.592854 -0.00428808 0)
(0.690476 -0.0386547 0)
(0.823495 -0.0842733 0)
(0.0146013 -0.429835 0)
(0.043989 -0.434329 0)
(0.0727361 -0.440166 0)
(0.102067 -0.449805 0)
(0.129773 -0.461207 0)
(0.157275 -0.477324 0)
(0.183319 -0.496395 0)
(0.209246 -0.519675 0)
(0.235252 -0.550505 0)
(0.261811 -0.588691 0)
(0.289351 -0.624229 0)
(0.332906 -0.716043 0)
(0.366238 -0.71191 0)
(0.355993 -0.637954 0)
(0.246621 -0.425846 0)
(0.143055 -0.192007 0)
(0.164421 -0.0783081 0)
(0.23654 -0.0576468 0)
(0.335423 -0.0539895 0)
(0.444744 -0.0840357 0)
(0.555165 -0.114859 0)
(0.643507 -0.152102 0)
(0.778907 -0.198579 0)
(0.0129496 -0.457411 0)
(0.0386009 -0.460891 0)
(0.064483 -0.466671 0)
(0.0897685 -0.474486 0)
(0.115516 -0.486783 0)
(0.139805 -0.500748 0)
(0.16359 -0.518575 0)
(0.183743 -0.539962 0)
(0.202762 -0.566183 0)
(0.216714 -0.601264 0)
(0.235205 -0.653184 0)
(0.251034 -0.747267 0)
(0.255385 -0.714362 0)
(0.175865 -0.560295 0)
(0.0514593 -0.301418 0)
(0.0635595 -0.178144 0)
(0.126902 -0.144778 0)
(0.229057 -0.153107 0)
(0.320899 -0.159051 0)
(0.427457 -0.185559 0)
(0.514537 -0.211176 0)
(0.610703 -0.246623 0)
(0.712227 -0.271633 0)
(0.0115544 -0.476266 0)
(0.0346536 -0.479972 0)
(0.0574774 -0.485003 0)
(0.0808401 -0.492823 0)
(0.103667 -0.502012 0)
(0.125996 -0.514598 0)
(0.146501 -0.528533 0)
(0.162152 -0.545292 0)
(0.175932 -0.569202 0)
(0.165551 -0.602162 0)
(0.171638 -0.665751 0)
(0.103175 -0.749607 0)
(0.0733028 -0.652719 0)
(-0.0396097 -0.432897 0)
(-0.0320663 -0.281582 0)
(0.0319906 -0.24621 0)
(0.130078 -0.241819 0)
(0.225812 -0.246212 0)
(0.308617 -0.252495 0)
(0.41366 -0.26704 0)
(0.477208 -0.287942 0)
(0.591451 -0.340064 0)
(0.639086 -0.443313 0)
(0.010947 -0.498521 0)
(0.0324602 -0.502525 0)
(0.0537112 -0.50927 0)
(0.0739682 -0.520117 0)
(0.0945904 -0.53616 0)
(0.114993 -0.557699 0)
(0.134453 -0.586743 0)
(0.147793 -0.623162 0)
(0.151448 -0.662275 0)
(0.123367 -0.707529 0)
(0.061936 -0.768444 0)
(-0.108141 -0.797516 0)
(-0.126579 -0.583117 0)
(-0.11944 -0.406671 0)
(-0.0458463 -0.348147 0)
(0.0458635 -0.332147 0)
(0.137352 -0.325327 0)
(0.224169 -0.321004 0)
(0.30228 -0.342083 0)
(0.401229 -0.376619 0)
(0.433505 -0.461875 0)
(0.472996 -0.611397 0)
(0.383639 -0.881973 0)
(0.00974552 -0.619423 0)
(0.0280794 -0.626135 0)
(0.0451196 -0.637295 0)
(0.0594947 -0.654858 0)
(0.070898 -0.677738 0)
(0.0815886 -0.707963 0)
(0.0905529 -0.75633 0)
(0.0942274 -0.81437 0)
(0.0863138 -0.876747 0)
(0.0406409 -0.942102 0)
(-0.16488 -0.963624 0)
(-0.301502 -0.843087 0)
(-0.187908 -0.667086 0)
(-0.125982 -0.5553 0)
(-0.00779395 -0.530176 0)
(0.0696706 -0.501691 0)
(0.144441 -0.491839 0)
(0.208363 -0.507613 0)
(0.257198 -0.560422 0)
(0.278935 -0.655929 0)
(0.266276 -0.808543 0)
(0.208908 -0.78519 0)
(-0.0786158 0.0648568 0)
(0.00563266 -0.866578 0)
(0.0137856 -0.878722 0)
(0.0213174 -0.900646 0)
(0.0272073 -0.934829 0)
(0.0283951 -0.985866 0)
(0.0203202 -1.05598 0)
(0.00615888 -0.976896 0)
(-0.0449537 -0.73345 0)
(-0.165187 -0.361743 0)
(-0.295126 0.0905456 0)
(-0.513648 -0.148358 0)
(-0.35455 -0.858432 0)
(-0.185899 -0.998036 0)
(-0.0305001 -0.87179 0)
(0.0349503 -0.83298 0)
(0.070702 -0.780848 0)
(0.110116 -0.787136 0)
(0.12863 -0.839476 0)
(0.0960806 -0.93557 0)
(0.0326389 -0.539477 0)
(-0.328451 0.301408 0)
(-0.576589 -0.294567 0)
(-0.438777 -0.397221 0)
(-0.0305616 -0.216297 0)
(-0.0981989 -0.194341 0)
(-0.175249 -0.150533 0)
(-0.269958 -0.132983 0)
(-0.37332 -0.193958 0)
(-0.465533 -0.383755 0)
(-0.497291 -0.651479 0)
(-0.441905 -0.859581 0)
(-0.348984 -0.910393 0)
(-0.153859 -0.81504 0)
(0.160649 -0.911732 0)
(0.435768 -0.903545 0)
(0.270485 -0.60294 0)
(0.163027 -0.401167 0)
(-0.00729129 -0.350961 0)
(-0.115104 -0.314111 0)
(-0.258823 -0.167688 0)
(-0.459674 0.047564 0)
(-0.618039 -0.0884263 0)
(-0.524379 -0.54396 0)
(-0.264073 -0.581022 0)
(-0.153156 -0.271798 0)
(-0.446301 0.110358 0)
(-0.0203356 -0.833413 0)
(-0.0570023 -0.834119 0)
(-0.0815756 -0.827043 0)
(-0.0914648 -0.807394 0)
(-0.0912143 -0.771526 0)
(-0.0748038 -0.712119 0)
(-0.0552359 -0.62202 0)
(-0.0548 -0.524698 0)
(-0.0777271 -0.448581 0)
(-0.0742959 -0.392327 0)
(-0.0324798 -0.50374 0)
(-0.153323 -0.795859 0)
(-0.269271 -0.806626 0)
(-0.363042 -0.708395 0)
(-0.378367 -0.661557 0)
(-0.347461 -0.662824 0)
(-0.275407 -0.683677 0)
(-0.145546 -0.676016 0)
(-0.00426224 -0.586061 0)
(-0.0133458 -0.364568 0)
(-0.220527 -0.0590068 0)
(-0.490435 0.110439 0)
(-0.575467 0.112687 0)
(-0.00578768 -0.233257 0)
(-0.0149829 -0.247184 0)
(-0.0239945 -0.261647 0)
(-0.0392295 -0.283451 0)
(-0.0552882 -0.311772 0)
(-0.0718852 -0.349249 0)
(-0.0895478 -0.400516 0)
(-0.114598 -0.453686 0)
(-0.146281 -0.494894 0)
(-0.153793 -0.524887 0)
(-0.159161 -0.573438 0)
(-0.258044 -0.599091 0)
(-0.340766 -0.484985 0)
(-0.366094 -0.364986 0)
(-0.337294 -0.303254 0)
(-0.282723 -0.316901 0)
(-0.224568 -0.336432 0)
(-0.202785 -0.328158 0)
(-0.254 -0.217553 0)
(-0.423267 -0.0776593 0)
(-0.579549 0.0215926 0)
(-0.593438 0.0691005 0)
(-0.572118 0.119629 0)
(-0.00569462 -0.445027 0)
(-0.0167012 -0.459362 0)
(-0.0267166 -0.467969 0)
(-0.0395187 -0.478377 0)
(-0.0524766 -0.489671 0)
(-0.0676596 -0.500423 0)
(-0.0867096 -0.510847 0)
(-0.113527 -0.520149 0)
(-0.145571 -0.522063 0)
(-0.168584 -0.518828 0)
(-0.211541 -0.533986 0)
(-0.27815 -0.523773 0)
(-0.336953 -0.485624 0)
(-0.356719 -0.445044 0)
(-0.365867 -0.445503 0)
(-0.379929 -0.468293 0)
(-0.413545 -0.472423 0)
(-0.490549 -0.402867 0)
(-0.574855 -0.226899 0)
(-0.621848 -0.0492219 0)
(-0.626866 0.0361596 0)
(-0.605184 0.070553 0)
(-0.565723 0.0970127 0)
(-0.00340646 -0.437631 0)
(-0.0111275 -0.448659 0)
(-0.0201046 -0.450402 0)
(-0.032164 -0.452987 0)
(-0.0470381 -0.457244 0)
(-0.0661829 -0.463179 0)
(-0.0903657 -0.469415 0)
(-0.120892 -0.474323 0)
(-0.154875 -0.475064 0)
(-0.190041 -0.473233 0)
(-0.239013 -0.477091 0)
(-0.29133 -0.483561 0)
(-0.338638 -0.473841 0)
(-0.364129 -0.451964 0)
(-0.391577 -0.444113 0)
(-0.430764 -0.439081 0)
(-0.495142 -0.408887 0)
(-0.577856 -0.314527 0)
(-0.627815 -0.154105 0)
(-0.632665 -0.0401212 0)
(-0.607786 0.00434818 0)
(-0.568818 0.0285011 0)
(-0.533912 0.0681653 0)
(-0.00529168 -0.386764 0)
(-0.0167586 -0.399446 0)
(-0.0292243 -0.403554 0)
(-0.0435901 -0.409131 0)
(-0.0604441 -0.415207 0)
(-0.0805647 -0.421239 0)
(-0.104759 -0.426562 0)
(-0.132414 -0.43026 0)
(-0.161848 -0.431633 0)
(-0.193827 -0.433083 0)
(-0.232516 -0.438981 0)
(-0.279938 -0.439827 0)
(-0.321539 -0.421071 0)
(-0.356656 -0.397678 0)
(-0.397461 -0.375283 0)
(-0.450728 -0.351217 0)
(-0.517211 -0.313176 0)
(-0.577175 -0.246405 0)
(-0.597058 -0.139398 0)
(-0.57293 -0.0612107 0)
(-0.541025 -0.0326834 0)
(-0.50922 -0.00538188 0)
(-0.481082 0.0332467 0)
(-0.00611396 -0.382525 0)
(-0.0192595 -0.393555 0)
(-0.0332387 -0.395629 0)
(-0.048728 -0.399131 0)
(-0.0660909 -0.402746 0)
(-0.0854816 -0.40602 0)
(-0.107095 -0.408552 0)
(-0.13051 -0.409889 0)
(-0.155092 -0.40976 0)
(-0.183168 -0.409408 0)
(-0.217984 -0.406603 0)
(-0.255094 -0.395221 0)
(-0.289832 -0.381173 0)
(-0.325583 -0.359927 0)
(-0.360717 -0.330736 0)
(-0.398998 -0.297101 0)
(-0.438986 -0.259881 0)
(-0.478097 -0.220977 0)
(-0.504201 -0.171091 0)
(-0.492157 -0.0979999 0)
(-0.472076 -0.0465388 0)
(-0.458417 -0.0235917 0)
(-0.438972 0.0109873 0)
(-0.0070163 -0.366424 0)
(-0.0220308 -0.376647 0)
(-0.0373057 -0.37689 0)
(-0.0535865 -0.377683 0)
(-0.0711007 -0.378445 0)
(-0.0899829 -0.379011 0)
(-0.110227 -0.378915 0)
(-0.131693 -0.377554 0)
(-0.154543 -0.374847 0)
(-0.179749 -0.370712 0)
(-0.206895 -0.363919 0)
(-0.234712 -0.35456 0)
(-0.267182 -0.338153 0)
(-0.3002 -0.316473 0)
(-0.332113 -0.296291 0)
(-0.360183 -0.2698 0)
(-0.382688 -0.235953 0)
(-0.406321 -0.192629 0)
(-0.424951 -0.140844 0)
(-0.433604 -0.0963292 0)
(-0.431655 -0.0661345 0)
(-0.415594 -0.0354743 0)
(-0.414065 0.0051718 0)
(-0.0071685 -0.355731 0)
(-0.0223334 -0.365355 0)
(-0.0378249 -0.365319 0)
(-0.0538924 -0.365736 0)
(-0.0707344 -0.365904 0)
(-0.0884901 -0.365581 0)
(-0.107297 -0.364495 0)
(-0.127236 -0.362362 0)
(-0.148915 -0.359021 0)
(-0.17287 -0.353753 0)
(-0.198531 -0.344373 0)
(-0.225412 -0.329448 0)
(-0.252078 -0.314 0)
(-0.2786 -0.296813 0)
(-0.305798 -0.273666 0)
(-0.332774 -0.246665 0)
(-0.355788 -0.21632 0)
(-0.37267 -0.186586 0)
(-0.380383 -0.150392 0)
(-0.38733 -0.104226 0)
(-0.387799 -0.0587925 0)
(-0.389986 -0.0276084 0)
(-0.38841 -0.00213378 0)
(-0.00700023 -0.33778 0)
(-0.0217532 -0.34662 0)
(-0.0368232 -0.34587 0)
(-0.0524767 -0.345075 0)
(-0.0689395 -0.34384 0)
(-0.0864727 -0.34199 0)
(-0.105216 -0.339287 0)
(-0.12537 -0.33544 0)
(-0.146996 -0.330054 0)
(-0.169857 -0.322787 0)
(-0.193137 -0.313633 0)
(-0.215433 -0.302647 0)
(-0.236951 -0.288106 0)
(-0.258834 -0.269364 0)
(-0.278294 -0.246936 0)
(-0.295975 -0.221834 0)
(-0.315292 -0.193144 0)
(-0.336224 -0.156234 0)
(-0.355942 -0.11708 0)
(-0.360464 -0.0867945 0)
(-0.356883 -0.0665757 0)
(-0.355721 -0.0369474 0)
(-0.357179 0.00261912 0)
(-0.0069383 -0.32726 0)
(-0.021468 -0.335871 0)
(-0.0362138 -0.334983 0)
(-0.0514167 -0.334055 0)
(-0.0671953 -0.332491 0)
(-0.0836607 -0.330127 0)
(-0.100924 -0.326731 0)
(-0.119073 -0.322129 0)
(-0.13817 -0.316154 0)
(-0.157971 -0.30827 0)
(-0.178059 -0.297698 0)
(-0.198592 -0.284094 0)
(-0.219581 -0.267764 0)
(-0.240317 -0.24955 0)
(-0.261699 -0.229771 0)
(-0.28136 -0.206528 0)
(-0.297778 -0.182249 0)
(-0.308011 -0.158448 0)
(-0.312987 -0.13206 0)
(-0.317372 -0.0973966 0)
(-0.323141 -0.0599054 0)
(-0.328754 -0.0289831 0)
(-0.326679 -0.00267706 0)
(-0.00674174 -0.309499 0)
(-0.0209746 -0.317317 0)
(-0.0353206 -0.31589 0)
(-0.0500323 -0.314075 0)
(-0.0651619 -0.311527 0)
(-0.0807751 -0.308133 0)
(-0.096898 -0.303765 0)
(-0.113543 -0.298228 0)
(-0.130701 -0.291246 0)
(-0.148376 -0.282615 0)
(-0.16651 -0.272334 0)
(-0.184771 -0.26051 0)
(-0.202594 -0.246848 0)
(-0.219581 -0.230209 0)
(-0.234869 -0.210151 0)
(-0.249098 -0.188408 0)
(-0.262342 -0.16406 0)
(-0.275675 -0.136583 0)
(-0.287591 -0.107962 0)
(-0.295012 -0.0827848 0)
(-0.297246 -0.0593947 0)
(-0.298185 -0.03262 0)
(-0.29824 -0.00343106 0)
(-0.00649202 -0.299096 0)
(-0.0199906 -0.306788 0)
(-0.0336217 -0.305338 0)
(-0.0475145 -0.303499 0)
(-0.0617533 -0.300863 0)
(-0.0764192 -0.297322 0)
(-0.091569 -0.292714 0)
(-0.107218 -0.286868 0)
(-0.123276 -0.279573 0)
(-0.139504 -0.270581 0)
(-0.155655 -0.259675 0)
(-0.171638 -0.246674 0)
(-0.187501 -0.231638 0)
(-0.203087 -0.215139 0)
(-0.218062 -0.197262 0)
(-0.231751 -0.177324 0)
(-0.24381 -0.155919 0)
(-0.253335 -0.133168 0)
(-0.260279 -0.108867 0)
(-0.265389 -0.0825765 0)
(-0.269489 -0.0559524 0)
(-0.272367 -0.0306242 0)
(-0.27249 -0.00558433 0)
(-0.00613486 -0.284049 0)
(-0.0190011 -0.291179 0)
(-0.0319158 -0.289454 0)
(-0.0450413 -0.287161 0)
(-0.0584044 -0.28398 0)
(-0.0720393 -0.279843 0)
(-0.0859571 -0.274657 0)
(-0.10014 -0.268306 0)
(-0.114543 -0.26068 0)
(-0.129105 -0.251686 0)
(-0.143724 -0.241262 0)
(-0.158202 -0.229354 0)
(-0.172238 -0.215802 0)
(-0.185603 -0.200298 0)
(-0.198167 -0.182869 0)
(-0.20979 -0.163927 0)
(-0.22022 -0.143447 0)
(-0.229349 -0.121675 0)
(-0.236868 -0.0991156 0)
(-0.242261 -0.0764297 0)
(-0.245464 -0.0535638 0)
(-0.247605 -0.0302297 0)
(-0.248325 -0.0065151 0)
(-0.00580205 -0.273091 0)
(-0.0178743 -0.280018 0)
(-0.0299863 -0.278246 0)
(-0.0422484 -0.27586 0)
(-0.0546831 -0.272571 0)
(-0.0673135 -0.268311 0)
(-0.0801412 -0.262986 0)
(-0.093138 -0.256491 0)
(-0.10624 -0.248716 0)
(-0.119354 -0.23956 0)
(-0.13237 -0.228949 0)
(-0.145183 -0.216831 0)
(-0.157679 -0.203231 0)
(-0.169676 -0.188254 0)
(-0.180931 -0.171923 0)
(-0.191234 -0.154206 0)
(-0.200394 -0.135254 0)
(-0.208214 -0.115204 0)
(-0.214594 -0.0942327 0)
(-0.219418 -0.0725643 0)
(-0.222659 -0.0507008 0)
(-0.224863 -0.0289628 0)
(-0.225837 -0.00707654 0)
(-0.00539249 -0.261029 0)
(-0.0166341 -0.267613 0)
(-0.027887 -0.26574 0)
(-0.0392473 -0.263176 0)
(-0.0507242 -0.259674 0)
(-0.0623281 -0.255191 0)
(-0.0740506 -0.249666 0)
(-0.0858628 -0.243033 0)
(-0.0977145 -0.23523 0)
(-0.109534 -0.226205 0)
(-0.121227 -0.215909 0)
(-0.132673 -0.204309 0)
(-0.14373 -0.19137 0)
(-0.154264 -0.177072 0)
(-0.164142 -0.161469 0)
(-0.173207 -0.144673 0)
(-0.181304 -0.126792 0)
(-0.188303 -0.107995 0)
(-0.194095 -0.088474 0)
(-0.198527 -0.0684362 0)
(-0.201522 -0.0481192 0)
(-0.203562 -0.0277383 0)
(-0.204696 -0.0072254 0)
(-0.00498825 -0.250694 0)
(-0.0153572 -0.257057 0)
(-0.0257227 -0.255152 0)
(-0.0361626 -0.252512 0)
(-0.0466767 -0.248927 0)
(-0.0572649 -0.24436 0)
(-0.0679135 -0.238764 0)
(-0.0785921 -0.232088 0)
(-0.0892538 -0.224284 0)
(-0.0998353 -0.215311 0)
(-0.110258 -0.205141 0)
(-0.12043 -0.19376 0)
(-0.130245 -0.181178 0)
(-0.139581 -0.167428 0)
(-0.14831 -0.152556 0)
(-0.156306 -0.136625 0)
(-0.163448 -0.119741 0)
(-0.169637 -0.102033 0)
(-0.174799 -0.0836533 0)
(-0.178836 -0.06477 0)
(-0.181655 -0.0456149 0)
(-0.183575 -0.0264066 0)
(-0.184773 -0.00710773 0)
(-0.00455788 -0.240826 0)
(-0.0140256 -0.246961 0)
(-0.0234797 -0.245031 0)
(-0.0329829 -0.242325 0)
(-0.0425302 -0.23867 0)
(-0.052116 -0.234042 0)
(-0.0617239 -0.228409 0)
(-0.0713247 -0.221738 0)
(-0.0808759 -0.214001 0)
(-0.0903214 -0.205174 0)
(-0.0995922 -0.19524 0)
(-0.108607 -0.184196 0)
(-0.117277 -0.17205 0)
(-0.125504 -0.158831 0)
(-0.133189 -0.144591 0)
(-0.140232 -0.129404 0)
(-0.146538 -0.113366 0)
(-0.152024 -0.096596 0)
(-0.156633 -0.0792258 0)
(-0.160291 -0.0613945 0)
(-0.162911 -0.0432782 0)
(-0.164703 -0.0250745 0)
(-0.165906 -0.0068044 0)
(-0.00412249 -0.231993 0)
(-0.012672 -0.237944 0)
(-0.0212024 -0.236009 0)
(-0.0297644 -0.233269 0)
(-0.0383497 -0.229582 0)
(-0.0469485 -0.224933 0)
(-0.055543 -0.2193 0)
(-0.0641055 -0.212663 0)
(-0.0725976 -0.205005 0)
(-0.0809706 -0.196313 0)
(-0.0891658 -0.186582 0)
(-0.0971157 -0.17582 0)
(-0.104746 -0.164046 0)
(-0.111975 -0.151294 0)
(-0.118723 -0.137617 0)
(-0.124909 -0.123081 0)
(-0.130457 -0.107774 0)
(-0.135303 -0.0918017 0)
(-0.139401 -0.075279 0)
(-0.1427 -0.0583284 0)
(-0.145121 -0.0410964 0)
(-0.146793 -0.0237581 0)
(-0.147971 -0.00636865 0)
(-0.00367836 -0.224007 0)
(-0.0112981 -0.229792 0)
(-0.0188993 -0.227862 0)
(-0.0265197 -0.2251 0)
(-0.0341513 -0.221398 0)
(-0.0417813 -0.216748 0)
(-0.0493918 -0.211137 0)
(-0.0569569 -0.204555 0)
(-0.064442 -0.196994 0)
(-0.0718045 -0.188451 0)
(-0.0789944 -0.17893 0)
(-0.0859546 -0.168444 0)
(-0.0926233 -0.157017 0)
(-0.0989357 -0.144685 0)
(-0.104826 -0.1315 0)
(-0.110229 -0.117528 0)
(-0.115087 -0.102848 0)
(-0.119347 -0.087556 0)
(-0.122973 -0.0717552 0)
(-0.125928 -0.0555542 0)
(-0.12815 -0.0390772 0)
(-0.129709 -0.0224791 0)
(-0.130842 -0.00583878 0)
(-0.00322848 -0.216954 0)
(-0.00990871 -0.222594 0)
(-0.0165823 -0.220673 0)
(-0.023264 -0.217898 0)
(-0.0299523 -0.214194 0)
(-0.0366311 -0.209555 0)
(-0.0432835 -0.203976 0)
(-0.0498856 -0.197456 0)
(-0.0564068 -0.189993 0)
(-0.0628099 -0.181592 0)
(-0.0690523 -0.172264 0)
(-0.0750863 -0.162025 0)
(-0.0808609 -0.150905 0)
(-0.0863231 -0.13894 0)
(-0.0914203 -0.126182 0)
(-0.0961018 -0.112692 0)
(-0.100321 -0.0985454 0)
(-0.104036 -0.0838275 0)
(-0.10722 -0.068633 0)
(-0.109847 -0.0530604 0)
(-0.111871 -0.0372186 0)
(-0.113323 -0.0212446 0)
(-0.114408 -0.00523389 0)
(-0.00276992 -0.21083 0)
(-0.00849765 -0.216329 0)
(-0.0142535 -0.214421 0)
(-0.0200006 -0.211634 0)
(-0.0257557 -0.20793 0)
(-0.0314988 -0.203307 0)
(-0.0372155 -0.197763 0)
(-0.0428852 -0.191304 0)
(-0.0484804 -0.183936 0)
(-0.0539687 -0.175668 0)
(-0.0593137 -0.166514 0)
(-0.0644751 -0.156497 0)
(-0.0694106 -0.145646 0)
(-0.0740778 -0.133998 0)
(-0.0784348 -0.121603 0)
(-0.082442 -0.108521 0)
(-0.0860634 -0.0948208 0)
(-0.0892677 -0.0805822 0)
(-0.0920328 -0.0658907 0)
(-0.0943431 -0.050837 0)
(-0.096169 -0.0355195 0)
(-0.0975197 -0.0200608 0)
(-0.0985609 -0.00456731 0)
(-0.00229524 -0.20564 0)
(-0.00705948 -0.21098 0)
(-0.0119141 -0.209087 0)
(-0.0167301 -0.206292 0)
(-0.0215565 -0.202593 0)
(-0.0263705 -0.197987 0)
(-0.0311625 -0.192478 0)
(-0.0359189 -0.186078 0)
(-0.0406159 -0.178796 0)
(-0.0452258 -0.170645 0)
(-0.0497175 -0.161645 0)
(-0.0540555 -0.151819 0)
(-0.0582032 -0.141198 0)
(-0.0621253 -0.129817 0)
(-0.0657892 -0.117725 0)
(-0.0691648 -0.104979 0)
(-0.0722244 -0.091646 0)
(-0.074944 -0.0777987 0)
(-0.0773081 -0.0635146 0)
(-0.0793093 -0.0488776 0)
(-0.0809348 -0.033978 0)
(-0.0821876 -0.0189271 0)
(-0.0831926 -0.00384026 0)
(-0.00179479 -0.201417 0)
(-0.00560185 -0.206528 0)
(-0.00959674 -0.204661 0)
(-0.0134933 -0.20187 0)
(-0.0173872 -0.198187 0)
(-0.0212628 -0.19361 0)
(-0.0251005 -0.188141 0)
(-0.0289115 -0.181792 0)
(-0.0326883 -0.174573 0)
(-0.0364187 -0.166503 0)
(-0.0400806 -0.157612 0)
(-0.0436409 -0.147931 0)
(-0.0470614 -0.13749 0)
(-0.0503059 -0.126327 0)
(-0.0533418 -0.114484 0)
(-0.0561427 -0.102016 0)
(-0.058688 -0.0889862 0)
(-0.0609584 -0.0754595 0)
(-0.062942 -0.0615 0)
(-0.0646412 -0.0471846 0)
(-0.0660603 -0.0325982 0)
(-0.0672135 -0.0178465 0)
(-0.0681966 -0.00305906 0)
(-0.00127076 -0.198393 0)
(-0.0042032 -0.203171 0)
(-0.00746682 -0.201351 0)
(-0.0105164 -0.198582 0)
(-0.0135179 -0.194919 0)
(-0.0164698 -0.190378 0)
(-0.0192257 -0.184866 0)
(-0.0219025 -0.178465 0)
(-0.0245425 -0.171205 0)
(-0.027182 -0.163119 0)
(-0.029848 -0.154241 0)
(-0.03255 -0.144607 0)
(-0.0352751 -0.134257 0)
(-0.037979 -0.12324 0)
(-0.040593 -0.111609 0)
(-0.0430231 -0.099403 0)
(-0.0451693 -0.0866535 0)
(-0.0470858 -0.0734191 0)
(-0.0487656 -0.0597577 0)
(-0.050206 -0.0457265 0)
(-0.0514269 -0.0313819 0)
(-0.0524863 -0.0167899 0)
(-0.0534489 -0.0021025 0)
(-0.000820804 -0.196326 0)