/*--------------------------------*- C++ -*----------------------------------*\
| =========                 |                                                 |
| \\      /  F ield         | OpenFOAM: The Open Source CFD Toolbox           |
|  \\    /   O peration     | Version:  2.4.0                                 |
|   \\  /    A nd           | Web:      www.OpenFOAM.org                      |
|    \\/     M anipulation  |                                                 |
\*---------------------------------------------------------------------------*/
FoamFile
{
    version     2.0;
    format      ascii;
    class       volVectorField;
    location    "0.2";
    object      U.oil;
}
// * * * * * * * * * * * * * * * * * * * * * * * * * * * * * * * * * * * * * //

dimensions      [0 1 -1 0 0 0 0];

internalField   nonuniform List<vector> 
2268
(
(0.0178452 -0.00843079 0)
(0.053662 -0.00851942 0)
(0.0903348 -0.00868662 0)
(0.126779 -0.00896534 0)
(0.167866 -0.00923574 0)
(0.202285 -0.00974932 0)
(0.254146 -0.00991872 0)
(0.286006 -0.0123428 0)
(0.348863 -0.00916639 0)
(0.383497 -0.0143503 0)
(0.442861 -0.0165421 0)
(0.527877 -0.014393 0)
(0.58878 -0.0128202 0)
(0.627239 -0.0129003 0)
(0.688368 -0.0134641 0)
(0.753551 -0.0166527 0)
(0.848909 -0.0103042 0)
(0.898596 -0.0106238 0)
(0.947412 0.00875834 0)
(0.905465 0.0311398 0)
(0.757351 0.106736 0)
(0.349371 0.245803 0)
(0.108978 0.19799 0)
(0.0178121 -0.0252856 0)
(0.053572 -0.0255605 0)
(0.0901787 -0.0260623 0)
(0.126593 -0.0269228 0)
(0.167628 -0.0275715 0)
(0.20177 -0.029864 0)
(0.254041 -0.0280871 0)
(0.286481 -0.0396938 0)
(0.346342 -0.0258469 0)
(0.383943 -0.0406158 0)
(0.445644 -0.0517171 0)
(0.528923 -0.0462952 0)
(0.58208 -0.0382647 0)
(0.620055 -0.038548 0)
(0.687693 -0.0419212 0)
(0.771648 -0.0438089 0)
(0.868741 -0.0307431 0)
(0.93541 -0.00631201 0)
(0.97976 0.0326821 0)
(0.940532 0.0677484 0)
(0.789883 0.190094 0)
(0.387664 0.37954 0)
(0.173411 0.505928 0)
(0.0177282 -0.0420797 0)
(0.0533282 -0.0425375 0)
(0.0897544 -0.0433796 0)
(0.126095 -0.0448118 0)
(0.166836 -0.045925 0)
(0.200841 -0.0492677 0)
(0.253204 -0.0488427 0)
(0.284813 -0.0612932 0)
(0.344049 -0.0466312 0)
(0.384289 -0.0696501 0)
(0.446672 -0.0853713 0)
(0.52517 -0.0718203 0)
(0.574101 -0.0589078 0)
(0.619714 -0.0621921 0)
(0.698513 -0.0641611 0)
(0.794744 -0.0504718 0)
(0.899446 -0.00360113 0)
(0.951542 0.0893264 0)
(0.970565 0.175547 0)
(0.928178 0.256693 0)
(0.832918 0.410545 0)
(0.445193 0.637707 0)
(0.208304 0.709972 0)
(0.0176028 -0.058781 0)
(0.0529633 -0.059423 0)
(0.0891197 -0.0606209 0)
(0.125385 -0.0626056 0)
(0.165519 -0.0641339 0)
(0.199948 -0.0689348 0)
(0.251096 -0.0681989 0)
(0.282695 -0.084251 0)
(0.341269 -0.0679182 0)
(0.383952 -0.0951741 0)
(0.444361 -0.118428 0)
(0.515188 -0.100983 0)
(0.567223 -0.0806452 0)
(0.638732 -0.0718418 0)
(0.742805 -0.0263628 0)
(0.853277 0.0445139 0)
(0.936351 0.0653426 0)
(0.977979 0.100478 0)
(1.0097 0.186126 0)
(0.909615 0.298389 0)
(0.808924 0.549921 0)
(0.48233 0.786255 0)
(0.251252 0.9819 0)
(0.0174332 -0.0753701 0)
(0.0524644 -0.0761964 0)
(0.0882694 -0.0777745 0)
(0.124399 -0.0802702 0)
(0.163828 -0.0823426 0)
(0.19856 -0.0881449 0)
(0.24862 -0.0884946 0)
(0.27895 -0.104878 0)
(0.337746 -0.090387 0)
(0.383381 -0.124476 0)
(0.438008 -0.144917 0)
(0.502132 -0.121989 0)
(0.572685 -0.0967392 0)
(0.685308 -0.0418963 0)
(0.795214 0.0188471 0)
(0.868183 -0.0055018 0)
(0.910272 -0.011893 0)
(0.933598 0.0103756 0)
(0.892675 0.0977081 0)
(0.743042 0.357213 0)
(0.687159 0.608545 0)
(0.391902 0.940884 0)
(0.280708 1.17787 0)
(0.0172127 -0.0916931 0)
(0.0518074 -0.0927103 0)
(0.0871741 -0.0947045 0)
(0.123074 -0.0977034 0)
(0.161684 -0.10033 0)
(0.196706 -0.107409 0)
(0.245456 -0.107894 0)
(0.27444 -0.125063 0)
(0.336395 -0.115408 0)
(0.37477 -0.145357 0)
(0.434605 -0.167421 0)
(0.490106 -0.144845 0)
(0.593458 -0.106484 0)
(0.741894 -0.00593654 0)
(0.811299 -0.0393984 0)
(0.845739 -0.0362663 0)
(0.857281 0.0530574 0)
(0.926069 0.103334 0)
(0.89642 0.132542 0)
(0.780258 0.225765 0)
(0.37441 0.758314 0)
(0.212734 1.02416 0)
(0.246745 1.43924 0)
(0.0169315 -0.107537 0)
(0.0509599 -0.108745 0)
(0.0858054 -0.111158 0)
(0.121327 -0.114566 0)
(0.159098 -0.117624 0)
(0.194409 -0.125617 0)
(0.24176 -0.125823 0)
(0.270456 -0.143002 0)
(0.333108 -0.134006 0)
(0.36774 -0.168305 0)
(0.432163 -0.183995 0)
(0.489143 -0.182967 0)
(0.627361 -0.12877 0)
(0.745285 -0.0771278 0)
(0.76186 -0.0183416 0)
(0.831678 0.00162134 0)
(0.919557 -0.185018 0)
(1.00596 -0.162238 0)
(1.05068 0.00898862 0)
(0.905538 0.202689 0)
(0.572365 0.578244 0)
(0.108995 0.998781 0)
(0.292572 1.55607 0)
(0.0166225 -0.123191 0)
(0.050028 -0.124549 0)
(0.0843836 -0.127319 0)
(0.119466 -0.131063 0)
(0.156673 -0.134548 0)
(0.192434 -0.144145 0)
(0.238698 -0.144587 0)
(0.268098 -0.164079 0)
(0.330473 -0.158993 0)
(0.364652 -0.195075 0)
(0.421336 -0.227689 0)
(0.490103 -0.255374 0)
(0.618995 -0.223776 0)
(0.676552 -0.0888845 0)
(0.68768 -0.0969726 0)
(0.791901 -0.24446 0)
(0.966287 -0.227186 0)
(1.00941 -0.0990908 0)
(1.02726 0.112738 0)
(0.778977 0.334573 0)
(0.783394 0.71019 0)
(0.161713 1.10167 0)
(0.335263 1.62933 0)
(-1.47937 -0.806926 0)
(-1.37166 -0.536685 0)
(-1.59153 -0.1553 0)
(-1.82407 -0.0324232 0)
(-1.87658 -0.151956 0)
(-1.22004 -0.339675 0)
(-0.420651 -0.303261 0)
(0.163746 -0.222356 0)
(0.672578 -0.203097 0)
(1.04129 -0.177804 0)
(1.33296 -0.149413 0)
(1.58181 -0.139836 0)
(1.82204 -0.150456 0)
(2.09122 -0.155485 0)
(2.31728 -0.189862 0)
(2.49046 -0.169903 0)
(2.43032 -0.121972 0)
(1.91395 0.0375236 0)
(1.57216 0.0934125 0)
(-1.53338 -0.913088 0)
(-1.00746 -0.28282 0)
(-0.960088 -0.0654427 0)
(-1.01041 0.0771991 0)
(-1.08235 0.0779062 0)
(-0.614824 -0.346555 0)
(-0.125703 -0.392108 0)
(0.427894 -0.287756 0)
(0.845258 -0.190262 0)
(1.1549 -0.124735 0)
(1.43898 -0.0962967 0)
(1.70718 -0.0981281 0)
(1.94896 -0.111458 0)
(2.14461 -0.103818 0)
(2.28811 -0.0757493 0)
(2.36959 -0.00861824 0)
(2.37267 0.182956 0)
(1.9318 0.529408 0)
(1.61484 1.02757 0)
(-1.50622 -0.761901 0)
(-0.646953 -0.550673 0)
(-0.134655 -0.80225 0)
(-0.370494 -0.547962 0)
(-0.536176 -0.386834 0)
(-0.0846353 -0.709091 0)
(0.255834 -0.705273 0)
(0.615218 -0.592684 0)
(1.0011 -0.462249 0)
(1.3136 -0.371698 0)
(1.58333 -0.322642 0)
(1.82367 -0.3091 0)
(2.05167 -0.281802 0)
(2.23152 -0.224033 0)
(2.33396 -0.145309 0)
(2.37221 -0.0263758 0)
(2.40935 0.128855 0)
(2.01262 0.448946 0)
(1.67064 1.51702 0)
(-1.21569 0.0890961 0)
(-0.43875 -0.059208 0)
(0.473415 -0.775259 0)
(0.468893 -0.824365 0)
(0.270744 -0.847214 0)
(0.405138 -0.944745 0)
(0.529882 -0.782895 0)
(0.857965 -0.647482 0)
(1.17757 -0.51446 0)
(1.45272 -0.418824 0)
(1.6824 -0.365539 0)
(1.89925 -0.347374 0)
(2.09611 -0.313882 0)
(2.23529 -0.24427 0)
(2.32147 -0.115051 0)
(2.34614 -0.0467916 0)
(2.39713 -0.00989593 0)
(2.25887 0.239834 0)
(1.83631 2.08816 0)
(-0.910262 0.80454 0)
(-0.248287 0.306501 0)
(0.609463 -0.489478 0)
(0.849868 -0.589448 0)
(0.768247 -0.985431 0)
(0.65738 -1.08223 0)
(0.76688 -0.967159 0)
(1.03639 -0.82918 0)
(1.28086 -0.677754 0)
(1.50918 -0.56461 0)
(1.72676 -0.502595 0)
(1.93508 -0.455866 0)
(2.10271 -0.378555 0)
(2.21267 -0.25869 0)
(2.2351 -0.238246 0)
(2.26988 -0.295239 0)
(2.48581 -0.47738 0)
(2.92686 -0.26301 0)
(2.49763 2.37056 0)
(-0.80556 1.26612 0)
(-0.039098 0.649995 0)
(1.12772 -0.536804 0)
(0.992667 -0.65621 0)
(0.992343 -1.15767 0)
(0.926688 -1.11387 0)
(1.01419 -1.01476 0)
(1.21459 -0.864179 0)
(1.39018 -0.718915 0)
(1.59546 -0.607291 0)
(1.79259 -0.547504 0)
(1.95596 -0.498476 0)
(2.09111 -0.398766 0)
(2.12285 -0.382108 0)
(2.15012 -0.461151 0)
(2.29738 -0.716084 0)
(2.71191 -0.917876 0)
(3.43508 -0.594481 0)
(4.05102 2.89126 0)
(-0.65444 1.60552 0)
(0.284718 0.90414 0)
(1.2602 -0.479003 0)
(1.12378 -0.679572 0)
(1.17978 -1.11317 0)
(1.11153 -1.18781 0)
(1.18122 -1.12335 0)
(1.30861 -0.984291 0)
(1.42962 -0.822231 0)
(1.60891 -0.715237 0)
(1.78135 -0.636531 0)
(1.92242 -0.567064 0)
(1.98851 -0.542908 0)
(2.01263 -0.625651 0)
(2.07428 -0.892002 0)
(2.24708 -1.02503 0)
(2.48854 -0.588254 0)
(1.55059 0.439325 0)
(7.31258 4.44349 0)
(-0.250233 1.52456 0)
(0.835268 0.622028 0)
(1.22586 -0.464058 0)
(1.28539 -0.750427 0)
(1.30528 -1.2148 0)
(1.27028 -1.20492 0)
(1.3273 -1.14336 0)
(1.40542 -1.00289 0)
(1.48926 -0.852798 0)
(1.64057 -0.763369 0)
(1.80372 -0.67788 0)
(1.86766 -0.667251 0)
(1.89297 -0.742169 0)
(1.92587 -0.980885 0)
(2.03026 -1.09802 0)
(2.05166 -0.94107 0)
(2.32974 0.127702 0)
(0.76064 0.979053 0)
(11.9272 7.15381 0)
(0.0163118 -0.148177 0)
(0.0490565 -0.14989 0)
(0.0830261 -0.153631 0)
(0.117407 -0.15899 0)
(0.154297 -0.165861 0)
(0.191212 -0.183812 0)
(0.234992 -0.195481 0)
(0.275942 -0.229339 0)
(0.320395 -0.250558 0)
(0.3671 -0.279657 0)
(0.387821 -0.333977 0)
(0.464413 -0.362814 0)
(0.431952 -0.293196 0)
(0.529825 -0.171182 0)
(0.650092 -0.25854 0)
(0.800187 -0.296035 0)
(0.899567 -0.249197 0)
(0.938085 -0.0908578 0)
(0.828243 0.121285 0)
(0.602338 0.402474 0)
(0.749844 0.724969 0)
(0.867718 1.20431 0)
(0.830632 1.54347 0)
(0.0165147 -0.216116 0)
(0.0492053 -0.220875 0)
(0.0826058 -0.229571 0)
(0.113461 -0.24008 0)
(0.145976 -0.252138 0)
(0.176217 -0.273944 0)
(0.204285 -0.289795 0)
(0.246754 -0.31129 0)
(0.257133 -0.320641 0)
(0.310918 -0.323563 0)
(0.353167 -0.303283 0)
(0.425235 -0.271697 0)
(0.492309 -0.330604 0)
(0.648946 -0.339958 0)
(0.760477 -0.367305 0)
(0.839559 -0.356626 0)
(0.86804 -0.28253 0)
(0.861732 -0.0887256 0)
(0.725582 0.244631 0)
(0.630366 0.407354 0)
(0.624003 0.692512 0)
(0.91739 1.00116 0)
(1.07356 1.20945 0)
(0.0123314 -0.297998 0)
(0.0368472 -0.30033 0)
(0.0629515 -0.302661 0)
(0.0872205 -0.302428 0)
(0.119512 -0.30021 0)
(0.148582 -0.289394 0)
(0.187786 -0.262522 0)
(0.239268 -0.253999 0)
(0.304198 -0.265501 0)
(0.377888 -0.344812 0)
(0.470603 -0.402844 0)
(0.533633 -0.427841 0)
(0.610225 -0.438021 0)
(0.704314 -0.395774 0)
(0.779633 -0.409177 0)
(0.812806 -0.380484 0)
(0.831333 -0.277337 0)
(0.783618 -0.0142185 0)
(0.670689 0.312652 0)
(0.640845 0.42793 0)
(0.652571 0.633424 0)
(0.824916 0.71906 0)
(1.23161 0.938588 0)
(0.0184995 -0.218737 0)
(0.0547284 -0.226595 0)
(0.0937586 -0.23529 0)
(0.134831 -0.259866 0)
(0.180542 -0.281152 0)
(0.231527 -0.321594 0)
(0.284606 -0.353084 0)
(0.343526 -0.384471 0)
(0.39892 -0.392358 0)
(0.451062 -0.420699 0)
(0.502969 -0.424021 0)
(0.542717 -0.428164 0)
(0.60335 -0.454884 0)
(0.677337 -0.452566 0)
(0.732835 -0.450043 0)
(0.767539 -0.398845 0)
(0.764673 -0.252887 0)
(0.659654 0.0297783 0)
(0.601796 0.318868 0)
(0.620454 0.405894 0)
(0.693143 0.520814 0)
(0.823785 0.512441 0)
(1.10565 0.651798 0)
(0.0222056 -0.322755 0)
(0.0657142 -0.324699 0)
(0.110164 -0.326415 0)
(0.152354 -0.333117 0)
(0.196573 -0.338362 0)
(0.242282 -0.347006 0)
(0.284629 -0.357654 0)
(0.331048 -0.374659 0)
(0.364303 -0.390391 0)
(0.406466 -0.437045 0)
(0.450322 -0.448689 0)
(0.482535 -0.485607 0)
(0.556038 -0.496107 0)
(0.628137 -0.505361 0)
(0.679528 -0.485008 0)
(0.695545 -0.406552 0)
(0.644586 -0.18751 0)
(0.520414 0.0814015 0)
(0.513901 0.294009 0)
(0.567545 0.340149 0)
(0.683206 0.424799 0)
(0.801044 0.367743 0)
(1.03272 0.397749 0)
(0.0194697 -0.306579 0)
(0.0587539 -0.311303 0)
(0.0976476 -0.318829 0)
(0.137662 -0.330574 0)
(0.174704 -0.344969 0)
(0.212765 -0.363167 0)
(0.245487 -0.384896 0)
(0.282419 -0.411707 0)
(0.316569 -0.433666 0)
(0.361244 -0.484963 0)
(0.405281 -0.499006 0)
(0.458787 -0.539825 0)
(0.554881 -0.530352 0)
(0.612387 -0.541688 0)
(0.637971 -0.499801 0)
(0.613073 -0.381799 0)
(0.495473 -0.114561 0)
(0.402825 0.094972 0)
(0.445826 0.227602 0)
(0.514228 0.257924 0)
(0.655368 0.279373 0)
(0.785952 0.208911 0)
(0.963047 0.195194 0)
(0.0181687 -0.373914 0)
(0.0542075 -0.377816 0)
(0.0894969 -0.384246 0)
(0.124683 -0.393328 0)
(0.159857 -0.406417 0)
(0.193947 -0.422163 0)
(0.229593 -0.442433 0)
(0.268367 -0.467378 0)
(0.303636 -0.492843 0)
(0.348331 -0.53163 0)
(0.390777 -0.546379 0)
(0.431272 -0.598244 0)
(0.519007 -0.587825 0)
(0.5536 -0.573658 0)
(0.562665 -0.499547 0)
(0.470076 -0.310598 0)
(0.34079 -0.0554582 0)
(0.320574 0.0762523 0)
(0.391546 0.147716 0)
(0.480821 0.150058 0)
(0.625495 0.124921 0)
(0.746457 0.0757497 0)
(0.878439 0.0552074 0)
(0.0157353 -0.396059 0)
(0.0472429 -0.39931 0)
(0.0794685 -0.405277 0)
(0.110902 -0.413625 0)
(0.143127 -0.426285 0)
(0.175187 -0.442039 0)
(0.2064 -0.462042 0)
(0.237705 -0.486061 0)
(0.264374 -0.513872 0)
(0.300032 -0.557174 0)
(0.330593 -0.583098 0)
(0.380249 -0.642968 0)
(0.462133 -0.617158 0)
(0.470126 -0.580693 0)
(0.426685 -0.455336 0)
(0.275441 -0.206129 0)
(0.227314 -0.0326832 0)
(0.262286 0.0248579 0)
(0.354881 0.0532229 0)
(0.459768 0.0312877 0)
(0.59286 -0.00428695 0)
(0.690482 -0.0386488 0)
(0.823501 -0.0842757 0)
(0.0146013 -0.429835 0)
(0.043989 -0.434329 0)
(0.0727361 -0.440166 0)
(0.102067 -0.449805 0)
(0.129773 -0.461207 0)
(0.157275 -0.477324 0)
(0.183319 -0.496395 0)
(0.209246 -0.519675 0)
(0.235252 -0.550505 0)
(0.261916 -0.588673 0)
(0.290935 -0.622395 0)
(0.329607 -0.672193 0)
(0.386897 -0.643592 0)
(0.36824 -0.567881 0)
(0.241576 -0.365273 0)
(0.138044 -0.163213 0)
(0.16399 -0.0744778 0)
(0.236542 -0.0576385 0)
(0.335426 -0.0539868 0)
(0.444747 -0.0840342 0)
(0.555168 -0.114859 0)
(0.64351 -0.152105 0)
(0.778909 -0.198584 0)
(0.0129496 -0.457411 0)
(0.0386009 -0.460891 0)
(0.064483 -0.466671 0)
(0.0897685 -0.474486 0)
(0.115516 -0.486783 0)
(0.139805 -0.500748 0)
(0.16359 -0.518575 0)
(0.183743 -0.539962 0)
(0.202766 -0.56618 0)
(0.217314 -0.600412 0)
(0.230316 -0.637167 0)
(0.231829 -0.688702 0)
(0.259579 -0.64689 0)
(0.171078 -0.500669 0)
(0.04719 -0.271968 0)
(0.0630959 -0.173214 0)
(0.126899 -0.144752 0)
(0.229059 -0.153104 0)
(0.320901 -0.159049 0)
(0.427459 -0.185558 0)
(0.514539 -0.211176 0)
(0.610704 -0.246624 0)
(0.712226 -0.271638 0)
(0.0115544 -0.476266 0)
(0.0346536 -0.479972 0)
(0.0574774 -0.485003 0)
(0.0808401 -0.492823 0)
(0.103667 -0.502012 0)
(0.125996 -0.514598 0)
(0.146501 -0.528533 0)
(0.162152 -0.545292 0)
(0.176072 -0.5691 0)
(0.164728 -0.602584 0)
(0.133098 -0.644011 0)
(0.0835858 -0.694511 0)
(0.0599823 -0.597509 0)
(-0.0441578 -0.403424 0)
(-0.0332192 -0.275211 0)
(0.0319644 -0.246097 0)
(0.130079 -0.241815 0)
(0.225813 -0.246209 0)
(0.308619 -0.252493 0)
(0.413661 -0.26704 0)
(0.477207 -0.287946 0)
(0.591412 -0.340174 0)
(0.638647 -0.444606 0)
(0.010947 -0.498521 0)
(0.0324602 -0.502525 0)
(0.0537112 -0.50927 0)
(0.0739682 -0.520117 0)
(0.0945904 -0.53616 0)
(0.114993 -0.557699 0)
(0.134453 -0.586743 0)
(0.147803 -0.623169 0)
(0.151251 -0.662744 0)
(0.0996429 -0.731324 0)
(-0.00448429 -0.747045 0)
(-0.122728 -0.735842 0)
(-0.130688 -0.554656 0)
(-0.121211 -0.399324 0)
(-0.0459327 -0.347688 0)
(0.0458642 -0.33215 0)
(0.137353 -0.325332 0)
(0.224168 -0.321021 0)
(0.302265 -0.342148 0)
(0.401137 -0.376977 0)
(0.4331 -0.463552 0)
(0.471056 -0.617151 0)
(0.377517 -0.905938 0)
(0.00974552 -0.619423 0)
(0.0280794 -0.626135 0)
(0.0451196 -0.637295 0)
(0.0594947 -0.654858 0)
(0.070898 -0.677738 0)
(0.0815886 -0.707963 0)
(0.0905539 -0.756332 0)
(0.0942245 -0.814344 0)
(0.0792256 -0.868695 0)
(-0.0292541 -0.93892 0)
(-0.181833 -0.867393 0)
(-0.270705 -0.773019 0)
(-0.188378 -0.666116 0)
(-0.125827 -0.556502 0)
(-0.00768524 -0.531684 0)
(0.0697233 -0.503089 0)
(0.144452 -0.493546 0)
(0.208273 -0.510257 0)
(0.256367 -0.56518 0)
(0.276242 -0.665343 0)
(0.261279 -0.839404 0)
(0.201906 -1.06443 0)
(0.175988 -1.30912 0)
(0.00563266 -0.866578 0)
(0.0137856 -0.878722 0)
(0.0213174 -0.900646 0)
(0.0272073 -0.934829 0)
(0.0283946 -0.985865 0)
(0.0203151 -1.05598 0)
(0.00606311 -0.976925 0)
(-0.0458619 -0.737345 0)
(-0.149168 -0.573339 0)
(-0.172689 -0.946714 0)
(-0.378594 -1.1637 0)
(-0.392698 -1.16597 0)
(-0.182741 -1.06387 0)
(-0.0289601 -0.89731 0)
(0.0357679 -0.854637 0)
(0.0706982 -0.801033 0)
(0.109261 -0.811961 0)
(0.126592 -0.882962 0)
(0.0949867 -1.06473 0)
(0.0809749 -1.14048 0)
(0.0632287 -1.39377 0)
(-0.426112 -0.424158 0)
(-0.449217 -0.39858 0)
(-0.0305616 -0.216297 0)
(-0.0981989 -0.194341 0)
(-0.175249 -0.150533 0)
(-0.269957 -0.132985 0)
(-0.373298 -0.193966 0)
(-0.465262 -0.38352 0)
(-0.495632 -0.64904 0)
(-0.451456 -0.830799 0)
(-0.395527 -0.805882 0)
(-0.25932 -0.872221 0)
(-0.108498 -1.41212 0)
(-0.132133 -1.81209 0)
(-0.0854901 -1.97051 0)
(0.0803594 -1.64442 0)
(0.0274135 -1.49225 0)
(0.046027 -1.40535 0)
(0.0338394 -1.42945 0)
(0.00459307 -1.51731 0)
(-0.238995 -0.981305 0)
(-0.472096 -0.567544 0)
(-0.287992 -0.578931 0)
(-0.169687 -0.302773 0)
(-0.446387 0.102811 0)
(-0.0203356 -0.833413 0)
(-0.0570023 -0.834119 0)
(-0.0815757 -0.827043 0)
(-0.0914664 -0.807399 0)
(-0.0912294 -0.771591 0)
(-0.074984 -0.712777 0)
(-0.056421 -0.627555 0)
(-0.0573582 -0.545892 0)
(-0.0791683 -0.477575 0)
(-0.0723356 -0.405225 0)
(-0.0314831 -0.507087 0)
(-0.152746 -0.796008 0)
(-0.270532 -0.798498 0)
(-0.362846 -0.703347 0)
(-0.381471 -0.652276 0)
(-0.357651 -0.642996 0)
(-0.295375 -0.666875 0)
(-0.165218 -0.666402 0)
(-0.0267856 -0.577392 0)
(-0.0223637 -0.395334 0)
(-0.219728 -0.0782318 0)
(-0.490688 0.105973 0)
(-0.576388 0.108821 0)
(-0.00578768 -0.233257 0)
(-0.0149829 -0.247184 0)
(-0.0239945 -0.261647 0)
(-0.0392294 -0.283451 0)
(-0.055287 -0.31178 0)
(-0.0718784 -0.349308 0)
(-0.0895262 -0.40071 0)
(-0.114509 -0.4542 0)
(-0.146267 -0.495705 0)
(-0.153859 -0.525613 0)
(-0.159209 -0.573728 0)
(-0.258218 -0.599131 0)
(-0.34137 -0.485426 0)
(-0.368072 -0.369615 0)
(-0.338479 -0.3122 0)
(-0.282593 -0.336596 0)
(-0.224146 -0.35547 0)
(-0.20124 -0.344932 0)
(-0.257093 -0.228887 0)
(-0.422488 -0.0813528 0)
(-0.580214 0.0180706 0)
(-0.595289 0.0641792 0)
(-0.572651 0.117167 0)
(-0.00569462 -0.445027 0)
(-0.0167012 -0.459362 0)
(-0.0267166 -0.467969 0)
(-0.0395187 -0.478377 0)
(-0.0524769 -0.489672 0)
(-0.0676624 -0.500434 0)
(-0.0867162 -0.510915 0)
(-0.113532 -0.520304 0)
(-0.145574 -0.522161 0)
(-0.168585 -0.518877 0)
(-0.211546 -0.534001 0)
(-0.278169 -0.5238 0)
(-0.336973 -0.4858 0)
(-0.3567 -0.44536 0)
(-0.366109 -0.445059 0)
(-0.381213 -0.468282 0)
(-0.417327 -0.473345 0)
(-0.496054 -0.405405 0)
(-0.581502 -0.236144 0)
(-0.620811 -0.0506656 0)
(-0.627789 0.033372 0)
(-0.605437 0.0683607 0)
(-0.566184 0.0952631 0)
(-0.00340646 -0.437631 0)
(-0.0111275 -0.448659 0)
(-0.0201046 -0.450402 0)
(-0.032164 -0.452987 0)
(-0.0470381 -0.457245 0)
(-0.0661829 -0.463182 0)
(-0.0903659 -0.469422 0)
(-0.120892 -0.47433 0)
(-0.154875 -0.475068 0)
(-0.190041 -0.473235 0)
(-0.239014 -0.477095 0)
(-0.291334 -0.483578 0)
(-0.338655 -0.473954 0)
(-0.364235 -0.452729 0)
(-0.391899 -0.446216 0)
(-0.432023 -0.445335 0)
(-0.498889 -0.416816 0)
(-0.581683 -0.328876 0)
(-0.630673 -0.166937 0)
(-0.634441 -0.0468862 0)
(-0.608893 0.000411745 0)
(-0.569346 0.0264865 0)
(-0.534196 0.0670678 0)
(-0.00529168 -0.386764 0)
(-0.0167586 -0.399446 0)
(-0.0292243 -0.403554 0)
(-0.0435901 -0.409131 0)
(-0.0604441 -0.415207 0)
(-0.0805647 -0.421239 0)
(-0.104759 -0.426562 0)
(-0.132414 -0.43026 0)
(-0.161848 -0.431633 0)
(-0.193827 -0.433083 0)
(-0.232517 -0.438983 0)
(-0.27994 -0.439837 0)
(-0.321548 -0.421155 0)
(-0.356714 -0.398071 0)
(-0.397737 -0.376768 0)
(-0.451498 -0.354026 0)
(-0.518437 -0.320293 0)
(-0.579166 -0.258573 0)
(-0.600415 -0.150312 0)
(-0.575882 -0.0698066 0)
(-0.542727 -0.0383755 0)
(-0.509953 -0.00802043 0)
(-0.481297 0.0324362 0)
(-0.00611396 -0.382525 0)
(-0.0192595 -0.393555 0)
(-0.0332387 -0.395629 0)
(-0.048728 -0.399131 0)
(-0.0660909 -0.402746 0)
(-0.0854816 -0.40602 0)
(-0.107095 -0.408552 0)
(-0.13051 -0.409889 0)
(-0.155092 -0.40976 0)
(-0.183168 -0.409408 0)
(-0.217984 -0.406605 0)
(-0.255097 -0.395229 0)
(-0.289844 -0.381214 0)
(-0.325619 -0.360087 0)
(-0.36082 -0.331279 0)
(-0.399366 -0.298731 0)
(-0.439544 -0.262911 0)
(-0.478799 -0.225889 0)
(-0.505755 -0.17785 0)
(-0.494292 -0.105059 0)
(-0.473518 -0.0516017 0)
(-0.459156 -0.0261519 0)
(-0.439159 0.0102739 0)
(-0.0070163 -0.366424 0)
(-0.0220308 -0.376647 0)
(-0.0373057 -0.37689 0)
(-0.0535865 -0.377683 0)
(-0.0711007 -0.378445 0)
(-0.0899829 -0.379011 0)
(-0.110227 -0.378915 0)
(-0.131693 -0.377554 0)
(-0.154543 -0.374847 0)
(-0.179749 -0.370712 0)
(-0.206895 -0.36392 0)
(-0.234713 -0.354563 0)
(-0.267183 -0.338165 0)
(-0.300205 -0.316518 0)
(-0.332131 -0.296438 0)
(-0.360227 -0.270295 0)
(-0.382814 -0.237049 0)
(-0.406702 -0.194779 0)
(-0.425491 -0.143423 0)
(-0.43421 -0.0990502 0)
(-0.432175 -0.0684015 0)
(-0.415864 -0.0368158 0)
(-0.414156 0.00474035 0)
(-0.0071685 -0.355731 0)
(-0.0223334 -0.365355 0)
(-0.0378249 -0.365319 0)
(-0.0538924 -0.365736 0)
(-0.0707344 -0.365904 0)
(-0.0884901 -0.365581 0)
(-0.107297 -0.364495 0)
(-0.127236 -0.362362 0)
(-0.148915 -0.359021 0)
(-0.17287 -0.353753 0)
(-0.198531 -0.344373 0)
(-0.225412 -0.329449 0)
(-0.252078 -0.314001 0)
(-0.2786 -0.296817 0)
(-0.305798 -0.273689 0)
(-0.332777 -0.246732 0)
(-0.355796 -0.216553 0)
(-0.372698 -0.187122 0)
(-0.380437 -0.151069 0)
(-0.387429 -0.105021 0)
(-0.387888 -0.0594751 0)
(-0.390043 -0.028041 0)
(-0.38843 -0.00228734 0)
(-0.00700023 -0.33778 0)
(-0.0217532 -0.34662 0)
(-0.0368232 -0.34587 0)
(-0.0524767 -0.345075 0)
(-0.0689395 -0.34384 0)
(-0.0864727 -0.34199 0)
(-0.105216 -0.339287 0)
(-0.12537 -0.33544 0)
(-0.146996 -0.330054 0)
(-0.169857 -0.322787 0)
(-0.193137 -0.313633 0)
(-0.215433 -0.302647 0)
(-0.236951 -0.288106 0)
(-0.258834 -0.269364 0)
(-0.278294 -0.246937 0)
(-0.295975 -0.221838 0)
(-0.315293 -0.193158 0)
(-0.336228 -0.156294 0)
(-0.355954 -0.117197 0)
(-0.360479 -0.0869591 0)
(-0.356896 -0.0667228 0)
(-0.355726 -0.037034 0)
(-0.35718 0.00259223 0)
(-0.0069383 -0.32726 0)
(-0.021468 -0.335871 0)
(-0.0362138 -0.334983 0)
(-0.0514167 -0.334055 0)
(-0.0671953 -0.332491 0)
(-0.0836607 -0.330127 0)
(-0.100924 -0.326731 0)
(-0.119073 -0.322129 0)
(-0.13817 -0.316154 0)
(-0.157971 -0.30827 0)
(-0.178059 -0.297698 0)
(-0.198592 -0.284094 0)
(-0.219581 -0.267764 0)
(-0.240317 -0.24955 0)
(-0.261699 -0.229771 0)
(-0.28136 -0.206528 0)
(-0.297778 -0.182251 0)
(-0.308011 -0.158454 0)
(-0.312988 -0.132079 0)
(-0.317373 -0.0974194 0)
(-0.323142 -0.0599266 0)
(-0.328755 -0.0289932 0)
(-0.32668 -0.00267935 0)
(-0.00674174 -0.309499 0)
(-0.0209746 -0.317317 0)
(-0.0353206 -0.31589 0)
(-0.0500323 -0.314075 0)
(-0.0651619 -0.311527 0)
(-0.0807751 -0.308133 0)
(-0.096898 -0.303765 0)
(-0.113543 -0.298228 0)
(-0.130701 -0.291246 0)
(-0.148376 -0.282615 0)
(-0.16651 -0.272334 0)
(-0.184771 -0.26051 0)
(-0.202594 -0.246848 0)
(-0.219581 -0.230209 0)
(-0.234869 -0.210151 0)
(-0.249098 -0.188408 0)
(-0.262342 -0.164061 0)
(-0.275675 -0.136583 0)
(-0.287591 -0.107963 0)
(-0.295012 -0.0827862 0)
(-0.297246 -0.0593962 0)
(-0.298185 -0.0326214 0)
(-0.29824 -0.00343176 0)
(-0.00649202 -0.299096 0)
(-0.0199906 -0.306788 0)
(-0.0336217 -0.305338 0)
(-0.0475145 -0.303499 0)
(-0.0617533 -0.300863 0)
(-0.0764192 -0.297322 0)
(-0.091569 -0.292714 0)
(-0.107218 -0.286868 0)
(-0.123276 -0.279573 0)
(-0.139504 -0.270581 0)
(-0.155655 -0.259675 0)
(-0.171638 -0.246674 0)
(-0.187501 -0.231638 0)
(-0.203087 -0.215139 0)
(-0.218062 -0.197262 0)
(-0.231751 -0.177324 0)
(-0.24381 -0.155919 0)
(-0.253335 -0.133168 0)
(-0.260279 -0.108867 0)
(-0.265389 -0.0825766 0)
(-0.269489 -0.0559525 0)
(-0.272367 -0.0306244 0)
(-0.27249 -0.00558441 0)
(-0.00613486 -0.284049 0)
(-0.0190011 -0.291179 0)
(-0.0319158 -0.289454 0)
(-0.0450413 -0.287161 0)
(-0.0584044 -0.28398 0)
(-0.0720393 -0.279843 0)
(-0.0859571 -0.274657 0)
(-0.10014 -0.268306 0)
(-0.114543 -0.26068 0)
(-0.129105 -0.251686 0)
(-0.143724 -0.241262 0)
(-0.158202 -0.229354 0)
(-0.172238 -0.215802 0)
(-0.185603 -0.200298 0)
(-0.198167 -0.182869 0)
(-0.20979 -0.163927 0)
(-0.22022 -0.143447 0)
(-0.229349 -0.121675 0)
(-0.236868 -0.0991156 0)
(-0.242261 -0.0764297 0)
(-0.245464 -0.0535638 0)
(-0.247605 -0.0302297 0)
(-0.248325 -0.00651511 0)
(-0.00580205 -0.273091 0)
(-0.0178743 -0.280018 0)
(-0.0299863 -0.278246 0)
(-0.0422484 -0.27586 0)
(-0.0546831 -0.272571 0)
(-0.0673135 -0.268311 0)
(-0.0801412 -0.262986 0)
(-0.093138 -0.256491 0)
(-0.10624 -0.248716 0)
(-0.119354 -0.23956 0)
(-0.13237 -0.228949 0)
(-0.145183 -0.216831 0)
(-0.157679 -0.203231 0)
(-0.169676 -0.188254 0)
(-0.180931 -0.171923 0)
(-0.191234 -0.154206 0)
(-0.200394 -0.135254 0)
(-0.208214 -0.115204 0)
(-0.214594 -0.0942327 0)
(-0.219418 -0.0725643 0)
(-0.222659 -0.0507008 0)
(-0.224863 -0.0289628 0)
(-0.225837 -0.00707655 0)
(-0.00539249 -0.261029 0)
(-0.0166341 -0.267613 0)
(-0.027887 -0.26574 0)
(-0.0392473 -0.263176 0)
(-0.0507242 -0.259674 0)
(-0.0623281 -0.255191 0)
(-0.0740506 -0.249666 0)
(-0.0858628 -0.243033 0)
(-0.0977145 -0.23523 0)
(-0.109534 -0.226205 0)
(-0.121227 -0.215909 0)
(-0.132673 -0.204309 0)
(-0.14373 -0.19137 0)
(-0.154264 -0.177072 0)
(-0.164142 -0.161469 0)
(-0.173207 -0.144673 0)
(-0.181304 -0.126792 0)
(-0.188303 -0.107995 0)
(-0.194095 -0.088474 0)
(-0.198527 -0.0684362 0)
(-0.201522 -0.0481192 0)
(-0.203562 -0.0277383 0)
(-0.204696 -0.0072254 0)
(-0.00498825 -0.250694 0)
(-0.0153572 -0.257057 0)
(-0.0257227 -0.255152 0)
(-0.0361626 -0.252512 0)
(-0.0466767 -0.248927 0)
(-0.0572649 -0.24436 0)
(-0.0679135 -0.238764 0)
(-0.0785921 -0.232088 0)
(-0.0892538 -0.224284 0)
(-0.0998353 -0.215311 0)
(-0.110258 -0.205141 0)
(-0.12043 -0.19376 0)
(-0.130245 -0.181178 0)
(-0.139581 -0.167428 0)
(-0.14831 -0.152556 0)
(-0.156306 -0.136625 0)
(-0.163448 -0.119741 0)
(-0.169637 -0.102033 0)
(-0.174799 -0.0836533 0)
(-0.178836 -0.06477 0)
(-0.181655 -0.0456149 0)
(-0.183575 -0.0264066 0)
(-0.184773 -0.00710773 0)
(-0.00455788 -0.240826 0)
(-0.0140256 -0.246961 0)
(-0.0234797 -0.245031 0)
(-0.0329829 -0.242325 0)
(-0.0425302 -0.23867 0)
(-0.052116 -0.234042 0)
(-0.0617239 -0.228409 0)
(-0.0713247 -0.221738 0)
(-0.0808759 -0.214001 0)
(-0.0903214 -0.205174 0)
(-0.0995922 -0.19524 0)
(-0.108607 -0.184196 0)
(-0.117277 -0.17205 0)
(-0.125504 -0.158831 0)
(-0.133189 -0.144591 0)
(-0.140232 -0.129404 0)
(-0.146538 -0.113366 0)
(-0.152024 -0.096596 0)
(-0.156633 -0.0792258 0)
(-0.160291 -0.0613945 0)
(-0.162911 -0.0432782 0)
(-0.164703 -0.0250745 0)
(-0.165906 -0.0068044 0)
(-0.00412249 -0.231993 0)
(-0.012672 -0.237944 0)
(-0.0212024 -0.236009 0)
(-0.0297644 -0.233269 0)
(-0.0383497 -0.229582 0)
(-0.0469485 -0.224933 0)
(-0.055543 -0.2193 0)
(-0.0641055 -0.212663 0)
(-0.0725976 -0.205005 0)
(-0.0809706 -0.196313 0)
(-0.0891658 -0.186582 0)
(-0.0971157 -0.17582 0)
(-0.104746 -0.164046 0)
(-0.111975 -0.151294 0)
(-0.118723 -0.137617 0)
(-0.124909 -0.123081 0)
(-0.130457 -0.107774 0)
(-0.135303 -0.0918017 0)
(-0.139401 -0.075279 0)
(-0.1427 -0.0583284 0)
(-0.145121 -0.0410964 0)
(-0.146793 -0.0237581 0)
(-0.147971 -0.00636865 0)
(-0.00367836 -0.224007 0)
(-0.0112981 -0.229792 0)
(-0.0188993 -0.227862 0)
(-0.0265197 -0.2251 0)
(-0.0341513 -0.221398 0)
(-0.0417813 -0.216748 0)
(-0.0493918 -0.211137 0)
(-0.0569569 -0.204555 0)
(-0.064442 -0.196994 0)
(-0.0718045 -0.188451 0)
(-0.0789944 -0.17893 0)
(-0.0859546 -0.168444 0)
(-0.0926233 -0.157017 0)
(-0.0989357 -0.144685 0)
(-0.104826 -0.1315 0)
(-0.110229 -0.117528 0)
(-0.115087 -0.102848 0)
(-0.119347 -0.087556 0)
(-0.122973 -0.0717552 0)
(-0.125928 -0.0555542 0)
(-0.12815 -0.0390772 0)
(-0.129709 -0.0224791 0)
(-0.130842 -0.00583878 0)
(-0.00322848 -0.216954 0)
(-0.00990871 -0.222594 0)
(-0.0165823 -0.220673 0)
(-0.023264 -0.217898 0)
(-0.0299523 -0.214194 0)
(-0.0366311 -0.209555 0)
(-0.0432835 -0.203976 0)
(-0.0498856 -0.197456 0)
(-0.0564068 -0.189993 0)
(-0.0628099 -0.181592 0)
(-0.0690523 -0.172264 0)
(-0.0750863 -0.162025 0)
(-0.0808609 -0.150905 0)
(-0.0863231 -0.13894 0)
(-0.0914203 -0.126182 0)
(-0.0961018 -0.112692 0)
(-0.100321 -0.0985454 0)
(-0.104036 -0.0838275 0)
(-0.10722 -0.068633 0)
(-0.109847 -0.0530604 0)
(-0.111871 -0.0372186 0)
(-0.113323 -0.0212446 0)
(-0.114408 -0.00523389 0)
(-0.00276992 -0.21083 0)
(-0.00849765 -0.216329 0)
(-0.0142535 -0.214421 0)
(-0.0200006 -0.211634 0)
(-0.0257557 -0.20793 0)
(-0.0314988 -0.203307 0)
(-0.0372155 -0.197763 0)
(-0.0428852 -0.191304 0)
(-0.0484804 -0.183936 0)
(-0.0539687 -0.175668 0)
(-0.0593137 -0.166514 0)
(-0.0644751 -0.156497 0)
(-0.0694106 -0.145646 0)
(-0.0740778 -0.133998 0)
(-0.0784348 -0.121603 0)
(-0.082442 -0.108521 0)
(-0.0860634 -0.0948208 0)
(-0.0892677 -0.0805822 0)
(-0.0920328 -0.0658907 0)
(-0.0943431 -0.050837 0)
(-0.096169 -0.0355195 0)
(-0.0975197 -0.0200608 0)
(-0.0985609 -0.00456731 0)
(-0.00229524 -0.20564 0)
(-0.00705948 -0.21098 0)
(-0.0119141 -0.209087 0)
(-0.0167301 -0.206292 0)
(-0.0215565 -0.202593 0)
(-0.0263705 -0.197987 0)
(-0.0311625 -0.192478 0)
(-0.0359189 -0.186078 0)
(-0.0406159 -0.178796 0)
(-0.0452258 -0.170645 0)
(-0.0497175 -0.161645 0)
(-0.0540555 -0.151819 0)
(-0.0582032 -0.141198 0)
(-0.0621253 -0.129817 0)
(-0.0657892 -0.117725 0)
(-0.0691648 -0.104979 0)
(-0.0722244 -0.091646 0)
(-0.074944 -0.0777987 0)
(-0.0773081 -0.0635146 0)
(-0.0793093 -0.0488776 0)
(-0.0809348 -0.033978 0)
(-0.0821876 -0.0189271 0)
(-0.0831926 -0.00384026 0)
(-0.00179479 -0.201417 0)
(-0.00560185 -0.206528 0)
(-0.00959674 -0.204661 0)
(-0.0134933 -0.20187 0)
(-0.0173872 -0.198187 0)
(-0.0212628 -0.19361 0)
(-0.0251005 -0.188141 0)
(-0.0289115 -0.181792 0)
(-0.0326883 -0.174573 0)
(-0.0364187 -0.166503 0)
(-0.0400806 -0.157612 0)
(-0.0436409 -0.147931 0)
(-0.0470614 -0.13749 0)
(-0.0503059 -0.126327 0)
(-0.0533418 -0.114484 0)
(-0.0561427 -0.102016 0)
(-0.058688 -0.0889862 0)
(-0.0609584 -0.0754595 0)
(-0.062942 -0.0615 0)
(-0.0646412 -0.0471846 0)
(-0.0660603 -0.0325982 0)
(-0.0672135 -0.0178465 0)
(-0.0681966 -0.00305906 0)
(-0.00127076 -0.198393 0)
(-0.0042032 -0.203171 0)
(-0.00746682 -0.201351 0)
(-0.0105164 -0.198582 0)
(-0.0135179 -0.194919 0)
(-0.0164698 -0.190378 0)
(-0.0192257 -0.184866 0)
(-0.0219025 -0.178465 0)
(-0.0245425 -0.171205 0)
(-0.027182 -0.163119 0)
(-0.029848 -0.154241 0)
(-0.03255 -0.144607 0)
(-0.0352751 -0.134257 0)
(-0.037979 -0.12324 0)
(-0.040593 -0.111609 0)
(-0.0430231 -0.099403 0)
(-0.0451693 -0.0866535 0)
(-0.0470858 -0.0734191 0)
(-0.0487656 -0.0597577 0)
(-0.050206 -0.0457265 0)
(-0.0514269 -0.0313819 0)
(-0.0524863 -0.0167899 0)
(-0.0534489 -0.0021025 0)
(-0.000820804 -0.196326 0)