/*--------------------------------*- C++ -*----------------------------------*\
| =========                 |                                                 |
| \\      /  F ield         | OpenFOAM: The Open Source CFD Toolbox           |
|  \\    /   O peration     | Version:  2.4.0                                 |
|   \\  /    A nd           | Web:      www.OpenFOAM.org                      |
|    \\/     M anipulation  |                                                 |
\*---------------------------------------------------------------------------*/
FoamFile
{
    version     2.0;
    format      ascii;
    class       volVectorField;
    location    "0.2";
    object      U.water;
}
// * * * * * * * * * * * * * * * * * * * * * * * * * * * * * * * * * * * * * //

dimensions      [0 1 -1 0 0 0 0];

internalField   nonuniform List<vector> 
2268
(
(0.0178452 -0.00843079 0)
(0.053662 -0.00851942 0)
(0.0903348 -0.00868662 0)
(0.126779 -0.00896534 0)
(0.167866 -0.00923574 0)
(0.202285 -0.00974931 0)
(0.254146 -0.00991871 0)
(0.286006 -0.0123427 0)
(0.348863 -0.0091663 0)
(0.383497 -0.0143497 0)
(0.442861 -0.0165405 0)
(0.527875 -0.0143947 0)
(0.588766 -0.0128634 0)
(0.627159 -0.013221 0)
(0.688095 -0.01478 0)
(0.753037 -0.0196737 0)
(0.848565 -0.0155311 0)
(0.899376 -0.0186129 0)
(0.952669 -0.00228092 0)
(0.929937 0.0166609 0)
(0.845943 0.0511918 0)
(0.570277 0.119818 0)
(0.255598 0.0315765 0)
(0.0178121 -0.0252855 0)
(0.053572 -0.0255605 0)
(0.0901787 -0.0260623 0)
(0.126593 -0.0269228 0)
(0.167628 -0.0275715 0)
(0.20177 -0.0298639 0)
(0.254041 -0.028087 0)
(0.286481 -0.0396936 0)
(0.346342 -0.0258463 0)
(0.383943 -0.0406127 0)
(0.445644 -0.0517099 0)
(0.528915 -0.0463053 0)
(0.582014 -0.038413 0)
(0.619763 -0.0395435 0)
(0.68696 -0.044964 0)
(0.770595 -0.0512115 0)
(0.868007 -0.0463861 0)
(0.935912 -0.0305213 0)
(0.983627 0.00389004 0)
(0.96075 0.0338533 0)
(0.875814 0.114803 0)
(0.602948 0.198915 0)
(0.304207 0.301359 0)
(0.0177282 -0.0420794 0)
(0.0533282 -0.0425373 0)
(0.0897544 -0.0433794 0)
(0.126095 -0.0448115 0)
(0.166836 -0.0459247 0)
(0.200841 -0.0492674 0)
(0.253204 -0.0488423 0)
(0.284813 -0.061292 0)
(0.34405 -0.0466282 0)
(0.384291 -0.0696385 0)
(0.446673 -0.0853494 0)
(0.525142 -0.071867 0)
(0.573895 -0.0598745 0)
(0.619026 -0.066342 0)
(0.696701 -0.0739515 0)
(0.790686 -0.0731912 0)
(0.893717 -0.0481704 0)
(0.954535 0.00736198 0)
(0.995684 0.0621244 0)
(0.976182 0.152641 0)
(0.92501 0.314108 0)
(0.647675 0.423975 0)
(0.338746 0.485292 0)
(0.0176028 -0.0587799 0)
(0.0529633 -0.0594223 0)
(0.0891198 -0.0606202 0)
(0.125385 -0.0626049 0)
(0.165519 -0.0641331 0)
(0.199948 -0.068934 0)
(0.251096 -0.0681976 0)
(0.282696 -0.0842465 0)
(0.341271 -0.0679078 0)
(0.383957 -0.0951369 0)
(0.444359 -0.118393 0)
(0.51496 -0.101393 0)
(0.566005 -0.0803117 0)
(0.635424 -0.0784667 0)
(0.739838 -0.0404583 0)
(0.853598 0.0409106 0)
(0.936439 0.0571129 0)
(0.978791 0.0884327 0)
(1.01013 0.17183 0)
(0.914205 0.277275 0)
(0.818163 0.52256 0)
(0.621843 0.598836 0)
(0.360426 0.718022 0)
(0.0174332 -0.0753672 0)
(0.0524645 -0.0761947 0)
(0.0882695 -0.0777731 0)
(0.124399 -0.0802688 0)
(0.163829 -0.0823413 0)
(0.19856 -0.0881433 0)
(0.248621 -0.0884908 0)
(0.278952 -0.104865 0)
(0.337753 -0.0903587 0)
(0.383393 -0.12438 0)
(0.437918 -0.141691 0)
(0.502254 -0.109954 0)
(0.574922 -0.0796236 0)
(0.703909 0.022886 0)
(0.795357 0.0137544 0)
(0.866036 -0.0141009 0)
(0.907271 -0.0237961 0)
(0.934822 -0.00543938 0)
(0.910457 0.0708576 0)
(0.788023 0.310052 0)
(0.676374 0.595322 0)
(0.413213 0.919009 0)
(0.348069 0.889099 0)
(0.0172128 -0.0916864 0)
(0.0518075 -0.0927075 0)
(0.0871742 -0.0947027 0)
(0.123074 -0.0977017 0)
(0.161684 -0.100328 0)
(0.196706 -0.107406 0)
(0.245458 -0.107884 0)
(0.274445 -0.125035 0)
(0.336413 -0.115347 0)
(0.375509 -0.134966 0)
(0.439762 -0.13865 0)
(0.512574 -0.0527283 0)
(0.62268 0.00365222 0)
(0.740958 -0.0101268 0)
(0.806106 -0.0475164 0)
(0.832404 -0.0630684 0)
(0.850439 -0.050007 0)
(0.920558 -0.0410479 0)
(0.919557 -0.0121283 0)
(0.867801 0.0565528 0)
(0.538602 0.4912 0)
(0.228962 0.993888 0)
(0.307531 1.16863 0)
(0.0169316 -0.107527 0)
(0.0509601 -0.108742 0)
(0.0858055 -0.111157 0)
(0.121327 -0.114565 0)
(0.159099 -0.117623 0)
(0.194411 -0.125612 0)
(0.241763 -0.125811 0)
(0.270466 -0.142973 0)
(0.335353 -0.117583 0)
(0.382965 -0.107065 0)
(0.473274 -0.0187258 0)
(0.525982 -0.0317392 0)
(0.64503 -0.0651 0)
(0.736643 -0.0852001 0)
(0.74801 -0.0764724 0)
(0.785292 -0.118276 0)
(0.892262 -0.267348 0)
(0.972001 -0.255382 0)
(1.01472 -0.148259 0)
(0.958108 0.00526844 0)
(0.708125 0.330687 0)
(0.200952 0.949398 0)
(0.333047 1.35297 0)
(0.0166264 -0.104141 0)
(0.0500287 -0.105457 0)
(0.0843851 -0.108128 0)
(0.119469 -0.111672 0)
(0.156676 -0.114958 0)
(0.192446 -0.124002 0)
(0.238713 -0.123238 0)
(0.270845 -0.140846 0)
(0.351974 -0.0642535 0)
(0.404728 -0.024711 0)
(0.461662 -0.0597044 0)
(0.529186 -0.101704 0)
(0.630954 -0.136827 0)
(0.658329 -0.117787 0)
(0.661114 -0.187988 0)
(0.77078 -0.323615 0)
(0.913638 -0.316203 0)
(0.96236 -0.211498 0)
(0.965527 -0.0621753 0)
(0.873018 0.111517 0)
(0.861402 0.407045 0)
(0.270742 0.956592 0)
(0.353069 1.48624 0)
(-1.47185 -0.748905 0)
(-1.37368 -0.533403 0)
(-1.59176 -0.154901 0)
(-1.8241 -0.0323985 0)
(-1.87665 -0.151953 0)
(-1.22014 -0.339658 0)
(-0.420692 -0.303222 0)
(0.163777 -0.222314 0)
(0.672653 -0.203031 0)
(1.04154 -0.177587 0)
(1.33333 -0.149129 0)
(1.58203 -0.139655 0)
(1.82216 -0.150325 0)
(2.0914 -0.155185 0)
(2.31762 -0.186867 0)
(2.48562 -0.164372 0)
(2.4202 -0.11797 0)
(1.90887 0.0385375 0)
(1.57128 0.0939013 0)
(-1.17083 -0.127236 0)
(-0.973387 0.0280653 0)
(-0.970894 -0.0391347 0)
(-1.0128 0.0798233 0)
(-1.08243 0.0779306 0)
(-0.614795 -0.34656 0)
(-0.125659 -0.392103 0)
(0.427937 -0.287753 0)
(0.845298 -0.190262 0)
(1.15493 -0.124737 0)
(1.439 -0.0962996 0)
(1.70719 -0.0981329 0)
(1.94896 -0.111461 0)
(2.14463 -0.103775 0)
(2.28812 -0.075743 0)
(2.36959 -0.00860839 0)
(2.37242 0.183284 0)
(1.93066 0.53018 0)
(1.6142 1.02867 0)
(-0.733385 0.790889 0)
(-1.18281 -0.0153537 0)
(-0.985396 -0.291586 0)
(-0.457638 -0.493631 0)
(-0.545034 -0.382711 0)
(-0.084617 -0.709096 0)
(0.255882 -0.705262 0)
(0.615261 -0.592677 0)
(1.00114 -0.462247 0)
(1.31363 -0.371698 0)
(1.58335 -0.322645 0)
(1.82368 -0.309107 0)
(2.05167 -0.281813 0)
(2.23152 -0.224039 0)
(2.33397 -0.145333 0)
(2.37222 -0.026397 0)
(2.40929 0.12904 0)
(2.01128 0.452538 0)
(1.67035 1.51841 0)
(-0.730606 1.21492 0)
(-1.65925 0.716246 0)
(-2.26135 -0.228392 0)
(-0.355011 -0.586727 0)
(0.227291 -0.831784 0)
(0.404967 -0.944694 0)
(0.529932 -0.782884 0)
(0.858009 -0.64747 0)
(1.17761 -0.514456 0)
(1.45275 -0.418824 0)
(1.68242 -0.365542 0)
(1.89926 -0.34738 0)
(2.09611 -0.31389 0)
(2.23529 -0.244286 0)
(2.32147 -0.115089 0)
(2.34616 -0.046674 0)
(2.39783 -0.00136841 0)
(2.21589 0.295152 0)
(1.83298 2.09319 0)
(-0.540511 1.73099 0)
(-0.792865 1.19414 0)
(-0.334549 0.0781379 0)
(0.0935248 -0.6153 0)
(0.75458 -0.983739 0)
(0.657023 -1.08208 0)
(0.766927 -0.967142 0)
(1.03643 -0.829167 0)
(1.28089 -0.677746 0)
(1.5092 -0.564606 0)
(1.72678 -0.502596 0)
(1.93509 -0.455871 0)
(2.10271 -0.378568 0)
(2.21267 -0.258699 0)
(2.23524 -0.237844 0)
(2.27347 -0.283574 0)
(2.50484 -0.392443 0)
(2.37121 0.397704 0)
(2.4902 2.39504 0)
(-0.33394 1.96363 0)
(0.226371 1.13677 0)
(0.375613 -0.0635759 0)
(0.917423 -0.666204 0)
(0.987429 -1.15844 0)
(0.92668 -1.11383 0)
(1.01424 -1.01473 0)
(1.21463 -0.864163 0)
(1.39021 -0.718905 0)
(1.59548 -0.607284 0)
(1.79261 -0.5475 0)
(1.95596 -0.498477 0)
(2.09111 -0.398769 0)
(2.12319 -0.381386 0)
(2.15661 -0.445818 0)
(2.32617 -0.598787 0)
(2.61917 -0.0113436 0)
(0.827142 1.293 0)
(4.03485 2.96494 0)
(-0.217624 1.88185 0)
(0.80599 0.850862 0)
(1.0098 -0.384071 0)
(1.11069 -0.684295 0)
(1.17862 -1.1135 0)
(1.11157 -1.18778 0)
(1.18126 -1.12332 0)
(1.30864 -0.984273 0)
(1.42965 -0.822217 0)
(1.60893 -0.715227 0)
(1.78136 -0.636522 0)
(1.92243 -0.567058 0)
(1.98897 -0.542103 0)
(2.02167 -0.608551 0)
(2.15092 -0.759038 0)
(2.33746 -0.276081 0)
(2.44853 0.502716 0)
(0.0650798 1.39149 0)
(6.40212 4.44368 0)
(0.290538 1.56123 0)
(1.15306 1.13507 0)
(1.18303 -0.4437 0)
(1.28109 -0.7522 0)
(1.30517 -1.21482 0)
(1.27032 -1.2049 0)
(1.32734 -1.14333 0)
(1.40546 -1.00286 0)
(1.48929 -0.85278 0)
(1.64059 -0.763355 0)
(1.80373 -0.677869 0)
(1.86784 -0.666895 0)
(1.90132 -0.729089 0)
(2.01008 -0.888262 0)
(2.44615 -0.596773 0)
(2.18648 -0.0185239 0)
(2.3673 0.774486 0)
(0.0477242 1.60321 0)
(5.5573 5.57439 0)
(0.0180747 0.021142 0)
(0.0544056 0.0195375 0)
(0.0922296 0.0158166 0)
(0.130615 0.00998894 0)
(0.172066 0.00139578 0)
(0.214533 -0.0188817 0)
(0.263683 -0.0315422 0)
(0.309469 -0.0654194 0)
(0.353821 -0.0852439 0)
(0.40385 -0.112866 0)
(0.424553 -0.156033 0)
(0.496726 -0.174403 0)
(0.491348 -0.124593 0)
(0.522042 -0.195768 0)
(0.639735 -0.342606 0)
(0.770269 -0.385208 0)
(0.854592 -0.339828 0)
(0.877437 -0.209968 0)
(0.826503 -0.0544078 0)
(0.751486 0.143681 0)
(0.857449 0.438779 0)
(0.612384 0.998941 0)
(0.637595 1.48563 0)
(0.018479 -0.0572905 0)
(0.0548389 -0.0618717 0)
(0.0911897 -0.0700608 0)
(0.123963 -0.0797447 0)
(0.158282 -0.0908066 0)
(0.193533 -0.109063 0)
(0.226026 -0.121895 0)
(0.271524 -0.13888 0)
(0.288328 -0.141147 0)
(0.341943 -0.134959 0)
(0.382732 -0.164615 0)
(0.440972 -0.213073 0)
(0.495835 -0.335998 0)
(0.627676 -0.418454 0)
(0.730427 -0.450835 0)
(0.802353 -0.440918 0)
(0.829782 -0.375334 0)
(0.820133 -0.213206 0)
(0.757055 0.0231923 0)
(0.735881 0.172414 0)
(0.695506 0.498195 0)
(0.826707 1.03389 0)
(0.851661 1.31245 0)
(0.0137797 -0.12463 0)
(0.0413471 -0.125691 0)
(0.0706548 -0.125728 0)
(0.0990495 -0.123164 0)
(0.135123 -0.121091 0)
(0.167196 -0.121913 0)
(0.20395 -0.13423 0)
(0.25165 -0.173505 0)
(0.312399 -0.2244 0)
(0.381616 -0.3305 0)
(0.471039 -0.401038 0)
(0.532433 -0.429954 0)
(0.605249 -0.455853 0)
(0.679203 -0.476817 0)
(0.745761 -0.489919 0)
(0.778548 -0.464912 0)
(0.792172 -0.374193 0)
(0.758733 -0.151514 0)
(0.704607 0.0885698 0)
(0.710201 0.209928 0)
(0.694298 0.459368 0)
(0.812531 0.800899 0)
(1.04797 1.13367 0)
(0.0188316 -0.189888 0)
(0.0556988 -0.200281 0)
(0.0951588 -0.213587 0)
(0.136324 -0.244348 0)
(0.181703 -0.271583 0)
(0.232155 -0.31744 0)
(0.284746 -0.351991 0)
(0.343516 -0.384339 0)
(0.398917 -0.392334 0)
(0.451055 -0.420693 0)
(0.502752 -0.424085 0)
(0.541683 -0.432294 0)
(0.595763 -0.482113 0)
(0.648865 -0.529633 0)
(0.698276 -0.529654 0)
(0.729402 -0.484022 0)
(0.725506 -0.35436 0)
(0.656711 -0.115041 0)
(0.62984 0.10008 0)
(0.667378 0.198656 0)
(0.703283 0.401056 0)
(0.816648 0.54856 0)
(1.07665 0.846203 0)
(0.0222055 -0.322756 0)
(0.0657137 -0.324699 0)
(0.110163 -0.326415 0)
(0.152353 -0.333117 0)
(0.196572 -0.338362 0)
(0.242281 -0.347006 0)
(0.284628 -0.357654 0)
(0.331047 -0.374658 0)
(0.364302 -0.390389 0)
(0.406455 -0.437043 0)
(0.449901 -0.448803 0)
(0.480317 -0.492118 0)
(0.535384 -0.552924 0)
(0.594238 -0.58273 0)
(0.6407 -0.565695 0)
(0.654704 -0.495711 0)
(0.614687 -0.30529 0)
(0.536058 -0.0811958 0)
(0.541613 0.084801 0)
(0.604562 0.165058 0)
(0.681924 0.376839 0)
(0.800297 0.370245 0)
(1.03455 0.449745 0)
(0.0194696 -0.30658 0)
(0.0587535 -0.311303 0)
(0.0976471 -0.31883 0)
(0.137662 -0.330574 0)
(0.174703 -0.344969 0)
(0.212764 -0.363167 0)
(0.245486 -0.384896 0)
(0.282418 -0.411706 0)
(0.316568 -0.433665 0)
(0.361227 -0.484961 0)
(0.404626 -0.499161 0)
(0.455141 -0.549396 0)
(0.525087 -0.606455 0)
(0.578208 -0.618443 0)
(0.600757 -0.582972 0)
(0.579811 -0.479942 0)
(0.490225 -0.254716 0)
(0.431962 -0.0830391 0)
(0.468342 0.031945 0)
(0.53405 0.177333 0)
(0.655833 0.27806 0)
(0.786165 0.209164 0)
(0.963065 0.195263 0)
(0.0181686 -0.373915 0)
(0.0542073 -0.377817 0)
(0.0894965 -0.384247 0)
(0.124683 -0.393329 0)
(0.159857 -0.406417 0)
(0.193946 -0.422163 0)
(0.229592 -0.442433 0)
(0.268366 -0.467377 0)
(0.303636 -0.492842 0)
(0.348314 -0.531628 0)
(0.389994 -0.546552 0)
(0.425098 -0.611865 0)
(0.484835 -0.660697 0)
(0.518128 -0.651466 0)
(0.525757 -0.589633 0)
(0.45624 -0.42769 0)
(0.360793 -0.21825 0)
(0.347128 -0.10358 0)
(0.400609 0.0273529 0)
(0.481386 0.14419 0)
(0.625491 0.124879 0)
(0.746442 0.0757401 0)
(0.878425 0.0552079 0)
(0.0157352 -0.39606 0)
(0.0472427 -0.399311 0)
(0.0794683 -0.405277 0)
(0.110902 -0.413626 0)
(0.143126 -0.426285 0)
(0.175187 -0.442039 0)
(0.2064 -0.462041 0)
(0.237705 -0.48606 0)
(0.264374 -0.51387 0)
(0.300014 -0.557172 0)
(0.329633 -0.583525 0)
(0.369642 -0.664868 0)
(0.427329 -0.685186 0)
(0.435735 -0.66141 0)
(0.400158 -0.556192 0)
(0.282905 -0.342128 0)
(0.243966 -0.199112 0)
(0.274326 -0.1195 0)
(0.354805 0.0403804 0)
(0.459697 0.0311616 0)
(0.592854 -0.00428865 0)
(0.690476 -0.0386476 0)
(0.823495 -0.0842709 0)
(0.0146012 -0.429835 0)
(0.0439888 -0.434329 0)
(0.0727359 -0.440166 0)
(0.102067 -0.449805 0)
(0.129773 -0.461207 0)
(0.157275 -0.477323 0)
(0.18332 -0.496394 0)
(0.209247 -0.519674 0)
(0.235253 -0.550504 0)
(0.261811 -0.588689 0)
(0.289351 -0.624226 0)
(0.332913 -0.716132 0)
(0.364784 -0.716714 0)
(0.351826 -0.661785 0)
(0.252167 -0.492458 0)
(0.164695 -0.316335 0)
(0.181532 -0.229798 0)
(0.238555 -0.0818807 0)
(0.335252 -0.0544084 0)
(0.444744 -0.0840374 0)
(0.555165 -0.114859 0)
(0.643507 -0.152102 0)
(0.778907 -0.198579 0)
(0.0129495 -0.457409 0)
(0.0386007 -0.460889 0)
(0.0644829 -0.46667 0)
(0.0897685 -0.474484 0)
(0.115516 -0.486781 0)
(0.139806 -0.500746 0)
(0.16359 -0.518572 0)
(0.183744 -0.539959 0)
(0.202762 -0.56618 0)
(0.216714 -0.601261 0)
(0.235207 -0.653187 0)
(0.251986 -0.750167 0)
(0.254179 -0.733748 0)
(0.180282 -0.61535 0)
(0.0656884 -0.39957 0)
(0.0757067 -0.307161 0)
(0.134046 -0.181153 0)
(0.228885 -0.154104 0)
(0.320892 -0.159067 0)
(0.427456 -0.185559 0)
(0.514537 -0.211176 0)
(0.610703 -0.246623 0)
(0.712227 -0.271633 0)
(0.0115543 -0.476263 0)
(0.0346535 -0.479968 0)
(0.0574774 -0.485 0)
(0.0808403 -0.49282 0)
(0.103667 -0.502009 0)
(0.125997 -0.514595 0)
(0.146501 -0.528531 0)
(0.162152 -0.545292 0)
(0.175931 -0.56921 0)
(0.165548 -0.602194 0)
(0.171932 -0.666016 0)
(0.108026 -0.763347 0)
(0.0857245 -0.704219 0)
(-0.0259531 -0.521404 0)
(-0.0112734 -0.396445 0)
(0.0459283 -0.304097 0)
(0.130283 -0.244643 0)
(0.225777 -0.246304 0)
(0.308615 -0.252502 0)
(0.41366 -0.267041 0)
(0.477208 -0.287942 0)
(0.591451 -0.340064 0)
(0.639086 -0.443313 0)
(0.0109469 -0.498538 0)
(0.0324597 -0.502546 0)
(0.0537098 -0.509297 0)
(0.0739644 -0.520158 0)
(0.0945795 -0.536229 0)
(0.114965 -0.557831 0)
(0.134397 -0.587015 0)
(0.147721 -0.623739 0)
(0.151408 -0.663485 0)
(0.123395 -0.709941 0)
(0.0651268 -0.773574 0)
(-0.0984638 -0.841089 0)
(-0.115357 -0.660536 0)
(-0.0974974 -0.497519 0)
(-0.0284329 -0.439517 0)
(0.0465861 -0.337945 0)
(0.137306 -0.326116 0)
(0.224164 -0.321029 0)
(0.302282 -0.342084 0)
(0.401229 -0.376619 0)
(0.433505 -0.461875 0)
(0.472996 -0.611397 0)
(0.383639 -0.881973 0)
(0.00974775 -0.621104 0)
(0.0280858 -0.627963 0)
(0.0451309 -0.639446 0)
(0.0595004 -0.65757 0)
(0.0708038 -0.681356 0)
(0.0810049 -0.712858 0)
(0.0890522 -0.762681 0)
(0.0918918 -0.82332 0)
(0.0830664 -0.892569 0)
(0.0356976 -0.978899 0)
(-0.14908 -1.07285 0)
(-0.384433 -1.12285 0)
(-0.169484 -0.727935 0)
(-0.123118 -0.62167 0)
(-0.00668507 -0.53296 0)
(0.0697288 -0.502444 0)
(0.14445 -0.491922 0)
(0.208363 -0.507617 0)
(0.257198 -0.560422 0)
(0.278935 -0.655929 0)
(0.266276 -0.808543 0)
(0.208908 -0.78519 0)
(-0.0786158 0.0648567 0)
(0.00543024 -0.890821 0)
(0.0130813 -0.905801 0)
(0.0198308 -0.93461 0)
(0.0243273 -0.983503 0)
(0.0231158 -1.06836 0)
(0.0140821 -1.22437 0)
(0.0151672 -1.32918 0)
(0.0147811 -1.45581 0)
(0.00240848 -1.64422 0)
(-0.0543257 -1.96847 0)
(-0.432214 -1.88854 0)
(-0.366586 -1.37997 0)
(-0.183728 -1.06512 0)
(-0.046697 -0.876042 0)
(0.0341439 -0.829627 0)
(0.0707017 -0.780924 0)
(0.110118 -0.787154 0)
(0.12863 -0.839477 0)
(0.0960806 -0.93557 0)
(0.0326389 -0.539477 0)
(-0.328451 0.301408 0)
(-0.576589 -0.294567 0)
(-0.438777 -0.397221 0)
(0.00570604 -1.65657 0)
(-0.00319833 -1.67565 0)
(-0.00723296 -1.76999 0)
(-0.0164214 -1.87798 0)
(-0.0545938 -1.93726 0)
(-0.211266 -1.47671 0)
(-0.398766 -0.860442 0)
(-0.427866 -0.877692 0)
(-0.355642 -0.912007 0)
(-0.155474 -0.814005 0)
(0.161267 -0.912871 0)
(0.440683 -0.906527 0)
(0.255011 -0.628748 0)
(0.159031 -0.456829 0)
(-0.0059249 -0.357086 0)
(-0.115097 -0.314201 0)
(-0.258823 -0.16769 0)
(-0.459674 0.047564 0)
(-0.618039 -0.0884263 0)
(-0.524379 -0.54396 0)
(-0.264073 -0.581022 0)
(-0.153156 -0.271798 0)
(-0.446301 0.110358 0)
(-0.0140672 -0.836753 0)
(-0.0598811 -0.830845 0)
(-0.0836722 -0.821326 0)
(-0.0928928 -0.803406 0)
(-0.0920192 -0.769168 0)
(-0.0751946 -0.711035 0)
(-0.0572788 -0.639985 0)
(-0.0552649 -0.529548 0)
(-0.077734 -0.449067 0)
(-0.0742929 -0.392467 0)
(-0.0324759 -0.503837 0)
(-0.153442 -0.796528 0)
(-0.269135 -0.808033 0)
(-0.362498 -0.709834 0)
(-0.378354 -0.661958 0)
(-0.347461 -0.662826 0)
(-0.275407 -0.683677 0)
(-0.145546 -0.676016 0)
(-0.00426224 -0.586061 0)
(-0.0133458 -0.364568 0)
(-0.220527 -0.0590068 0)
(-0.490435 0.110439 0)
(-0.575467 0.112687 0)
(-0.00572877 -0.235011 0)
(-0.014926 -0.248026 0)
(-0.0239328 -0.262069 0)
(-0.0391612 -0.283729 0)
(-0.0552086 -0.31201 0)
(-0.0718161 -0.349616 0)
(-0.0895053 -0.401008 0)
(-0.114556 -0.45379 0)
(-0.146282 -0.494901 0)
(-0.153795 -0.52489 0)
(-0.159171 -0.573448 0)
(-0.258077 -0.599099 0)
(-0.340839 -0.485062 0)
(-0.366243 -0.365301 0)
(-0.337296 -0.303271 0)
(-0.282723 -0.316901 0)
(-0.224568 -0.336432 0)
(-0.202785 -0.328158 0)
(-0.254 -0.217553 0)
(-0.423267 -0.0776593 0)
(-0.579549 0.0215926 0)
(-0.593438 0.0691005 0)
(-0.572118 0.119629 0)
(-0.00569792 -0.445094 0)
(-0.0167035 -0.459391 0)
(-0.0267183 -0.467995 0)
(-0.0395203 -0.478406 0)
(-0.0524788 -0.489713 0)
(-0.0676635 -0.5005 0)
(-0.0867143 -0.510961 0)
(-0.11353 -0.520224 0)
(-0.145572 -0.52207 0)
(-0.168585 -0.518833 0)
(-0.211544 -0.533996 0)
(-0.278154 -0.523783 0)
(-0.336955 -0.485642 0)
(-0.356719 -0.445078 0)
(-0.365867 -0.445502 0)
(-0.379929 -0.468293 0)
(-0.413545 -0.472423 0)
(-0.490549 -0.402867 0)
(-0.574855 -0.226899 0)
(-0.621848 -0.0492219 0)
(-0.626866 0.0361596 0)
(-0.605184 0.070553 0)
(-0.565723 0.0970127 0)
(-0.00340645 -0.437648 0)
(-0.0111275 -0.448666 0)
(-0.0201046 -0.450406 0)
(-0.032164 -0.45299 0)
(-0.0470381 -0.457247 0)
(-0.0661829 -0.463182 0)
(-0.0903658 -0.469419 0)
(-0.120892 -0.474327 0)
(-0.154875 -0.475066 0)
(-0.190041 -0.473235 0)
(-0.239013 -0.477094 0)
(-0.291331 -0.483565 0)
(-0.338639 -0.473847 0)
(-0.364129 -0.451971 0)
(-0.391577 -0.444115 0)
(-0.430764 -0.439081 0)
(-0.495142 -0.408887 0)
(-0.577856 -0.314527 0)
(-0.627815 -0.154105 0)
(-0.632665 -0.0401212 0)
(-0.607786 0.00434818 0)
(-0.568818 0.0285011 0)
(-0.533912 0.0681653 0)
(-0.00529168 -0.386764 0)
(-0.0167586 -0.399446 0)
(-0.0292243 -0.403554 0)
(-0.0435901 -0.409131 0)
(-0.0604441 -0.415207 0)
(-0.0805647 -0.421239 0)
(-0.104759 -0.426562 0)
(-0.132414 -0.43026 0)
(-0.161848 -0.431633 0)
(-0.193827 -0.433083 0)
(-0.232516 -0.438981 0)
(-0.279938 -0.439828 0)
(-0.321539 -0.421071 0)
(-0.356656 -0.397679 0)
(-0.397461 -0.375284 0)
(-0.450728 -0.351217 0)
(-0.517211 -0.313176 0)
(-0.577175 -0.246405 0)
(-0.597058 -0.139398 0)
(-0.57293 -0.0612107 0)
(-0.541025 -0.0326834 0)
(-0.50922 -0.00538188 0)
(-0.481082 0.0332467 0)
(-0.00611396 -0.382525 0)
(-0.0192595 -0.393555 0)
(-0.0332387 -0.395629 0)
(-0.048728 -0.399131 0)
(-0.0660909 -0.402746 0)
(-0.0854816 -0.40602 0)
(-0.107095 -0.408552 0)
(-0.13051 -0.409889 0)
(-0.155092 -0.40976 0)
(-0.183168 -0.409408 0)
(-0.217984 -0.406603 0)
(-0.255094 -0.395221 0)
(-0.289832 -0.381173 0)
(-0.325583 -0.359927 0)
(-0.360717 -0.330736 0)
(-0.398998 -0.297101 0)
(-0.438986 -0.259881 0)
(-0.478097 -0.220977 0)
(-0.504201 -0.171091 0)
(-0.492157 -0.0979999 0)
(-0.472076 -0.0465388 0)
(-0.458417 -0.0235917 0)
(-0.438972 0.0109873 0)
(-0.0070163 -0.366424 0)
(-0.0220308 -0.376647 0)
(-0.0373057 -0.37689 0)
(-0.0535865 -0.377683 0)
(-0.0711007 -0.378445 0)
(-0.0899829 -0.379011 0)
(-0.110227 -0.378915 0)
(-0.131693 -0.377554 0)
(-0.154543 -0.374847 0)
(-0.179749 -0.370712 0)
(-0.206895 -0.363919 0)
(-0.234712 -0.35456 0)
(-0.267182 -0.338153 0)
(-0.3002 -0.316473 0)
(-0.332113 -0.296291 0)
(-0.360183 -0.2698 0)
(-0.382688 -0.235953 0)
(-0.406321 -0.192629 0)
(-0.424951 -0.140844 0)
(-0.433604 -0.0963292 0)
(-0.431655 -0.0661345 0)
(-0.415594 -0.0354743 0)
(-0.414065 0.0051718 0)
(-0.0071685 -0.355731 0)
(-0.0223334 -0.365355 0)
(-0.0378249 -0.365319 0)
(-0.0538924 -0.365736 0)
(-0.0707344 -0.365904 0)
(-0.0884901 -0.365581 0)
(-0.107297 -0.364495 0)
(-0.127236 -0.362362 0)
(-0.148915 -0.359021 0)
(-0.17287 -0.353753 0)
(-0.198531 -0.344373 0)
(-0.225412 -0.329448 0)
(-0.252078 -0.314 0)
(-0.2786 -0.296813 0)
(-0.305798 -0.273666 0)
(-0.332774 -0.246665 0)
(-0.355788 -0.21632 0)
(-0.37267 -0.186586 0)
(-0.380383 -0.150392 0)
(-0.38733 -0.104226 0)
(-0.387799 -0.0587925 0)
(-0.389986 -0.0276084 0)
(-0.38841 -0.00213378 0)
(-0.00700023 -0.33778 0)
(-0.0217532 -0.34662 0)
(-0.0368232 -0.34587 0)
(-0.0524767 -0.345075 0)
(-0.0689395 -0.34384 0)
(-0.0864727 -0.34199 0)
(-0.105216 -0.339287 0)
(-0.12537 -0.33544 0)
(-0.146996 -0.330054 0)
(-0.169857 -0.322787 0)
(-0.193137 -0.313633 0)
(-0.215433 -0.302647 0)
(-0.236951 -0.288106 0)
(-0.258834 -0.269364 0)
(-0.278294 -0.246936 0)
(-0.295975 -0.221834 0)
(-0.315292 -0.193144 0)
(-0.336224 -0.156234 0)
(-0.355942 -0.11708 0)
(-0.360464 -0.0867945 0)
(-0.356883 -0.0665757 0)
(-0.355721 -0.0369474 0)
(-0.357179 0.00261912 0)
(-0.0069383 -0.32726 0)
(-0.021468 -0.335871 0)
(-0.0362138 -0.334983 0)
(-0.0514167 -0.334055 0)
(-0.0671953 -0.332491 0)
(-0.0836607 -0.330127 0)
(-0.100924 -0.326731 0)
(-0.119073 -0.322129 0)
(-0.13817 -0.316154 0)
(-0.157971 -0.30827 0)
(-0.178059 -0.297698 0)
(-0.198592 -0.284094 0)
(-0.219581 -0.267764 0)
(-0.240317 -0.24955 0)
(-0.261699 -0.229771 0)
(-0.28136 -0.206528 0)
(-0.297778 -0.182249 0)
(-0.308011 -0.158448 0)
(-0.312987 -0.13206 0)
(-0.317372 -0.0973966 0)
(-0.323141 -0.0599054 0)
(-0.328754 -0.0289831 0)
(-0.326679 -0.00267706 0)
(-0.00674174 -0.309499 0)
(-0.0209746 -0.317317 0)
(-0.0353206 -0.31589 0)
(-0.0500323 -0.314075 0)
(-0.0651619 -0.311527 0)
(-0.0807751 -0.308133 0)
(-0.096898 -0.303765 0)
(-0.113543 -0.298228 0)
(-0.130701 -0.291246 0)
(-0.148376 -0.282615 0)
(-0.16651 -0.272334 0)
(-0.184771 -0.26051 0)
(-0.202594 -0.246848 0)
(-0.219581 -0.230209 0)
(-0.234869 -0.210151 0)
(-0.249098 -0.188408 0)
(-0.262342 -0.16406 0)
(-0.275675 -0.136583 0)
(-0.287591 -0.107962 0)
(-0.295012 -0.0827848 0)
(-0.297246 -0.0593947 0)
(-0.298185 -0.03262 0)
(-0.29824 -0.00343106 0)
(-0.00649202 -0.299096 0)
(-0.0199906 -0.306788 0)
(-0.0336217 -0.305338 0)
(-0.0475145 -0.303499 0)
(-0.0617533 -0.300863 0)
(-0.0764192 -0.297322 0)
(-0.091569 -0.292714 0)
(-0.107218 -0.286868 0)
(-0.123276 -0.279573 0)
(-0.139504 -0.270581 0)
(-0.155655 -0.259675 0)
(-0.171638 -0.246674 0)
(-0.187501 -0.231638 0)
(-0.203087 -0.215139 0)
(-0.218062 -0.197262 0)
(-0.231751 -0.177324 0)
(-0.24381 -0.155919 0)
(-0.253335 -0.133168 0)
(-0.260279 -0.108867 0)
(-0.265389 -0.0825765 0)
(-0.269489 -0.0559524 0)
(-0.272367 -0.0306242 0)
(-0.27249 -0.00558433 0)
(-0.00613486 -0.284049 0)
(-0.0190011 -0.291179 0)
(-0.0319158 -0.289454 0)
(-0.0450413 -0.287161 0)
(-0.0584044 -0.28398 0)
(-0.0720393 -0.279843 0)
(-0.0859571 -0.274657 0)
(-0.10014 -0.268306 0)
(-0.114543 -0.26068 0)
(-0.129105 -0.251686 0)
(-0.143724 -0.241262 0)
(-0.158202 -0.229354 0)
(-0.172238 -0.215802 0)
(-0.185603 -0.200298 0)
(-0.198167 -0.182869 0)
(-0.20979 -0.163927 0)
(-0.22022 -0.143447 0)
(-0.229349 -0.121675 0)
(-0.236868 -0.0991156 0)
(-0.242261 -0.0764297 0)
(-0.245464 -0.0535638 0)
(-0.247605 -0.0302297 0)
(-0.248325 -0.0065151 0)
(-0.00580205 -0.273091 0)
(-0.0178743 -0.280018 0)
(-0.0299863 -0.278246 0)
(-0.0422484 -0.27586 0)
(-0.0546831 -0.272571 0)
(-0.0673135 -0.268311 0)
(-0.0801412 -0.262986 0)
(-0.093138 -0.256491 0)
(-0.10624 -0.248716 0)
(-0.119354 -0.23956 0)
(-0.13237 -0.228949 0)
(-0.145183 -0.216831 0)
(-0.157679 -0.203231 0)
(-0.169676 -0.188254 0)
(-0.180931 -0.171923 0)
(-0.191234 -0.154206 0)
(-0.200394 -0.135254 0)
(-0.208214 -0.115204 0)
(-0.214594 -0.0942327 0)
(-0.219418 -0.0725643 0)
(-0.222659 -0.0507008 0)
(-0.224863 -0.0289628 0)
(-0.225837 -0.00707654 0)
(-0.00539249 -0.261029 0)
(-0.0166341 -0.267613 0)
(-0.027887 -0.26574 0)
(-0.0392473 -0.263176 0)
(-0.0507242 -0.259674 0)
(-0.0623281 -0.255191 0)
(-0.0740506 -0.249666 0)
(-0.0858628 -0.243033 0)
(-0.0977145 -0.23523 0)
(-0.109534 -0.226205 0)
(-0.121227 -0.215909 0)
(-0.132673 -0.204309 0)
(-0.14373 -0.19137 0)
(-0.154264 -0.177072 0)
(-0.164142 -0.161469 0)
(-0.173207 -0.144673 0)
(-0.181304 -0.126792 0)
(-0.188303 -0.107995 0)
(-0.194095 -0.088474 0)
(-0.198527 -0.0684362 0)
(-0.201522 -0.0481192 0)
(-0.203562 -0.0277383 0)
(-0.204696 -0.0072254 0)
(-0.00498825 -0.250694 0)
(-0.0153572 -0.257057 0)
(-0.0257227 -0.255152 0)
(-0.0361626 -0.252512 0)
(-0.0466767 -0.248927 0)
(-0.0572649 -0.24436 0)
(-0.0679135 -0.238764 0)
(-0.0785921 -0.232088 0)
(-0.0892538 -0.224284 0)
(-0.0998353 -0.215311 0)
(-0.110258 -0.205141 0)
(-0.12043 -0.19376 0)
(-0.130245 -0.181178 0)
(-0.139581 -0.167428 0)
(-0.14831 -0.152556 0)
(-0.156306 -0.136625 0)
(-0.163448 -0.119741 0)
(-0.169637 -0.102033 0)
(-0.174799 -0.0836533 0)
(-0.178836 -0.06477 0)
(-0.181655 -0.0456149 0)
(-0.183575 -0.0264066 0)
(-0.184773 -0.00710773 0)
(-0.00455788 -0.240826 0)
(-0.0140256 -0.246961 0)
(-0.0234797 -0.245031 0)
(-0.0329829 -0.242325 0)
(-0.0425302 -0.23867 0)
(-0.052116 -0.234042 0)
(-0.0617239 -0.228409 0)
(-0.0713247 -0.221738 0)
(-0.0808759 -0.214001 0)
(-0.0903214 -0.205174 0)
(-0.0995922 -0.19524 0)
(-0.108607 -0.184196 0)
(-0.117277 -0.17205 0)
(-0.125504 -0.158831 0)
(-0.133189 -0.144591 0)
(-0.140232 -0.129404 0)
(-0.146538 -0.113366 0)
(-0.152024 -0.096596 0)
(-0.156633 -0.0792258 0)
(-0.160291 -0.0613945 0)
(-0.162911 -0.0432782 0)
(-0.164703 -0.0250745 0)
(-0.165906 -0.0068044 0)
(-0.00412249 -0.231993 0)
(-0.012672 -0.237944 0)
(-0.0212024 -0.236009 0)
(-0.0297644 -0.233269 0)
(-0.0383497 -0.229582 0)
(-0.0469485 -0.224933 0)
(-0.055543 -0.2193 0)
(-0.0641055 -0.212663 0)
(-0.0725976 -0.205005 0)
(-0.0809706 -0.196313 0)
(-0.0891658 -0.186582 0)
(-0.0971157 -0.17582 0)
(-0.104746 -0.164046 0)
(-0.111975 -0.151294 0)
(-0.118723 -0.137617 0)
(-0.124909 -0.123081 0)
(-0.130457 -0.107774 0)
(-0.135303 -0.0918017 0)
(-0.139401 -0.075279 0)
(-0.1427 -0.0583284 0)
(-0.145121 -0.0410964 0)
(-0.146793 -0.0237581 0)
(-0.147971 -0.00636865 0)
(-0.00367836 -0.224007 0)
(-0.0112981 -0.229792 0)
(-0.0188993 -0.227862 0)
(-0.0265197 -0.2251 0)
(-0.0341513 -0.221398 0)
(-0.0417813 -0.216748 0)
(-0.0493918 -0.211137 0)
(-0.0569569 -0.204555 0)
(-0.064442 -0.196994 0)
(-0.0718045 -0.188451 0)
(-0.0789944 -0.17893 0)
(-0.0859546 -0.168444 0)
(-0.0926233 -0.157017 0)
(-0.0989357 -0.144685 0)
(-0.104826 -0.1315 0)
(-0.110229 -0.117528 0)
(-0.115087 -0.102848 0)
(-0.119347 -0.087556 0)
(-0.122973 -0.0717552 0)
(-0.125928 -0.0555542 0)
(-0.12815 -0.0390772 0)
(-0.129709 -0.0224791 0)
(-0.130842 -0.00583878 0)
(-0.00322848 -0.216954 0)
(-0.00990871 -0.222594 0)
(-0.0165823 -0.220673 0)
(-0.023264 -0.217898 0)
(-0.0299523 -0.214194 0)
(-0.0366311 -0.209555 0)
(-0.0432835 -0.203976 0)
(-0.0498856 -0.197456 0)
(-0.0564068 -0.189993 0)
(-0.0628099 -0.181592 0)
(-0.0690523 -0.172264 0)
(-0.0750863 -0.162025 0)
(-0.0808609 -0.150905 0)
(-0.0863231 -0.13894 0)
(-0.0914203 -0.126182 0)
(-0.0961018 -0.112692 0)
(-0.100321 -0.0985454 0)
(-0.104036 -0.0838275 0)
(-0.10722 -0.068633 0)
(-0.109847 -0.0530604 0)
(-0.111871 -0.0372186 0)
(-0.113323 -0.0212446 0)
(-0.114408 -0.00523389 0)
(-0.00276992 -0.21083 0)
(-0.00849765 -0.216329 0)
(-0.0142535 -0.214421 0)
(-0.0200006 -0.211634 0)
(-0.0257557 -0.20793 0)
(-0.0314988 -0.203307 0)
(-0.0372155 -0.197763 0)
(-0.0428852 -0.191304 0)
(-0.0484804 -0.183936 0)
(-0.0539687 -0.175668 0)
(-0.0593137 -0.166514 0)
(-0.0644751 -0.156497 0)
(-0.0694106 -0.145646 0)
(-0.0740778 -0.133998 0)
(-0.0784348 -0.121603 0)
(-0.082442 -0.108521 0)
(-0.0860634 -0.0948208 0)
(-0.0892677 -0.0805822 0)
(-0.0920328 -0.0658907 0)
(-0.0943431 -0.050837 0)
(-0.096169 -0.0355195 0)
(-0.0975197 -0.0200608 0)
(-0.0985609 -0.00456731 0)
(-0.00229524 -0.20564 0)
(-0.00705948 -0.21098 0)
(-0.0119141 -0.209087 0)
(-0.0167301 -0.206292 0)
(-0.0215565 -0.202593 0)
(-0.0263705 -0.197987 0)
(-0.0311625 -0.192478 0)
(-0.0359189 -0.186078 0)
(-0.0406159 -0.178796 0)
(-0.0452258 -0.170645 0)
(-0.0497175 -0.161645 0)
(-0.0540555 -0.151819 0)
(-0.0582032 -0.141198 0)
(-0.0621253 -0.129817 0)
(-0.0657892 -0.117725 0)
(-0.0691648 -0.104979 0)
(-0.0722244 -0.091646 0)
(-0.074944 -0.0777987 0)
(-0.0773081 -0.0635146 0)
(-0.0793093 -0.0488776 0)
(-0.0809348 -0.033978 0)
(-0.0821876 -0.0189271 0)
(-0.0831926 -0.00384026 0)
(-0.00179479 -0.201417 0)
(-0.00560185 -0.206528 0)
(-0.00959674 -0.204661 0)
(-0.0134933 -0.20187 0)
(-0.0173872 -0.198187 0)
(-0.0212628 -0.19361 0)
(-0.0251005 -0.188141 0)
(-0.0289115 -0.181792 0)
(-0.0326883 -0.174573 0)
(-0.0364187 -0.166503 0)
(-0.0400806 -0.157612 0)
(-0.0436409 -0.147931 0)
(-0.0470614 -0.13749 0)
(-0.0503059 -0.126327 0)
(-0.0533418 -0.114484 0)
(-0.0561427 -0.102016 0)
(-0.058688 -0.0889862 0)
(-0.0609584 -0.0754595 0)
(-0.062942 -0.0615 0)
(-0.0646412 -0.0471846 0)
(-0.0660603 -0.0325982 0)
(-0.0672135 -0.0178465 0)
(-0.0681966 -0.00305906 0)
(-0.00127076 -0.198393 0)
(-0.0042032 -0.203171 0)
(-0.00746682 -0.201351 0)
(-0.0105164 -0.198582 0)
(-0.0135179 -0.194919 0)
(-0.0164698 -0.190378 0)
(-0.0192257 -0.184866 0)
(-0.0219025 -0.178465 0)
(-0.0245425 -0.171205 0)
(-0.027182 -0.163119 0)
(-0.029848 -0.154241 0)
(-0.03255 -0.144607 0)
(-0.0352751 -0.134257 0)
(-0.037979 -0.12324 0)
(-0.040593 -0.111609 0)
(-0.0430231 -0.099403 0)
(-0.0451693 -0.0866535 0)
(-0.0470858 -0.0734191 0)
(-0.0487656 -0.0597577 0)
(-0.050206 -0.0457265 0)
(-0.0514269 -0.0313819 0)
(-0.0524863 -0.0167899 0)
(-0.0534489 -0.0021025 0)