/*--------------------------------*- C++ -*----------------------------------*\
| =========                 |                                                 |
| \\      /  F ield         | OpenFOAM: The Open Source CFD Toolbox           |
|  \\    /   O peration     | Version:  2.4.0                                 |
|   \\  /    A nd           | Web:      www.OpenFOAM.org                      |
|    \\/     M anipulation  |                                                 |
\*---------------------------------------------------------------------------*/
FoamFile
{
    version     2.0;
    format      ascii;
    class       volScalarField;
    location    "0.25";
    object      alpha.air;
}
// * * * * * * * * * * * * * * * * * * * * * * * * * * * * * * * * * * * * * //

dimensions      [0 0 0 0 0 0 0];

internalField   nonuniform List<scalar> 
2268
(
1.70318e-20
1.47664e-20
1.59334e-20
2.56845e-20
3.12063e-20
6.43327e-20
6.66859e-20
4.41101e-19
4.55577e-19
1.67334e-18
1.32154e-17
3.82161e-17
4.94359e-17
4.78674e-17
4.26225e-17
4.92328e-17
5.4588e-17
5.0103e-17
3.51971e-17
2.14075e-17
1.1153e-17
4.64236e-18
1.12501e-18
7.55615e-19
6.54524e-19
6.95596e-19
1.06728e-18
1.26214e-18
2.35176e-18
2.60631e-18
1.22646e-17
1.39445e-17
4.3722e-17
2.57333e-16
6.82521e-16
9.06857e-16
8.89511e-16
8.13646e-16
9.14778e-16
1.00971e-15
9.03259e-16
5.83755e-16
3.296e-16
1.59404e-16
5.74788e-17
1.23515e-17
1.62167e-17
1.4035e-17
1.47196e-17
2.13838e-17
2.469e-17
4.20636e-17
4.88445e-17
1.70463e-16
2.12076e-16
5.87089e-16
2.49336e-15
6.00253e-15
8.24124e-15
8.52214e-15
7.96159e-15
8.5865e-15
8.78269e-15
7.20811e-15
4.40893e-15
2.39641e-15
1.09325e-15
3.67148e-16
7.42831e-17
2.23245e-16
1.93468e-16
2.00818e-16
2.75593e-16
3.11467e-16
4.90493e-16
5.84064e-16
1.58561e-15
2.1098e-15
5.28221e-15
1.62962e-14
3.53338e-14
5.0399e-14
5.40054e-14
5.1188e-14
5.04776e-14
4.765e-14
3.69772e-14
2.24029e-14
1.1919e-14
5.10613e-15
1.67195e-15
3.12099e-16
2.20133e-15
1.91911e-15
1.97914e-15
2.56984e-15
2.84804e-15
4.18267e-15
5.01813e-15
1.1056e-14
1.52628e-14
3.51936e-14
8.18579e-14
1.60181e-13
2.32511e-13
2.46296e-13
2.27668e-13
2.04577e-13
1.72558e-13
1.26648e-13
7.45425e-14
3.7871e-14
1.44413e-14
4.29752e-15
8.05864e-16
1.64685e-14
1.45408e-14
1.4958e-14
1.84499e-14
2.01081e-14
2.76324e-14
3.29486e-14
6.11268e-14
8.50351e-14
1.82953e-13
3.38571e-13
6.01922e-13
8.44478e-13
8.4362e-13
7.26563e-13
5.94844e-13
4.81021e-13
3.37917e-13
1.92162e-13
8.98032e-14
3.22779e-14
8.58292e-15
1.48514e-15
9.69128e-14
8.72525e-14
8.95727e-14
1.05433e-13
1.13341e-13
1.452e-13
1.71179e-13
2.74657e-13
3.82113e-13
7.67018e-13
1.17265e-12
1.91077e-12
2.51105e-12
2.30181e-12
1.84056e-12
1.44363e-12
1.21524e-12
8.85176e-13
4.91529e-13
2.26232e-13
8.2546e-14
1.74947e-14
2.81437e-15
4.57959e-13
4.20937e-13
4.284e-13
4.8308e-13
5.1323e-13
6.10546e-13
7.16098e-13
1.04342e-12
1.44199e-12
2.5657e-12
3.31186e-12
5.16112e-12
6.71201e-12
5.89386e-12
4.74201e-12
4.07576e-12
3.32326e-12
2.25471e-12
1.27095e-12
5.59163e-13
1.88349e-13
3.65789e-14
4.97115e-15
9.08568e-05
0.000204782
0.000274591
0.00026605
0.000196291
0.000195296
0.000209836
0.000137748
0.000145865
9.93586e-05
4.36908e-05
6.23579e-05
0.000820346
0.011594
0.00807877
0.00372124
0.0231306
0.152357
0.0268765
5.13671e-05
4.36522e-05
2.5088e-05
8.83634e-06
4.39234e-06
2.91718e-06
6.86099e-07
2.34994e-07
2.50902e-07
3.76368e-07
7.02154e-07
3.89416e-05
0.000374887
0.000365985
0.000424056
0.000915013
0.0220101
0.152089
0.0668145
2.99112e-05
2.84432e-05
2.48213e-05
2.0311e-05
6.31827e-06
3.34226e-06
5.32533e-07
1.84906e-07
1.84629e-07
1.84384e-07
1.84202e-07
2.08069e-07
2.50384e-07
3.78476e-07
1.06058e-06
4.6035e-05
0.0143469
0.0723233
0.0488651
3.38615e-05
0.00254021
0.0401606
0.00188143
6.45704e-05
2.63212e-05
1.70406e-06
1.84971e-07
1.84539e-07
1.84318e-07
1.8403e-07
1.83677e-07
1.83483e-07
1.76055e-07
1.75997e-07
4.20312e-06
0.00363281
0.0157811
0.0165109
0.00110504
0.136202
0.79605
0.128492
0.00125062
0.00014687
3.14786e-06
1.85249e-07
1.84854e-07
1.95197e-07
1.95192e-07
1.8466e-07
1.81252e-07
1.80511e-07
1.76838e-07
9.30662e-07
0.000276824
0.00180473
0.00288561
0.0113231
0.636247
0.994098
0.777373
0.0352238
0.000675906
6.02572e-06
1.85368e-07
1.85065e-07
1.93732e-07
1.95148e-07
1.84089e-07
1.81742e-07
2.01668e-07
2.49151e-07
3.5931e-07
5.28034e-06
9.91946e-05
0.000307692
0.00988485
0.866954
0.999292
0.97105
0.256343
0.00223141
1.01292e-05
1.85065e-07
1.84769e-07
1.8449e-07
1.84176e-07
1.83279e-07
1.82683e-07
2.46245e-07
3.95419e-07
4.16075e-07
4.36314e-07
1.96638e-06
1.98394e-05
0.00757298
0.882847
0.999275
0.996255
0.387338
0.00434446
1.16566e-05
1.85363e-07
1.85058e-07
1.84765e-07
1.84489e-07
1.84177e-07
1.83279e-07
3.9086e-07
6.3863e-07
6.63514e-07
6.01159e-07
7.43043e-07
1.75428e-06
1.716e-12
1.59791e-12
1.60877e-12
1.7522e-12
1.84524e-12
2.07571e-12
2.49949e-12
3.64021e-12
4.83658e-12
6.37108e-12
7.4266e-12
1.2511e-11
1.90472e-11
2.03264e-11
1.7768e-11
1.47184e-11
9.88186e-12
5.10318e-12
2.57035e-12
1.23966e-12
4.98427e-13
1.40003e-13
2.18392e-14
7.46992e-12
7.10864e-12
7.59449e-12
8.23351e-12
8.70582e-12
1.00796e-11
1.33217e-11
2.11548e-11
2.61115e-11
7.57846e-11
1.17652e-10
2.80803e-10
4.82842e-10
5.49352e-10
4.24385e-10
2.72475e-10
1.25912e-10
3.02083e-11
5.90361e-12
3.04046e-12
1.21431e-12
4.27282e-13
8.5584e-14
1.09462e-10
1.36551e-10
2.03341e-10
2.26566e-10
2.49716e-10
3.10304e-10
4.22024e-10
6.56896e-10
8.91697e-10
1.89185e-09
2.51323e-09
3.64133e-09
3.21479e-09
2.56374e-09
1.74366e-09
8.88179e-10
3.08663e-10
5.98881e-11
7.58829e-12
4.06209e-12
1.81975e-12
7.52459e-13
2.036e-13
2.19298e-09
2.51742e-09
2.98117e-09
3.19037e-09
3.48869e-09
4.00835e-09
4.76178e-09
6.0328e-09
7.43436e-09
1.08462e-08
1.28101e-08
1.11741e-08
8.76085e-09
5.51649e-09
2.72076e-09
1.04145e-09
2.87731e-10
4.35414e-11
6.89385e-12
4.14863e-12
2.0337e-12
9.09794e-13
2.95263e-13
7.97044e-09
8.37131e-09
8.43868e-09
9.09142e-09
1.01734e-08
1.13287e-08
1.25365e-08
1.47768e-08
1.70989e-08
2.0381e-08
2.12391e-08
1.65619e-08
9.96766e-09
4.76259e-09
1.76133e-09
5.34545e-10
1.14058e-10
1.39589e-11
6.82471e-12
3.46785e-12
1.69748e-12
8.10097e-13
1.62837e-12
1.73898e-08
1.83024e-08
1.88477e-08
1.95502e-08
2.02793e-08
2.06987e-08
2.23291e-08
2.74617e-08
3.68677e-08
4.46686e-08
2.12391e-08
8.16906e-09
3.00334e-09
1.09659e-09
4.04376e-10
1.24234e-10
2.50127e-11
9.74854e-12
5.1022e-12
2.60033e-12
1.46108e-12
9.38812e-13
2.12155e-12
3.32581e-08
3.56828e-08
3.68236e-08
3.84895e-08
4.20564e-08
4.7282e-08
6.55752e-08
8.71828e-08
1.13723e-07
6.13153e-08
3.79315e-08
1.52246e-08
3.86488e-09
5.73655e-10
1.02312e-10
1.79456e-11
1.30458e-11
6.49841e-12
5.28929e-12
5.17614e-12
4.889e-12
8.62696e-12
1.48064e-11
1.04976e-07
1.15001e-07
1.18356e-07
1.22465e-07
1.294e-07
1.38693e-07
1.55061e-07
2.63768e-07
7.04817e-07
1.83661e-06
3.6604e-06
3.80703e-06
1.26589e-06
1.02993e-07
1.0908e-08
8.80397e-10
2.44665e-11
2.38689e-11
5.20837e-11
1.63939e-10
4.38398e-10
1.56753e-09
2.42332e-09
3.46586e-06
4.18798e-06
5.85521e-06
9.71906e-06
1.88201e-05
4.17505e-05
0.000102122
0.00026867
0.000637955
0.00110762
0.00140302
0.00130351
0.000365093
5.04888e-05
8.25921e-06
8.44762e-07
4.3806e-08
1.26588e-07
5.22733e-08
2.38498e-08
2.77469e-08
4.53657e-08
6.13067e-08
0.00241804
0.00274839
0.00344784
0.00484342
0.007499
0.0125546
0.0220771
0.0393921
0.0635131
0.0785496
0.0777822
0.0670303
0.0199346
0.004641
0.00118104
0.000188658
3.165e-05
8.10612e-06
4.89701e-06
3.81312e-06
2.20332e-06
3.12838e-06
2.07985e-05
0.139903
0.149683
0.168789
0.201496
0.251407
0.323788
0.423356
0.546622
0.658956
0.69895
0.628733
0.431452
0.201829
0.0801199
0.0440746
0.0209167
0.0115857
0.00716108
0.00643389
0.00676214
0.00706599
0.0115109
0.0251881
0.817632
0.83167
0.85625
0.890043
0.927497
0.961402
0.984346
0.995617
0.9987
0.996992
0.995915
0.979318
0.89488
0.719906
0.598691
0.452548
0.3615
0.305972
0.306753
0.343096
0.392682
0.495002
0.744686
0.999882
0.999912
0.999952
0.999981
0.999994
0.999998
0.999998
0.999991
0.999968
0.99996
0.999996
0.999997
0.99997
0.999634
0.998114
0.990969
0.980476
0.973158
0.976468
0.988741
0.998186
0.999925
0.999985
0.999999
0.999999
0.999999
0.999999
0.999999
0.999999
0.999999
0.999998
0.999999
0.999999
0.999999
0.999999
0.999999
1
1
1
0.999999
1
1
1
1
1
1
0.999998
0.999998
0.999998
0.999998
0.999998
0.999999
0.999999
0.999999
0.999999
0.999999
0.999999
0.999999
0.999999
1
1
1
1
1
1
1
1
1
1
0.999998
0.999998
0.999998
0.999998
0.999998
0.999999
0.999999
0.999999
0.999999
0.999999
0.999999
0.999999
0.999999
0.999999
0.999999
0.999999
0.999999
0.999999
1
1
1
1
0.999999
0.999998
0.999998
0.999998
0.999998
0.999999
0.999999
0.999999
0.999999
0.999999
0.999999
1
1
0.999999
0.999999
0.999999
0.999999
0.999999
0.999999
0.999999
0.999999
0.999999
0.999999
0.999999
0.999998
0.999999
0.999999
0.999999
0.999999
0.999999
0.999999
0.999999
0.999999
1
1
1
1
0.999999
0.999999
0.999999
0.999999
0.999999
0.999999
0.999999
0.999999
0.999999
0.999999
0.999999
0.999999
0.999999
0.999999
0.999999
0.999999
0.999999
1
1
1
1
1
1
0.999999
0.999999
0.999999
1
1
1
1
1
1
0.999999
0.999999
0.999999
0.999999
0.999999
0.999999
0.999999
1
1
1
1
1
1
1
1
0.999999
0.999999
1
1
1
1
1
1
1
0.999999
0.999999
0.999999
0.999999
1
1
1
1
1
1
1
1
1
1
0.999999
0.999999
0.999999
1
1
1
1
1
1
0.999999
0.999999
0.999999
0.999999
1
1
1
1
1
1
1
1
1
1
0.999999
0.999999
0.999999
0.999999
1
1
1
1
1
0.999999
0.999999
0.999999
1
1
1
1
1
1
1
1
1
1
1
0.999999
0.999999
0.999999
0.999999
0.999999
0.999999
1
1
1
0.999999
0.999999
0.999999
1
1
1
1
1
1
1
1
1
1
1
1
0.999999
0.999999
0.999999
0.999999
0.999999
0.999999
0.999999
0.999999
0.999999
0.999999
1
1
1
1
1
1
1
1
1
1
1
1
1
0.999999
0.999999
0.999999
0.999998
0.999998
0.999998
0.999998
0.999998
0.999999
0.999999
1
1
1
1
1
1
1
1
1
1
1
1
1
0.999999
0.999999
0.999999
0.999999
0.999998
0.999998
0.999998
0.999997
1
1
1
1
1
1
1
1
1
1
1
1
1
1
1
1
0.999999
0.999999
0.999999
0.999998
0.999998
0.999998
0.999997
1
1
1
1
1
1
1
1
1
1
1
1
1
1
1
1
1
0.999999
0.999999
0.999999
0.999998
0.999998
0.999997
1
1
1
1
1
1
1
1
1
1
1
1
1
1
1
1
1
0.999999
0.999999
0.999999
0.999999
0.999998
0.999998
1
1
1
1
1
1
1
1
1
1
1
1
1
1
1
1
1
1
1
0.999999
0.999999
0.999999
0.999998
1
1
1
1
1
1
1
1
1
1
1
1
1
1
1
1
1
1
1
0.999999
0.999999
0.999999
0.999998
1
1
1
1
1
1
1
1
1
1
1
1
1
1
1
1
1
1
1
1
1
0.999999
0.999999
1
1
1
1
1
1
1
1
1
1
1
1
1
1
1
1
1
1
1
1
1
1
0.999999
1
1
1
1
1
1
1
1
1
1
1
1
1
1
1
1
1
1
1
1
1
1
1
1
1
1
1
1
1
1
1
1
1
1
1
1
1
1
1
1
1
1
1
1
1
1
1
1
1
1
1
1
1
1
1
1
1
1
1
1
1
1
1
1
1
1
1
1
1
1
1
1
1
1
1
1
1
1
1
1
1
1
1
1
1
1
1
1
1
1
1
1
1
1
1
1
1
1
1
1
1
1
1
1
1
1
1
1
1
1
1
1
1
1
1
1
1
1
1
1
1
1
1
1
1
1
1
1
1
1
1
1
1
1
1
1
1
1
1
1
1
1
1
1
1
1
1
1
1
1
1
1
1
1
0.999999
0.999999
0.999999
0.999999
1
1
1
1
1
1
1
1
1
1
1
1
1
1
1
1
1
1
1
0.999999
0.999999
0.999999
0.999999
0.999999
1
1
1
1
1
1
1
1
1
1
1
1
1
1
1
1
1
1
1
1
1
1
1
1
1
0.0140457
0.917384
0.976967
0.641118
0.00229524
0.161483
0.381913
0.586269
6.37514e-05
0.00875161
0.0290616
0.0997611
7.37207e-07
6.74951e-05
0.000309873
0.0024239
1.56643e-09
5.61396e-08
3.98505e-07
1.709e-05
5.33066e-12
1.17313e-11
1.99757e-10
2.86423e-08
2.5717e-11
3.78547e-11
6.57257e-11
1.13283e-10
3.03411e-09
3.89306e-09
3.13061e-09
2.18723e-09
6.83485e-08
7.25939e-08
7.8456e-08
8.62688e-08
8.82028e-05
0.000138839
0.000269379
0.00105791
0.0710494
0.101842
0.121425
0.192827
0.947072
0.987603
0.999095
0.999966
0.999861
0.999968
0.999999
0.999999
1
1
0.999999
0.999999
1
0.999999
0.999999
0.999999
0.999999
0.999999
0.999999
0.999999
0.999999
0.999999
0.999999
0.999998
0.999998
0.999999
0.999998
0.999998
0.999999
0.999999
0.999999
0.999999
1
1
1
1
1
1
1
1
1
1
1
1
1
1
1
1
0.999999
1
1
1
0.999999
0.999999
0.999999
0.999999
0.999997
0.999998
0.999998
0.999998
0.999997
0.999997
0.999997
0.999997
0.999997
0.999997
0.999997
0.999997
0.999997
0.999997
0.999997
0.999997
0.999997
0.999997
0.999997
0.999997
0.999998
0.999997
0.999997
0.999997
0.999998
0.999998
0.999998
0.999997
0.999999
0.999998
0.999998
0.999998
0.999999
0.999998
0.999998
0.999998
0.999999
0.999999
0.999999
0.999999
1
0.999999
0.999999
0.999999
1
0.999999
0.999999
0.999999
1
0.999999
0.999999
0.999999
0.999999
0.999999
1
0.999999
1
1
1
1
1
1
1
1
0.999999
1
1
1
0.142465
0.969123
0.999293
0.935101
0.217288
0.00388716
9.01073e-06
6.20748e-06
0.000195021
0.00289051
0.0171241
0.0480827
0.118554
0.164044
0.217561
0.130176
0.0121951
0.000363605
5.02893e-06
0.843536
0.991696
0.994479
0.66145
0.069504
0.00075648
8.60616e-06
0.000795816
0.01937
0.135136
0.392681
0.678532
0.905398
0.985593
0.972267
0.89754
0.366483
0.0125237
4.44631e-05
0.489874
0.790434
0.655208
0.159644
0.00528197
0.000130654
0.000413605
0.0237188
0.275006
0.749215
0.970367
0.998695
0.999976
0.999991
0.999959
0.999295
0.904086
0.0739628
0.000556161
0.039929
0.0836685
0.0361731
0.00276399
0.000105941
0.000130509
0.00888063
0.215041
0.787026
0.987602
0.999858
1
1
1
1
1
0.997538
0.311423
0.00837071
0.000394152
0.000490457
9.40913e-05
2.17284e-05
6.71072e-05
0.00199396
0.0939416
0.645897
0.972727
0.999713
1
1
1
1
1
1
0.999991
0.672571
0.0275473
4.02805e-07
1.98766e-07
1.06865e-07
1.83822e-05
0.00180054
0.0408829
0.436433
0.918003
0.998187
0.999999
1
1
1
1
1
1
1
0.828495
0.0200942
2.2174e-10
1.26999e-09
2.60645e-07
0.00106025
0.0178344
0.297013
0.857841
0.994467
0.999968
1
1
1
1
1
1
1
1
0.844413
0.0141718
4.75376e-08
1.63951e-05
0.000340914
0.0110666
0.231011
0.81367
0.993668
0.999961
1
1
1
1
1
1
1
1
1
0.895553
0.0141721
5.77094e-06
0.000992577
0.0271743
0.312972
0.875289
0.997493
0.999998
1
1
1
1
1
1
1
1
1
1
0.969196
0.0436347
0.0100747
0.126842
0.645982
0.976858
0.999918
1
1
1
1
1
1
1
1
1
1
1
1
0.996742
0.204356
0.632846
0.974525
0.999912
0.999983
1
1
1
1
1
1
1
1
1
1
1
1
1
0.999906
0.628931
0.999993
0.999968
0.999998
1
1
1
1
1
1
1
1
1
1
1
1
1
1
1
0.938911
0.999999
0.999999
0.999999
1
1
1
1
1
1
1
1
1
1
1
1
1
1
0.999956
0.997293
0.999999
0.999999
0.999999
0.999999
1
1
1
1
1
1
1
1
1
1
1
1
0.999997
0.99996
0.999971
0.999999
0.999999
0.999999
0.999999
0.999999
1
1
1
1
1
1
1
1
1
1
1
1
0.999996
1
0.999998
0.999998
0.999998
0.999999
0.999999
0.999999
1
1
1
1
1
1
1
1
1
1
1
1
1
0.999998
0.999998
0.999998
0.999998
0.999999
0.999999
0.999999
1
1
1
1
1
1
1
1
1
1
1
1
0.999998
0.999998
0.999998
0.999998
0.999998
0.999998
0.999999
0.999999
0.999999
1
1
1
1
1
1
1
1
1
1
0.999999
0.999998
0.999998
0.999998
0.999998
0.999998
0.999998
0.999999
0.999999
0.999999
1
1
1
1
1
1
1
1
1
0.999999
0.999999
0.999998
0.999998
0.999998
0.999998
0.999998
0.999998
0.999999
0.999999
0.999999
1
1
1
1
1
1
1
1
1
0.999999
0.999999
0.999998
0.999998
0.999998
0.999998
0.999998
0.999999
0.999999
0.999999
1
1
1
1
1
1
1
1
1
1
0.999999
0.999999
0.999999
0.999998
0.999998
0.999999
0.999999
0.999999
0.999999
0.999999
1
1
1
1
1
1
1
1
1
1
0.999999
0.999999
0.999999
0.999999
0.999999
0.999999
0.999999
0.999999
1
1
1
1
1
1
1
1
1
1
1
0.999999
0.999999
0.999999
0.999999
0.999999
0.999999
0.999999
1
1
1
1
1
1
1
1
0.999999
0.999999
0.999999
0.999999
0.999999
0.999999
0.999999
0.999999
0.999999
0.999999
1
1
1
1
1
1
1
0.999999
1
0.999999
0.999998
0.999998
0.999999
0.999999
0.999999
0.999999
0.999999
0.999999
0.999999
1
1
1
1
1
1
1
1
1
1
0.999998
0.999998
0.999998
0.999998
0.999999
0.999999
0.999999
0.999999
0.999999
1
1
1
1
1
1
1
1
1
1
0.999997
0.999997
0.999998
0.999998
0.999999
0.999999
0.999999
0.999999
0.999999
0.999999
1
1
1
1
1
1
1
1
1
0.999997
0.999997
0.999997
0.999998
0.999998
0.999999
0.999999
0.999999
0.999999
0.999999
1
1
1
1
1
1
1
1
1
0.999997
0.999997
0.999997
0.999998
0.999998
0.999999
0.999999
0.999999
0.999999
0.999999
1
1
1
1
1
1
1
1
1
0.999997
0.999997
0.999997
0.999998
0.999998
0.999998
0.999999
0.999999
0.999999
0.999999
1
1
1
1
1
1
1
1
1
0.999997
0.999997
0.999997
0.999998
0.999998
0.999998
0.999999
0.999999
0.999999
0.999999
1
1
1
1
1
1
1
1
1
0.999998
0.999998
0.999998
0.999998
0.999998
0.999998
0.999999
0.999999
0.999999
0.999999
1
1
1
1
1
1
1
1
1
0.999998
0.999998
0.999998
0.999998
0.999998
0.999999
0.999999
0.999999
0.999999
0.999999
1
1
1
1
1
1
1
1
1
0.999998
0.999998
0.999998
0.999998
0.999998
0.999999
0.999999
0.999999
0.999999
0.999999
1
1
1
1
1
1
1
1
1
0.999999
0.999999
0.999999
0.999999
0.999999
0.999999
0.999999
0.999999
0.999999
0.999999
1
1
1
1
1
1
1
1
1
0.999999
0.999999
0.999999
0.999999
0.999999
0.999999
0.999999
0.999999
0.999999
0.999999
0.999999
0.999999
1
1
1
1
1
1
1
0.999999
0.999999
0.999999
0.999999
0.999999
0.999999
0.999999
0.999999
0.999999
0.999999
0.999999
0.999999
0.999999
1
1
1
1
1
1
0.999999
0.999999
0.999999
0.999999
0.999999
0.999999
0.999999
0.999999
0.999999
0.999999
0.999999
0.999999
1
1
1
1
1
0.999999
1
1
0.999999
0.999999
0.999999
0.999999
0.999999
0.999999
0.999999
0.999999
1
1
1
1
1
1
1
1
1
1
1
0.999999
0.999999
0.999999
0.999999
0.999999
0.999999
0.999999
0.999999
1
1
1
1
1
1
1
1
1
1
1
1
1
1
1
0.999999
0.999999
0.999999
0.999999
0.999999
1
1
1
1
1
1
1
1
1
)
;

boundaryField
{
    leftWall
    {
        type            alphaContactAngle;
        thetaProperties 6 ( ( water mercury ) 90 0 0 0 ( water air ) 90 0 0 0 ( water oil ) 90 0 0 0 ( mercury air ) 90 0 0 0 ( oil mercury ) 90 0 0 0 ( oil air ) 90 0 0 0 );
        value           nonuniform List<scalar> 
50
(
1.70318e-20
7.55615e-19
1.62167e-17
2.23245e-16
2.20133e-15
1.64685e-14
9.69128e-14
4.57959e-13
1.716e-12
7.46992e-12
1.09462e-10
2.19298e-09
7.97044e-09
1.73898e-08
3.32581e-08
1.04976e-07
3.46586e-06
0.00241804
0.139903
0.817632
0.999882
0.999999
0.999998
0.999998
0.999998
0.999998
0.999999
0.999999
0.999999
0.999999
0.999999
0.999999
0.999999
0.999999
1
1
1
1
1
1
1
1
1
1
1
1
1
1
1
1
)
;
    }
    rightWall
    {
        type            alphaContactAngle;
        thetaProperties 6 ( ( water mercury ) 90 0 0 0 ( water air ) 90 0 0 0 ( water oil ) 90 0 0 0 ( mercury air ) 90 0 0 0 ( oil mercury ) 90 0 0 0 ( oil air ) 90 0 0 0 );
        value           nonuniform List<scalar> 
50
(
0.0268765
0.0668145
0.0488651
0.0165109
0.00288561
0.000307692
1.98394e-05
1.75428e-06
5.02893e-06
4.44631e-05
0.000556161
0.00837071
0.0275473
0.0200942
0.0141718
0.0141721
0.0436347
0.204356
0.628931
0.938911
0.997293
0.999971
1
1
1
1
1
1
1
1
1
0.999999
0.999999
1
1
1
1
1
1
1
1
1
1
1
1
1
1
1
1
1
)
;
    }
    lowerWall
    {
        type            alphaContactAngle;
        thetaProperties 6 ( ( water mercury ) 90 0 0 0 ( water air ) 90 0 0 0 ( water oil ) 90 0 0 0 ( mercury air ) 90 0 0 0 ( oil mercury ) 90 0 0 0 ( oil air ) 90 0 0 0 );
        value           nonuniform List<scalar> 
62
(
1.70318e-20
1.47664e-20
1.59334e-20
2.56845e-20
3.12063e-20
6.43327e-20
6.66859e-20
4.41101e-19
4.55577e-19
1.67334e-18
1.32154e-17
3.82161e-17
4.94359e-17
4.78674e-17
4.26225e-17
4.92328e-17
5.4588e-17
5.0103e-17
3.51971e-17
2.14075e-17
1.1153e-17
4.64236e-18
1.12501e-18
1.12501e-18
1.23515e-17
7.42831e-17
3.12099e-16
8.05864e-16
1.48514e-15
2.81437e-15
4.97115e-15
0.0140457
0.917384
0.976967
0.641118
9.08568e-05
5.13671e-05
2.99112e-05
3.38615e-05
0.00110504
0.0113231
0.00988485
0.00757298
9.08568e-05
0.000204782
0.000274591
0.00026605
0.000196291
0.000195296
0.000209836
0.000137748
0.000145865
9.93586e-05
4.36908e-05
6.23579e-05
0.000820346
0.011594
0.00807877
0.00372124
0.0231306
0.152357
0.0268765
)
;
    }
    atmosphere
    {
        type            inletOutlet;
        inletValue      uniform 1;
        value           nonuniform List<scalar> 
46
(
1
1
1
1
1
1
1
1
1
1
1
1
1
1
1
1
1
1
1
1
1
1
1
0.999999
1
1
1
1
1
1
1
1
0.999999
0.999999
0.999999
0.999999
0.999999
1
1
1
1
1
1
1
1
1
)
;
    }
    defaultFaces
    {
        type            empty;
    }
}


// ************************************************************************* //
