/*--------------------------------*- C++ -*----------------------------------*\
| =========                 |                                                 |
| \\      /  F ield         | OpenFOAM: The Open Source CFD Toolbox           |
|  \\    /   O peration     | Version:  2.4.0                                 |
|   \\  /    A nd           | Web:      www.OpenFOAM.org                      |
|    \\/     M anipulation  |                                                 |
\*---------------------------------------------------------------------------*/
FoamFile
{
    version     2.0;
    format      ascii;
    class       volScalarField;
    location    "0.25";
    object      alpha.oil;
}
// * * * * * * * * * * * * * * * * * * * * * * * * * * * * * * * * * * * * * //

dimensions      [0 0 0 0 0 0 0];

internalField   nonuniform List<scalar> 
2268
(
1.34062e-33
7.06179e-32
2.15754e-30
5.49952e-29
9.46763e-28
2.59698e-26
1.7447e-25
6.13749e-24
3.80513e-18
4.5856e-14
3.25977e-11
5.23846e-10
2.36514e-09
6.3473e-09
1.39168e-08
4.24814e-08
1.54865e-07
4.65776e-07
1.1948e-06
2.54587e-06
1.32229e-05
0.000100448
0.000227556
1.1959e-31
5.9072e-30
1.67889e-28
3.9057e-27
6.27704e-26
1.4188e-24
9.63634e-24
2.11723e-22
7.88644e-17
5.95458e-13
3.5263e-10
4.09647e-09
1.22089e-08
2.63325e-08
6.25235e-08
2.17607e-07
7.1411e-07
1.74482e-06
3.02306e-06
4.28857e-06
1.43642e-05
0.000108337
0.000277494
5.20274e-30
2.4046e-28
6.34548e-27
1.34526e-25
2.02763e-24
3.81352e-23
2.5269e-22
3.64338e-21
7.2228e-16
3.31511e-12
1.59711e-09
1.54543e-08
3.66925e-08
1.11017e-07
5.68625e-07
2.64603e-06
8.66345e-06
4.13928e-05
5.07319e-05
4.26427e-05
3.18227e-05
0.000121602
0.000327118
1.47107e-28
6.34823e-27
1.55148e-25
2.99556e-24
4.24899e-23
6.71397e-22
4.1953e-21
4.2088e-20
3.7986e-15
1.06132e-11
3.81686e-09
5.96304e-08
4.897e-07
2.51497e-06
1.05339e-05
4.39304e-05
0.000215887
0.00119954
0.0011156
0.000707959
0.000261473
0.000168952
0.000365192
3.03892e-27
1.22201e-25
2.75718e-24
4.85239e-23
6.48938e-22
8.68364e-21
4.99111e-20
3.68029e-19
1.27125e-14
2.24494e-11
9.23759e-09
5.11945e-07
5.83959e-06
2.95528e-05
0.000105543
0.000488475
0.00251288
0.013013
0.0567684
0.0506942
0.0166624
0.00150764
0.000418612
4.88833e-26
1.82827e-24
3.79567e-23
6.09878e-22
7.70686e-21
8.76206e-20
4.56461e-19
2.59758e-18
2.91567e-14
4.32438e-11
2.38164e-08
1.51663e-06
2.21228e-05
0.000152169
0.000649936
0.00299742
0.0131384
0.0384118
0.102758
0.157794
0.0951152
0.0117791
0.000597289
6.37323e-25
2.2132e-23
4.21449e-22
6.19944e-21
7.41656e-20
7.14745e-19
3.36943e-18
1.52311e-17
5.21323e-14
1.12463e-10
3.45662e-08
2.16984e-06
3.70872e-05
0.000322347
0.0014634
0.00506514
0.0175737
0.0415727
0.0792325
0.176385
0.187375
0.0477184
0.00176063
6.92143e-24
2.22827e-22
3.88134e-21
5.24919e-20
5.942e-19
4.83137e-18
2.06735e-17
7.62758e-17
8.99078e-14
1.49938e-10
4.1066e-08
2.18104e-06
2.74224e-05
0.000174192
0.000828289
0.00514896
0.0124065
0.0273675
0.0733396
0.18204
0.273773
0.111734
0.00511468
0.999912
0.999798
0.999727
0.999734
0.999803
0.999804
0.999791
0.999863
0.999855
0.999902
0.999958
0.999939
0.999182
0.988408
0.991924
0.996282
0.976873
0.847648
0.973129
0.999952
0.999959
0.999973
0.999983
0.999983
0.999979
0.999989
0.999997
1
1
1
0.999962
0.999626
0.999635
0.999577
0.999086
0.977992
0.847914
0.933189
0.999973
0.999973
0.999973
0.999971
0.999973
0.999961
0.999954
0.999973
0.999994
1
1
1
1
1
0.999999
0.999955
0.985654
0.927679
0.951138
0.99997
0.997463
0.959842
0.998116
0.999927
0.999941
0.999933
0.99995
0.999983
0.999998
1
1
1
1
1
0.999996
0.996368
0.98422
0.983492
0.998899
0.863803
0.203955
0.871511
0.998748
0.999825
0.999917
0.999935
0.999975
0.999996
1
1
1
1
1
0.999999
0.999724
0.998196
0.997117
0.988682
0.363759
0.00590735
0.222631
0.964779
0.999295
0.999893
0.999921
0.99997
0.999991
0.999997
0.999999
1
1
1
1
0.999995
0.999902
0.999694
0.99012
0.133053
0.000715359
0.0289552
0.74366
0.997731
0.999853
0.999907
0.999966
0.999977
0.999985
0.999996
1
1
1
1
1
0.999999
0.999982
0.992433
0.11716
0.000733546
0.00375271
0.612666
0.995522
0.999747
0.999891
0.999957
0.999948
0.99997
0.999992
0.999999
1
1
1
1
1
1
6.38329e-23
1.90264e-21
3.02538e-20
3.78902e-19
4.02448e-18
2.76581e-17
1.06992e-16
3.35992e-16
1.17495e-13
1.51141e-10
2.21263e-08
8.28203e-07
1.02789e-05
7.8935e-05
0.000407204
0.00198752
0.0060101
0.0191179
0.0546006
0.162436
0.331436
0.252408
0.0642064
8.98722e-22
2.46541e-20
3.55426e-19
4.16224e-18
4.03308e-17
2.38247e-16
8.02079e-16
2.2001e-15
2.09094e-13
1.56302e-11
5.45976e-09
4.44038e-07
7.93543e-06
5.81634e-05
0.000243014
0.000898025
0.0036098
0.0135191
0.0486763
0.147571
0.386844
0.438477
0.238758
1.02421e-20
2.58009e-19
3.3994e-18
3.77523e-17
3.27546e-16
1.66615e-15
4.83001e-15
1.16794e-14
1.24438e-13
6.45809e-12
1.46422e-08
1.4094e-06
1.40464e-05
6.84343e-05
0.000315278
0.00160216
0.00722155
0.0247612
0.0688936
0.172938
0.435482
0.605896
0.49806
1.01679e-19
2.32071e-18
2.75461e-17
2.88362e-16
2.16911e-15
9.23124e-15
2.31487e-14
4.91789e-14
3.92183e-13
2.57508e-10
5.28899e-08
2.70374e-06
2.77692e-05
0.000164558
0.000975044
0.00581145
0.0248231
0.0760492
0.164263
0.299736
0.543345
0.762583
0.739998
8.50445e-19
1.76754e-17
1.8823e-16
1.90359e-15
1.20803e-14
4.26565e-14
9.35047e-14
1.80264e-13
2.67178e-12
1.93421e-09
1.07597e-07
5.24749e-06
5.39187e-05
0.000461508
0.00430377
0.0253024
0.0918542
0.231054
0.417223
0.589233
0.752001
0.904323
0.902217
6.1047e-18
1.16011e-16
1.10575e-15
1.10141e-14
5.70572e-14
1.63704e-13
3.15446e-13
5.6538e-13
1.96736e-11
1.77119e-08
2.24013e-07
2.37425e-05
0.000546817
0.00598181
0.0366833
0.134513
0.322536
0.574435
0.779068
0.88195
0.932687
0.980957
0.981155
3.87037e-17
6.72823e-16
5.74159e-15
5.63855e-14
2.31667e-13
5.23334e-13
8.84162e-13
1.48597e-12
2.65655e-10
8.74009e-08
3.44295e-05
0.0022847
0.0204744
0.0856552
0.234859
0.477851
0.73531
0.9121
0.969484
0.98839
0.993567
0.998806
0.998926
2.19815e-16
3.49806e-15
2.69529e-14
2.57522e-13
8.02622e-13
1.40539e-12
2.08136e-12
3.7662e-12
6.88858e-09
1.20113e-05
0.00224594
0.0535623
0.205148
0.425566
0.659702
0.861142
0.966229
0.994637
0.998876
0.999786
0.999901
0.999989
0.999991
1.13386e-15
1.64706e-14
1.16172e-13
1.06642e-12
2.24917e-12
3.32088e-12
5.40167e-12
2.13908e-09
1.24436e-06
0.000533924
0.0367783
0.313268
0.63778
0.837318
0.940601
0.986863
0.998328
0.999888
0.999994
1
1
1
1
5.33535e-15
7.03477e-14
4.63959e-13
4.14631e-12
4.75659e-12
1.00949e-11
1.9353e-09
2.19504e-07
2.59177e-05
0.00542296
0.152652
0.631903
0.894786
0.96986
0.992933
0.999066
0.999906
0.99999
0.999995
0.999996
0.999998
0.999997
0.99998
2.29347e-14
2.71901e-13
1.64056e-12
1.75734e-11
7.27584e-11
9.5863e-10
9.42471e-08
2.23901e-06
0.00013645
0.0143973
0.210201
0.547196
0.791822
0.917431
0.95555
0.979039
0.988412
0.992839
0.993567
0.993238
0.992935
0.98849
0.974813
8.94473e-14
9.54494e-13
6.4621e-12
1.07761e-10
1.04942e-09
1.48793e-08
4.45962e-07
4.76615e-06
0.000242524
0.00268812
0.00402798
0.0206246
0.104981
0.279968
0.401285
0.547449
0.638501
0.694029
0.693248
0.656905
0.607319
0.504999
0.255315
3.11897e-13
3.07787e-12
1.48627e-11
2.16786e-10
5.133e-09
6.63144e-08
6.61703e-07
8.03887e-06
3.12804e-05
3.96978e-05
3.76362e-06
2.90125e-06
2.91642e-05
0.000364986
0.00188557
0.00903159
0.0195247
0.0268424
0.0235329
0.0112599
0.00181487
7.61631e-05
1.59824e-05
4.78421e-13
4.26546e-12
3.2023e-11
5.95808e-10
1.64609e-08
1.12883e-07
3.46806e-07
6.49961e-07
2.23875e-07
4.61153e-08
2.15796e-08
1.11193e-08
3.53254e-08
1.18481e-07
2.75563e-07
7.10545e-07
1.02045e-06
1.0322e-06
7.7417e-07
5.0919e-07
4.00575e-07
5.79518e-07
2.71726e-07
1.23558e-13
1.97876e-12
2.53398e-11
3.29053e-10
2.79455e-09
1.39371e-08
2.52406e-08
2.00563e-08
1.53673e-08
9.80005e-09
1.64079e-09
4.60312e-09
2.43597e-08
7.11247e-08
1.20602e-07
1.60056e-07
2.14707e-07
3.08788e-07
4.26297e-07
3.39792e-07
1.87933e-07
1.53456e-07
1.01144e-07
2.33816e-14
5.90405e-13
8.98901e-12
9.9206e-11
5.73267e-10
1.47356e-09
1.73314e-09
6.29465e-10
4.47446e-10
5.85161e-10
7.554e-10
2.87207e-09
2.14449e-08
9.79729e-08
2.81621e-07
4.59811e-07
5.38838e-07
5.1275e-07
4.60122e-07
2.34752e-07
9.45881e-08
7.22885e-08
5.55409e-08
1.55811e-15
4.93432e-14
1.04145e-12
1.05832e-11
6.07452e-11
1.38598e-10
1.11592e-10
7.1276e-11
8.2359e-11
2.26177e-10
6.11209e-10
1.30548e-09
1.21431e-08
1.00991e-07
4.95789e-07
7.81422e-07
8.0649e-07
7.96981e-07
2.94729e-07
1.27117e-07
8.53112e-08
5.20049e-08
3.34595e-08
2.17172e-16
1.29362e-14
3.45521e-13
4.10043e-12
1.4648e-11
2.72846e-11
2.40592e-11
2.58089e-11
6.65252e-11
2.05525e-10
4.38627e-10
1.23654e-09
1.09076e-08
1.18719e-07
5.38624e-07
8.0649e-07
8.07081e-07
4.74426e-07
9.62961e-08
8.84632e-08
8.83891e-08
4.93264e-08
3.06865e-08
1.08293e-16
5.57111e-15
1.1061e-13
9.76748e-13
3.83454e-12
6.7635e-12
7.76197e-12
1.30714e-11
4.97096e-11
1.84663e-10
4.61962e-10
1.384e-09
7.9969e-09
6.35136e-08
2.3789e-07
6.97887e-07
7.36058e-07
4.36828e-07
3.13281e-07
1.87964e-07
9.96212e-08
5.01014e-08
2.36204e-08
4.6012e-17
1.85381e-15
2.90875e-14
2.13784e-13
7.53226e-13
1.29216e-12
1.96517e-12
5.8717e-12
3.13813e-11
1.61864e-10
6.18942e-10
1.42031e-09
1.90485e-09
2.30717e-08
1.15404e-07
2.47527e-07
3.32023e-07
4.57176e-07
3.85264e-07
2.55312e-07
1.29493e-07
4.95802e-08
1.54874e-08
1.96891e-22
2.40775e-20
1.35447e-18
4.59305e-17
1.04732e-15
1.71108e-14
2.08472e-13
1.94692e-12
1.41464e-11
7.90105e-11
3.13703e-10
7.36666e-10
8.07008e-10
4.06016e-09
3.8979e-08
1.21722e-07
1.79337e-07
2.31162e-07
2.62466e-07
2.10227e-07
1.21826e-07
4.89598e-08
1.17341e-08
2.85784e-23
3.05213e-21
1.54277e-19
4.88608e-18
1.08185e-16
1.77001e-15
2.19996e-14
2.09958e-13
1.53763e-12
8.54193e-12
3.47679e-11
9.58728e-11
1.41847e-10
1.95821e-10
3.57727e-09
2.61733e-08
7.2355e-08
8.62365e-08
9.02431e-08
7.81629e-08
5.14825e-08
2.40762e-08
6.53727e-09
4.46846e-25
4.08844e-23
1.77815e-21
4.93845e-20
1.00028e-18
1.60513e-17
2.15031e-16
2.44107e-15
2.29746e-14
1.71099e-13
9.53722e-13
3.76943e-12
9.87839e-12
1.61357e-11
1.15938e-10
9.88524e-10
5.43128e-09
1.22385e-08
1.75728e-08
1.74857e-08
8.68298e-09
5.63554e-09
1.69341e-09
6.52504e-26
6.11172e-24
2.73027e-22
7.74627e-21
1.57314e-19
2.454e-18
3.09445e-17
3.27793e-16
2.97603e-15
2.30263e-14
1.47613e-13
7.53585e-13
2.91801e-12
8.0195e-12
1.44237e-11
9.04478e-11
5.86506e-10
1.9656e-09
2.98427e-09
2.81773e-09
1.12201e-09
2.8296e-10
8.22867e-11
6.82131e-27
6.84972e-25
3.26313e-23
9.81868e-22
2.09673e-20
3.38196e-19
4.28451e-18
4.37855e-17
3.67557e-16
2.56292e-15
1.49313e-14
7.2719e-14
2.94784e-13
9.88095e-13
2.71266e-12
6.11714e-12
1.47711e-11
7.15959e-11
1.4558e-10
1.70724e-10
1.81547e-10
1.17994e-10
3.8102e-11
4.73432e-28
5.18946e-26
2.70049e-24
8.88179e-23
2.07314e-21
3.65208e-20
5.04242e-19
5.59461e-18
5.0723e-17
3.80016e-16
2.37217e-15
1.2423e-14
5.4873e-14
2.04546e-13
6.41025e-13
1.67099e-12
3.57075e-12
6.19127e-12
1.19557e-11
1.98405e-11
2.02894e-11
1.45463e-11
6.19572e-12
4.07594e-30
4.82831e-28
2.72496e-26
9.75635e-25
2.48756e-23
4.80091e-22
7.27858e-21
8.88434e-20
8.88589e-19
7.3846e-18
5.15966e-17
3.05729e-16
1.54209e-15
6.63087e-15
2.43188e-14
7.6105e-14
2.0285e-13
4.58327e-13
8.66944e-13
1.33703e-12
1.60617e-12
1.39326e-12
7.44974e-13
2.2952e-32
2.95165e-30
1.80666e-28
7.02424e-27
1.94879e-25
4.10681e-24
6.83276e-23
9.21024e-22
1.02407e-20
9.51179e-20
7.44868e-19
4.95533e-18
2.81917e-17
1.37841e-16
5.80384e-16
2.10217e-15
6.5247e-15
1.72082e-14
3.80528e-14
6.90819e-14
9.92752e-14
1.05517e-13
7.20293e-14
8.74635e-35
1.23311e-32
8.30619e-31
3.56384e-29
1.09437e-27
2.55954e-26
4.73757e-25
7.12031e-24
8.85101e-23
9.22808e-22
8.15695e-21
6.16081e-20
3.9963e-19
2.23352e-18
1.07776e-17
4.49088e-17
1.61153e-16
4.94998e-16
1.28647e-15
2.77202e-15
4.78567e-15
6.23843e-15
5.4566e-15
2.31877e-37
3.63212e-35
2.71686e-33
1.2967e-31
4.43856e-30
1.16016e-28
2.40719e-27
4.06959e-26
5.71073e-25
6.74332e-24
6.76999e-23
5.825e-22
4.32161e-21
2.77613e-20
1.54709e-19
7.47766e-19
3.12638e-18
1.12387e-17
3.43672e-17
8.78239e-17
1.8212e-16
2.91358e-16
3.26586e-16
4.43054e-40
7.75163e-38
6.49083e-36
3.47486e-34
1.33697e-32
3.93724e-31
9.22772e-30
1.76713e-28
2.81769e-27
3.79335e-26
4.35731e-25
4.30424e-24
3.67737e-23
2.72793e-22
1.76093e-21
9.89373e-21
4.82758e-20
2.03506e-19
7.34166e-19
2.23156e-18
5.57304e-18
1.09689e-17
1.57654e-17
6.00064e-43
1.18853e-40
1.12695e-38
6.8424e-37
2.9909e-35
1.00254e-33
2.67996e-32
5.86646e-31
1.07165e-29
1.65666e-28
2.19034e-27
2.49673e-26
2.46837e-25
2.12528e-24
1.5973e-23
1.04835e-22
5.99823e-22
2.9785e-21
1.2733e-20
4.62529e-20
1.39849e-19
3.40453e-19
6.2869e-19
5.76378e-46
1.30501e-43
1.41574e-41
9.84799e-40
4.93847e-38
1.90196e-36
5.85151e-35
1.4769e-33
3.11688e-32
5.57833e-31
8.55743e-30
1.1344e-28
1.30739e-27
1.31562e-26
1.15898e-25
8.94582e-25
6.04321e-24
3.56035e-23
1.8174e-22
7.95329e-22
2.93561e-21
8.90695e-21
2.11985e-20
3.79047e-49
9.94636e-47
1.25044e-44
1.00895e-42
5.87471e-41
2.63007e-39
9.41816e-38
2.77081e-36
6.82685e-35
1.42892e-33
2.56854e-32
3.99832e-31
5.42406e-30
6.44191e-29
6.71782e-28
6.15937e-27
4.96292e-26
3.50539e-25
2.15956e-24
1.15109e-23
5.24348e-23
2.00178e-22
6.16765e-22
1.61605e-52
4.9966e-50
7.394e-48
7.02638e-46
4.82164e-44
2.54634e-42
1.07681e-40
3.74585e-39
1.09281e-37
2.71267e-36
5.79324e-35
1.07359e-33
1.73784e-32
2.46922e-31
3.08986e-30
3.41146e-29
3.32408e-28
2.85424e-27
2.15229e-26
1.41711e-25
8.075e-25
3.92369e-24
1.57504e-23
4.06877e-56
1.51972e-53
2.70488e-51
3.0903e-49
2.55026e-47
1.62083e-45
8.2572e-44
3.46414e-42
1.22023e-40
3.66186e-39
9.46851e-38
2.12825e-36
4.18722e-35
7.24905e-34
1.10847e-32
1.50071e-31
1.80067e-30
1.91407e-29
1.79895e-28
1.48945e-27
1.07972e-26
6.7741e-26
3.57669e-25
5.22385e-60
2.44879e-57
5.39943e-55
7.62094e-53
7.76658e-51
6.10006e-49
3.84606e-47
1.99996e-45
8.74401e-44
3.26112e-42
1.04917e-40
2.9378e-39
7.21115e-38
1.56051e-36
2.98993e-35
5.08765e-34
7.70307e-33
1.0385e-31
1.24599e-30
1.32787e-29
1.25176e-28
1.03364e-27
7.28384e-27
2.72909e-64
1.70607e-61
4.83358e-59
8.68075e-57
1.12278e-54
1.11933e-52
8.97893e-51
5.9746e-49
3.36833e-47
1.63057e-45
6.83548e-44
2.49682e-42
7.98918e-41
2.25174e-39
5.6201e-38
1.24741e-36
2.46976e-35
4.37146e-34
6.92414e-33
9.81091e-32
1.24007e-30
1.38548e-29
1.33387e-28
4.41375e-69
4.00663e-66
1.50404e-63
3.50582e-61
5.871e-59
7.61011e-57
7.98568e-55
6.99847e-53
5.23188e-51
3.39318e-49
1.93377e-47
9.75579e-46
4.36833e-44
1.73543e-42
6.10956e-41
1.90549e-39
5.27355e-38
1.30003e-36
2.86886e-35
5.68423e-34
1.01012e-32
1.5943e-31
2.17768e-30
4.51514e-74
6.21344e-71
3.13935e-68
9.57805e-66
2.07813e-63
3.47244e-61
4.66739e-59
5.19304e-57
4.90116e-55
4.00512e-53
2.88534e-51
1.8625e-49
1.09168e-47
5.86227e-46
2.89992e-44
1.32332e-42
5.55047e-41
2.12077e-39
7.29764e-38
2.24321e-36
6.14995e-35
1.49656e-33
3.13875e-32
2.63129e-78
3.9139e-75
2.17159e-72
7.2303e-70
1.7009e-67
3.06965e-65
4.48614e-63
5.50455e-61
5.81759e-59
5.40168e-57
4.47821e-55
3.36317e-53
2.32173e-51
1.4937e-49
9.06413e-48
5.24888e-46
2.93281e-44
1.59587e-42
8.49675e-41
4.39744e-39
2.14647e-37
9.40466e-36
3.50623e-34
4.68374e-82
7.12926e-79
4.14708e-76
1.46652e-73
3.69858e-71
7.21549e-69
1.14459e-66
1.52873e-64
1.76394e-62
1.79447e-60
1.63729e-58
1.36049e-56
1.04446e-54
7.52071e-53
5.16029e-51
3.42938e-49
2.24594e-47
1.47636e-45
9.92433e-44
6.93775e-42
5.0979e-40
3.91257e-38
2.97469e-36
0.210495
0.0390348
0.0228371
0.358773
0.261971
0.314327
0.441766
0.388825
0.411404
0.443961
0.517732
0.596812
0.672735
0.616842
0.622636
0.643366
0.877771
0.837724
0.795252
0.765817
0.97567
0.962191
0.937936
0.906638
0.99849
0.996942
0.992526
0.982776
0.999985
0.999955
0.999812
0.999184
1
1
1
0.999994
0.999912
0.999862
0.999731
0.998943
0.928951
0.898159
0.878576
0.807173
0.0529289
0.0123976
0.000904999
3.37386e-05
0.000140278
3.30437e-05
8.69452e-07
4.24224e-08
5.34311e-07
5.45768e-07
2.33815e-07
8.26136e-08
1.40754e-07
1.44072e-07
9.47039e-08
5.96369e-08
5.671e-08
5.07262e-08
3.85635e-08
2.62734e-08
1.76471e-08
1.72122e-08
1.35765e-08
1.03197e-08
9.20061e-09
6.57731e-09
5.7905e-09
4.16079e-09
5.88597e-09
4.16932e-09
3.37747e-09
2.56471e-09
4.60805e-09
2.93935e-09
2.05132e-09
1.41738e-09
1.94424e-09
1.45321e-09
1.04124e-09
7.19935e-10
6.85795e-10
5.34333e-10
3.95847e-10
2.79691e-10
1.95103e-10
1.5489e-10
1.18996e-10
8.72715e-11
4.2982e-11
3.6237e-11
2.93434e-11
2.25905e-11
7.51771e-12
6.68152e-12
5.8309e-12
4.82884e-12
1.15825e-12
1.00521e-12
9.5495e-13
8.54965e-13
1.67156e-13
1.28047e-13
1.29431e-13
1.26099e-13
2.18226e-14
1.42218e-14
1.46946e-14
1.56627e-14
2.35405e-15
1.3945e-15
1.4118e-15
1.65325e-15
2.01566e-16
1.19428e-16
1.15976e-16
1.49819e-16
1.37252e-17
8.80308e-18
8.23167e-18
1.17696e-17
7.59073e-19
5.54834e-19
5.10089e-19
8.09113e-19
3.49779e-20
3.00227e-20
2.78773e-20
4.91194e-20
1.37663e-21
1.41005e-21
1.35671e-21
2.6564e-21
4.73432e-23
5.83063e-23
5.93369e-23
1.29054e-22
1.45268e-24
2.15524e-24
2.35268e-24
5.67708e-24
4.04025e-26
7.22951e-26
8.5295e-26
2.27776e-25
1.02751e-27
2.2331e-27
2.85274e-27
8.38924e-27
2.40775e-29
6.4427e-29
8.89029e-29
2.8516e-28
5.26347e-31
1.76794e-30
2.61694e-30
8.97894e-30
1.04377e-32
4.61737e-32
7.35444e-32
2.62011e-31
1.93402e-34
1.22169e-33
2.07559e-33
6.96232e-33
0.857537
0.0308871
0.000716713
0.0649008
0.782116
0.994675
0.999206
0.999719
0.999611
0.996983
0.982836
0.951913
0.881447
0.835957
0.78244
0.869825
0.987806
0.999637
0.999997
0.155283
0.00830201
0.00552317
0.337726
0.924297
0.994348
0.997858
0.998161
0.979984
0.864637
0.607291
0.321468
0.094604
0.0144086
0.0277346
0.102461
0.633518
0.987478
0.999957
0.39769
0.190712
0.332547
0.818729
0.974213
0.987251
0.993705
0.972893
0.723614
0.250583
0.0296289
0.00130709
2.67351e-05
1.1672e-05
4.46363e-05
0.000707789
0.0959159
0.926039
0.999446
0.681975
0.748575
0.854014
0.923916
0.955058
0.979149
0.97875
0.778182
0.211479
0.0123381
0.00014473
3.8741e-06
4.7794e-06
4.62207e-06
5.71874e-06
4.3695e-06
0.00246438
0.688579
0.991631
0.778165
0.819732
0.867174
0.911821
0.948202
0.972457
0.889136
0.346585
0.026444
0.000279055
4.53823e-06
3.74144e-06
3.02962e-06
2.94498e-06
3.31406e-06
4.30912e-06
1.25041e-05
0.327432
0.972455
0.882682
0.888171
0.909561
0.939845
0.960053
0.933497
0.546935
0.0780769
0.00161869
4.88054e-06
2.89046e-06
2.39736e-06
2.02392e-06
2.0506e-06
2.70967e-06
4.11436e-06
4.2296e-06
0.171508
0.979908
0.965606
0.964078
0.969125
0.975569
0.96719
0.690935
0.137693
0.00496128
2.04182e-05
2.54765e-06
1.99985e-06
1.59251e-06
1.43245e-06
1.62588e-06
2.30933e-06
3.69591e-06
4.43275e-06
0.155591
0.985831
0.996497
0.995203
0.995266
0.986007
0.766311
0.18495
0.00607925
1.13972e-05
1.96224e-06
1.68823e-06
1.32652e-06
1.04541e-06
1.00776e-06
1.30089e-06
2.00635e-06
3.29242e-06
4.39319e-06
0.10445
0.985831
0.999935
0.998918
0.972702
0.686922
0.124658
0.00249696
2.75897e-06
1.47337e-06
1.37992e-06
1.12554e-06
8.43591e-07
6.62824e-07
6.97581e-07
1.05801e-06
1.84038e-06
3.17495e-06
4.40457e-06
0.0308079
0.956369
0.989926
0.873159
0.354018
0.023142
8.20408e-05
1.03698e-06
9.40488e-07
9.89238e-07
9.00312e-07
7.02468e-07
5.08008e-07
4.01727e-07
4.72925e-07
8.67871e-07
1.75155e-06
3.31208e-06
4.66814e-06
0.00326228
0.795649
0.367155
0.0254753
8.74952e-05
1.64817e-05
3.94056e-07
4.79448e-07
6.10481e-07
6.24467e-07
5.44895e-07
4.09096e-07
2.88482e-07
2.29784e-07
3.00546e-07
6.66362e-07
1.57396e-06
3.23049e-06
4.88607e-06
9.9312e-05
0.371074
6.63848e-06
3.12356e-05
9.86437e-07
4.4053e-08
1.90202e-07
2.95782e-07
3.6262e-07
3.61161e-07
3.04202e-07
2.23229e-07
1.54304e-07
1.22033e-07
1.68809e-07
4.40604e-07
1.25952e-06
2.89748e-06
4.59873e-06
4.97287e-06
0.0610941
3.59529e-08
3.84892e-08
3.23215e-08
3.90284e-08
1.02728e-07
1.61428e-07
1.92968e-07
1.90089e-07
1.58104e-07
1.14262e-07
7.75989e-08
5.98249e-08
8.08564e-08
2.37821e-07
8.62267e-07
2.36807e-06
3.85025e-06
4.86701e-05
0.00271114
3.21045e-08
1.4186e-08
1.55279e-08
2.65814e-08
5.06085e-08
7.67808e-08
9.22223e-08
9.1502e-08
7.66665e-08
5.48457e-08
3.66879e-08
2.7294e-08
3.29963e-08
9.29119e-08
4.04993e-07
1.70736e-06
5.85554e-06
4.40375e-05
3.35515e-05
2.79878e-08
8.17489e-09
7.36537e-09
1.24675e-08
2.16242e-08
3.2466e-08
3.98095e-08
4.04106e-08
3.43011e-08
2.45482e-08
1.6341e-08
1.18079e-08
1.25339e-08
2.92142e-08
1.22019e-07
5.64523e-07
2.48986e-06
7.29812e-06
3.59031e-06
1.90439e-08
4.89713e-09
2.98051e-09
4.75097e-09
8.06591e-09
1.23392e-08
1.55849e-08
1.63458e-08
1.40559e-08
1.01175e-08
6.73088e-09
4.7733e-09
4.56405e-09
8.49434e-09
3.17014e-08
1.42741e-07
5.82711e-07
1.77856e-06
1.94173e-06
7.8893e-09
2.3152e-09
1.0638e-09
1.55432e-09
2.65988e-09
4.23442e-09
5.58446e-09
6.2652e-09
5.1683e-09
3.63497e-09
2.51993e-09
1.77051e-09
1.56309e-09
2.30803e-09
7.13527e-09
3.12516e-08
1.31225e-07
4.31492e-07
6.6587e-07
3.26649e-09
8.06099e-10
3.23108e-10
4.41475e-10
7.83108e-10
1.30805e-09
1.80117e-09
2.12093e-09
1.85595e-09
1.1756e-09
8.00579e-10
5.94849e-10
4.96677e-10
6.02323e-10
1.43947e-09
5.75227e-09
2.45645e-08
8.6646e-08
1.54772e-07
1.80445e-09
2.99614e-10
8.61912e-11
1.10558e-10
2.08035e-10
3.64022e-10
5.22335e-10
6.43849e-10
5.85644e-10
3.60732e-10
2.39649e-10
1.72136e-10
1.43938e-10
1.50531e-10
2.72173e-10
9.12688e-10
3.77631e-09
1.37186e-08
2.61147e-08
9.11177e-10
1.01758e-10
1.83501e-11
2.46877e-11
5.39936e-11
9.57581e-11
1.36966e-10
1.75569e-10
1.65594e-10
1.00086e-10
6.53956e-11
4.59257e-11
3.69443e-11
3.52511e-11
4.95548e-11
1.29711e-10
4.88833e-10
1.75241e-09
3.38875e-09
4.76639e-10
5.35904e-11
6.38819e-12
4.81143e-12
6.51862e-12
1.49349e-11
3.20039e-11
4.23236e-11
4.15597e-11
2.50051e-11
1.65986e-11
1.13003e-11
8.71149e-12
7.57136e-12
8.68085e-12
1.71276e-11
5.4967e-11
1.86606e-10
3.54082e-10
1.89112e-10
2.63543e-11
2.51472e-12
1.14185e-12
1.65402e-12
3.21253e-12
6.71822e-12
9.20958e-12
9.16093e-12
5.94467e-12
3.80272e-12
2.50197e-12
1.84078e-12
1.47239e-12
1.4369e-12
2.15257e-12
5.53608e-12
1.70633e-11
3.08788e-11
6.0806e-11
9.97439e-12
1.01301e-12
2.96642e-13
3.31338e-13
6.4352e-13
1.26255e-12
1.80654e-12
1.84842e-12
1.25393e-12
7.86296e-13
4.98763e-13
3.48277e-13
2.57896e-13
2.20514e-13
2.59185e-13
5.131e-13
1.37447e-12
2.31144e-12
1.61921e-11
3.07496e-12
3.67228e-13
8.2649e-14
5.97002e-14
1.10953e-13
2.13524e-13
3.19685e-13
3.37888e-13
2.36916e-13
1.46551e-13
8.95503e-14
5.91637e-14
4.06672e-14
3.09988e-14
2.96972e-14
4.46685e-14
9.96868e-14
1.51836e-13
3.67124e-12
8.02431e-13
1.12867e-13
2.28451e-14
1.05845e-14
1.67856e-14
3.2589e-14
5.10062e-14
5.58188e-14
4.02454e-14
2.46138e-14
1.45013e-14
9.05442e-15
5.78499e-15
3.97109e-15
3.2019e-15
3.6973e-15
6.62933e-15
8.90874e-15
6.9319e-13
1.79545e-13
2.90746e-14
5.81493e-15
1.93019e-15
2.29215e-15
4.49317e-15
7.34159e-15
8.33505e-15
6.15693e-15
3.7289e-15
2.12233e-15
1.25258e-15
7.44724e-16
4.63285e-16
3.21849e-16
2.92144e-16
4.10285e-16
4.73589e-16
1.09855e-13
3.42598e-14
6.3362e-15
1.31381e-15
3.58725e-16
2.91183e-16
5.60587e-16
9.54946e-16
1.12639e-15
8.49828e-16
5.10526e-16
2.81402e-16
1.57169e-16
8.7078e-17
4.93114e-17
3.00007e-17
2.20003e-17
2.3907e-17
2.30743e-17
1.47044e-14
5.57684e-15
1.18174e-15
2.60321e-16
6.50898e-17
3.55188e-17
6.35518e-17
1.12521e-16
1.38011e-16
1.06092e-16
6.33261e-17
3.38923e-17
1.79492e-17
9.28319e-18
4.80299e-18
2.58839e-18
1.57276e-18
1.32261e-18
1.04008e-18
1.68183e-15
7.78541e-16
1.90401e-16
4.51824e-17
1.10596e-17
4.27874e-18
6.59314e-18
1.20451e-17
1.53677e-17
1.20148e-17
7.13745e-18
3.71873e-18
1.87227e-18
9.05781e-19
4.29608e-19
2.06797e-19
1.06325e-19
6.98538e-20
4.37111e-20
1.66166e-16
9.39924e-17
2.67141e-17
6.89271e-18
1.71585e-18
5.16096e-19
6.32504e-19
1.1755e-18
1.55956e-18
1.23847e-18
7.33331e-19
3.72886e-19
1.79004e-19
8.11959e-20
3.54198e-20
1.53278e-20
6.78061e-21
3.53307e-21
1.72413e-21
1.43323e-17
9.90321e-18
3.28859e-18
9.29155e-19
2.40427e-19
6.19077e-20
5.69014e-20
1.05027e-19
1.44715e-19
1.16615e-19
6.89221e-20
3.42847e-20
1.57419e-20
6.71215e-21
2.70198e-21
1.05681e-21
4.07529e-22
1.71387e-22
6.4202e-23
1.08984e-18
9.19007e-19
3.57865e-19
1.11364e-19
3.03525e-20
7.23382e-21
4.88299e-21
8.63557e-21
1.23237e-20
1.00692e-20
5.9472e-21
2.90074e-21
1.27789e-21
5.13609e-22
1.91439e-22
6.7992e-23
2.30931e-23
7.97909e-24
2.26944e-24
7.37363e-20
7.57927e-20
3.4686e-20
1.19459e-20
3.4592e-21
8.05502e-22
4.06865e-22
6.57572e-22
9.67042e-22
8.00497e-22
4.7298e-22
2.26677e-22
9.61026e-23
3.65155e-23
1.2646e-23
4.09579e-24
1.23557e-24
3.56668e-25
7.65671e-26
4.47802e-21
5.60425e-21
3.01758e-21
1.15469e-21
3.57401e-22
8.41566e-23
3.33758e-23
4.6733e-23
7.02366e-23
5.88445e-23
3.48102e-23
1.64238e-23
6.72031e-24
2.42125e-24
7.81822e-25
2.31843e-25
6.25553e-26
1.53167e-26
2.47935e-27
2.46183e-22
3.74744e-22
2.37483e-22
1.01281e-22
3.36569e-23
8.18367e-24
2.71065e-24
3.12901e-24
4.7448e-24
4.01774e-24
2.38091e-24
1.10778e-24
4.38645e-25
1.50311e-25
4.54124e-26
1.23776e-26
3.00505e-27
6.3252e-28
7.75008e-29
1.23531e-23
2.28556e-23
1.7043e-23
8.11969e-24
2.90644e-24
7.39029e-25
2.17234e-25
1.99569e-25
2.99735e-25
2.55998e-25
1.52011e-25
6.9849e-26
2.68304e-26
8.77086e-27
2.48798e-27
6.25636e-28
1.37399e-28
2.51541e-29
2.35228e-30
5.70318e-25
1.28236e-24
1.12444e-24
5.99394e-25
2.31651e-25
6.20664e-26
1.70292e-26
1.22748e-26
1.78106e-26
1.52975e-26
9.10109e-27
4.13502e-27
1.54421e-27
4.82984e-28
1.29075e-28
3.00563e-29
5.99972e-30
9.65138e-31
6.97255e-32
2.44158e-26
6.67653e-26
6.87759e-26
4.10551e-26
1.7158e-26
4.86598e-27
1.29377e-27
7.37177e-28
1.00203e-27
8.61814e-28
5.13458e-28
2.30878e-28
8.39889e-29
2.52037e-29
6.36662e-30
1.37783e-30
2.51104e-31
3.58096e-32
2.02918e-33
9.7659e-28
3.25401e-27
3.93288e-27
2.62916e-27
1.18908e-27
3.57804e-28
9.45952e-29
4.36933e-29
5.37497e-29
4.60141e-29
2.7426e-29
1.22126e-29
4.33526e-30
1.25149e-30
2.99781e-31
6.05142e-32
1.01118e-32
1.28842e-33
5.82639e-35
3.6754e-29
1.49859e-28
2.12257e-28
1.5884e-28
7.77547e-29
2.48531e-29
6.64306e-30
2.57646e-30
2.77212e-30
2.34295e-30
1.39473e-30
6.1517e-31
2.13383e-31
5.9394e-32
1.35303e-32
2.55619e-33
3.93158e-34
4.50635e-35
1.65593e-36
1.31136e-30
6.56973e-30
1.0874e-29
9.09254e-30
4.81375e-30
1.63477e-30
4.4665e-31
1.51475e-31
1.38527e-31
1.1436e-31
6.78369e-32
2.96385e-32
1.00589e-32
2.70576e-33
5.87922e-34
1.04328e-34
1.48335e-35
1.5392e-36
4.68014e-38
4.4226e-32
2.78484e-31
5.38493e-31
5.01464e-31
2.86303e-31
1.03082e-31
2.89305e-32
8.88269e-33
6.76741e-33
5.38436e-33
3.17285e-33
1.37272e-33
4.56291e-34
1.18848e-34
2.46949e-35
4.12856e-36
5.44275e-37
5.13666e-38
1.31407e-39
)
;

boundaryField
{
    leftWall
    {
        type            zeroGradient;
    }
    rightWall
    {
        type            zeroGradient;
    }
    lowerWall
    {
        type            zeroGradient;
    }
    atmosphere
    {
        type            inletOutlet;
        inletValue      uniform 0;
        value           nonuniform List<scalar> 
46
(
0
0
0
0
0
0
0
0
0
0
0
0
0
0
0
0
0
0
0
0
0
0
0
1.93402e-34
1.22169e-33
2.07559e-33
6.96232e-33
4.4226e-32
2.78484e-31
5.38493e-31
5.01464e-31
2.86303e-31
1.03082e-31
2.89305e-32
8.88269e-33
6.76741e-33
5.38436e-33
3.17285e-33
1.37272e-33
4.56291e-34
1.18848e-34
2.46949e-35
4.12856e-36
5.44275e-37
5.13666e-38
1.31407e-39
)
;
    }
    defaultFaces
    {
        type            empty;
    }
}


// ************************************************************************* //
