/*--------------------------------*- C++ -*----------------------------------*\
| =========                 |                                                 |
| \\      /  F ield         | OpenFOAM: The Open Source CFD Toolbox           |
|  \\    /   O peration     | Version:  2.4.0                                 |
|   \\  /    A nd           | Web:      www.OpenFOAM.org                      |
|    \\/     M anipulation  |                                                 |
\*---------------------------------------------------------------------------*/
FoamFile
{
    version     2.0;
    format      ascii;
    class       volScalarField;
    location    "0.25";
    object      alpha.water;
}
// * * * * * * * * * * * * * * * * * * * * * * * * * * * * * * * * * * * * * //

dimensions      [0 0 0 0 0 0 0];

internalField   nonuniform List<scalar> 
2268
(
3.48437e-12
2.38902e-12
2.24132e-12
2.64595e-12
3.16862e-12
4.29683e-12
4.77577e-12
1.47757e-11
2.48364e-11
9.71269e-11
4.04622e-10
7.60826e-10
8.40621e-10
6.95669e-10
4.1649e-10
1.7144e-10
1.16997e-10
1.18715e-10
1.09812e-10
9.38958e-11
7.58108e-11
5.77217e-11
3.61542e-11
4.57659e-11
3.04076e-11
2.72349e-11
3.01139e-11
3.41314e-11
4.24142e-11
5.05536e-11
1.57006e-10
2.87795e-10
9.47159e-10
3.37647e-09
5.24881e-09
5.29651e-09
4.35331e-09
2.67952e-09
2.61963e-09
7.37368e-09
7.07433e-08
9.68249e-08
8.32394e-08
4.33309e-08
7.88699e-09
2.70531e-10
2.64947e-10
1.6633e-10
1.40515e-10
1.44945e-10
1.55866e-10
1.85503e-10
2.56572e-10
9.0876e-10
1.84626e-09
5.22069e-09
1.52769e-08
1.79764e-08
1.50462e-08
1.35934e-08
4.92453e-08
5.17772e-07
5.20627e-06
4.89634e-05
5.16042e-05
3.80027e-05
1.2647e-05
2.68952e-06
7.75991e-08
9.30962e-10
5.20341e-10
4.02923e-10
3.8474e-10
3.91722e-10
5.19417e-10
9.95899e-10
4.508e-09
9.53798e-09
2.17181e-08
4.74416e-08
6.27141e-08
3.82954e-07
2.21242e-06
1.76277e-05
0.000178457
0.00109628
0.00716828
0.00562984
0.00249356
0.000469427
3.13698e-05
1.421e-06
2.37021e-09
1.06148e-09
7.14979e-10
6.22856e-10
6.00956e-10
1.80814e-09
4.58868e-09
2.25572e-08
4.05358e-08
8.65958e-08
1.57958e-06
2.12071e-05
0.000205373
0.000941238
0.00381669
0.0178294
0.0665682
0.206429
0.312896
0.228975
0.0493376
0.00201778
1.25092e-05
4.67029e-09
1.51816e-09
8.48929e-10
6.6029e-10
8.54096e-10
1.26906e-08
2.58477e-08
5.16132e-07
4.49473e-06
4.95116e-05
0.000517296
0.00335539
0.0168457
0.0533315
0.136936
0.322291
0.602432
0.864018
0.857975
0.739256
0.294598
0.0199641
0.000148297
5.9911e-09
1.35742e-09
6.57313e-10
5.47192e-10
1.11192e-08
3.25802e-06
3.42043e-05
0.000401759
0.00172326
0.00686596
0.0273328
0.0923483
0.244988
0.474085
0.727903
0.929692
0.974425
0.95802
0.920664
0.821671
0.629386
0.0898061
0.00110957
5.11938e-10
5.08012e-10
5.08224e-10
5.04079e-10
0.000255924
0.00306575
0.00911509
0.028428
0.0649377
0.132561
0.267562
0.503025
0.764631
0.933888
0.991318
0.992874
0.98731
0.972589
0.926655
0.817932
0.694038
0.186051
0.00407566
3.41503e-11
1.28718e-10
2.27957e-10
3.2375e-10
3.69172e-10
3.14705e-10
2.2866e-10
2.44981e-10
1.46135e-10
9.91203e-11
5.69641e-11
2.83829e-11
1.55876e-11
8.91576e-12
5.70908e-12
3.76591e-12
2.34604e-12
1.20423e-12
4.34012e-13
4.66617e-11
2.8769e-10
6.66478e-10
1.02639e-09
1.23681e-09
1.28306e-09
1.02844e-09
1.01758e-09
8.73966e-10
7.44834e-10
5.22143e-10
3.32174e-10
1.76255e-10
7.42018e-11
2.1956e-11
1.26659e-11
7.72673e-12
3.94627e-12
1.37792e-12
6.7213e-11
3.04846e-10
6.78824e-10
1.32907e-09
2.19783e-09
2.55209e-09
2.307e-09
2.13207e-09
1.75659e-09
1.31835e-09
9.84483e-10
7.65648e-10
5.27171e-10
3.40035e-10
1.8876e-10
7.94235e-11
1.65249e-11
7.58551e-12
2.90022e-12
4.76267e-11
2.00497e-10
6.03411e-10
1.61916e-09
2.7771e-09
3.36862e-09
3.20881e-09
2.82392e-09
2.31689e-09
1.79542e-09
1.29312e-09
8.77339e-10
6.80758e-10
4.49193e-10
3.16168e-10
2.01546e-10
7.15574e-11
1.34742e-11
5.05878e-12
2.55915e-11
6.50439e-11
3.92103e-10
2.10493e-09
3.1919e-09
3.94353e-09
3.72392e-09
3.10469e-09
2.47618e-09
1.96997e-09
1.50296e-09
1.01126e-09
6.92517e-10
6.10188e-10
4.67727e-10
3.03149e-10
1.38942e-10
2.86992e-11
5.94463e-12
1.29878e-11
8.25025e-12
4.82246e-11
9.71235e-10
3.47069e-09
4.46321e-09
4.01016e-09
3.15679e-09
2.48002e-09
1.96713e-09
1.51359e-09
1.04242e-09
7.78876e-10
6.88673e-10
5.4262e-10
3.50231e-10
1.68894e-10
3.89021e-11
7.02774e-12
1.0651e-11
6.43422e-12
3.08447e-12
1.70129e-10
3.19885e-09
5.1332e-09
4.17743e-09
2.90487e-09
2.26542e-09
1.75287e-09
1.33464e-09
9.5525e-10
6.51282e-10
5.80446e-10
4.54851e-10
3.23503e-10
1.69512e-10
4.20226e-11
8.38506e-12
8.54143e-12
5.67182e-12
2.92419e-12
3.03848e-12
2.75113e-09
6.58505e-09
4.27928e-09
2.44337e-09
1.97559e-09
1.51186e-09
1.12511e-09
7.90416e-10
4.95298e-10
3.81737e-10
2.70364e-10
1.99235e-10
1.43514e-10
5.12944e-11
9.62521e-12
0.106348
0.113805
0.129333
0.154046
0.186393
0.242465
0.307909
0.409657
0.531335
0.661271
0.798393
0.918346
0.976962
0.995679
0.998872
0.997786
0.993931
0.980861
0.945394
0.837556
0.664582
0.343565
0.0437004
0.681821
0.697745
0.726712
0.766493
0.80976
0.862097
0.910489
0.952749
0.979644
0.993079
0.998214
0.999674
0.99994
0.999909
0.999739
0.999093
0.996385
0.986478
0.951321
0.852423
0.611539
0.392675
0.11735
0.991834
0.992945
0.99461
0.996429
0.997813
0.998882
0.999525
0.999825
0.999931
0.999971
0.999989
0.999993
0.999983
0.999929
0.999683
0.998396
0.992777
0.975238
0.931105
0.827055
0.563437
0.343165
0.160385
0.999972
0.999975
0.999979
0.999984
0.999989
0.999992
0.999995
0.999997
0.999998
0.999999
0.999999
0.999997
0.999972
0.999835
0.999025
0.994188
0.975177
0.923951
0.835737
0.70026
0.45627
0.226365
0.135553
1
1
1
1
1
1
1
1
1
1
1
0.999995
0.999946
0.999539
0.995696
0.974698
0.908146
0.768946
0.582777
0.410766
0.24794
0.0939401
0.0657495
1
1
1
1
1
1
1
1
1
1
1
0.999976
0.999453
0.994018
0.963317
0.865487
0.677464
0.425565
0.220932
0.11805
0.06731
0.0188905
0.0135973
1
1
1
1
1
1
1
1
1
1
0.999966
0.997715
0.979526
0.914345
0.765141
0.522149
0.26469
0.0878999
0.0305162
0.0116101
0.00643323
0.00118841
0.000713103
1
1
1
1
1
1
1
1
0.999999
0.999986
0.997751
0.946434
0.794851
0.574434
0.340299
0.138858
0.0337708
0.00536303
0.00112374
0.000213422
9.92539e-05
1.05935e-05
4.76291e-06
0.999997
0.999996
0.999994
0.99999
0.999981
0.999958
0.999898
0.999732
0.999361
0.998359
0.961819
0.685428
0.361855
0.162631
0.0593908
0.0131359
0.00167154
0.000112106
5.63691e-06
2.98884e-07
9.35127e-08
6.03658e-09
6.36597e-09
0.997582
0.997252
0.996552
0.995157
0.992501
0.987446
0.977923
0.960608
0.936461
0.916028
0.769566
0.301067
0.0852797
0.0254995
0.00588628
0.000745995
6.24273e-05
2.39872e-06
4.10264e-08
1.69939e-08
5.12395e-09
1.04815e-09
7.03576e-11
0.860097
0.850317
0.831211
0.798504
0.748593
0.676212
0.576644
0.453376
0.340907
0.286653
0.161066
0.0213522
0.00634918
0.00244925
0.00037519
4.43808e-05
2.79793e-06
3.98223e-07
5.58769e-08
5.78376e-09
7.46699e-10
8.80212e-11
6.77529e-12
0.182368
0.16833
0.14375
0.109956
0.0725024
0.0385978
0.0156533
0.00437818
0.00105694
0.000320287
5.68858e-05
5.71615e-05
0.000138102
0.000126343
2.45791e-05
3.19583e-06
2.72921e-07
3.30532e-08
3.50043e-09
2.31534e-10
6.55566e-12
2.29985e-12
9.81113e-13
0.000117018
8.69184e-05
4.74561e-05
1.85127e-05
5.58615e-06
1.66393e-06
4.99674e-07
1.80698e-07
1.81978e-07
3.46438e-07
2.61711e-08
6.73309e-08
2.5886e-07
7.74063e-07
4.63014e-07
5.42419e-08
3.43645e-09
3.14814e-10
2.27263e-11
1.48804e-12
5.38051e-13
2.05165e-13
1.75382e-13
2.82962e-07
1.67482e-07
1.18735e-07
1.27263e-07
1.62926e-07
1.37029e-07
1.87459e-08
1.68044e-09
5.37801e-10
7.40656e-10
5.91677e-10
5.02589e-10
1.44743e-09
5.95657e-09
2.20928e-09
3.36338e-11
1.19427e-13
4.9759e-14
4.32753e-14
3.64914e-14
4.7268e-14
9.58284e-14
4.69126e-14
5.55519e-08
1.17159e-08
5.70628e-09
6.45656e-09
1.44189e-08
1.53933e-08
1.27264e-08
7.56473e-10
1.17358e-10
1.44928e-10
2.26877e-10
3.34524e-10
5.88391e-10
5.06105e-10
1.65669e-11
4.37104e-13
4.51431e-14
3.16552e-14
2.16168e-14
7.42794e-15
1.40141e-15
4.29807e-15
1.68287e-14
1.4909e-08
3.74581e-09
1.30019e-09
8.88894e-10
9.17888e-10
1.13106e-09
1.09109e-09
4.70486e-10
1.17219e-10
1.56063e-10
2.86563e-10
4.2648e-10
6.02099e-10
4.9091e-10
1.13113e-11
2.28432e-14
1.84249e-14
8.45665e-15
1.73783e-15
2.94397e-16
2.88826e-16
9.24618e-16
2.59378e-15
8.08187e-10
4.80055e-10
2.55278e-10
1.32207e-10
9.90742e-11
8.54797e-11
7.86475e-11
1.21189e-10
7.39848e-11
9.70625e-11
1.40081e-10
1.60728e-10
1.8931e-10
9.62378e-11
5.502e-12
4.66037e-15
2.38346e-15
2.25865e-16
2.76615e-17
2.12156e-17
5.19585e-17
1.39413e-16
3.23119e-16
3.58527e-11
7.51791e-11
2.20011e-11
1.34585e-11
1.11102e-11
9.63848e-12
1.00764e-11
1.35858e-11
1.64904e-11
1.70405e-11
2.06076e-11
2.17859e-11
1.77257e-11
1.00727e-11
3.0368e-12
2.53444e-17
1.12898e-18
7.52219e-19
1.82534e-18
4.04539e-18
9.00692e-18
1.97633e-17
3.86477e-17
1.73477e-12
3.74868e-12
1.98287e-12
1.37641e-12
7.7264e-13
5.16434e-13
1.03166e-12
2.33451e-12
3.79482e-12
3.86385e-12
3.89256e-12
4.29551e-12
3.0507e-12
1.91768e-12
3.73721e-13
3.10273e-20
4.10293e-20
1.01581e-19
2.29128e-19
4.95365e-19
1.09107e-18
2.49805e-18
4.94358e-18
3.79237e-21
2.07319e-19
5.3131e-18
8.31861e-17
8.74231e-16
6.2093e-15
2.89556e-14
8.40605e-14
1.40431e-13
1.19989e-13
5.20791e-14
2.53013e-14
6.79488e-15
9.54856e-16
3.9945e-22
1.17107e-21
3.04672e-21
7.37835e-21
1.75133e-20
4.17591e-20
1.00721e-19
2.46988e-19
6.0851e-19
1.43019e-39
2.04386e-37
1.35823e-35
5.52631e-34
1.5433e-32
3.16887e-31
5.00746e-30
6.29741e-29
6.45174e-28
5.45249e-27
3.80612e-26
2.19268e-25
1.05388e-24
4.30482e-24
1.53109e-23
4.88119e-23
1.42567e-22
3.9341e-22
1.07594e-21
3.03198e-21
8.79724e-21
2.58389e-20
7.44491e-20
5.1624e-41
6.54996e-39
3.93064e-37
1.48396e-35
3.95412e-34
7.92125e-33
1.23982e-31
1.55503e-30
1.59383e-29
1.35855e-28
9.72279e-28
5.85746e-27
2.97421e-26
1.30228e-25
5.07903e-25
1.8239e-24
6.23854e-24
2.09332e-23
7.06915e-23
2.42432e-22
8.40834e-22
2.86326e-21
9.17476e-21
6.81175e-43
8.99007e-41
5.63356e-39
2.23375e-37
6.29243e-36
1.33813e-34
2.22962e-33
2.98147e-32
3.25445e-31
2.92996e-30
2.19183e-29
1.38381e-28
7.59207e-28
3.71116e-27
1.64943e-26
6.84141e-26
2.75167e-25
1.11047e-24
4.51474e-24
1.82542e-23
7.16975e-23
2.6745e-22
9.21854e-22
7.66202e-45
1.05865e-42
6.95718e-41
2.89073e-39
8.50285e-38
1.88008e-36
3.24228e-35
4.47691e-34
5.05633e-33
4.76171e-32
3.81173e-31
2.65045e-30
1.63655e-29
9.1471e-29
4.75694e-28
2.36113e-27
1.13076e-26
5.26176e-26
2.40086e-25
1.07551e-24
4.67535e-24
1.91137e-23
7.13774e-23
5.62e-47
7.9039e-45
5.29244e-43
2.25282e-41
6.85713e-40
1.59059e-38
2.92859e-37
4.40456e-36
5.52532e-35
5.87224e-34
5.36049e-33
4.2623e-32
3.00185e-31
1.91431e-30
1.12915e-29
6.31285e-29
3.43699e-28
1.84868e-27
9.76188e-27
4.97068e-26
2.39248e-25
1.07264e-24
4.46467e-24
2.89898e-49
4.32391e-47
3.08363e-45
1.40409e-43
4.58951e-42
1.14721e-40
2.28264e-39
3.7187e-38
5.06723e-37
5.87898e-36
5.91125e-35
5.25449e-34
4.22307e-33
3.13658e-32
2.1979e-31
1.47305e-30
9.47457e-30
5.81575e-29
3.39842e-28
1.89606e-27
1.01138e-26
5.11572e-26
2.40604e-25
1.11087e-51
1.7978e-49
1.39684e-47
6.96012e-46
2.50032e-44
6.89708e-43
1.52016e-41
2.75336e-40
4.19041e-39
5.46783e-38
6.24011e-37
6.34804e-36
5.84925e-35
4.95715e-34
3.92158e-33
2.93687e-32
2.10424e-31
1.45343e-30
9.69426e-30
6.20328e-29
3.76165e-28
2.14475e-27
1.14116e-26
3.28575e-54
5.76952e-52
4.86176e-50
2.63229e-48
1.03048e-46
3.11204e-45
7.55801e-44
1.52065e-42
2.59353e-41
3.82221e-40
4.9537e-39
5.74755e-38
6.0811e-37
5.96995e-36
5.51353e-35
4.83392e-34
4.04283e-33
3.22668e-32
2.45479e-31
1.77868e-30
1.22523e-29
7.9762e-29
4.85524e-28
7.42255e-57
1.43039e-54
1.32866e-52
7.95663e-51
3.45816e-49
1.16383e-47
3.16178e-46
7.14459e-45
1.37534e-43
2.30304e-42
3.41935e-41
4.58e-40
5.61941e-39
6.39996e-38
6.84245e-37
6.92445e-36
6.66499e-35
6.11755e-34
5.3562e-33
4.46435e-32
3.52885e-31
2.63144e-30
1.83764e-29
1.26256e-59
2.70614e-57
2.79606e-55
1.86724e-53
9.07932e-52
3.43257e-50
1.05282e-48
2.70158e-47
5.94259e-46
1.14387e-44
1.96233e-43
3.05041e-42
4.36049e-41
5.80195e-40
7.24982e-39
8.55765e-38
9.57707e-37
1.01794e-35
1.02814e-34
9.86248e-34
8.96669e-33
7.69132e-32
6.18256e-31
1.65288e-62
3.96402e-60
4.59788e-58
3.45821e-56
1.90094e-54
8.15994e-53
2.85585e-51
8.40858e-50
2.13494e-48
4.7718e-47
9.55622e-46
1.74077e-44
2.92053e-43
4.55769e-42
6.66559e-41
9.18376e-40
1.19614e-38
1.4759e-37
1.72696e-36
1.91592e-35
2.01173e-34
1.9914e-33
1.84775e-32
1.61748e-65
4.40722e-63
5.81768e-61
4.99611e-59
3.14769e-57
1.55537e-55
6.29601e-54
2.15466e-52
6.38896e-51
1.67456e-49
3.94454e-48
8.46593e-47
1.67391e-45
3.07528e-44
5.2832e-43
8.52702e-42
1.29739e-40
1.86537e-39
2.53812e-38
3.2693e-37
3.98129e-36
4.56772e-35
4.91068e-34
1.17682e-68
3.68738e-66
5.61315e-64
5.57857e-62
4.08292e-60
2.35342e-58
1.11605e-56
4.49322e-55
1.57311e-53
4.88173e-52
1.36357e-50
3.47078e-49
8.12932e-48
1.76554e-46
3.57665e-45
6.78997e-44
1.21234e-42
2.04148e-41
3.24795e-40
4.88519e-39
6.93932e-38
9.27918e-37
1.16181e-35
6.12903e-72
2.24707e-69
4.01064e-67
4.68871e-65
4.05034e-63
2.76498e-61
1.55795e-59
7.47301e-58
3.12332e-56
1.15819e-54
3.86552e-53
1.17446e-51
3.27792e-50
8.46503e-49
2.03449e-47
4.5724e-46
9.64651e-45
1.91623e-43
3.59141e-42
6.35597e-41
1.0613e-39
1.66679e-38
2.44816e-37
2.16726e-75
9.48493e-73
2.02282e-70
2.83286e-68
2.93891e-66
2.41515e-64
1.64143e-62
9.50923e-61
4.80246e-59
2.15117e-57
8.66305e-56
3.17067e-54
1.06391e-52
3.29638e-51
9.48658e-50
2.54841e-48
6.41638e-47
1.51905e-45
3.38897e-44
7.13161e-43
1.41456e-41
2.63672e-40
4.59017e-39
4.73098e-79
2.54009e-76
6.62615e-74
1.1361e-71
1.44483e-69
1.45723e-67
1.21648e-65
8.65681e-64
5.36653e-62
2.94665e-60
1.452e-58
6.48953e-57
2.65371e-55
1.00008e-53
3.49458e-52
1.13806e-50
3.46902e-49
9.93056e-48
2.67581e-46
6.79314e-45
1.62379e-43
3.64385e-42
7.62857e-41
5.45191e-83
3.73327e-80
1.22662e-77
2.64294e-75
4.22294e-73
5.35335e-71
5.61987e-69
5.02884e-67
3.91677e-65
2.69785e-63
1.6641e-61
9.28733e-60
4.73079e-58
2.21584e-56
9.60361e-55
3.87225e-53
1.45914e-51
5.15669e-50
1.71316e-48
5.35535e-47
1.57411e-45
4.33735e-44
1.11336e-42
2.60077e-87
2.40723e-84
1.0288e-81
2.85366e-79
5.852e-77
9.5178e-75
1.28447e-72
1.48548e-70
1.50543e-68
1.3558e-66
1.09485e-64
7.98087e-63
5.28381e-61
3.19892e-59
1.78373e-57
9.21831e-56
4.43809e-54
1.99875e-52
8.44339e-51
3.34932e-49
1.24686e-47
4.3418e-46
1.40488e-44
3.91764e-92
5.31353e-89
3.03038e-86
1.09808e-83
2.93234e-81
6.22723e-79
1.10123e-76
1.67531e-74
2.24335e-72
2.69402e-70
2.94333e-68
2.94988e-66
2.72018e-64
2.30716e-62
1.79723e-60
1.28549e-58
8.46044e-57
5.14759e-55
2.91312e-53
1.53978e-51
7.60727e-50
3.49936e-48
1.48794e-46
5.75808e-97
1.16406e-93
8.76198e-91
4.06094e-88
1.36804e-85
3.63449e-83
7.96775e-81
1.48546e-78
2.417e-76
3.50864e-74
4.63495e-72
5.6747e-70
6.53874e-68
7.1672e-66
7.5255e-64
7.58548e-62
7.3102e-60
6.66293e-58
5.66007e-56
4.43297e-54
3.19597e-52
2.12274e-50
1.28503e-48
7.04071e-101
1.4794e-97
1.17859e-94
5.73889e-92
2.01369e-89
5.53563e-87
1.26016e-84
2.46638e-82
4.26388e-80
6.65133e-78
9.52928e-76
1.27418e-73
1.61616e-71
1.97454e-69
2.35481e-67
2.77593e-65
3.27169e-63
3.88998e-61
4.68501e-59
5.67648e-57
6.72506e-55
7.47011e-53
7.50494e-51
2.29855e-104
4.88427e-101
4.02976e-98
2.05474e-95
7.60379e-93
2.21753e-90
5.36328e-88
1.1151e-85
2.04692e-83
3.38802e-81
5.1466e-79
7.28755e-77
9.75757e-75
1.25353e-72
1.56827e-70
1.93928e-68
2.40746e-66
3.05195e-64
4.02704e-62
5.65057e-60
8.63171e-58
1.46457e-55
2.73096e-53
0.0124339
0.000111687
1.07587e-08
1.09678e-10
0.0213213
0.00242859
7.16517e-05
8.964e-07
0.0394632
0.0122949
0.00181406
0.000109969
0.0579181
0.0224461
0.00591828
0.00071162
0.0392632
0.0204075
0.00738856
0.00127022
0.00951279
0.00686477
0.00365833
0.000960253
0.000438331
0.000395413
0.000302455
0.000124549
1.87315e-06
1.70506e-06
1.49387e-06
9.49272e-07
3.30242e-09
1.68359e-09
7.28612e-10
3.22678e-10
4.96078e-12
5.07311e-12
7.18282e-12
5.51589e-12
4.83647e-12
3.90498e-12
3.0729e-12
2.17327e-12
8.19449e-13
6.55897e-13
5.34117e-14
5.38257e-14
4.18592e-13
3.71938e-13
3.71701e-14
3.08151e-15
1.88567e-13
2.25677e-13
1.34454e-14
1.97618e-15
5.41929e-14
5.68473e-14
3.25978e-15
1.23864e-15
7.1785e-15
6.52843e-15
8.04144e-16
5.92165e-16
7.34949e-16
6.0806e-16
2.19748e-16
2.20921e-16
6.78716e-17
6.49504e-17
5.56488e-17
6.48433e-17
8.1017e-18
9.9366e-18
1.23346e-17
1.56342e-17
1.20578e-18
1.75692e-18
2.44289e-18
3.2582e-18
1.86748e-19
2.89561e-19
4.17743e-19
5.84168e-19
2.54215e-20
4.01683e-20
6.01296e-20
8.75655e-20
2.77363e-21
4.48892e-21
7.11181e-21
1.10658e-20
2.41236e-22
4.20972e-22
7.20814e-22
1.21867e-21
1.69226e-23
3.35088e-23
6.38185e-23
1.19443e-22
1.0264e-24
2.3482e-24
5.04972e-24
1.04069e-23
5.57528e-26
1.46582e-25
3.54665e-25
8.05876e-25
2.73062e-27
8.13931e-27
2.21331e-26
5.54916e-26
1.19206e-28
4.02435e-28
1.22777e-27
3.4023e-27
4.62854e-30
1.77084e-29
6.06924e-29
1.86451e-28
1.59893e-31
6.95289e-31
2.68275e-30
9.1709e-30
4.92441e-33
2.44392e-32
1.06445e-31
4.06583e-31
1.35555e-34
7.7174e-34
3.80603e-33
1.6314e-32
3.34278e-36
2.1956e-35
1.23073e-34
5.94747e-34
7.39913e-38
5.63946e-37
3.6102e-36
1.97712e-35
1.4733e-39
1.30884e-38
9.62842e-38
6.01234e-37
2.63326e-41
2.74214e-40
2.33717e-39
1.67667e-38
4.17449e-43
5.1684e-42
5.16005e-41
4.2941e-40
5.78567e-45
8.69982e-44
1.03305e-42
1.00994e-41
6.93359e-47
1.29742e-45
1.86418e-44
2.17372e-43
6.65301e-49
1.6483e-47
2.98418e-46
4.27173e-45
5.03004e-51
1.73519e-49
4.04193e-48
7.18264e-47
4.85672e-12
3.44732e-12
3.52679e-12
3.99935e-10
1.43101e-08
1.26016e-08
4.16089e-09
2.04912e-09
1.60696e-09
1.04682e-09
5.71567e-10
3.06403e-10
1.76243e-10
1.08333e-10
7.09665e-11
5.68222e-11
6.22569e-11
3.7577e-11
9.63104e-12
3.38463e-08
6.75512e-10
6.4042e-10
3.49861e-08
7.24462e-08
2.43459e-08
3.5497e-09
1.96689e-09
8.94661e-10
3.21994e-10
9.47336e-11
3.24089e-11
1.21574e-11
3.07599e-12
2.34089e-12
3.01e-12
1.39391e-11
1.8624e-11
8.20086e-12
1.34337e-05
1.31043e-06
7.89554e-07
7.19484e-07
2.64308e-07
2.76309e-08
3.76983e-09
1.50565e-09
4.03665e-10
6.46956e-11
7.27734e-12
1.43742e-12
7.89429e-13
1.16202e-12
1.08359e-12
1.28784e-12
1.90235e-12
7.05495e-12
6.37305e-12
9.56314e-05
2.0175e-05
7.95457e-06
2.53587e-06
4.32222e-07
2.62069e-08
7.54315e-09
1.07607e-09
1.218e-10
8.47746e-12
2.3509e-12
1.27194e-12
6.82601e-13
3.4292e-13
2.94325e-13
8.1825e-13
1.42139e-12
4.71472e-12
5.15047e-12
0.000161876
2.65587e-05
1.01206e-05
3.09538e-06
4.97804e-07
4.44736e-08
6.38344e-09
3.58453e-10
2.30812e-11
3.19251e-12
7.9537e-13
1.79828e-13
6.70768e-14
6.57979e-14
7.51301e-14
5.74289e-13
1.17154e-12
3.72732e-12
4.26491e-12
0.000125908
1.60494e-05
4.95732e-06
1.21401e-06
2.35077e-07
5.50074e-08
2.58515e-09
5.08728e-11
3.82052e-12
6.10753e-13
1.50283e-13
6.67264e-14
2.43354e-14
2.41654e-14
4.892e-14
3.96823e-13
9.33554e-13
3.0755e-12
3.551e-12
2.14567e-05
2.39918e-06
4.59467e-07
1.14654e-07
3.13782e-08
4.4777e-09
1.77432e-10
6.24816e-12
1.6609e-12
1.51631e-13
7.02721e-14
2.57474e-14
1.51115e-14
2.7463e-14
5.80273e-14
2.34987e-13
6.74443e-13
2.56514e-12
2.92927e-12
3.01968e-07
3.21363e-08
4.9986e-09
7.49007e-10
1.52971e-10
1.28388e-11
1.39392e-12
3.02064e-13
1.26332e-13
7.32441e-14
3.18312e-14
1.17878e-14
1.2644e-14
3.19592e-14
7.38625e-14
1.69468e-13
4.94241e-13
2.29429e-12
2.40318e-12
1.86902e-10
4.28063e-11
3.42891e-12
1.10061e-12
3.74091e-13
1.33593e-13
1.08285e-13
9.93934e-14
7.13232e-14
3.78295e-14
1.44943e-14
6.13277e-15
1.15213e-14
3.54994e-14
8.82535e-14
1.8829e-13
4.11601e-13
2.04405e-12
2.00111e-12
2.46823e-12
1.31282e-12
7.16351e-13
3.6076e-13
9.64917e-14
6.64322e-14
7.05305e-14
5.84988e-14
3.84284e-14
1.83598e-14
6.44351e-15
3.46251e-15
1.0197e-14
3.671e-14
9.96914e-14
2.26032e-13
3.97673e-13
1.65586e-12
1.70416e-12
1.01837e-12
4.97075e-13
1.20614e-13
6.69187e-14
3.98977e-14
4.72282e-14
4.34484e-14
3.25947e-14
1.92938e-14
8.34395e-15
2.74941e-15
1.91335e-15
7.84829e-15
3.33587e-14
1.03659e-13
2.55735e-13
4.45917e-13
1.36208e-12
1.49544e-12
6.11915e-14
1.16749e-13
3.47622e-14
2.48906e-14
2.70041e-14
2.87631e-14
2.42431e-14
1.66241e-14
8.90642e-15
3.57899e-15
1.11688e-15
9.10021e-16
4.74485e-15
2.43871e-14
9.21789e-14
2.60256e-13
5.15734e-13
1.09161e-12
1.37093e-12
4.65509e-15
1.30894e-14
1.41491e-14
1.46219e-14
1.57691e-14
1.54056e-14
1.2052e-14
7.6821e-15
3.83975e-15
1.45659e-15
4.28326e-16
3.40192e-16
2.06931e-15
1.29222e-14
6.05939e-14
2.01493e-13
4.64591e-13
8.86984e-13
1.26642e-12
2.87576e-15
5.19175e-15
6.97352e-15
7.79473e-15
7.97142e-15
7.22984e-15
5.36757e-15
3.23903e-15
1.5554e-15
5.61955e-16
1.55885e-16
9.99348e-17
6.30417e-16
4.60889e-15
2.63972e-14
1.0947e-13
3.22692e-13
6.92883e-13
1.08359e-12
1.56926e-15
2.42519e-15
3.20676e-15
3.55942e-15
3.50936e-15
3.02618e-15
2.15745e-15
1.25518e-15
5.83686e-16
2.03853e-16
5.43607e-17
2.56232e-17
1.4645e-16
1.18332e-15
7.89757e-15
4.05883e-14
1.52584e-13
4.06076e-13
7.39881e-13
7.10903e-16
1.02161e-15
1.29233e-15
1.41419e-15
1.35945e-15
1.14092e-15
7.86103e-16
4.46748e-16
2.01476e-16
6.85994e-17
1.7726e-17
6.11811e-18
2.75892e-17
2.38925e-16
1.7847e-15
1.06292e-14
4.82123e-14
1.58833e-13
3.39815e-13
2.61026e-16
3.63801e-16
4.56472e-16
4.96e-16
4.67321e-16
3.88173e-16
2.60044e-16
1.45423e-16
6.37098e-17
2.12408e-17
5.33157e-18
1.42098e-18
4.26702e-18
3.79495e-17
3.09113e-16
2.06485e-15
1.08039e-14
4.20151e-14
9.98998e-14
7.78667e-17
1.10783e-16
1.41944e-16
1.53246e-16
1.43881e-16
1.19286e-16
7.79561e-17
4.31579e-17
1.83652e-17
6.00852e-18
1.46378e-18
3.26003e-19
5.72818e-19
4.89918e-18
4.23924e-17
3.08944e-16
1.79742e-15
7.8773e-15
1.98684e-14
1.95572e-17
2.93936e-17
3.84955e-17
4.13581e-17
3.99721e-17
3.31835e-17
2.11194e-17
1.1657e-17
4.80646e-18
1.54384e-18
3.63874e-19
7.19192e-20
7.1675e-20
5.31468e-19
4.7405e-18
3.67881e-17
2.31054e-16
1.09813e-15
2.86468e-15
4.24772e-18
6.75981e-18
9.09897e-18
9.88214e-18
9.98386e-18
8.2586e-18
5.19357e-18
2.84806e-18
1.14056e-18
3.58626e-19
8.14723e-20
1.47336e-20
8.98677e-21
5.03071e-20
4.43994e-19
3.58619e-18
2.37563e-17
1.18976e-16
3.16045e-16
7.94724e-19
1.3282e-18
1.8777e-18
2.13194e-18
2.23193e-18
1.82888e-18
1.1646e-18
6.24961e-19
2.45274e-19
7.50618e-20
1.63857e-20
2.73947e-21
1.16805e-21
4.35378e-21
3.57582e-20
2.93299e-19
2.01089e-18
1.0399e-17
2.77889e-17
1.23864e-19
2.23537e-19
3.43463e-19
4.13307e-19
4.41264e-19
3.64608e-19
2.36077e-19
1.23401e-19
4.76872e-20
1.41374e-20
2.95737e-21
4.57609e-22
1.53809e-22
3.63931e-22
2.54853e-21
2.05762e-20
1.43553e-19
7.55562e-19
2.0102e-18
1.66945e-20
3.33301e-20
5.65161e-20
7.09921e-20
7.7089e-20
6.60461e-20
4.28594e-20
2.20157e-20
8.36082e-21
2.39694e-21
4.79208e-22
6.85302e-23
1.95885e-23
3.07874e-23
1.66282e-22
1.26483e-21
8.82077e-21
4.67316e-20
1.2268e-19
1.97888e-21
4.43365e-21
8.2728e-21
1.07555e-20
1.20662e-20
1.07927e-20
6.97918e-21
3.55107e-21
1.32116e-21
3.66257e-22
6.98382e-23
9.22374e-24
2.33099e-24
2.67223e-24
1.03273e-23
6.9639e-23
4.74863e-22
2.50816e-21
6.44461e-21
2.12533e-22
5.25358e-22
1.06194e-21
1.45304e-21
1.70422e-21
1.58025e-21
1.02434e-21
5.17368e-22
1.88391e-22
5.0522e-23
9.18111e-24
1.12168e-24
2.55235e-25
2.32817e-25
6.33485e-25
3.51805e-24
2.27658e-23
1.18648e-22
2.96216e-22
2.02766e-23
5.54916e-23
1.19824e-22
1.76117e-22
2.17128e-22
2.07416e-22
1.35902e-22
6.81014e-23
2.42905e-23
6.30567e-24
1.09303e-24
1.24143e-25
2.56687e-26
1.96931e-26
3.9189e-26
1.67462e-25
9.87466e-25
5.01216e-24
1.20742e-23
1.71876e-24
5.20527e-24
1.20265e-23
1.91958e-23
2.49196e-23
2.44992e-23
1.63174e-23
8.11248e-24
2.83861e-24
7.14169e-25
1.18392e-25
1.26149e-26
2.38526e-27
1.57828e-27
2.43703e-27
7.71176e-27
3.93805e-26
1.9127e-25
4.41403e-25
1.29338e-25
4.34807e-25
1.08376e-24
1.88447e-24
2.5783e-24
2.6144e-24
1.77515e-24
8.76668e-25
3.01455e-25
7.36522e-26
1.17281e-26
1.18839e-27
2.06931e-28
1.18524e-28
1.49392e-28
3.50573e-28
1.46845e-27
6.6634e-27
1.46122e-26
8.68244e-27
3.24924e-26
8.8147e-26
1.66995e-25
2.41105e-25
2.52918e-25
1.75317e-25
8.6179e-26
2.91803e-26
6.94305e-27
1.06847e-27
1.04797e-28
1.69643e-29
8.33162e-30
8.83767e-30
1.58577e-29
5.20811e-29
2.14049e-28
4.41733e-28
5.22585e-28
2.18377e-27
6.49285e-27
1.33975e-26
2.04472e-26
2.22505e-26
1.57616e-26
7.73e-27
2.58323e-27
6.00737e-28
9.00305e-29
8.72361e-30
1.32914e-30
5.51192e-31
4.97312e-31
7.10253e-31
1.78479e-30
6.4025e-30
1.22869e-29
2.83467e-29
1.32652e-28
4.34481e-28
9.76563e-28
1.57852e-27
1.78596e-27
1.29411e-27
6.34776e-28
2.09911e-28
4.79144e-29
7.05533e-30
6.89599e-31
1.00311e-31
3.46354e-32
2.64509e-32
3.11245e-32
5.98085e-32
1.80067e-31
3.16637e-31
1.39232e-30
7.31699e-30
2.6503e-29
6.4934e-29
1.11377e-28
1.3126e-28
9.73895e-29
4.78967e-29
1.57186e-29
3.53859e-30
5.16887e-31
5.19216e-32
7.31366e-33
2.08977e-33
1.32977e-33
1.31838e-33
1.97156e-33
4.80791e-33
7.60877e-33
6.22009e-32
3.68169e-31
1.47942e-30
3.95568e-30
7.2133e-30
8.86811e-30
6.74459e-30
3.33386e-30
1.08921e-30
2.43075e-31
3.55658e-32
3.72472e-33
5.14272e-34
1.22311e-34
6.3481e-35
5.35317e-35
6.39276e-35
1.23012e-34
1.71536e-34
2.5382e-33
1.6977e-32
7.58994e-32
2.21804e-31
4.30765e-31
5.53148e-31
4.31684e-31
2.14972e-31
7.01503e-32
1.56015e-32
2.30761e-33
2.54258e-34
3.47236e-35
6.99496e-36
2.90081e-36
2.07601e-36
2.03046e-36
3.04147e-36
3.6495e-36
9.50031e-35
7.20813e-34
3.59583e-33
1.15049e-32
2.38356e-32
3.20028e-32
2.5653e-32
1.28993e-32
4.21837e-33
9.39882e-34
1.41664e-34
1.64877e-35
2.24054e-36
3.9203e-37
1.2821e-37
7.69344e-38
6.28379e-38
7.31871e-38
7.36932e-38
3.27487e-36
2.83162e-35
1.58125e-34
5.54963e-34
1.22841e-33
1.72598e-33
1.4223e-33
7.23717e-34
2.37961e-34
5.33832e-35
8.25292e-36
1.01451e-36
1.37662e-37
2.15047e-38
5.54402e-39
2.73535e-39
1.88689e-39
1.72312e-39
1.42022e-39
1.04371e-37
1.03435e-36
6.48965e-36
2.50366e-35
5.92904e-35
8.72346e-35
7.39543e-35
3.81548e-35
1.26535e-35
2.87127e-36
4.57474e-37
5.92246e-38
8.03935e-39
1.15023e-39
2.37044e-40
9.39579e-41
5.48711e-41
3.98343e-41
2.62668e-41
3.08621e-39
3.53129e-38
2.50022e-37
1.06273e-36
2.69575e-36
4.15516e-36
3.62591e-36
1.90016e-36
6.37452e-37
1.469e-37
2.41947e-38
3.2838e-39
4.4627e-40
5.97342e-41
1.00978e-41
3.14814e-42
1.54633e-42
9.06046e-43
4.6873e-43
8.49327e-41
1.13272e-39
9.09826e-39
4.27123e-38
1.16157e-37
1.87578e-37
1.68527e-37
8.98429e-38
3.05681e-38
7.178e-39
1.22394e-39
1.73251e-40
2.35782e-41
3.00154e-42
4.29928e-43
1.04113e-43
4.23764e-44
2.03067e-44
8.11614e-45
2.1764e-42
3.42732e-41
3.1453e-40
1.63617e-39
4.7755e-39
8.0803e-39
7.47518e-39
4.05895e-39
1.40368e-39
3.367e-40
5.94394e-41
8.72754e-42
1.18916e-42
1.45703e-43
1.8275e-44
3.44065e-45
1.13546e-45
4.48781e-46
1.37025e-46
5.24177e-44
9.89391e-43
1.04298e-41
6.01715e-41
1.88338e-40
3.33525e-40
3.176e-40
1.75844e-40
6.19364e-41
1.52074e-41
2.77757e-42
4.2098e-43
5.74196e-44
6.831e-45
7.72867e-46
1.15009e-46
3.00381e-47
9.81392e-48
2.27212e-48
1.12066e-45
2.65408e-44
3.29438e-43
2.13029e-42
7.17026e-42
1.32928e-41
1.30242e-41
7.35657e-42
2.64243e-42
6.64802e-43
1.25416e-43
1.9531e-44
2.66566e-45
3.09767e-46
3.2377e-47
3.91629e-48
7.91725e-49
2.12391e-49
3.7094e-50
)
;

boundaryField
{
    leftWall
    {
        type            zeroGradient;
    }
    rightWall
    {
        type            zeroGradient;
    }
    lowerWall
    {
        type            zeroGradient;
    }
    atmosphere
    {
        type            inletOutlet;
        inletValue      uniform 0;
        value           nonuniform List<scalar> 
46
(
0
0
0
0
0
0
0
0
0
0
0
0
0
0
0
0
0
0
0
0
0
0
0
5.03004e-51
1.73519e-49
4.04193e-48
7.18264e-47
1.12066e-45
2.65408e-44
3.29438e-43
2.13029e-42
7.17026e-42
1.32928e-41
1.30242e-41
7.35657e-42
2.64243e-42
6.64802e-43
1.25416e-43
1.9531e-44
2.66566e-45
3.09767e-46
3.2377e-47
3.91629e-48
7.91725e-49
2.12391e-49
3.7094e-50
)
;
    }
    defaultFaces
    {
        type            empty;
    }
}


// ************************************************************************* //
