/*--------------------------------*- C++ -*----------------------------------*\
| =========                 |                                                 |
| \\      /  F ield         | OpenFOAM: The Open Source CFD Toolbox           |
|  \\    /   O peration     | Version:  2.4.0                                 |
|   \\  /    A nd           | Web:      www.OpenFOAM.org                      |
|    \\/     M anipulation  |                                                 |
\*---------------------------------------------------------------------------*/
FoamFile
{
    version     2.0;
    format      ascii;
    class       volScalarField;
    location    "0.25";
    object      alpha.mercury;
}
// * * * * * * * * * * * * * * * * * * * * * * * * * * * * * * * * * * * * * //

dimensions      [0 0 0 0 0 0 0];

internalField   nonuniform List<scalar> 
2268
(
1
1
1
1
1
1
1
1
1
1
1
1
1
1
1
1
1
0.999999
0.999999
0.999997
0.999986
0.999899
0.999772
1
1
1
1
1
1
1
1
1
1
1
1
1
1
1
1
0.999999
0.999998
0.999997
0.999995
0.999985
0.999891
0.999722
1
1
1
1
1
1
1
1
1
1
1
1
1
1
0.999999
0.999997
0.999986
0.99991
0.999898
0.999919
0.999955
0.999875
0.999672
1
1
1
1
1
1
1
1
1
1
1
1
0.999999
0.999995
0.999972
0.999778
0.998688
0.991632
0.993254
0.996798
0.999269
0.999799
0.999633
1
1
1
1
1
1
1
1
1
1
0.999998
0.999978
0.999789
0.999029
0.996078
0.981682
0.930919
0.780557
0.630336
0.720331
0.934
0.996474
0.999568
1
1
1
1
1
1
1
0.999999
0.999995
0.99995
0.999483
0.996643
0.983132
0.946516
0.862414
0.674712
0.384429
0.0975695
0.0392669
0.10295
0.610287
0.968256
0.999254
1
1
1
1
1
0.999997
0.999966
0.999598
0.998277
0.993134
0.972667
0.90765
0.754975
0.525592
0.270634
0.0652429
0.0080008
0.000406983
0.000103367
0.00194337
0.183239
0.862475
0.997129
1
1
1
1
0.999744
0.996934
0.990885
0.971572
0.935062
0.867439
0.732438
0.496972
0.235341
0.0659379
0.0078539
0.00197722
0.000283519
4.37982e-05
4.99303e-06
2.79614e-05
0.0321884
0.702214
0.990809
2.69548e-09
1.12438e-07
6.67407e-07
1.81936e-06
2.6079e-06
2.65026e-06
8.98137e-07
3.09561e-07
2.71117e-08
1.09089e-08
3.63076e-09
9.25767e-10
3.09039e-10
1.49867e-10
6.80082e-11
2.75404e-11
1.89486e-11
1.03385e-11
3.90349e-12
1.00594e-08
5.15958e-07
3.94445e-06
1.00983e-05
1.45728e-05
1.87025e-05
1.12247e-05
3.72132e-06
5.29677e-07
1.80121e-07
4.71618e-08
1.55331e-08
4.39807e-09
1.39399e-09
5.77086e-10
2.59787e-10
8.21145e-11
1.98624e-11
7.58484e-12
1.87861e-07
1.5876e-06
5.09892e-06
1.1035e-05
2.26389e-05
3.67496e-05
4.61858e-05
2.72402e-05
5.63239e-06
4.51155e-07
8.05332e-08
4.41987e-08
1.78681e-08
6.29875e-09
2.12519e-09
7.57943e-10
2.28065e-10
3.87751e-11
1.44315e-11
1.10545e-07
8.53903e-07
2.44312e-06
5.53372e-06
1.10296e-05
3.35337e-05
6.56069e-05
5.06068e-05
1.66279e-05
1.59941e-06
1.00663e-07
3.80126e-08
2.39854e-08
9.66071e-09
4.71251e-09
2.27837e-09
7.52126e-10
1.24002e-10
1.48481e-11
3.95763e-08
1.73524e-07
2.64072e-07
1.21241e-06
3.52238e-06
2.97297e-05
7.99423e-05
6.49336e-05
2.46806e-05
3.58389e-06
3.50275e-07
9.56989e-08
4.24778e-08
2.45995e-08
8.21955e-09
2.09165e-09
7.21918e-10
2.04363e-10
2.26573e-11
1.2967e-08
9.02921e-09
1.66401e-09
2.29432e-08
5.09197e-07
3.00354e-05
0.000101152
7.94255e-05
3.02406e-05
8.52888e-06
3.37885e-06
1.04031e-06
2.49105e-07
1.1101e-07
3.39775e-08
3.68531e-09
5.95081e-10
2.10989e-10
3.11727e-11
3.25175e-09
3.37406e-10
6.40702e-12
2.10946e-12
1.16273e-08
3.88527e-05
0.00013742
9.25633e-05
3.34688e-05
2.34174e-05
1.47317e-05
4.56241e-06
6.31603e-07
2.46124e-07
5.82566e-08
9.86205e-09
7.9823e-10
1.98074e-10
3.39659e-11
7.82633e-12
7.77172e-12
6.2663e-12
1.18226e-13
-1.31592e-12
0.000134249
0.00024166
0.000108672
4.33581e-05
5.16348e-05
3.06687e-05
7.96801e-06
9.22269e-07
2.73146e-07
5.46137e-08
7.9898e-09
1.55525e-09
2.92648e-10
3.73367e-11
0.893652
0.886195
0.870667
0.845954
0.813607
0.757535
0.692091
0.590343
0.468665
0.338729
0.201607
0.0816527
0.0230272
0.00424149
0.000721029
0.000226494
5.83299e-05
2.1364e-05
5.03764e-06
8.14911e-06
0.00398174
0.404026
0.892093
0.318179
0.302255
0.273288
0.233507
0.19024
0.137903
0.0895104
0.0472508
0.0203556
0.00692105
0.00178603
0.000325459
5.20148e-05
3.23562e-05
1.79176e-05
9.06859e-06
4.73215e-06
3.15904e-06
2.52935e-06
5.83111e-06
0.00161706
0.168847
0.643891
0.00816541
0.00705449
0.00539011
0.00357134
0.00218652
0.00111742
0.000474905
0.000174618
6.86164e-05
2.90007e-05
1.09917e-05
5.36948e-06
3.33991e-06
2.36413e-06
1.78894e-06
1.36307e-06
8.90496e-07
6.74339e-07
8.61358e-07
6.06336e-06
0.00108082
0.0509381
0.341555
2.77233e-05
2.50866e-05
2.08032e-05
1.55855e-05
1.12207e-05
7.56123e-06
4.78436e-06
2.87203e-06
1.85956e-06
1.24016e-06
6.62876e-07
4.79748e-07
3.24385e-07
2.13184e-07
1.4746e-07
1.0928e-07
7.07264e-08
7.17851e-08
1.45249e-07
3.59472e-06
0.000384612
0.0110521
0.124448
6.44912e-08
5.84965e-08
4.63344e-08
4.8732e-08
4.94284e-08
4.73153e-08
4.24803e-08
3.51487e-08
2.96189e-08
2.17176e-08
1.50961e-08
1.0279e-08
6.66565e-09
4.04493e-09
2.64423e-09
1.53971e-09
1.50703e-09
2.54972e-09
3.0548e-08
6.57489e-07
5.96172e-05
0.00173674
0.0320333
3.29291e-12
2.6348e-12
3.66717e-12
3.50683e-12
2.9555e-12
3.08085e-12
3.17996e-12
3.12422e-12
3.11051e-12
2.38347e-12
1.83427e-12
1.33697e-12
9.35462e-13
7.18741e-13
7.67803e-13
1.76451e-12
6.02504e-12
8.23516e-11
9.1034e-09
5.23024e-08
3.00361e-06
0.000152304
0.00524772
5.43635e-43
2.21953e-41
4.6135e-40
6.70921e-39
8.01053e-38
9.27869e-37
1.13114e-35
1.41669e-34
1.40289e-33
2.04889e-32
3.91653e-31
5.41825e-30
2.73705e-29
9.2524e-29
4.5687e-28
1.42146e-25
3.41375e-23
1.45886e-12
1.12713e-09
4.80651e-09
4.25416e-08
5.25635e-06
0.000361066
7.3395e-42
2.79457e-40
5.39017e-39
7.37071e-38
8.67612e-37
1.02775e-35
1.22568e-34
1.35122e-33
1.09059e-32
1.56307e-31
2.789e-30
3.387e-29
1.65275e-28
5.69596e-28
3.58365e-26
2.5237e-23
9.66772e-21
4.04345e-13
1.99265e-11
1.62013e-10
1.9831e-10
3.73382e-08
4.12647e-06
8.87604e-41
3.12201e-39
5.61638e-38
7.46264e-37
9.06212e-36
1.09754e-34
1.22612e-33
1.13029e-32
7.58327e-32
1.12049e-30
1.81189e-29
1.95895e-28
9.71191e-28
3.56587e-27
5.54968e-24
4.56863e-21
2.42889e-18
8.87205e-15
1.44952e-12
1.94304e-12
2.19625e-12
1.4372e-11
1.28239e-08
9.48676e-40
3.09125e-38
5.32621e-37
7.25694e-36
9.31163e-35
1.10501e-33
1.09121e-32
8.10335e-32
5.20915e-31
7.9946e-30
1.17646e-28
1.17437e-27
5.88555e-27
2.3746e-26
1.04677e-25
6.01236e-25
4.12246e-24
1.97414e-23
6.50648e-23
4.00356e-14
1.70435e-13
3.73852e-13
3.96126e-12
8.88923e-39
2.73822e-37
4.78251e-36
7.02053e-35
9.23669e-34
9.97392e-33
8.19838e-32
4.89153e-31
4.17313e-30
6.58486e-29
9.04088e-28
6.19483e-27
2.83362e-26
1.14509e-25
5.16023e-25
3.88266e-24
4.12011e-23
2.31215e-22
8.94806e-22
2.74036e-21
4.67607e-21
2.62019e-20
1.72441e-19
7.32492e-38
2.25245e-36
4.31091e-35
6.82441e-34
8.41881e-33
7.43048e-32
4.90418e-31
2.55522e-30
4.48374e-29
7.83744e-28
4.38765e-27
1.84342e-26
9.14526e-26
3.8245e-25
1.58094e-24
1.95271e-23
2.74152e-22
1.66402e-21
6.10703e-21
1.88601e-20
2.75598e-20
2.84756e-19
1.90691e-18
5.48999e-37
1.84729e-35
4.00117e-34
6.31157e-33
6.82226e-32
4.99941e-31
2.52561e-30
9.42529e-30
2.85792e-29
9.08126e-29
4.27642e-28
1.43361e-26
1.84868e-25
1.02979e-24
4.33244e-24
7.56864e-23
1.31087e-21
8.0044e-21
2.73272e-20
7.85793e-20
2.00145e-19
2.75629e-18
1.00036e-17
8.0361e-37
1.51328e-35
1.31947e-34
7.38678e-34
3.18382e-33
1.30116e-32
7.38348e-32
6.3873e-31
5.53772e-30
4.55211e-29
1.53682e-27
5.50388e-26
6.8619e-25
4.01434e-24
1.85678e-23
3.64943e-22
5.52514e-21
3.0185e-20
8.96095e-20
2.01457e-19
4.53765e-19
1.13889e-18
7.08019e-18
1.5727e-39
2.97595e-38
3.45185e-37
6.14648e-36
1.91945e-34
5.34527e-33
1.11974e-31
1.76318e-30
2.16483e-29
2.55969e-28
6.22177e-27
1.75107e-25
1.80512e-24
1.04492e-23
4.15394e-23
1.34603e-22
4.0809e-22
1.44555e-21
8.59322e-21
5.30125e-20
6.33164e-19
3.0078e-18
8.92962e-18
8.49953e-42
1.26984e-39
1.07503e-37
6.05493e-36
2.48187e-34
7.76421e-33
1.88064e-31
3.4855e-30
5.04545e-29
6.50235e-28
9.35302e-27
1.05442e-25
7.99094e-25
4.82964e-24
2.66018e-23
1.44337e-22
8.25611e-22
5.98628e-21
4.87915e-20
2.46356e-19
7.38969e-19
1.89126e-18
4.58936e-18
6.69647e-44
2.26562e-41
5.3828e-39
1.05596e-36
1.0974e-34
6.52385e-33
2.4353e-31
6.18132e-30
1.14827e-28
1.66925e-27
1.95819e-26
1.84774e-25
1.45876e-24
9.8787e-24
6.27737e-23
3.8231e-22
2.12834e-21
9.9346e-21
3.6423e-20
1.10961e-19
3.07081e-19
7.81471e-19
1.80912e-18
1.371e-43
6.44393e-41
1.53929e-38
2.2078e-36
1.90368e-34
9.97106e-33
3.33593e-31
7.64554e-30
1.27471e-28
1.65188e-27
1.78682e-26
1.6497e-25
1.31488e-24
8.92942e-24
5.20698e-23
2.56662e-22
1.07377e-21
3.84704e-21
1.17469e-20
3.21663e-20
8.47608e-20
2.12514e-19
4.8562e-19
5.01988e-43
1.87812e-40
3.08352e-38
2.76155e-36
1.51104e-34
5.44286e-33
1.37578e-31
2.60182e-30
3.90265e-29
4.8677e-28
5.22256e-27
4.75865e-26
3.5546e-25
2.16962e-24
1.09772e-23
4.65902e-23
1.69978e-22
5.47444e-22
1.60984e-21
4.52985e-21
1.27095e-20
3.57638e-20
8.90888e-20
3.8867e-43
8.44596e-41
8.40446e-39
5.01414e-37
2.01791e-35
5.87851e-34
1.30995e-32
2.32148e-31
3.37987e-30
4.14487e-29
4.28917e-28
3.62682e-27
2.50816e-26
1.45163e-25
7.1241e-25
3.00306e-24
1.11253e-23
3.77676e-23
1.23756e-22
3.98567e-22
1.25856e-21
3.93395e-21
1.21517e-20
1.74829e-44
3.2163e-42
2.78019e-40
1.49001e-38
5.55259e-37
1.54181e-35
3.33903e-34
5.83212e-33
8.41075e-32
1.01481e-30
1.02733e-29
8.73831e-29
6.32163e-28
3.96026e-27
2.19349e-26
1.0956e-25
4.96187e-25
2.06079e-24
8.11805e-24
3.12924e-23
1.17972e-22
4.32866e-22
1.52962e-21
5.12778e-46
8.52278e-44
6.77384e-42
3.4329e-40
1.24522e-38
3.4459e-37
7.56553e-36
1.35282e-34
2.01167e-33
2.53547e-32
2.73832e-31
2.54327e-30
2.03279e-29
1.42449e-28
8.95318e-28
5.13256e-27
2.71775e-26
1.33903e-25
6.21325e-25
2.7484e-24
1.17304e-23
4.78724e-23
1.82555e-22
7.01382e-48
1.23154e-45
1.03833e-43
5.61594e-42
2.18994e-40
6.55004e-39
1.56167e-37
3.04435e-36
4.94226e-35
6.75698e-34
7.83903e-33
7.82903e-32
6.902e-31
5.44914e-30
3.86727e-29
2.47948e-28
1.46162e-27
8.09834e-27
4.24242e-26
2.10332e-25
9.81887e-25
4.2936e-24
1.73828e-23
9.84751e-50
1.8202e-47
1.62001e-45
9.25378e-44
3.80298e-42
1.19549e-40
2.98588e-39
6.08762e-38
1.03516e-36
1.49514e-35
1.86506e-34
2.04282e-33
1.99152e-32
1.74019e-31
1.379e-30
9.994e-30
6.61016e-29
4.00662e-28
2.26491e-27
1.21302e-26
6.17769e-26
2.93939e-25
1.2862e-24
9.78385e-52
1.8572e-49
1.70071e-47
1.00553e-45
4.31996e-44
1.43771e-42
3.86007e-41
8.59745e-40
1.61925e-38
2.61186e-37
3.64211e-36
4.42504e-35
4.72319e-34
4.4786e-33
3.80604e-32
2.93909e-31
2.10781e-30
1.42694e-29
9.13905e-29
5.50437e-28
3.09233e-27
1.61388e-26
7.87403e-26
7.03953e-54
1.42602e-51
1.39701e-49
8.85246e-48
4.07917e-46
1.45568e-44
4.18504e-43
9.95993e-42
2.00105e-40
3.44552e-39
5.15378e-38
6.78848e-37
7.98434e-36
8.4835e-35
8.2324e-34
7.34714e-33
6.04231e-32
4.57346e-31
3.2047e-30
2.10467e-29
1.30873e-28
7.70405e-28
4.24406e-27
3.94286e-56
8.65878e-54
9.21487e-52
6.35724e-50
3.19542e-48
1.24582e-46
3.91677e-45
1.01982e-43
2.24353e-42
4.24091e-41
6.99421e-40
1.01946e-38
1.32455e-37
1.54579e-36
1.63399e-35
1.58114e-34
1.41628e-33
1.1884e-32
9.41927e-32
7.05781e-31
4.97342e-30
3.29236e-29
2.04669e-28
1.66742e-58
3.95354e-56
4.53556e-54
3.37481e-52
1.83215e-50
7.73791e-49
2.64733e-47
7.54486e-46
1.82809e-44
3.82444e-43
6.99667e-42
1.13278e-40
1.64248e-39
2.15673e-38
2.58855e-37
2.86128e-36
2.93241e-35
2.80039e-34
2.50429e-33
2.10858e-32
1.67834e-31
1.26221e-30
8.92608e-30
5.46834e-61
1.41745e-58
1.78373e-56
1.45879e-54
8.72304e-53
4.06487e-51
1.53651e-49
4.84394e-48
1.30051e-46
3.02442e-45
6.17958e-44
1.12255e-42
1.83078e-41
2.70471e-40
3.65228e-39
4.5469e-38
5.2589e-37
5.69075e-36
5.79281e-35
5.56344e-34
5.04531e-33
4.31692e-32
3.47659e-31
1.36074e-63
3.90673e-61
5.43902e-59
4.92621e-57
3.26677e-55
1.69144e-53
7.12111e-52
2.50736e-50
7.53989e-49
1.96865e-47
4.52457e-46
9.26372e-45
1.70797e-43
2.86316e-42
4.40066e-41
6.24805e-40
8.25078e-39
1.0193e-37
1.1837e-36
1.29661e-35
1.34186e-34
1.3108e-33
1.20544e-32
2.63783e-66
8.43096e-64
1.30911e-61
1.32422e-59
9.82233e-58
5.69834e-56
2.6933e-54
1.067e-52
3.61923e-51
1.06884e-49
2.78637e-48
6.48714e-47
1.36258e-45
2.60562e-44
4.57429e-43
7.42781e-42
1.12301e-40
1.5898e-39
2.11664e-38
2.65809e-37
3.15214e-36
3.52669e-35
3.71422e-34
3.84187e-69
1.38594e-66
2.42845e-64
2.77484e-62
2.32773e-60
1.52935e-58
8.19896e-57
3.6905e-55
1.42473e-53
4.79715e-52
1.42827e-50
3.80456e-49
9.15998e-48
2.01136e-46
4.06022e-45
7.58846e-44
1.32132e-42
2.15474e-41
3.30445e-40
4.77872e-39
6.52349e-38
8.39809e-37
1.01716e-35
4.14629e-72
1.70441e-69
3.40533e-67
4.44129e-65
4.25691e-63
3.19953e-61
1.96496e-59
1.01473e-57
4.50151e-56
1.7445e-54
5.98755e-53
1.84128e-51
5.12426e-50
1.30198e-48
3.04387e-47
6.59306e-46
1.331e-44
2.51691e-43
4.47532e-42
7.50119e-41
1.18621e-39
1.76782e-38
2.47631e-37
3.15702e-75
1.50063e-72
3.46598e-70
5.22932e-68
5.80256e-66
5.05326e-64
3.59931e-62
2.15797e-60
1.11264e-58
5.01702e-57
2.00576e-55
7.19232e-54
2.33629e-52
6.93449e-51
1.8951e-49
4.80037e-48
1.13353e-46
2.50706e-45
5.21255e-44
1.02116e-42
1.88627e-41
3.28116e-40
5.35718e-39
1.58962e-78
8.89148e-76
2.41363e-73
4.28092e-71
5.58619e-69
5.72405e-67
4.80032e-65
3.39089e-63
2.06132e-61
1.09664e-59
5.17643e-58
2.19299e-56
8.4211e-55
2.95626e-53
9.55868e-52
2.86521e-50
8.00622e-49
2.09502e-47
5.15146e-46
1.19284e-44
2.60255e-43
5.34267e-42
1.0278e-40
4.75905e-82
3.21433e-79
1.04846e-76
2.23259e-74
3.49702e-72
4.30216e-70
4.3334e-68
3.67788e-66
2.6869e-64
1.71815e-62
9.74929e-61
4.96577e-59
2.29289e-57
9.67968e-56
3.76374e-54
1.35653e-52
4.55663e-51
1.43276e-49
4.23092e-48
1.17565e-46
3.0754e-45
7.56189e-44
1.7401e-42
7.17468e-86
6.08181e-83
2.45509e-80
6.44799e-78
1.2446e-75
1.88725e-73
2.34507e-71
2.45717e-69
2.2171e-67
1.75105e-65
1.22668e-63
7.70839e-62
4.38769e-60
2.28166e-58
1.09195e-56
4.84017e-55
1.99802e-53
7.71468e-52
2.79498e-50
9.51838e-49
3.04781e-47
9.15971e-46
2.57195e-44
4.23782e-90
4.78067e-87
2.46877e-84
8.2062e-82
1.99907e-79
3.82694e-77
6.02186e-75
8.04356e-73
9.32747e-71
9.52671e-69
8.65248e-67
7.04075e-65
5.16939e-63
3.45126e-61
2.11228e-59
1.19363e-57
6.26468e-56
3.0686e-54
1.4076e-52
6.05796e-51
2.44685e-49
9.25511e-48
3.26174e-46
7.56754e-95
1.23326e-91
8.37268e-89
3.58223e-86
1.12009e-83
2.76123e-81
5.61926e-79
9.75467e-77
1.4786e-74
1.99514e-72
2.43268e-70
2.70431e-68
2.75087e-66
2.56133e-64
2.1811e-62
1.69931e-60
1.21468e-58
8.00872e-57
4.90381e-55
2.8022e-53
1.49674e-51
7.45174e-50
3.438e-48
1.47709e-99
3.46539e-96
3.00511e-93
1.59478e-90
6.11478e-88
1.83805e-85
4.53261e-83
9.45179e-81
1.71086e-78
2.74889e-76
4.00057e-74
5.37367e-72
6.76828e-70
8.08353e-68
9.2229e-66
1.00783e-63
1.05088e-61
1.03466e-59
9.48192e-58
8.00509e-56
6.22066e-54
4.45749e-52
2.91794e-50
2.40718e-103
5.66282e-100
5.03269e-97
2.72426e-94
1.05894e-91
3.21347e-89
8.04735e-87
1.7268e-84
3.26243e-82
5.5448e-80
8.63094e-78
1.25063e-75
1.715e-73
2.26051e-71
2.90292e-69
3.67889e-67
4.65547e-65
5.93868e-63
7.67267e-61
9.97798e-59
1.27019e-56
1.51848e-54
1.64573e-52
9.22911e-107
2.1645e-103
1.96573e-100
1.10011e-97
4.45502e-95
1.41743e-92
3.72844e-90
8.40447e-88
1.6674e-85
2.97374e-83
4.85326e-81
7.36352e-79
1.0539e-76
1.44434e-74
1.92454e-72
2.53168e-70
3.34115e-68
4.50232e-66
6.31869e-64
9.44441e-62
1.54104e-59
2.80441e-57
5.6355e-55
0.763025
0.0434787
0.000204374
0.000117019
0.714412
0.521764
0.176254
0.0249122
0.549068
0.534994
0.451394
0.303321
0.269346
0.360645
0.371137
0.3535
0.0829654
0.141868
0.197359
0.232896
0.014817
0.0309436
0.0584057
0.0924015
0.0010715
0.00266259
0.00717176
0.0170996
1.27239e-05
4.32254e-05
0.000186059
0.000815218
2.55909e-08
6.26534e-08
3.61538e-07
5.89226e-06
4.81835e-12
5.43069e-12
1.15849e-09
2.56297e-08
1.95886e-19
1.70209e-19
2.73789e-17
3.08517e-16
1.26319e-18
5.57719e-17
1.93918e-15
5.97566e-15
4.19301e-17
1.3212e-16
5.32796e-16
4.43785e-16
2.30661e-17
5.52636e-17
1.1456e-16
3.17602e-16
2.05919e-17
3.52162e-17
6.27032e-17
1.24827e-16
1.06975e-17
1.66038e-17
2.54359e-17
4.03406e-17
4.03318e-18
5.86937e-18
8.37754e-18
1.19367e-17
1.04233e-18
1.51299e-18
2.18017e-18
3.09622e-18
1.96492e-19
3.03887e-19
4.67837e-19
6.94274e-19
3.16307e-20
5.43172e-20
8.84326e-20
1.3706e-19
4.76782e-21
8.5849e-21
1.44092e-20
2.34246e-20
6.12544e-22
1.12482e-21
1.96626e-21
3.34888e-21
6.28101e-23
1.19185e-22
2.22535e-22
4.0833e-22
5.19787e-24
1.07219e-23
2.18325e-23
4.38609e-23
3.56163e-25
8.3607e-25
1.90101e-24
4.23571e-24
2.15794e-26
5.83048e-26
1.49181e-25
3.65497e-25
1.18639e-27
3.65262e-27
1.04503e-26
2.81302e-26
5.90658e-29
2.0447e-28
6.52801e-28
1.93061e-27
2.62812e-30
1.02196e-29
3.6357e-29
1.18333e-28
1.04164e-31
4.55602e-31
1.80934e-30
6.50187e-30
3.67679e-33
1.81546e-32
8.07032e-32
3.21469e-31
1.15741e-34
6.483e-34
3.23665e-33
1.43544e-32
3.25462e-36
2.08023e-35
1.17081e-34
5.80814e-34
8.18575e-38
6.00908e-37
3.82997e-36
2.13597e-35
1.84281e-39
1.56421e-38
1.13527e-37
7.15842e-37
3.71659e-41
3.6679e-40
3.05259e-39
2.19093e-38
6.6916e-43
7.72972e-42
7.44385e-41
6.13195e-40
1.0611e-44
1.45654e-43
1.6426e-42
1.56949e-41
1.45749e-46
2.4312e-45
3.26386e-44
3.66762e-43
1.7102e-48
3.55601e-47
5.78931e-46
7.77855e-45
1.58017e-50
4.36829e-49
9.00342e-48
1.49283e-46
1.12337e-52
4.33561e-51
1.15419e-49
2.38885e-48
5.41941e-06
5.01881e-10
2.46075e-09
5.82951e-06
0.000599844
0.00143933
0.000785091
0.000275219
0.000193936
0.000127344
3.99833e-05
4.86043e-06
2.17003e-07
5.32304e-09
2.60724e-09
8.41164e-10
4.13833e-10
1.70203e-10
3.77336e-11
0.00118799
1.02683e-05
5.60824e-06
0.000828184
0.0062012
0.00489561
0.00213311
0.00104283
0.000646147
0.000227599
2.95607e-05
9.14065e-07
5.69098e-09
7.57136e-12
3.26788e-12
7.69024e-12
2.86439e-11
5.18344e-11
3.06438e-11
0.112427
0.0188578
0.0122485
0.0216278
0.0205052
0.0126187
0.00588112
0.00338857
0.00138071
0.000203045
5.99726e-06
2.25456e-08
9.09991e-12
1.26876e-12
8.50197e-13
1.13723e-12
1.32706e-12
1.53185e-11
1.84231e-11
0.278002
0.167738
0.109806
0.0733178
0.0448352
0.02072
0.0123693
0.00677721
0.0014962
6.20349e-05
3.2748e-07
1.42852e-09
4.96444e-11
2.35048e-12
3.44081e-13
8.51673e-13
1.1101e-12
4.70133e-12
9.30817e-12
0.221279
0.179751
0.132722
0.0881539
0.0517299
0.0255486
0.0169227
0.00751849
0.000830185
1.12341e-05
6.8495e-08
1.01299e-11
8.663e-14
1.4586e-13
1.48133e-13
6.23672e-13
1.00274e-12
3.87845e-12
7.79971e-12
0.117192
0.111812
0.0904343
0.0601358
0.0381458
0.0256197
0.0166328
0.00392099
0.000196106
7.46019e-07
1.79657e-10
6.47312e-14
5.33636e-14
8.0384e-14
1.49104e-13
4.86168e-13
8.65499e-13
3.38332e-12
6.78968e-12
0.0343728
0.0359198
0.0308746
0.023371
0.0149753
0.0120515
0.0044665
0.000573108
1.50864e-05
1.32858e-07
5.23935e-14
3.53072e-14
4.44323e-14
8.9265e-14
1.76229e-13
3.87103e-13
7.14183e-13
2.98073e-12
5.73204e-12
0.00350217
0.0047809
0.00439329
0.00292629
0.00267787
0.00138082
0.000253537
3.00036e-05
1.12829e-06
1.10039e-10
2.7133e-14
2.13017e-14
3.92051e-14
9.61545e-14
2.06629e-13
3.85048e-13
6.32749e-13
2.71039e-12
4.62927e-12
5.93857e-05
9.02262e-05
0.000123621
0.000106078
5.31299e-05
1.08151e-05
6.15922e-07
1.43041e-08
1.65642e-10
2.35878e-14
1.39194e-14
1.35136e-14
3.44221e-14
9.86962e-14
2.27158e-13
4.40415e-13
6.2882e-13
2.41111e-12
3.56826e-12
5.08001e-08
1.11285e-07
2.28884e-07
6.21867e-08
1.88252e-09
7.12559e-10
2.08197e-09
4.98496e-10
6.59796e-12
1.23097e-14
6.86947e-15
8.50766e-15
2.877e-14
9.53235e-14
2.3871e-13
4.89419e-13
6.81266e-13
1.98478e-12
2.71651e-12
1.15357e-15
6.10609e-15
2.34833e-13
3.90878e-12
8.61698e-11
2.30429e-10
3.50414e-10
3.95303e-11
3.37971e-13
5.99473e-15
3.19775e-15
4.92441e-15
2.11685e-14
8.2692e-14
2.36423e-13
5.24623e-13
7.83126e-13
1.66124e-12
2.15177e-12
1.51923e-14
5.45759e-14
4.53001e-13
3.75195e-12
2.07375e-11
4.45429e-11
5.48103e-11
3.48882e-12
2.21544e-14
2.74609e-15
1.38068e-15
2.38943e-15
1.25546e-14
5.95177e-14
2.07753e-13
5.27844e-13
8.87993e-13
1.36572e-12
1.60505e-12
2.75747e-15
2.62146e-14
1.71625e-13
8.9697e-13
3.37066e-12
6.80453e-12
7.27445e-12
3.01614e-13
3.27063e-15
1.18964e-15
5.48759e-16
9.07557e-16
5.51154e-15
3.187e-14
1.39866e-13
4.32321e-13
8.88228e-13
1.22378e-12
2.59212e-12
1.18452e-15
6.95551e-15
3.44075e-14
1.39991e-13
4.30297e-13
8.21883e-13
8.2969e-13
2.45229e-14
1.03547e-15
4.8802e-16
2.04487e-16
2.70986e-16
1.7276e-15
1.16591e-14
6.28566e-14
2.47408e-13
6.88774e-13
1.36579e-12
2.32956e-12
2.78125e-16
1.1384e-15
4.60689e-15
1.60218e-14
4.48224e-14
8.36092e-14
8.33079e-14
2.25967e-15
3.90943e-16
1.88386e-16
7.32371e-17
7.01878e-17
4.19973e-16
3.10359e-15
1.94371e-14
9.5055e-14
3.42803e-13
8.80067e-13
1.63792e-12
6.63735e-17
1.80971e-16
5.33309e-16
1.56287e-15
4.05097e-15
7.57508e-15
7.60739e-15
3.35501e-16
1.42175e-16
6.76061e-17
2.47824e-17
1.6755e-17
8.41067e-17
6.55295e-16
4.55978e-15
2.57458e-14
1.12051e-13
3.58212e-13
7.67628e-13
1.70517e-17
3.50726e-17
7.48063e-17
1.65989e-16
3.65197e-16
6.65915e-16
6.8003e-16
8.31388e-17
4.77946e-17
2.23876e-17
7.82608e-18
3.87275e-18
1.41395e-17
1.10084e-16
8.25332e-16
5.19134e-15
2.59349e-14
9.75376e-14
2.29749e-13
4.32729e-18
8.25015e-18
1.49959e-17
2.55343e-17
4.37172e-17
6.96645e-17
7.13326e-17
2.40878e-17
1.46973e-17
6.79558e-18
2.27974e-18
8.93497e-19
2.12417e-18
1.52622e-17
1.19227e-16
8.1065e-16
4.47155e-15
1.88284e-14
4.65724e-14
1.00498e-18
1.97365e-18
3.47831e-18
5.3602e-18
8.02493e-18
1.08537e-17
1.0852e-17
6.73866e-18
4.11413e-18
1.88048e-18
6.06914e-19
2.02687e-19
3.06556e-19
1.81897e-18
1.41819e-17
1.01379e-16
5.98679e-16
2.71258e-15
6.86777e-15
2.07029e-19
4.27837e-19
7.69968e-19
1.18922e-18
1.7693e-18
2.22589e-18
2.2136e-18
1.72682e-18
1.0465e-18
4.72255e-19
1.46814e-19
4.37742e-20
4.49935e-20
1.95714e-19
1.43177e-18
1.04524e-17
6.44616e-17
3.05218e-16
7.78756e-16
3.69906e-20
8.04742e-20
1.53107e-19
2.49002e-19
3.80376e-19
4.71854e-19
4.8175e-19
3.98885e-19
2.41671e-19
1.07273e-19
3.21787e-20
8.78379e-21
6.78638e-21
2.01201e-20
1.2673e-19
9.11793e-19
5.74668e-18
2.78494e-17
7.07732e-17
5.54276e-21
1.31117e-20
2.72676e-20
4.7217e-20
7.39184e-20
9.37832e-20
9.89404e-20
8.30396e-20
5.05327e-20
2.20069e-20
6.38418e-21
1.61862e-21
1.02067e-21
2.07709e-21
1.02092e-20
6.89775e-20
4.3468e-19
2.12312e-18
5.32158e-18
7.27009e-22
1.90995e-21
4.37524e-21
7.94254e-21
1.28034e-20
1.70795e-20
1.83998e-20
1.56278e-20
9.54001e-21
4.0772e-21
1.14679e-21
2.73049e-22
1.47628e-22
2.19396e-22
7.80549e-22
4.64125e-21
2.8494e-20
1.38473e-19
3.39416e-19
8.47314e-23
2.49249e-22
6.24364e-22
1.18149e-21
1.99523e-21
2.80997e-21
3.07885e-21
2.65915e-21
1.62464e-21
6.82586e-22
1.86731e-22
4.22102e-23
2.00749e-23
2.33106e-23
5.88329e-23
2.85453e-22
1.64998e-21
7.87658e-21
1.87294e-20
8.97302e-24
2.89928e-23
7.83679e-23
1.57227e-22
2.80996e-22
4.14627e-22
4.64812e-22
4.08626e-22
2.49759e-22
1.03363e-22
2.76138e-23
5.99444e-24
2.54262e-24
2.41576e-24
4.46016e-24
1.65213e-23
8.59686e-23
3.96961e-22
9.08605e-22
8.46424e-25
3.00715e-24
8.68858e-24
1.88274e-23
3.57245e-23
5.49192e-23
6.34536e-23
5.6714e-23
3.47116e-23
1.41777e-23
3.71708e-24
7.84012e-25
2.99397e-25
2.38383e-25
3.38596e-25
9.24863e-25
4.10556e-24
1.79682e-23
3.92682e-23
7.11032e-26
2.77636e-25
8.60864e-25
2.03234e-24
4.09528e-24
6.55595e-24
7.84115e-24
7.12016e-24
4.36922e-24
1.76494e-24
4.56578e-25
9.46195e-26
3.28139e-26
2.21242e-26
2.52486e-26
5.10446e-26
1.83121e-25
7.39486e-25
1.52881e-24
5.31887e-27
2.29094e-26
7.68663e-26
1.98013e-25
4.23773e-25
7.08083e-25
8.78166e-25
8.1038e-25
4.99138e-25
1.99884e-25
5.13054e-26
1.05506e-26
3.35344e-27
1.92399e-27
1.81318e-27
2.79342e-27
7.76906e-27
2.79901e-26
5.41354e-26
3.5611e-28
1.69777e-27
6.2123e-27
1.74481e-26
3.96931e-26
6.94218e-26
8.93151e-26
8.38312e-26
5.188e-26
2.06505e-26
5.28755e-27
1.08783e-27
3.20012e-28
1.56918e-28
1.23797e-28
1.50603e-28
3.1849e-28
9.85198e-28
1.75826e-27
2.14446e-29
1.13559e-28
4.55709e-28
1.39436e-27
3.37686e-27
6.19715e-27
8.27197e-27
7.9047e-27
4.92013e-27
1.95202e-27
5.01082e-28
1.03781e-28
2.85403e-29
1.20372e-29
7.99167e-30
7.90504e-30
1.27509e-29
3.25945e-29
5.27772e-29
1.16692e-30
6.88502e-30
3.04227e-29
1.01403e-28
2.61895e-28
5.053e-28
6.99883e-28
6.81553e-28
4.27109e-28
1.69372e-28
4.37803e-29
9.1684e-30
2.37999e-30
8.71394e-31
4.87577e-31
3.99656e-31
5.00614e-31
1.02405e-30
1.47424e-30
5.76132e-32
3.79879e-31
1.85391e-30
6.73613e-30
1.85881e-29
3.77638e-29
5.42909e-29
5.39204e-29
3.40573e-29
1.35362e-29
3.53648e-30
7.50939e-31
1.85655e-31
5.97095e-32
2.81888e-32
1.93339e-32
1.9245e-32
3.0841e-32
3.85673e-32
2.59041e-33
1.91476e-32
1.03484e-31
4.10409e-31
1.21228e-30
2.59673e-30
3.87616e-30
3.929e-30
2.50404e-30
1.00009e-30
2.64891e-31
5.71188e-32
1.35566e-32
3.88196e-33
1.55082e-33
8.92946e-34
7.21171e-34
8.97494e-34
9.50624e-34
1.06435e-34
8.85091e-34
5.31166e-33
2.30327e-32
7.29638e-32
1.64973e-31
2.55778e-31
2.6476e-31
1.70448e-31
6.85711e-32
1.84561e-32
4.04372e-33
9.27666e-34
2.39886e-34
8.15747e-35
3.94199e-35
2.6222e-35
2.53912e-35
2.22028e-35
4.0096e-36
3.7669e-35
2.51769e-34
1.19616e-33
4.07141e-33
9.72705e-33
1.56694e-32
1.65713e-32
1.07878e-32
4.38089e-33
1.20025e-33
2.67177e-34
5.95877e-35
1.41088e-35
4.12151e-36
1.66932e-36
9.2248e-37
7.01254e-37
4.94078e-37
1.38926e-37
1.48202e-36
1.10704e-35
5.7765e-35
2.11659e-34
5.34837e-34
8.95409e-34
9.67825e-34
6.37721e-34
2.61908e-34
7.3122e-35
1.65285e-35
3.60089e-36
7.9073e-37
2.00818e-37
6.81544e-38
3.13849e-38
1.89532e-38
1.05314e-38
4.43989e-39
5.4123e-38
4.5373e-37
2.60747e-36
1.03048e-35
2.75645e-35
4.7967e-35
5.30009e-35
3.53786e-35
1.47167e-35
4.18945e-36
9.6082e-37
2.05276e-37
4.22845e-38
9.46623e-39
2.69844e-39
1.03469e-39
5.02075e-40
2.16156e-40
1.31182e-40
1.84216e-39
1.74212e-38
1.10613e-37
4.72427e-37
1.33879e-36
2.42162e-36
2.73556e-36
1.85109e-36
7.80861e-37
2.26687e-37
5.26959e-38
1.10753e-38
2.161e-39
4.32729e-40
1.04222e-40
3.31853e-41
1.30529e-41
4.29461e-42
3.58958e-42
5.86817e-41
6.30018e-40
4.4358e-39
2.05137e-38
6.16206e-38
1.15826e-37
1.33741e-37
9.17855e-38
3.92978e-38
1.16313e-38
2.73767e-39
5.67471e-40
1.0575e-40
1.92163e-41
3.94847e-42
1.04135e-42
3.33746e-43
8.30605e-44
9.08076e-44
1.75277e-42
2.15437e-41
1.69013e-40
8.48466e-40
2.704e-39
5.28092e-39
6.23167e-39
4.33874e-39
1.88627e-39
5.68833e-40
1.3539e-40
2.77291e-41
4.9679e-42
8.30117e-43
1.47356e-43
3.21686e-44
8.41308e-45
1.57173e-45
2.14529e-45
4.974e-44
7.05131e-43
6.17959e-42
3.36827e-41
1.13774e-40
2.30577e-40
2.77856e-40
1.9628e-40
8.66784e-41
2.6615e-41
6.39928e-42
1.29711e-42
2.24666e-43
3.49378e-44
5.43872e-45
9.86232e-46
2.10299e-46
2.93243e-47
4.38979e-47
1.28364e-45
2.16059e-44
2.1491e-43
1.28193e-42
4.60519e-42
9.69173e-42
1.19263e-41
8.54846e-42
3.83439e-42
1.19758e-42
2.90532e-43
5.83477e-44
9.81311e-45
1.43464e-45
1.98838e-46
3.01513e-47
5.22646e-48
5.41217e-49
)
;

boundaryField
{
    leftWall
    {
        type            zeroGradient;
    }
    rightWall
    {
        type            zeroGradient;
    }
    lowerWall
    {
        type            zeroGradient;
    }
    atmosphere
    {
        type            inletOutlet;
        inletValue      uniform 0;
        value           nonuniform List<scalar> 
46
(
0
0
0
0
0
0
0
0
0
0
0
0
0
0
0
0
0
0
0
0
0
0
0
1.12337e-52
4.33561e-51
1.15419e-49
2.38885e-48
4.38979e-47
1.28364e-45
2.16059e-44
2.1491e-43
1.28193e-42
4.60519e-42
9.69173e-42
1.19263e-41
8.54846e-42
3.83439e-42
1.19758e-42
2.90532e-43
5.83477e-44
9.81311e-45
1.43464e-45
1.98838e-46
3.01513e-47
5.22646e-48
5.41217e-49
)
;
    }
    defaultFaces
    {
        type            empty;
    }
}


// ************************************************************************* //
