/*--------------------------------*- C++ -*----------------------------------*\
| =========                 |                                                 |
| \\      /  F ield         | OpenFOAM: The Open Source CFD Toolbox           |
|  \\    /   O peration     | Version:  2.4.0                                 |
|   \\  /    A nd           | Web:      www.OpenFOAM.org                      |
|    \\/     M anipulation  |                                                 |
\*---------------------------------------------------------------------------*/
FoamFile
{
    version     2.0;
    format      ascii;
    class       volScalarField;
    location    "0.25";
    object      p;
}
// * * * * * * * * * * * * * * * * * * * * * * * * * * * * * * * * * * * * * //

dimensions      [1 -1 -2 0 0 0 0];

internalField   nonuniform List<scalar> 
2268
(
9475.37
9449.59
9398.99
9320.56
9217.43
9088.18
8913.88
8754.87
8509.28
8246.72
8000.96
7702.74
7364.66
7053.23
6776.27
6583.03
6501.11
6635.31
7215.09
8265.39
9820.32
11553.6
12817.8
8675.66
8649.83
8599.13
8520.57
8417.53
8287.13
8115.19
7948.67
7706.55
7444.5
7191.95
6888.31
6548.28
6229.89
5951.42
5742.72
5649.19
5786.28
6281.2
7288.54
8779.29
10729.6
11925.4
7872.57
7846.64
7795.72
7716.93
7614
7481.91
7312.53
7136.24
6897.63
6636.5
6370.54
6055.29
5710.62
5386.85
5097.14
4862.31
4735.77
4828.82
5213.46
6164.92
7593.56
9522.51
10929.8
7066.13
7040.03
6988.78
6909.76
6806.7
6673.06
6505.27
6319.21
6082.9
5821.75
5537.87
5206.33
4855.86
4523.05
4220.14
3937.84
3754.69
3711.04
3989.76
4766.68
6165.46
8199.24
9738.08
6256.47
6230.13
6178.43
6099.17
5996
5860.48
5693.89
5499.26
5262.3
4999.28
4693.78
4345.83
3986.94
3629.08
3305.96
2963.76
2653.53
2374.08
2417.42
2830.16
4362.99
6664.87
8349.89
5444.48
5417.84
5365.69
5286.46
5183.43
5046.49
4880.09
4680.08
4438.2
4166.1
3837.24
3467.52
3079.39
2680.59
2323.99
2044.46
1908.62
1876.13
1986.08
2115.84
2758.94
4934.1
6720.25
4630.69
4603.73
4551.29
4472.84
4371.47
4233.09
4068.03
3861.59
3610.28
3318.39
2974
2558.44
2133.47
1842.18
1723.51
1701.88
1796.23
1918.41
2030.35
2111.69
2152.33
3405.36
4924.66
3799.23
3770.74
3715.81
3635.36
3538.44
3389.57
3229.07
3022.54
2781.8
2491.15
2180.72
1875.36
1621.83
1545.6
1628.45
1707.64
1731.82
1764.49
1850.55
1999.05
1978.27
2646.34
3032.67
762.451
17.4994
-307.559
-199.806
113.04
436.997
654.243
845.604
917.956
924.438
908.907
899.766
920.321
993.01
1118.08
1293.97
1502.15
1644.7
1749.13
565.114
-144.298
-406.695
-314.84
26.9136
372.283
614.107
793.815
873.647
881.956
866.836
858.764
875.634
946.805
1072.94
1251.71
1452.81
1603.2
1711.44
229.599
-349.421
-545.164
-434.157
-92.581
276.253
549.05
725.571
813.793
825.889
812.599
805.519
825.107
896.451
1018.93
1198.09
1408.55
1579.09
1711.56
-111.353
-542.895
-700.159
-500.829
-194.336
167.768
458.652
642.682
740.53
758.661
747.418
737.404
754.32
822.336
943.329
1124.7
1341.05
1540.59
1694.23
-431.262
-724.034
-731.509
-665.244
-266.005
67.1276
354.929
550.165
655.494
681.537
673.031
658.774
673.404
733.208
849.642
1034.03
1263.79
1485.14
1663.68
-644.852
-742.664
-736.479
-733.928
-490.619
-27.0466
248.736
452.966
563.703
596.597
588.338
571.45
579.17
626.495
737.147
919.484
1165.61
1409.71
1618.67
-698.675
-742.258
-735.686
-742.134
-648.808
-139.764
150.553
356.088
468.418
505.162
492.918
473.791
474.207
501.475
599.436
776.146
1030.73
1320.85
1546.06
-690.645
-741.455
-736.157
-741.469
-684.924
-248.345
67.2327
264.319
372.945
404.994
382.187
354.658
352.014
372.842
430.705
596.96
885.301
1206.71
1451.78
2429.32
2392.25
2322.44
2223.34
2105.43
1987.13
1868.61
1743.45
1593.86
1500.78
1457.87
1439.37
1479.3
1522.04
1536.05
1542.78
1577.13
1655.88
1720.28
1808.11
1759.6
1746.41
406.493
1339.65
1332.49
1318.99
1302.89
1284.82
1266.97
1247.23
1242.36
1261.96
1289.23
1312.25
1327.95
1333.18
1329.92
1330.72
1340.41
1356.85
1380.79
1398
1428.7
1370.78
1225.25
905.046
1159.6
1161.73
1165.47
1170.34
1174.84
1179.91
1186.22
1192.89
1190.11
1181.3
1169.66
1161.81
1154.52
1146.91
1137.72
1125.04
1108.72
1095.18
1077.68
1050
993.872
876.59
741.818
1052.14
1050.5
1047.64
1043.59
1039.38
1035.55
1031.68
1027
1023.55
1019.93
1012.92
1003.8
989.43
968.105
938.381
900.366
853.061
804.501
751.074
703.772
675.25
610.404
530.405
908.517
907.985
906.851
904.93
902.254
899.027
894.53
887.994
882.963
874.411
860.613
843.784
817.306
779.42
731.765
674.461
612.744
553.409
499.801
478.278
469.75
475.848
429.103
779.088
777.824
775.129
770.942
765.297
758.326
750.092
740.731
731.985
719.226
702.598
680.33
641.983
590.853
532.316
468.419
411.331
375.456
367.991
375.22
392.947
429.463
400.737
640.057
638.39
634.886
629.314
621.493
611.869
601.411
590.549
580.538
566.329
548.05
517.874
467.943
412.666
355.766
308.205
290.813
285.347
304.849
328.424
360.826
386.347
382.092
503.511
501.788
497.95
491.356
481.483
468.437
454.341
442.07
433.117
421.127
403.621
360.009
305.782
265.067
240.743
224.144
225.827
246.057
267.18
290.082
317.046
330.76
327.505
367.275
365.816
362.155
354.898
342.156
322.923
300.315
283.94
277.562
275.666
267.216
230.284
194.902
168.785
161.967
168.245
183.72
200.58
221.095
238.198
256.297
260.457
248.578
219.294
218.39
215.716
209.118
194.085
164.499
122.693
92.2603
78.9381
85.3076
92.1121
89.641
90.2936
98.4767
110.342
121.052
133.102
147.12
161.243
171.57
184.573
185.816
181.074
55.2596
56.3118
58.3883
61.4285
63.215
51.569
30.6727
16.5061
9.45119
8.05375
8.28477
16.6159
26.0168
28.9228
37.4939
50.5522
65.3026
78.2273
84.3117
85.3491
82.7273
69.6223
46.8839
5.04337
4.70076
4.08642
3.27532
2.47617
2.13951
2.2607
2.31643
2.5716
2.60929
2.46452
2.67558
3.5753
5.16661
6.71989
10.2653
13.9442
16.2144
15.4271
11.9219
6.70188
5.79051
3.9272
3.4342
3.5084
3.65738
3.8818
4.14509
4.431
4.66146
4.6937
4.67036
4.64129
4.44273
3.96134
3.57123
3.04468
2.63948
2.32301
2.09776
2.01171
2.12987
2.22154
2.36955
2.52299
2.54954
4.15786
4.11662
4.04234
3.95063
3.86213
3.73464
3.58222
3.49548
3.45493
3.46918
3.4754
3.51119
3.42789
3.59934
3.80749
4.00497
4.0912
4.06624
3.97636
3.8508
3.71174
3.49569
3.26647
3.37109
3.39247
3.43048
3.47996
3.52809
3.55145
3.55545
3.60548
3.64662
3.64269
3.57447
3.43665
3.30897
3.19499
3.08211
2.99354
2.9109
2.82406
2.76695
2.76895
2.78155
2.79482
2.76564
3.61724
3.60483
3.58548
3.5605
3.53089
3.49706
3.46674
3.45723
3.44981
3.43619
3.39947
3.33183
3.26328
3.2264
3.19989
3.1691
3.13266
3.1031
3.08595
3.07159
3.08559
3.05821
2.99522
3.31876
3.31956
3.31948
3.31836
3.31543
3.31021
3.30449
3.30169
3.29611
3.28269
3.25151
3.20495
3.14964
3.10717
3.07405
3.04339
3.00604
2.96095
2.91343
2.85549
2.8189
2.81177
2.80503
3.19072
3.19071
3.18984
3.18774
3.18391
3.17849
3.17177
3.16415
3.15355
3.13788
3.11194
3.07685
3.03828
3.00257
2.96874
2.93319
2.89494
2.8604
2.83463
2.81506
2.80001
2.7742
2.74935
3.05857
3.05785
3.05612
3.053
3.04827
3.04204
3.03444
3.02533
3.01406
2.99911
2.97893
2.95288
2.92584
2.89804
2.86923
2.83998
2.81082
2.78221
2.75094
2.72534
2.70251
2.68182
2.6596
2.92266
2.92161
2.91941
2.91615
2.91168
2.90584
2.89861
2.8898
2.87898
2.86516
2.84752
2.82708
2.80561
2.78227
2.75792
2.73256
2.70814
2.68231
2.65368
2.62788
2.60623
2.58494
2.56267
2.78768
2.78665
2.78455
2.78137
2.77704
2.77144
2.7645
2.75604
2.74568
2.73279
2.71761
2.70098
2.68273
2.66336
2.64285
2.62113
2.59933
2.57584
2.55028
2.52641
2.50487
2.48418
2.46381
2.65342
2.65242
2.65042
2.64741
2.6433
2.63803
2.63151
2.62361
2.61403
2.60262
2.58961
2.57506
2.55907
2.54163
2.52281
2.50355
2.48366
2.4626
2.44133
2.42006
2.40002
2.38162
2.36322
2.5195
2.51857
2.51671
2.51392
2.51011
2.50524
2.49921
2.49189
2.48312
2.47286
2.46117
2.44826
2.43411
2.41879
2.40257
2.38559
2.36763
2.3492
2.33036
2.31178
2.29404
2.27666
2.26008
2.3864
2.38552
2.38378
2.38115
2.37759
2.37305
2.36745
2.36069
2.35269
2.34348
2.33319
2.32176
2.30923
2.29582
2.28166
2.26672
2.2509
2.23428
2.2176
2.20132
2.18542
2.16998
2.15496
2.25392
2.25312
2.25151
2.24906
2.24574
2.24151
2.23633
2.23016
2.223
2.21486
2.20569
2.19556
2.18454
2.17258
2.15981
2.14638
2.13249
2.11812
2.10349
2.08907
2.075
2.06128
2.04809
2.12194
2.1212
2.11971
2.11746
2.11442
2.11056
2.10586
2.10028
2.09382
2.08646
2.07823
2.06919
2.05934
2.04885
2.03776
2.02599
2.01366
2.00094
1.9881
1.9756
1.96325
1.95111
1.93954
1.99032
1.98962
1.98825
1.98617
1.98339
1.97988
1.97562
1.97061
1.96483
1.95832
1.95108
1.94309
1.93443
1.92512
1.91519
1.90477
1.89402
1.88302
1.87193
1.86084
1.85
1.83949
1.8295
1.85925
1.85863
1.85738
1.8555
1.85299
1.84982
1.84599
1.8415
1.83635
1.83055
1.8241
1.81704
1.80937
1.80116
1.79248
1.78339
1.77396
1.76431
1.75464
1.74508
1.7357
1.7266
1.71803
1.7286
1.72804
1.72692
1.72524
1.72299
1.72016
1.71675
1.71277
1.7082
1.70307
1.69737
1.69115
1.68442
1.67723
1.66964
1.6617
1.65351
1.64515
1.63675
1.62844
1.62033
1.61253
1.60523
1.59828
1.59778
1.59678
1.59528
1.59328
1.59077
1.58776
1.58424
1.58022
1.57572
1.57073
1.56529
1.55942
1.55316
1.54655
1.53967
1.53258
1.52536
1.51812
1.51099
1.50404
1.49739
1.4912
1.46835
1.46791
1.46703
1.46572
1.46396
1.46176
1.45912
1.45605
1.45254
1.44861
1.44427
1.43955
1.43446
1.42904
1.42334
1.41741
1.41131
1.40512
1.39892
1.39281
1.38689
1.38126
1.37604
1.33868
1.3383
1.33754
1.3364
1.33487
1.33297
1.33068
1.32802
1.325
1.32161
1.31788
1.31382
1.30946
1.30482
1.29994
1.29488
1.28968
1.28441
1.27914
1.27397
1.26897
1.26423
1.25987
1.20931
1.20898
1.20833
1.20735
1.20605
1.20442
1.20247
1.20021
1.19763
1.19475
1.19158
1.18813
1.18443
1.18051
1.17639
1.17211
1.16773
1.16329
1.15886
1.15452
1.15033
1.14639
1.14277
1.08015
1.07987
1.07933
1.07851
1.07742
1.07605
1.07442
1.07253
1.07037
1.06797
1.06532
1.06245
1.05937
1.0561
1.05267
1.04911
1.04547
1.04178
1.03811
1.03451
1.03106
1.02781
1.02485
0.951202
0.950975
0.950533
0.949861
0.948967
0.947851
0.946517
0.944969
0.943211
0.941249
0.939093
0.936754
0.934244
0.931582
0.92879
0.925894
0.922928
0.919929
0.91694
0.914011
0.911199
0.908562
0.906182
0.822421
0.822241
0.821893
0.821361
0.820654
0.819772
0.818717
0.817495
0.816109
0.814564
0.812868
0.811028
0.809054
0.806956
0.804753
0.802467
0.800122
0.797748
0.795379
0.793054
0.790817
0.788712
0.786782
0.693782
0.693644
0.693385
0.692983
0.692451
0.691787
0.690992
0.690075
0.689039
0.687886
0.686625
0.685257
0.683786
0.682215
0.680559
0.678836
0.677067
0.675269
0.673467
0.671691
0.669975
0.668355
0.666871
0.565238
0.565133
0.564956
0.564677
0.564312
0.563854
0.563318
0.562703
0.562004
0.561225
0.560374
0.559452
0.55845
0.557363
0.556212
0.555018
0.553785
0.552521
0.55124
0.549967
0.548727
0.547545
0.546453
0.436751
0.436659
0.43656
0.436399
0.436198
0.435961
0.435685
0.435353
0.434967
0.434526
0.434036
0.433493
0.432904
0.432299
0.431679
0.431009
0.430293
0.429531
0.428731
0.427923
0.427122
0.426346
0.425604
0.308399
0.308305
0.308276
0.308227
0.308178
0.308125
0.308058
0.307977
0.307888
0.307788
0.307661
0.307508
0.30734
0.307149
0.306933
0.3067
0.306453
0.306198
0.305923
0.305593
0.305193
0.304748
0.304316
0.180317
0.180279
0.180315
0.180363
0.180443
0.180545
0.180667
0.180812
0.180979
0.181159
0.181348
0.181545
0.181742
0.18194
0.182136
0.18233
0.182516
0.182687
0.182834
0.182944
0.183011
0.182996
0.182838
0.0521729
0.0522131
0.0523167
0.0524586
0.0526632
0.052928
0.0532524
0.0536315
0.054061
0.0545356
0.0550507
0.0556027
0.0561867
0.0567916
0.0573991
0.0579936
0.0585611
0.0590886
0.0595632
0.0599738
0.060311
0.0605709
0.0607657
-702.984
-696.141
-691.799
-706.273
6.54271
-373.961
-527.353
-600.097
295.625
16.0048
-181.886
-383.158
322.667
147.242
-39.5498
-210.856
337.806
261.063
155.644
31.2427
361.68
320.991
265.563
200.116
351.358
320.698
286.876
250.083
303.197
283.711
262.232
235.285
226.726
211.614
194.002
175.213
162.498
143.244
125.835
106.663
20.2993
7.98381
5.97582
8.31879
2.87909
2.92592
2.98316
2.85285
2.65348
3.05873
3.2928
3.2456
3.20147
3.15569
3.11274
3.02782
2.91346
2.99831
3.02428
3.02568
2.95635
2.93752
2.91706
2.89829
2.81381
2.8141
2.80855
2.7985
2.73369
2.72386
2.7143
2.70431
2.64295
2.63229
2.62156
2.61125
2.54743
2.53738
2.52688
2.51757
2.45002
2.44075
2.43156
2.42298
2.35027
2.34161
2.33306
2.32582
2.24856
2.24123
2.23362
2.22673
2.14467
2.13847
2.132
2.12582
2.03916
2.03375
2.02834
2.02302
1.9318
1.92716
1.9226
1.91808
1.82284
1.81886
1.81502
1.81124
1.71234
1.70894
1.70572
1.70258
1.60039
1.59751
1.59482
1.59223
1.48711
1.48469
1.48245
1.48033
1.37263
1.3706
1.36874
1.36702
1.25703
1.25534
1.25382
1.25242
1.14043
1.13905
1.1378
1.13667
1.02295
1.02182
1.0208
1.01989
0.904711
0.903754
0.90292
0.902194
0.785496
0.784828
0.784212
0.783665
0.665917
0.66537
0.664883
0.66446
0.545749
0.545339
0.544973
0.544655
0.425117
0.424823
0.424558
0.424329
0.304004
0.303833
0.30368
0.303541
0.182739
0.182647
0.182543
0.182445
0.0608099
0.0608364
0.0608601
0.0608765
-729.932
-738.143
-736.467
-740.937
-690.306
-360.644
-46.9985
129.006
221.613
233.913
175.997
111.316
76.3031
39.7209
49.6362
161.022
626.679
950.32
1271.22
-721.733
-737.316
-735.678
-736.195
-698.099
-427.698
-164.111
-8.62985
40.6647
38.4034
23.4699
5.34847
1.09031
0.778399
1.98639
9.30691
119.486
545.707
855.26
-660.291
-732.03
-734.691
-726.01
-649.575
-416.52
-198.231
-48.8386
0.512432
2.88226
1.86068
2.04894
2.81504
3.34961
2.96348
2.49216
8.24046
123.493
430.602
-497.341
-692.072
-707.485
-633.784
-511.651
-320.831
-143.414
-23.6682
1.90837
2.47815
2.43149
2.42786
2.1851
1.81606
1.74336
2.56562
0.199263
20.0404
157.901
-174.333
-362.748
-420.28
-393.215
-298.256
-176.59
-45.4681
-0.93037
2.86199
2.43326
2.27869
2.1339
2.05777
2.10961
1.90016
2.31135
1.38409
0.545848
51.9354
74.079
-66.9978
-143.237
-158.236
-114.278
-45.5706
-2.18053
2.67625
2.80674
2.56301
2.3622
2.18983
2.11315
1.8322
1.73317
1.99333
2.0217
1.74675
37.1706
180.627
95.76
29.9219
-5.13917
-3.12167
1.31296
2.66977
2.90687
2.81084
2.55892
2.33429
2.12071
2.05877
1.67217
1.82953
1.79084
1.7944
3.73775
56.7127
184.259
105.855
54.4562
38.667
9.90794
3.52378
3.06765
2.95879
2.75478
2.51602
2.28702
2.05705
1.9282
1.39689
1.64954
1.26987
0.958438
1.12831
47.7699
142.78
91.3528
42.9011
8.96812
4.03712
3.20166
3.10566
2.8952
2.69526
2.47222
2.23675
1.99149
1.75835
1.17533
1.51433
0.396681
0.833523
-1.12601
14.6745
57.9595
13.7846
4.58064
3.39627
3.23571
3.19652
3.02591
2.83901
2.64357
2.43015
2.19666
1.92792
1.58558
1.05127
1.20507
-0.713091
0.260453
-2.00065
-0.179625
4.92733
3.21713
2.88845
3.28722
3.257
3.10413
2.94059
2.77991
2.60099
2.40473
2.18028
1.90751
1.54125
1.05782
0.732575
-1.83473
-0.874562
-3.17971
-5.18265
2.69699
3.17035
3.35686
3.167
3.1195
3.00007
2.86852
2.725
2.56921
2.39598
2.19542
1.94969
1.6281
1.20386
0.487196
-1.39391
-1.37148
-4.70609
-4.59521
3.26632
3.15279
3.10487
3.05832
2.99478
2.90453
2.79685
2.67827
2.54763
2.40367
2.23905
2.04308
1.79718
1.4647
0.86066
-0.103251
-0.500365
-3.61557
5.01526
2.93659
3.00272
2.98824
2.95047
2.8941
2.82012
2.73352
2.6378
2.53414
2.42255
2.30031
2.16373
2.0053
1.80756
1.51639
1.13476
0.841796
0.28457
5.2002
2.99908
2.94085
2.89878
2.85632
2.80583
2.74512
2.67638
2.60198
2.52458
2.44529
2.36546
2.2877
2.21529
2.15511
2.12059
2.16367
2.46338
3.39013
5.37783
2.87128
2.844
2.80851
2.76961
2.72546
2.67607
2.62311
2.56798
2.51438
2.46463
2.4227
2.39528
2.39211
2.43146
2.54679
2.80118
3.32225
4.38526
5.34773
2.77919
2.75104
2.71956
2.68613
2.64925
2.60991
2.57102
2.53257
2.49946
2.47457
2.46324
2.47381
2.51794
2.61505
2.79519
3.10037
3.58557
4.34249
4.85454
2.68739
2.6607
2.63327
2.60468
2.57433
2.54447
2.51732
2.49291
2.47656
2.47111
2.48229
2.51816
2.5893
2.71107
2.90315
3.18599
3.56948
4.05845
4.34308
2.59515
2.57124
2.54763
2.5235
2.49948
2.47776
2.45978
2.44714
2.44352
2.4523
2.47843
2.52876
2.61138
2.73641
2.91409
3.15018
3.43534
3.7501
3.92174
2.50275
2.48151
2.46097
2.44122
2.42316
2.40815
2.39749
2.39394
2.39958
2.41782
2.45265
2.50923
2.59301
2.70967
2.86288
3.05068
3.2586
3.46402
3.57399
2.40921
2.39065
2.37295
2.35736
2.344
2.33426
2.33002
2.33278
2.34469
2.36853
2.4073
2.46454
2.54349
2.64663
2.77383
2.91997
3.07123
3.20842
3.28177
2.31433
2.29774
2.28312
2.27105
2.26165
2.2561
2.25647
2.26362
2.27938
2.3059
2.34529
2.39976
2.47092
2.55921
2.66267
2.77545
2.88624
2.98008
3.03066
2.21641
2.20289
2.1908
2.18158
2.17541
2.17345
2.17693
2.18684
2.20458
2.23171
2.26958
2.31944
2.38175
2.45586
2.5391
2.62606
2.70803
2.77383
2.80957
2.11673
2.10577
2.09567
2.08904
2.08559
2.08603
2.09161
2.10305
2.12142
2.14777
2.18289
2.22732
2.28086
2.34233
2.40897
2.4762
2.53747
2.58492
2.61058
2.01503
2.00594
1.99802
1.99339
1.99194
1.9941
2.00094
2.013
2.03106
2.05577
2.08751
2.12639
2.17182
2.22243
2.27573
2.32796
2.3743
2.40929
2.42804
1.91124
1.90374
1.89781
1.89469
1.89464
1.89795
1.90542
1.91746
1.9346
1.95719
1.98537
2.01894
2.05716
2.09868
2.14133
2.18217
2.21762
2.24389
2.25783
1.80547
1.79936
1.79495
1.79305
1.79397
1.79796
1.80561
1.81718
1.83303
1.85332
1.87799
1.9067
1.93868
1.97267
2.00688
2.039
2.0664
2.08641
2.09695
1.69777
1.69286
1.68964
1.68867
1.69023
1.69455
1.70203
1.71286
1.72724
1.7452
1.76658
1.79096
1.8176
1.84542
1.87292
1.89834
1.91971
1.93515
1.94321
1.58826
1.58437
1.58208
1.58178
1.58374
1.58812
1.59521
1.60514
1.61798
1.6337
1.65206
1.67266
1.6948
1.71755
1.73972
1.75994
1.77675
1.78877
1.79502
1.47709
1.47403
1.47245
1.47263
1.47478
1.47904
1.48561
1.49455
1.50588
1.51951
1.53518
1.55249
1.57084
1.58946
1.60737
1.62353
1.63683
1.64628
1.65116
1.3644
1.36201
1.36097
1.36146
1.36366
1.36768
1.37365
1.38158
1.39147
1.40318
1.41647
1.43096
1.44614
1.46137
1.47587
1.48882
1.49941
1.50687
1.51072
1.25032
1.24848
1.24783
1.2485
1.25065
1.25435
1.25968
1.26664
1.27517
1.28516
1.29636
1.30844
1.32096
1.3334
1.34515
1.35556
1.36401
1.36994
1.37299
1.13499
1.13359
1.13322
1.13399
1.13601
1.13934
1.14402
1.15005
1.15735
1.16579
1.17517
1.18519
1.19549
1.20563
1.21514
1.22351
1.23027
1.23499
1.23741
1.01856
1.0175
1.01732
1.01812
1.01996
1.0229
1.02695
1.0321
1.03828
1.04535
1.05315
1.06141
1.06983
1.07808
1.08576
1.09248
1.09788
1.10164
1.10356
0.901149
0.900355
0.900308
0.901069
0.902704
0.905243
0.908697
0.913038
0.918198
0.924064
0.930477
0.937232
0.944079
0.950738
0.956908
0.962285
0.966586
0.969573
0.971095
0.782872
0.782291
0.782322
0.783016
0.784424
0.786571
0.789457
0.793053
0.797298
0.802094
0.807306
0.812764
0.818269
0.823596
0.828511
0.832777
0.836179
0.838534
0.839732
0.663858
0.663436
0.663503
0.664105
0.66528
0.667046
0.6694
0.672315
0.675736
0.679581
0.68374
0.688076
0.69243
0.696628
0.700486
0.703825
0.70648
0.708313
0.709243
0.544206
0.543901
0.543977
0.544469
0.54541
0.546811
0.548669
0.550959
0.553636
0.556634
0.559864
0.563219
0.566578
0.569806
0.572764
0.575317
0.577341
0.578736
0.579442
0.424007
0.423792
0.423857
0.424233
0.424944
0.426
0.427396
0.429112
0.431112
0.433346
0.435746
0.438234
0.440717
0.443099
0.445276
0.447152
0.448635
0.449654
0.450169
0.303337
0.303192
0.303233
0.303489
0.303979
0.304709
0.305675
0.306861
0.308241
0.30978
0.31143
0.313137
0.314838
0.316466
0.317953
0.31923
0.32024
0.320932
0.321279
0.182307
0.182213
0.182222
0.182356
0.182634
0.183054
0.183613
0.184301
0.185103
0.185997
0.186956
0.187948
0.188936
0.189882
0.190745
0.191486
0.19207
0.192467
0.192662
0.0608834
0.0608798
0.0609056
0.0609632
0.0610462
0.061165
0.0613248
0.0615269
0.0617687
0.0620444
0.0623451
0.0626593
0.0629744
0.0632775
0.0635554
0.0637959
0.0639936
0.0641284
0.0641901
)
;

boundaryField
{
    leftWall
    {
        type            fixedFluxPressure;
        gradient        uniform 0;
        value           nonuniform List<scalar> 
50
(
9475.37
8675.66
7872.57
7066.13
6256.47
5444.48
4630.69
3799.23
2429.32
1339.65
1159.6
1052.14
908.517
779.088
640.057
503.511
367.275
219.294
55.2596
5.04337
3.4342
4.15786
3.37109
3.61724
3.31876
3.19072
3.05857
2.92266
2.78768
2.65342
2.5195
2.3864
2.25392
2.12194
1.99032
1.85925
1.7286
1.59828
1.46835
1.33868
1.20931
1.08015
0.951202
0.822421
0.693782
0.565238
0.436751
0.308399
0.180317
0.0521729
)
;
    }
    rightWall
    {
        type            fixedFluxPressure;
        gradient        uniform 0;
        value           nonuniform List<scalar> 
50
(
1749.13
1711.44
1711.56
1694.23
1663.68
1618.67
1546.06
1451.78
1271.22
855.26
430.602
157.901
51.9354
37.1706
56.7127
47.7699
14.6745
-0.179625
-5.18265
-4.59521
5.01526
5.2002
5.37783
5.34773
4.85454
4.34308
3.92174
3.57399
3.28177
3.03066
2.80957
2.61058
2.42804
2.25783
2.09695
1.94321
1.79502
1.65116
1.51072
1.37299
1.23741
1.10356
0.971095
0.839732
0.709243
0.579442
0.450169
0.321279
0.192662
0.0641901
)
;
    }
    lowerWall
    {
        type            fixedFluxPressure;
        gradient        nonuniform List<scalar> 
62
(
132719
132719
132719
132719
132719
132719
132719
132719
132719
132719
132719
132719
132719
132719
132719
132719
132719
132719
132719
132719
132717
132646
132464
0
0
0
0
0
0
0
0
8479.38
11.7928
10.0525
33.2192
0
0
0
0
0
0
0
0
4902.59
4896.39
4879.76
4887.01
4895.87
4894.98
4892.13
4898.01
4894.61
4899
4903.44
4902.49
4759.35
3392.7
3898.82
4440.86
2932.11
588.135
2173.18
)
;
        value           nonuniform List<scalar> 
62
(
9873.52
9847.74
9797.14
9718.71
9615.58
9486.33
9312.03
9153.02
8907.43
8644.87
8399.11
8100.89
7762.81
7451.38
7174.42
6981.18
6899.26
7033.46
7613.24
8663.54
10218.5
11951.5
13215.2
12817.8
11925.4
10929.8
9738.08
8349.89
6720.25
4924.66
3032.67
-648.877
-696.066
-691.735
-706.061
762.451
565.114
229.599
-111.353
-431.262
-644.852
-698.675
-690.645
777.159
32.1882
-292.92
-185.145
127.727
451.682
668.919
860.297
932.64
939.134
923.617
914.473
934.599
1003.19
1129.78
1307.29
1510.95
1646.47
1755.65
)
;
    }
    atmosphere
    {
        type            totalPressure;
        U               U.air;
        phi             phi.air;
        rho             rho;
        psi             none;
        gamma           1;
        p0              uniform 0;
        value           nonuniform List<scalar> 
46
(
-0.0125007
-0.012808
-0.0126425
-0.0123948
-0.0120514
-0.0116191
-0.0111023
-0.0105065
-0.00983885
-0.00910785
-0.00832248
-0.00749377
-0.00663235
-0.00575078
-0.00486529
-0.00399366
-0.00315458
-0.00236826
-0.00165653
-0.001043
-0.000551716
-0.000211738
-5.89516e-05
0
0
0
0
0
0
0
0
0
0
0
0
0
0
0
0
0
0
0
0
0
0
0
)
;
    }
    defaultFaces
    {
        type            empty;
    }
}


// ************************************************************************* //
