/*--------------------------------*- C++ -*----------------------------------*\
| =========                 |                                                 |
| \\      /  F ield         | OpenFOAM: The Open Source CFD Toolbox           |
|  \\    /   O peration     | Version:  2.4.0                                 |
|   \\  /    A nd           | Web:      www.OpenFOAM.org                      |
|    \\/     M anipulation  |                                                 |
\*---------------------------------------------------------------------------*/
FoamFile
{
    version     2.0;
    format      ascii;
    class       surfaceScalarField;
    location    "0.25";
    object      phi.water;
}
// * * * * * * * * * * * * * * * * * * * * * * * * * * * * * * * * * * * * * //

dimensions      [0 3 -1 0 0 0 0];

internalField   nonuniform List<scalar> 
4432
(
3.4004e-06
-3.40022e-06
6.81906e-06
-3.4185e-06
1.02591e-05
-3.4398e-06
1.37895e-05
-3.53023e-06
1.72538e-05
-3.46413e-06
2.12308e-05
-3.97678e-06
2.42941e-05
-3.06314e-06
2.9127e-05
-4.83269e-06
3.30443e-05
-3.91712e-06
3.63174e-05
-3.2727e-06
4.07884e-05
-4.47001e-06
4.66449e-05
-5.85505e-06
5.22382e-05
-5.59186e-06
5.69995e-05
-4.76004e-06
6.01687e-05
-3.16831e-06
6.25012e-05
-2.33169e-06
6.38783e-05
-1.37508e-06
6.42151e-05
-3.24293e-07
6.09682e-05
3.26472e-06
5.27818e-05
8.20323e-06
3.96159e-05
1.3179e-05
1.95112e-05
2.01073e-05
1.95109e-05
3.39921e-06
-6.79912e-06
6.81647e-06
-6.83548e-06
1.02539e-05
-6.87695e-06
1.37864e-05
-7.06246e-06
1.7255e-05
-6.93242e-06
2.11316e-05
-7.85309e-06
2.442e-05
-6.35122e-06
2.9108e-05
-9.52028e-06
3.29413e-05
-7.74966e-06
3.63082e-05
-6.6381e-06
4.10353e-05
-9.19343e-06
4.69032e-05
-1.17187e-05
5.24532e-05
-1.11382e-05
5.66693e-05
-8.97267e-06
5.9686e-05
-6.17458e-06
6.22803e-05
-4.85132e-06
6.48449e-05
-3.36917e-06
6.66023e-05
1.72454e-06
6.40546e-05
9.51436e-06
5.7299e-05
1.76856e-05
4.15961e-05
3.00301e-05
2.1425e-05
4.07848e-05
4.09669e-05
3.39267e-06
-1.01915e-05
6.80136e-06
-1.02439e-05
1.02332e-05
-1.03086e-05
1.37538e-05
-1.05828e-05
1.72232e-05
-1.04016e-05
2.10004e-05
-1.163e-05
2.45333e-05
-9.88373e-06
2.88991e-05
-1.3885e-05
3.27149e-05
-1.1563e-05
3.64826e-05
-1.04005e-05
4.13945e-05
-1.40943e-05
4.69154e-05
-1.72282e-05
5.18643e-05
-1.60271e-05
5.61961e-05
-1.30087e-05
5.95586e-05
-7.81524e-06
6.33504e-05
4.90907e-07
6.55755e-05
1.80015e-05
6.9029e-05
2.39894e-05
6.71789e-05
3.11218e-05
6.08985e-05
4.17337e-05
4.36473e-05
5.57216e-05
2.3356e-05
6.28056e-05
6.4722e-05
3.38326e-06
-1.3574e-05
6.77896e-06
-1.36392e-05
1.02054e-05
-1.37347e-05
1.36986e-05
-1.40757e-05
1.71693e-05
-1.3872e-05
2.08757e-05
-1.53359e-05
2.45629e-05
-1.35697e-05
2.85835e-05
-1.79e-05
3.24524e-05
-1.5422e-05
3.67893e-05
-1.47228e-05
4.17243e-05
-1.87969e-05
4.63249e-05
-1.92754e-05
5.08707e-05
-7.79092e-06
5.54144e-05
6.13807e-06
5.52659e-05
1.20954e-05
5.76395e-05
1.4485e-05
7.37364e-05
2.27351e-05
7.27478e-05
3.46877e-05
6.7687e-05
5.69516e-05
5.56939e-05
7.90342e-05
3.9521e-05
9.65926e-05
2.46007e-05
8.797e-05
9.04763e-05
3.37012e-06
-1.69432e-05
6.749e-06
-1.70177e-05
1.01638e-05
-1.71492e-05
1.36288e-05
-1.75405e-05
1.70772e-05
-1.73201e-05
2.07506e-05
-1.90063e-05
2.45092e-05
-1.73226e-05
2.821e-05
-2.15196e-05
3.2163e-05
-1.87139e-05
3.70547e-05
-1.49805e-05
4.14628e-05
-3.94948e-06
4.14088e-05
1.99275e-06
4.68835e-05
1.78907e-06
5.80701e-05
9.16608e-06
6.46606e-05
1.34932e-05
7.01197e-05
1.35527e-05
7.17827e-05
1.49047e-05
7.18772e-05
1.99973e-05
6.80535e-05
3.50046e-05
4.75731e-05
6.9295e-05
3.66291e-05
0.000112275
1.57252e-05
0.000148991
0.000120502
3.35297e-06
-2.02952e-05
6.71151e-06
-2.0376e-05
1.01079e-05
-2.05455e-05
1.35363e-05
-2.09688e-05
1.69511e-05
-2.07323e-05
2.06219e-05
-2.21275e-05
2.42907e-05
-1.71971e-05
2.8034e-05
-6.68967e-06
3.15229e-05
3.13466e-06
3.20975e-05
1.51399e-06
4.16383e-05
3.05638e-07
4.87243e-05
1.98902e-06
5.34915e-05
8.22766e-07
5.84895e-05
1.64234e-06
6.13532e-05
1.93622e-06
6.15709e-05
3.73382e-06
6.00766e-05
-9.43489e-07
5.67047e-05
-1.06935e-06
5.42928e-05
1.2662e-05
3.7334e-05
4.8926e-05
2.35372e-05
9.83253e-05
1.34353e-05
0.000154825
0.000153546
3.33841e-06
-2.35924e-05
6.68204e-06
-2.3673e-05
1.00586e-05
-2.38702e-05
1.34461e-05
-2.42959e-05
1.68468e-05
-8.86946e-06
2.04474e-05
1.51115e-06
2.08269e-05
2.14216e-06
2.75408e-05
-1.22482e-06
3.48409e-05
2.92379e-06
3.972e-05
1.05245e-06
4.39437e-05
-2.55631e-06
4.86293e-05
-5.74117e-06
5.21387e-05
-1.01e-05
5.28828e-05
-1.16656e-05
4.97697e-05
-1.18725e-05
4.37723e-05
-1.21342e-05
4.34123e-05
-1.4732e-05
4.77627e-05
-9.36227e-06
5.20412e-05
6.80228e-06
4.77455e-05
4.60954e-05
1.64421e-05
0.000102294
1.40258e-05
0.00014798
0.00020784
3.34513e-06
1.61912e-06
6.70493e-06
1.63729e-06
1.00833e-05
1.6269e-06
1.17855e-05
1.59592e-06
1.54265e-05
-1.8571e-06
2.17014e-05
1.60269e-06
2.57854e-05
2.84754e-06
2.91613e-05
-1.01063e-06
3.45005e-05
-2.98814e-06
3.82898e-05
-4.90353e-06
4.14705e-05
-9.83449e-06
4.66471e-05
-1.98937e-05
4.67141e-05
-2.56944e-05
4.01712e-05
-2.1015e-05
3.79334e-05
-2.0021e-05
4.4402e-05
-2.15085e-05
5.24531e-05
-2.30237e-05
5.76933e-05
-1.43685e-05
5.49287e-05
1.07418e-05
5.01001e-05
5.19112e-05
1.92947e-05
0.000114581
1.51287e-05
0.000152255
0.00021953
-0.000114722
0.000114714
-0.000167639
5.29114e-05
-0.000181663
1.40271e-05
-0.000155225
-2.64438e-05
-0.000114451
-4.07882e-05
-7.3623e-05
-4.08506e-05
-3.86978e-05
-3.49318e-05
1.58065e-06
-4.02831e-05
3.41366e-05
-3.25587e-05
6.08951e-05
-2.67597e-05
8.08974e-05
-2.00025e-05
9.43461e-05
-1.34463e-05
9.87555e-05
-4.32414e-06
9.54168e-05
3.13902e-06
8.45846e-05
1.05259e-05
6.61567e-05
1.86616e-05
3.87653e-05
2.91277e-05
1.33472e-05
1.47736e-05
6.86386e-06
-0.000104795
0.000219506
-0.000155498
0.00010362
-0.0001559
1.44388e-05
-0.000142942
-3.93984e-05
-0.000110462
-7.32942e-05
-5.91705e-05
-9.2251e-05
-1.88345e-05
-7.53756e-05
1.75134e-05
-7.66458e-05
4.81554e-05
-6.31997e-05
7.38686e-05
-5.24722e-05
9.35557e-05
-3.96893e-05
0.000106745
-2.6635e-05
0.000110293
-7.84173e-06
0.000107938
5.87857e-06
9.51073e-05
2.35896e-05
7.82956e-05
3.59957e-05
5.28341e-05
5.79744e-05
2.23497e-05
5.14803e-05
2.90717e-05
-9.01381e-05
0.000309644
-0.000118784
0.00013213
-0.000115866
9.08334e-06
-0.000112029
-4.32453e-05
-9.01021e-05
-9.51452e-05
-4.52964e-05
-0.000137096
-4.58681e-06
-0.000116477
2.88653e-05
-0.000110314
5.93744e-05
-9.37168e-05
8.30413e-05
-7.61366e-05
0.00010096
-5.76068e-05
0.000113731
-3.9406e-05
0.000118629
-1.2734e-05
0.000119025
5.48748e-06
0.000106328
3.62923e-05
8.99309e-05
5.2699e-05
6.50115e-05
8.45167e-05
3.42664e-05
8.45765e-05
6.0084e-05
-5.93949e-05
0.000368907
-6.00196e-05
0.000119765
-7.26522e-05
-6.06879e-05
-7.60705e-05
-4.83121e-05
-6.06051e-05
-0.000110584
-2.82053e-05
-0.000169313
7.5943e-06
-0.000152515
3.95042e-05
-0.000142613
6.81948e-05
-0.000122469
9.05906e-05
-9.85231e-05
0.000107848
-7.48643e-05
0.00012071
-5.22675e-05
0.000127361
-1.93847e-05
0.000126633
6.216e-06
0.000117319
4.56076e-05
0.000102116
6.79728e-05
7.58992e-05
0.000111536
4.14949e-05
0.000120789
0.000101654
-3.93159e-05
0.000403646
-3.09738e-05
0.000102332
-2.82934e-05
-0.00011632
-3.90349e-05
-0.000141456
-3.28533e-05
-0.000121976
-1.27474e-05
-0.000189181
2.09785e-05
-0.00018616
4.83977e-05
-0.000170345
7.43101e-05
-0.000148482
9.51194e-05
-0.00011932
0.000111333
-9.1076e-05
0.000123964
-6.48982e-05
0.000131913
-2.73338e-05
0.000132181
5.94808e-06
0.000126196
5.15934e-05
0.00010967
8.44997e-05
8.34578e-05
0.000137911
4.3753e-05
0.000161014
0.000145728
-4.16771e-05
0.000416532
-2.36977e-05
0.000196086
1.62754e-06
-5.74121e-05
9.1237e-08
-0.00018995
-8.6138e-06
-0.000199393
2.88221e-06
-0.000201039
3.12082e-05
-0.000214128
5.71143e-05
-0.000196501
8.05093e-05
-0.000171984
0.000100983
-0.000139799
0.00011687
-0.000106966
0.000129686
-7.77139e-05
0.000138574
-3.62216e-05
0.00013952
5.00213e-06
0.000136046
5.50674e-05
0.000117421
0.000103124
8.75409e-05
0.000167796
4.80115e-05
0.000200607
0.000193827
-4.73725e-05
0.000413878
-3.84765e-06
0.000284458
1.55457e-05
5.53629e-05
3.17543e-05
-6.26365e-05
1.46659e-05
-0.000244601
2.36367e-05
-0.000220106
4.29671e-05
-0.000232477
6.51231e-05
-0.000218871
8.60772e-05
-0.00019302
0.000105602
-0.000159467
0.000120684
-0.000122132
0.000133734
-9.0764e-05
0.000143171
-4.56559e-05
0.000145746
2.42721e-06
0.000143781
5.70321e-05
0.000126823
0.000120083
9.05449e-05
0.000204076
4.57127e-05
0.000245442
0.000239544
-5.13697e-05
0.000403489
-3.28232e-05
0.000310728
2.96366e-05
0.000113899
8.49133e-05
3.53329e-05
3.4976e-05
-0.000219331
3.94143e-05
-0.000236289
5.39306e-05
-0.000244301
7.36983e-05
-0.000238681
9.3288e-05
-0.000212537
0.000112163
-0.0001787
0.000127229
-0.000137949
0.000137063
-0.000102365
0.000147323
-6.14704e-05
0.000156227
-1.71993e-05
0.000156026
4.08661e-05
0.000138881
0.000130267
0.000105285
0.00023735
5.39452e-05
0.000296777
0.000293491
7.97779e-06
-8.27177e-06
1.59215e-05
-8.53679e-06
2.38058e-05
-9.06786e-06
3.13355e-05
-9.77955e-06
3.89276e-05
-1.08284e-05
4.55879e-05
-1.28077e-05
5.32174e-05
-1.38787e-05
6.07951e-05
-1.95003e-05
6.59305e-05
-2.3223e-05
6.96963e-05
-2.65651e-05
7.36434e-05
-3.22956e-05
7.22605e-05
-3.60081e-05
7.2591e-05
-3.66133e-05
8.27709e-05
-3.48321e-05
0.000100004
-3.77653e-05
0.0001154
-3.70048e-05
0.000123666
-3.11747e-05
0.000127193
-1.75332e-05
0.000133953
4.2233e-06
0.000134207
5.35299e-05
8.81286e-05
0.000148009
8.15604e-05
0.000162894
0.00016431
0.000116304
6.6514e-06
-3.05333e-05
1.32656e-05
-3.10909e-05
1.92572e-05
-3.15683e-05
2.50539e-05
-3.27627e-05
3.0742e-05
-3.43578e-05
3.58947e-05
-3.65083e-05
4.12786e-05
-3.85064e-05
4.56231e-05
-4.22833e-05
4.88284e-05
-4.17202e-05
5.57663e-05
-4.49001e-05
6.61577e-05
-4.99333e-05
7.78335e-05
-5.07294e-05
9.19403e-05
-5.12285e-05
0.00010819
-5.11678e-05
0.000122387
-5.19711e-05
0.000135129
-4.9754e-05
0.000144513
-4.05787e-05
0.000152534
-2.56168e-05
0.000154482
2.30986e-06
0.000158337
4.95325e-05
0.00014794
0.000155967
0.000111707
0.000188034
0.000186814
0.000123258
4.21072e-06
-4.48279e-05
8.75981e-06
-4.53045e-05
1.35548e-05
-4.52601e-05
1.93239e-05
-4.63133e-05
2.53973e-05
-4.69543e-05
3.24564e-05
-4.85411e-05
4.02123e-05
-4.95778e-05
5.03035e-05
-5.38912e-05
6.15828e-05
-5.3455e-05
7.43621e-05
-5.77981e-05
8.5094e-05
-6.06899e-05
9.44508e-05
-6.00895e-05
0.000104436
-6.1213e-05
0.000117609
-6.43392e-05
0.000130989
-6.5352e-05
0.000142845
-6.16837e-05
0.000152779
-5.07613e-05
0.000160346
-3.3947e-05
0.000163021
-2.12729e-06
0.000163236
4.63858e-05
0.00017793
0.000140713
0.000154819
0.000198581
0.000206963
0.000137643
6.82565e-06
-5.17877e-05
1.37175e-05
-5.23105e-05
2.09682e-05
-5.25961e-05
2.82692e-05
-5.36681e-05
3.58617e-05
-5.45779e-05
4.35214e-05
-5.62157e-05
5.15594e-05
-5.76215e-05
5.9081e-05
-6.14139e-05
6.65838e-05
-6.09578e-05
7.55467e-05
-6.67609e-05
8.35352e-05
-6.86783e-05
9.26878e-05
-6.92419e-05
0.000104477
-7.30012e-05
0.000117842
-7.76995e-05
0.000130693
-7.82632e-05
0.00014235
-7.36288e-05
0.00015188
-6.13479e-05
0.000156808
-4.14505e-05
0.000152766
-2.7885e-06
0.000151244
4.24336e-05
0.00016894
0.000119881
0.000182272
0.00018182
0.000194889
0.000184939
6.89592e-06
-5.86834e-05
1.37024e-05
-5.91167e-05
2.06959e-05
-5.95894e-05
2.73821e-05
-6.03542e-05
3.42991e-05
-6.14947e-05
4.09111e-05
-6.28276e-05
4.75527e-05
-6.42631e-05
5.36536e-05
-6.75147e-05
6.04802e-05
-6.77845e-05
6.87141e-05
-7.49948e-05
7.63514e-05
-7.63155e-05
8.78492e-05
-8.07394e-05
0.00010263
-8.77848e-05
0.000117287
-9.24125e-05
0.00012961
-9.10071e-05
0.000137233
-8.27709e-05
0.000138273
-6.61467e-05
0.000130474
-4.07639e-05
0.000118488
2.35362e-06
0.000115949
4.02627e-05
0.000136881
9.86532e-05
0.00017898
0.000144298
0.000176552
0.000200872
6.19424e-06
-6.48776e-05
1.2391e-05
-6.53135e-05
1.86681e-05
-6.58665e-05
2.48757e-05
-6.65617e-05
3.10038e-05
-6.76228e-05
3.71368e-05
-6.89607e-05
4.36311e-05
-7.07574e-05
4.984e-05
-7.37236e-05
5.79525e-05
-7.58969e-05
6.59774e-05
-8.30197e-05
7.43909e-05
-8.47292e-05
8.84487e-05
-9.48351e-05
0.00010326
-0.000102791
0.000113597
-0.000103595
0.000118727
-9.8719e-05
0.000117002
-8.67032e-05
0.0001039
-6.15691e-05
8.45106e-05
-2.96723e-05
7.63775e-05
8.16384e-06
8.2551e-05
3.57289e-05
0.00010596
8.4282e-05
0.000147999
0.000100776
0.000129397
0.000189823
6.10238e-06
-7.098e-05
1.22685e-05
-7.14797e-05
1.83624e-05
-7.19604e-05
2.45077e-05
-7.2707e-05
3.06069e-05
-7.37221e-05
3.67265e-05
-7.50802e-05
4.29735e-05
-7.70044e-05
4.86411e-05
-7.93912e-05
5.50962e-05
-8.2352e-05
6.10333e-05
-8.89567e-05
6.91606e-05
-9.28707e-05
8.15705e-05
-0.000107541
8.98726e-05
-0.000113114
9.16314e-05
-0.000110351
8.56713e-05
-0.000100824
6.77376e-05
-7.79039e-05
4.69467e-05
-4.6833e-05
3.88002e-05
-2.0744e-05
4.71244e-05
8.23875e-06
6.39908e-05
2.78188e-05
8.60087e-05
5.65028e-05
0.000116688
5.22829e-05
6.22532e-05
0.000165922
5.66532e-06
-7.66453e-05
1.13736e-05
-7.71879e-05
1.71088e-05
-7.76956e-05
2.28253e-05
-7.84234e-05
2.85151e-05
-7.94119e-05
3.4e-05
-8.05651e-05
3.88241e-05
-8.18289e-05
4.29836e-05
-8.35529e-05
4.73076e-05
-8.66861e-05
5.08832e-05
-9.25451e-05
5.8747e-05
-0.000100884
6.625e-05
-0.000118141
6.47926e-05
-0.000118761
5.53585e-05
-0.000110171
3.39858e-05
-8.77955e-05
1.53709e-05
-6.22287e-05
1.16724e-05
-3.96775e-05
1.99361e-05
-1.49717e-05
2.94521e-05
3.4173e-06
4.5371e-05
1.40536e-05
5.46866e-05
2.91517e-05
0.000102464
4.43918e-05
5.65197e-05
0.00014187
5.65181e-06
-8.23579e-05
1.12399e-05
-8.28462e-05
1.68344e-05
-8.33802e-05
2.24304e-05
-8.41507e-05
2.80374e-05
-8.52324e-05
3.35158e-05
-8.64211e-05
3.82461e-05
-8.72678e-05
4.14069e-05
-8.80285e-05
4.23983e-05
-8.98156e-05
4.12298e-05
-9.37131e-05
4.15485e-05
-0.00010359
3.33791e-05
-0.00011966
1.96173e-05
-0.000114878
1.86012e-06
-9.96545e-05
-7.82377e-06
-7.6733e-05
-4.92994e-06
-6.00503e-05
2.03393e-06
-3.24634e-05
8.99132e-06
-1.37728e-05
2.65914e-05
-2.60424e-06
5.24956e-05
4.78566e-06
8.07537e-05
1.77495e-05
0.000108117
1.88724e-05
2.56306e-05
0.000138547
5.41842e-06
-9.26009e-05
1.08413e-05
-9.3415e-05
1.6175e-05
-9.44645e-05
2.15965e-05
-9.63283e-05
2.71792e-05
-9.90716e-05
3.31345e-05
-0.000103706
3.82651e-05
-0.000109445
4.01657e-05
-0.000115762
3.58844e-05
-0.000121552
2.22541e-05
-0.000123769
-5.11829e-06
-0.000128666
-2.2465e-05
-0.000145646
-2.52117e-05
-0.000122972
-2.46493e-05
-9.94449e-05
-1.71e-05
-7.67821e-05
-7.78612e-06
-5.32581e-05
2.3566e-06
-2.92967e-05
2.12994e-05
-3.50596e-05
4.33391e-05
-2.52468e-05
6.3199e-05
-1.54804e-05
8.47191e-05
-4.03214e-06
0.00010401
-7.41891e-07
-4.15936e-06
0.000133037
5.31515e-06
-0.000139982
1.04212e-05
-0.0001424
1.51737e-05
-0.000146626
1.93976e-05
-0.000153947
2.32966e-05
-0.000166475
2.73811e-05
-0.000177959
3.0888e-05
-0.000188797
3.24781e-05
-0.000203943
2.64487e-05
-0.000215801
-8.47003e-06
-0.000216321
-6.5417e-05
-0.000220748
-6.70467e-05
-0.000205583
-3.96271e-05
-0.000165848
-3.13315e-05
-0.000124631
-1.63636e-05
-9.03256e-05
-2.82172e-06
-6.01677e-05
1.49442e-05
-7.11852e-05
3.32156e-05
-6.42617e-05
5.44384e-05
-5.90131e-05
7.51341e-05
-5.25847e-05
9.69127e-05
-4.78022e-05
0.000121526
-5.44457e-05
-7.25954e-05
0.000134284
3.68817e-06
-0.000262343
7.05199e-06
-0.000267333
9.90179e-06
-0.000275355
1.1827e-05
-0.000280273
1.3212e-05
-0.00025561
1.46952e-05
-0.000182624
1.68153e-05
-0.000146818
1.87322e-05
-0.000145145
1.11407e-05
-0.000147837
-4.55626e-05
-0.000144301
-9.27961e-05
-0.000128368
-6.34826e-05
-0.000120202
-3.40878e-05
-0.000108812
-1.63095e-05
-9.49191e-05
1.67179e-06
-0.000113363
1.25418e-05
-0.000140586
2.72134e-05
-0.00014509
4.11821e-05
-0.000134045
5.58467e-05
-0.000129693
7.23522e-05
-0.000128713
7.99834e-05
-0.000127772
8.26775e-05
-0.000126747
-0.000105849
9.32977e-05
2.51537e-06
-0.000187037
1.80456e-06
-0.000179548
-1.44622e-07
-0.000176977
-1.13941e-05
-0.000178284
-4.14519e-05
-0.000158513
-7.80503e-05
-0.000101824
-9.55749e-05
-8.17585e-05
-9.94783e-05
-9.44831e-05
-6.74018e-05
-8.04571e-05
-1.10682e-05
-4.49169e-05
9.37743e-05
-8.93408e-05
8.41523e-05
-0.000132144
6.80879e-05
-9.99956e-05
5.34716e-05
-5.89488e-05
3.76148e-05
-6.45503e-05
2.57714e-05
-9.42454e-05
2.50273e-05
-9.90078e-05
2.72177e-05
-9.24681e-05
2.70493e-05
-8.72284e-05
2.3823e-05
-8.18055e-05
-1.43603e-05
-2.0664e-05
-7.90972e-05
1.59695e-05
-5.92102e-05
-7.16646e-05
-1.05665e-05
-8.04933e-05
-1.98353e-05
-8.11375e-05
-2.45918e-05
-8.10037e-05
-2.53288e-05
-8.30491e-05
-2.25423e-05
-8.53792e-05
-1.45673e-05
-8.60758e-05
-1.46731e-05
-8.87003e-05
-1.695e-05
-8.81135e-05
-1.45024e-05
-7.58535e-05
5.70138e-06
-6.3799e-05
1.30718e-05
-9.26809e-05
1.57694e-06
-0.000122887
-1.729e-05
-0.000121394
-1.95118e-05
-0.000101484
-1.58936e-05
-7.93453e-05
-2.28203e-05
-6.18272e-05
-4.06746e-05
-5.0008e-05
-5.79051e-05
-4.28106e-05
-6.51711e-05
-5.00194e-05
-5.85249e-05
-6.22311e-05
-1.48907e-05
-3.4063e-05
3.41676e-06
5.285e-07
-9.09525e-06
-4.67092e-05
-4.07888e-06
-5.996e-05
-7.48262e-06
-6.62858e-05
-1.06211e-05
-6.93274e-05
-1.39486e-05
-7.25605e-05
-1.67341e-05
-7.56038e-05
-1.85892e-05
-7.96063e-05
-2.22145e-05
-8.40835e-05
-2.50076e-05
-8.5428e-05
-1.96488e-05
-8.12363e-05
-5.17719e-06
-7.83201e-05
-4.54694e-06
-9.33428e-05
-2.29086e-05
-0.000104516
-4.00112e-05
-0.000104172
-4.96001e-05
-9.10816e-05
-4.64897e-05
-8.21125e-05
-3.1179e-05
-7.71303e-05
-1.04793e-05
-7.07055e-05
9.05213e-06
-6.23383e-05
1.21915e-05
-5.31574e-05
-1.2145e-05
-3.78915e-05
-5.23749e-05
6.169e-06
-7.87999e-05
2.69565e-05
1.60834e-05
-0.000103972
-1.53623e-06
-6.22697e-05
-3.13223e-06
-6.5579e-05
-4.91439e-06
-6.79959e-05
-6.81775e-06
-7.11641e-05
-8.87303e-06
-7.46512e-05
-1.14111e-05
-7.81054e-05
-1.52014e-05
-8.09622e-05
-1.83395e-05
-8.23071e-05
-1.75037e-05
-8.20706e-05
-1.34609e-05
-8.23605e-05
-1.86573e-05
-8.815e-05
-3.08828e-05
-9.22929e-05
-4.03174e-05
-9.47329e-05
-4.27934e-05
-8.86024e-05
-3.84171e-05
-8.64855e-05
-3.24629e-05
-8.30811e-05
-3.03949e-05
-7.27708e-05
-4.03395e-05
-5.23929e-05
-6.67568e-05
-2.67367e-05
-9.4723e-05
-9.92476e-06
-9.19311e-05
3.37926e-06
-8.14982e-05
1.65259e-05
1.54946e-05
-8.09063e-05
4.81334e-07
-6.25101e-05
6.92617e-07
-6.57032e-05
6.79961e-08
-6.73387e-05
-1.48868e-06
-6.95826e-05
-4.08927e-06
-7.20234e-05
-7.8831e-06
-7.42771e-05
-1.28651e-05
-7.59464e-05
-1.83128e-05
-7.68463e-05
-2.34674e-05
-7.69136e-05
-2.86455e-05
-7.71793e-05
-3.52035e-05
-8.1587e-05
-4.18228e-05
-8.5669e-05
-4.91314e-05
-8.74203e-05
-5.21316e-05
-8.56067e-05
-5.49596e-05
-8.36536e-05
-6.08535e-05
-7.71857e-05
-7.10143e-05
-6.26059e-05
-8.42071e-05
-3.91949e-05
-9.17769e-05
-1.91653e-05
-9.42435e-05
-7.45407e-06
-9.51538e-05
4.29192e-06
-8.95734e-05
1.09457e-05
1.39947e-05
-8.80672e-05
-4.92456e-07
-6.20061e-05
-1.10714e-06
-6.50821e-05
-2.16073e-06
-6.62817e-05
-4.09601e-06
-6.76454e-05
-7.22907e-06
-6.88888e-05
-1.15301e-05
-6.99746e-05
-1.66863e-05
-7.07886e-05
-2.23445e-05
-7.11861e-05
-2.77971e-05
-7.14595e-05
-3.24591e-05
-7.25159e-05
-3.80411e-05
-7.60025e-05
-4.48629e-05
-7.88442e-05
-5.38489e-05
-7.84296e-05
-6.31486e-05
-7.63023e-05
-7.37656e-05
-7.30367e-05
-8.41954e-05
-6.67497e-05
-9.34813e-05
-5.33137e-05
-0.000101153
-3.15188e-05
-0.000103558
-1.67543e-05
-0.000100465
-1.05439e-05
-9.22722e-05
-3.89703e-06
-8.5389e-05
4.06782e-06
9.23091e-06
-8.06229e-05
-1.03025e-06
-6.09756e-05
-2.46834e-06
-6.36435e-05
-4.54948e-06
-6.42e-05
-7.24573e-06
-6.49486e-05
-1.05323e-05
-6.56016e-05
-1.43748e-05
-6.61314e-05
-1.85468e-05
-6.66158e-05
-2.28059e-05
-6.69259e-05
-2.70861e-05
-6.7178e-05
-3.15113e-05
-6.80892e-05
-3.75669e-05
-6.99452e-05
-4.63766e-05
-7.00324e-05
-5.66547e-05
-6.81494e-05
-6.74361e-05
-6.55195e-05
-7.85886e-05
-6.1878e-05
-8.86893e-05
-5.66472e-05
-9.54312e-05
-4.65686e-05
-9.58637e-05
-3.10835e-05
-9.27636e-05
-1.98514e-05
-8.84353e-05
-1.48691e-05
-8.30316e-05
-9.29767e-06
-7.75081e-05
-1.45351e-06
3.95952e-06
-7.22311e-05
-1.83352e-06
-5.91414e-05
-3.87495e-06
-6.16017e-05
-6.21446e-06
-6.18603e-05
-8.86134e-06
-6.23017e-05
-1.17915e-05
-6.26714e-05
-1.4922e-05
-6.30008e-05
-1.82942e-05
-6.32434e-05
-2.18571e-05
-6.33627e-05
-2.56028e-05
-6.3432e-05
-3.00588e-05
-6.36327e-05
-3.65004e-05
-6.3503e-05
-4.40885e-05
-6.24437e-05
-5.18621e-05
-6.03747e-05
-6.02039e-05
-5.71762e-05
-6.91116e-05
-5.29708e-05
-7.76716e-05
-4.80842e-05
-8.26218e-05
-4.1617e-05
-8.141e-05
-3.22934e-05
-7.85205e-05
-2.27385e-05
-7.67868e-05
-1.66004e-05
-7.40263e-05
-1.20557e-05
-7.01085e-05
-5.36806e-06
1.32545e-06
-6.74708e-05
-2.00442e-06
-5.7137e-05
-4.16874e-06
-5.94372e-05
-6.52966e-06
-5.94993e-05
-9.12711e-06
-5.97041e-05
-1.19162e-05
-5.98822e-05
-1.48907e-05
-6.00262e-05
-1.80272e-05
-6.01067e-05
-2.13549e-05
-6.00348e-05
-2.49976e-05
-5.9789e-05
-2.92167e-05
-5.94133e-05
-3.41611e-05
-5.85582e-05
-3.96199e-05
-5.69842e-05
-4.52993e-05
-5.46945e-05
-5.0806e-05
-5.16697e-05
-5.59096e-05
-4.78648e-05
-6.12246e-05
-4.27698e-05
-6.6115e-05
-3.67254e-05
-6.83348e-05
-3.00723e-05
-6.78104e-05
-2.32614e-05
-6.71162e-05
-1.72928e-05
-6.64541e-05
-1.27153e-05
-6.50306e-05
-6.78994e-06
1.08584e-06
-6.47863e-05
-2.26342e-06
-5.4873e-05
-4.65179e-06
-5.70485e-05
-7.12564e-06
-5.70253e-05
-9.73259e-06
-5.70971e-05
-1.24872e-05
-5.71275e-05
-1.54279e-05
-5.70853e-05
-1.85919e-05
-5.69427e-05
-2.19607e-05
-5.66658e-05
-2.54669e-05
-5.62826e-05
-2.92506e-05
-5.56294e-05
-3.35188e-05
-5.42897e-05
-3.8439e-05
-5.20636e-05
-4.33714e-05
-4.97617e-05
-4.79263e-05
-4.71138e-05
-5.20721e-05
-4.37201e-05
-5.56277e-05
-3.92128e-05
-5.86551e-05
-3.36976e-05
-6.07681e-05
-2.79588e-05
-6.17825e-05
-2.22457e-05
-6.16907e-05
-1.73833e-05
-6.16062e-05
-1.27981e-05
-6.16181e-05
-6.77565e-06
2.60929e-07
-6.07904e-05
-2.15214e-06
-5.27208e-05
-4.43702e-06
-5.47634e-05
-6.80839e-06
-5.46537e-05
-9.29618e-06
-5.46092e-05
-1.19318e-05
-5.44918e-05
-1.47369e-05
-5.42801e-05
-1.77478e-05
-5.39317e-05
-2.09892e-05
-5.34242e-05
-2.4558e-05
-5.27136e-05
-2.85255e-05
-5.16617e-05
-3.26494e-05
-5.01655e-05
-3.64343e-05
-4.82784e-05
-4.01652e-05
-4.60305e-05
-4.41495e-05
-4.31298e-05
-4.8219e-05
-3.96493e-05
-5.15582e-05
-3.58746e-05
-5.36107e-05
-3.1645e-05
-5.5048e-05
-2.65211e-05
-5.6094e-05
-2.11991e-05
-5.70668e-05
-1.64095e-05
-5.7677e-05
-1.21863e-05
-5.74848e-05
-6.96687e-06
-9.70173e-07
-5.62501e-05
-2.15716e-06
-5.05632e-05
-4.42298e-06
-5.24973e-05
-6.76621e-06
-5.23103e-05
-9.23294e-06
-5.21423e-05
-1.1849e-05
-5.18757e-05
-1.4641e-05
-5.1488e-05
-1.7613e-05
-5.09596e-05
-2.07494e-05
-5.02877e-05
-2.40225e-05
-4.94404e-05
-2.73758e-05
-4.83082e-05
-3.07106e-05
-4.68305e-05
-3.3998e-05
-4.49908e-05
-3.73341e-05
-4.26942e-05
-4.0436e-05
-4.00272e-05
-4.33312e-05
-3.67556e-05
-4.64156e-05
-3.27894e-05
-4.93548e-05
-2.87065e-05
-5.1292e-05
-2.45839e-05
-5.21289e-05
-2.0362e-05
-5.23241e-05
-1.62137e-05
-5.27593e-05
-1.175e-05
-5.29532e-05
-6.77121e-06
-2.09418e-06
-5.18271e-05
-2.16405e-06
-4.83991e-05
-4.41813e-06
-5.02431e-05
-6.70576e-06
-5.00225e-05
-9.04642e-06
-4.98015e-05
-1.14513e-05
-4.94707e-05
-1.39258e-05
-4.90134e-05
-1.64805e-05
-4.84049e-05
-1.91503e-05
-4.76179e-05
-2.19883e-05
-4.66023e-05
-2.50171e-05
-4.52792e-05
-2.82295e-05
-4.36179e-05
-3.15536e-05
-4.16665e-05
-3.48321e-05
-3.94155e-05
-3.80761e-05
-3.67839e-05
-4.09905e-05
-3.38401e-05
-4.30809e-05
-3.07006e-05
-4.44561e-05
-2.73316e-05
-4.55924e-05
-2.34478e-05
-4.67254e-05
-1.9229e-05
-4.79056e-05
-1.5033e-05
-4.87835e-05
-1.08712e-05
-4.86397e-05
-6.91434e-06
-2.85359e-06
-4.78775e-05
-2.09025e-06
-4.63084e-05
-4.26433e-06
-4.80688e-05
-6.47384e-06
-4.78128e-05
-8.7415e-06
-4.75337e-05
-1.10794e-05
-4.71327e-05
-1.34931e-05
-4.65997e-05
-1.5984e-05
-4.59139e-05
-1.85552e-05
-4.50467e-05
-2.12031e-05
-4.39543e-05
-2.38895e-05
-4.25927e-05
-2.65508e-05
-4.09564e-05
-2.91102e-05
-3.91069e-05
-3.15611e-05
-3.69645e-05
-3.38394e-05
-3.45052e-05
-3.60007e-05
-3.16802e-05
-3.81748e-05
-2.85262e-05
-4.04267e-05
-2.50804e-05
-4.23673e-05
-2.15077e-05
-4.36321e-05
-1.79642e-05
-4.41941e-05
-1.44709e-05
-4.43532e-05
-1.07116e-05
-4.44486e-05
-6.81766e-06
-3.07701e-06
-4.42237e-05
-1.98021e-06
-4.43283e-05
-4.0322e-06
-4.60167e-05
-6.10723e-06
-4.57377e-05
-8.2281e-06
-4.54128e-05
-1.04087e-05
-4.49519e-05
-1.26613e-05
-4.4347e-05
-1.49925e-05
-4.35827e-05
-1.73971e-05
-4.26421e-05
-1.98454e-05
-4.15058e-05
-2.22881e-05
-4.01499e-05
-2.47002e-05
-3.85441e-05
-2.71356e-05
-3.66714e-05
-2.95657e-05
-3.45344e-05
-3.19176e-05
-3.21538e-05
-3.40497e-05
-2.95476e-05
-3.58621e-05
-2.67151e-05
-3.725e-05
-2.36932e-05
-3.82879e-05
-2.04703e-05
-3.9195e-05
-1.70574e-05
-4.01224e-05
-1.35433e-05
-4.07491e-05
-1.00843e-05
-4.08947e-05
-6.67176e-06
-3.22324e-06
-4.07463e-05
-1.88862e-06
-4.24393e-05
-3.84813e-06
-4.4057e-05
-5.82143e-06
-4.37642e-05
-7.82576e-06
-4.34083e-05
-9.86245e-06
-4.29152e-05
-1.19325e-05
-4.22769e-05
-1.40364e-05
-4.14788e-05
-1.61763e-05
-4.05022e-05
-1.83543e-05
-3.93277e-05
-2.05596e-05
-3.79446e-05
-2.27513e-05
-3.63523e-05
-2.48724e-05
-3.45501e-05
-2.68845e-05
-3.25223e-05
-2.87844e-05
-3.02536e-05
-3.05754e-05
-2.77581e-05
-3.22305e-05
-2.50598e-05
-3.37511e-05
-2.21737e-05
-3.50687e-05
-1.91532e-05
-3.60832e-05
-1.60434e-05
-3.67647e-05
-1.28619e-05
-3.72003e-05
-9.64834e-06
-3.74497e-05
-6.4216e-06
-3.18693e-06
-3.74848e-05
-1.77567e-06
-4.06637e-05
-3.60626e-06
-4.22263e-05
-5.44751e-06
-4.19229e-05
-7.31226e-06
-4.15435e-05
-9.20578e-06
-4.10216e-05
-1.11308e-05
-4.03518e-05
-1.30858e-05
-3.95238e-05
-1.50615e-05
-3.85265e-05
-1.70399e-05
-3.73492e-05
-1.90027e-05
-3.59817e-05
-2.09407e-05
-3.44142e-05
-2.28497e-05
-3.26409e-05
-2.47059e-05
-3.06659e-05
-2.64614e-05
-2.84988e-05
-2.80762e-05
-2.61427e-05
-2.95307e-05
-2.36067e-05
-3.07902e-05
-2.09149e-05
-3.18543e-05
-1.80898e-05
-3.27425e-05
-1.51555e-05
-3.34542e-05
-1.21504e-05
-3.3965e-05
-9.13722e-06
-3.42609e-05
-6.12551e-06
-3.08128e-06
-3.43649e-05
-1.64801e-06
-3.90154e-05
-3.35162e-06
-4.05226e-05
-5.05901e-06
-4.02154e-05
-6.7829e-06
-3.98195e-05
-8.52502e-06
-3.92794e-05
-1.02858e-05
-3.8591e-05
-1.20631e-05
-3.77465e-05
-1.38516e-05
-3.67379e-05
-1.56424e-05
-3.55583e-05
-1.7422e-05
-3.42021e-05
-1.91704e-05
-3.26657e-05
-2.0864e-05
-3.09471e-05
-2.2485e-05
-2.9045e-05
-2.40217e-05
-2.69619e-05
-2.54569e-05
-2.47088e-05
-2.67646e-05
-2.22991e-05
-2.79296e-05
-1.97507e-05
-2.89337e-05
-1.70864e-05
-2.97611e-05
-1.43286e-05
-3.04079e-05
-1.15039e-05
-3.0892e-05
-8.65302e-06
-3.12192e-05
-5.79772e-06
-2.91597e-06
-3.13836e-05
-1.52368e-06
-3.74919e-05
-3.09287e-06
-3.89534e-05
-4.66339e-06
-3.86448e-05
-6.24524e-06
-3.82376e-05
-7.83889e-06
-3.76858e-05
-9.44345e-06
-3.69864e-05
-1.10555e-05
-3.61345e-05
-1.26686e-05
-3.51248e-05
-1.42742e-05
-3.39527e-05
-1.58618e-05
-3.26144e-05
-1.74201e-05
-3.11074e-05
-1.89357e-05
-2.94315e-05
-2.0391e-05
-2.75897e-05
-2.17658e-05
-2.55875e-05
-2.3042e-05
-2.34323e-05
-2.42059e-05
-2.11363e-05
-2.52427e-05
-1.87146e-05
-2.61436e-05
-1.61863e-05
-2.69021e-05
-1.35705e-05
-2.7516e-05
-1.08903e-05
-2.79898e-05
-8.17906e-06
-2.83274e-05
-5.46005e-06
-2.71718e-06
-2.8525e-05
-1.38811e-06
-3.61034e-05
-2.81934e-06
-3.7522e-05
-4.24877e-06
-3.72153e-05
-5.68607e-06
-3.68003e-05
-7.13098e-06
-3.62408e-05
-8.58206e-06
-3.55353e-05
-1.00359e-05
-3.46806e-05
-1.1487e-05
-3.36737e-05
-1.29278e-05
-3.2512e-05
-1.43484e-05
-3.11937e-05
-1.57373e-05
-2.97183e-05
-1.70819e-05
-2.80868e-05
-1.83694e-05
-2.63021e-05
-1.95872e-05
-2.43696e-05
-2.07226e-05
-2.22982e-05
-2.17611e-05
-2.00978e-05
-2.2693e-05
-1.77836e-05
-2.35089e-05
-1.5371e-05
-2.42027e-05
-1.28773e-05
-2.47726e-05
-1.03208e-05
-2.5224e-05
-7.72771e-06
-2.55613e-05
-5.12236e-06
-2.49784e-06
-2.57801e-05
-1.25295e-06
-3.48507e-05
-2.54351e-06
-3.62314e-05
-3.83087e-06
-3.59279e-05
-5.12382e-06
-3.55073e-05
-6.42123e-06
-3.49434e-05
-7.72124e-06
-3.42353e-05
-9.0205e-06
-3.33814e-05
-1.0314e-05
-3.23802e-05
-1.15951e-05
-3.12308e-05
-1.28559e-05
-2.99329e-05
-1.4087e-05
-2.84871e-05
-1.52784e-05
-2.68954e-05
-1.64189e-05
-2.51616e-05
-1.74975e-05
-2.32916e-05
-1.85026e-05
-2.12926e-05
-1.94258e-05
-1.91759e-05
-2.02574e-05
-1.69526e-05
-2.09915e-05
-1.46376e-05
-2.16234e-05
-1.2246e-05
-2.2151e-05
-9.79353e-06
-2.25774e-05
-7.30128e-06
-2.29071e-05
-4.7927e-06
-2.26842e-06
-2.31357e-05
-1.11326e-06
-3.37371e-05
-2.26161e-06
-3.5083e-05
-3.40587e-06
-3.47836e-05
-4.55466e-06
-3.43585e-05
-5.70646e-06
-3.37916e-05
-6.85929e-06
-3.30825e-05
-8.01005e-06
-3.22306e-05
-9.15415e-06
-3.12361e-05
-1.02856e-05
-3.00994e-05
-1.13973e-05
-2.88212e-05
-1.24812e-05
-2.74032e-05
-1.35287e-05
-2.58478e-05
-1.45312e-05
-2.41593e-05
-1.54795e-05
-2.23431e-05
-1.63659e-05
-2.04073e-05
-1.71816e-05
-1.83603e-05
-1.79206e-05
-1.62143e-05
-1.85776e-05
-1.39814e-05
-1.9149e-05
-1.16752e-05
-1.96332e-05
-9.30969e-06
-2.00323e-05
-6.90236e-06
-2.03499e-05
-4.47492e-06
-2.0348e-06
-2.05832e-05
-9.70924e-07
-3.27664e-05
-1.97599e-06
-3.4078e-05
-2.97698e-06
-3.37826e-05
-3.98227e-06
-3.33532e-05
-4.98996e-06
-3.27839e-05
-5.99814e-06
-3.20744e-05
-7.00431e-06
-3.12245e-05
-8.00433e-06
-3.02361e-05
-8.99283e-06
-2.91109e-05
-9.96344e-06
-2.78506e-05
-1.09092e-05
-2.64574e-05
-1.18227e-05
-2.49342e-05
-1.26969e-05
-2.32851e-05
-1.35249e-05
-2.15155e-05
-1.42993e-05
-1.96325e-05
-1.5015e-05
-1.76457e-05
-1.56661e-05
-1.55639e-05
-1.62491e-05
-1.33991e-05
-1.67616e-05
-1.11633e-05
-1.72023e-05
-8.86937e-06
-1.75727e-05
-6.53214e-06
-1.78763e-05
-4.17147e-06
-1.79939e-06
-1.81112e-05
-8.23358e-07
-3.19428e-05
-1.68571e-06
-3.32156e-05
-2.54406e-06
-3.29243e-05
-3.4064e-06
-3.24909e-05
-4.27077e-06
-3.19196e-05
-5.1356e-06
-3.12095e-05
-5.99977e-06
-3.03603e-05
-6.86024e-06
-2.93757e-05
-7.71202e-06
-2.82591e-05
-8.54908e-06
-2.70135e-05
-9.36483e-06
-2.56416e-05
-1.01527e-05
-2.41464e-05
-1.09069e-05
-2.25311e-05
-1.16216e-05
-2.08007e-05
-1.22922e-05
-1.8963e-05
-1.29126e-05
-1.70254e-05
-1.348e-05
-1.49974e-05
-1.39916e-05
-1.28883e-05
-1.4446e-05
-1.07096e-05
-1.48428e-05
-8.47301e-06
-1.51836e-05
-6.19161e-06
-1.54715e-05
-3.88361e-06
-1.56524e-06
-1.57054e-05
-6.70194e-07
-3.12728e-05
-1.39374e-06
-3.24921e-05
-2.11249e-06
-3.22055e-05
-2.83292e-06
-3.17705e-05