/*--------------------------------*- C++ -*----------------------------------*\
| =========                 |                                                 |
| \\      /  F ield         | OpenFOAM: The Open Source CFD Toolbox           |
|  \\    /   O peration     | Version:  2.4.0                                 |
|   \\  /    A nd           | Web:      www.OpenFOAM.org                      |
|    \\/     M anipulation  |                                                 |
\*---------------------------------------------------------------------------*/
FoamFile
{
    version     2.0;
    format      ascii;
    class       surfaceScalarField;
    location    "0.25";
    object      phi.mercury;
}
// * * * * * * * * * * * * * * * * * * * * * * * * * * * * * * * * * * * * * //

dimensions      [0 3 -1 0 0 0 0];

internalField   nonuniform List<scalar> 
4432
(
3.40038e-06
-3.40038e-06
6.81903e-06
-3.41865e-06
1.0259e-05
-3.43996e-06
1.37894e-05
-3.53039e-06
1.72537e-05
-3.4643e-06
2.12306e-05
-3.97695e-06
2.4294e-05
-3.06332e-06
2.91268e-05
-4.83289e-06
3.30442e-05
-3.91733e-06
3.63173e-05
-3.27309e-06
4.07883e-05
-4.47099e-06
4.66447e-05
-5.85648e-06
5.2238e-05
-5.59329e-06
5.69993e-05
-4.76129e-06
6.01685e-05
-3.16913e-06
6.2501e-05
-2.33251e-06
6.38781e-05
-1.37717e-06
6.42151e-05
-3.36912e-07
6.09681e-05
3.24699e-06
5.27817e-05
8.18634e-06
3.96161e-05
1.31659e-05
1.95118e-05
2.0104e-05
1.9507e-05
3.39919e-06
-6.79957e-06
6.81644e-06
-6.8359e-06
1.02538e-05
-6.87737e-06
1.37863e-05
-7.06289e-06
1.72549e-05
-6.93287e-06
2.11315e-05
-7.85354e-06
2.44199e-05
-6.3517e-06
2.91079e-05
-9.52091e-06
3.29411e-05
-7.75052e-06
3.63079e-05
-6.63989e-06
4.10349e-05
-9.19799e-06
4.69028e-05
-1.17244e-05
5.24529e-05
-1.11433e-05
5.6669e-05
-8.97741e-06
5.96857e-05
-6.18591e-06
6.22802e-05
-4.92697e-06
6.48549e-05
-3.95192e-06
6.6605e-05
-2.08713e-06
6.406e-05
5.79176e-06
5.7307e-05
1.49393e-05
4.16006e-05
2.88726e-05
2.1425e-05
4.02797e-05
4.09294e-05
3.39266e-06
-1.01922e-05
6.80132e-06
-1.02446e-05
1.02332e-05
-1.03092e-05
1.37537e-05
-1.05834e-05
1.72231e-05
-1.04022e-05
2.10003e-05
-1.16307e-05
2.45331e-05
-9.88456e-06
2.88989e-05
-1.38867e-05
3.27145e-05
-1.15661e-05
3.64818e-05
-1.04072e-05
4.13935e-05
-1.41096e-05
4.69147e-05
-1.72456e-05
5.18636e-05
-1.60923e-05
5.61984e-05
-1.33122e-05
5.96025e-05
-9.59e-06
6.35237e-05
-8.84913e-06
6.73715e-05
-7.81502e-06
6.94286e-05
-4.26308e-06
6.80888e-05
7.04865e-06
6.20672e-05
2.09269e-05
4.43092e-05
4.66271e-05
2.34947e-05
6.10946e-05
6.44208e-05
3.38325e-06
-1.35755e-05
6.77891e-06
-1.36402e-05
1.02053e-05
-1.37356e-05
1.36985e-05
-1.40766e-05
1.71692e-05
-1.38729e-05
2.08756e-05
-1.53372e-05
2.45627e-05
-1.35717e-05
2.85829e-05
-1.7907e-05
3.24513e-05
-1.54345e-05
3.67868e-05
-1.47427e-05
4.17209e-05
-1.90438e-05
4.63396e-05
-2.18643e-05
5.08999e-05
-2.06539e-05
5.55745e-05
-1.79982e-05
6.05233e-05
-1.45897e-05
6.55072e-05
-1.40894e-05
7.13288e-05
-1.49518e-05
7.4551e-05
-1.2778e-05
7.28356e-05
-2.54002e-06
6.62593e-05
1.90008e-05
5.08063e-05
6.08882e-05
2.53296e-05
8.6549e-05
8.97465e-05
3.37013e-06
-1.69456e-05
6.74896e-06
-1.7019e-05
1.01637e-05
-1.71503e-05
1.36287e-05
-1.75416e-05
1.7077e-05
-1.73212e-05
2.07502e-05
-1.90104e-05
2.45082e-05
-1.73296e-05
2.82083e-05
-2.16071e-05
3.21616e-05
-1.93877e-05
3.7102e-05
-1.96833e-05
4.17476e-05
-2.36945e-05
4.54023e-05
-2.55651e-05
5.03124e-05
-2.57964e-05
5.56409e-05
-2.42301e-05
6.20145e-05
-2.35492e-05
6.81568e-05
-2.69825e-05
7.13405e-05
-3.33724e-05
7.27706e-05
-4.52307e-05
7.20453e-05
-4.02628e-05
6.12175e-05
-7.23375e-06
4.83001e-05
6.10837e-05
2.76858e-05
0.000106035
0.000117406
3.35303e-06
-2.02986e-05
6.71148e-06
-2.03775e-05
1.01078e-05
-2.05467e-05
1.35361e-05
-2.09699e-05
1.69505e-05
-2.07356e-05
2.06216e-05
-2.26815e-05
2.4303e-05
-2.10111e-05
2.80271e-05
-2.5335e-05
3.20478e-05
-2.34313e-05
3.71498e-05
-2.4875e-05
4.15219e-05
-2.84638e-05
4.53285e-05
-3.09347e-05
5.07309e-05
-3.58239e-05
5.62287e-05
-3.98974e-05
6.10173e-05
-4.66154e-05
6.25597e-05
-6.31561e-05
6.2697e-05
-7.49422e-05
6.05377e-05
-8.14041e-05
6.50413e-05
-5.61804e-05
6.03445e-05
-3.24628e-05
4.24107e-05
4.94323e-05
2.38596e-05
0.000118236
0.000141061
3.33852e-06
-2.36372e-05
6.682e-06
-2.3721e-05
1.00585e-05
-2.39232e-05
1.34461e-05
-2.43574e-05
1.68558e-05
-2.41473e-05
2.04819e-05
-2.63503e-05
2.41554e-05
-2.4807e-05
2.77219e-05
-2.9303e-05
3.22449e-05
-2.9007e-05
3.69355e-05
-3.18011e-05
4.10135e-05
-3.74077e-05
4.55254e-05
-4.62902e-05
4.99073e-05
-6.17702e-05
5.19271e-05
-7.60784e-05
4.91826e-05
-8.97594e-05
4.5008e-05
-0.000102557
4.34979e-05
-9.49546e-05
4.6408e-05
-6.21515e-05
5.33832e-05
-2.72401e-05
6.39273e-05
-1.4694e-06
4.07906e-05
3.97097e-05
2.43717e-05
0.000120633
0.000164472
3.34718e-06
-2.79914e-05
6.70306e-06
-2.81613e-05
1.00802e-05
-2.85483e-05
1.34186e-05
-2.92134e-05
1.69389e-05
-2.93042e-05
2.03849e-05
-3.24777e-05
2.4214e-05
-3.22029e-05
2.72747e-05
-3.7504e-05
3.21169e-05
-4.10892e-05
3.58349e-05
-4.58293e-05
3.85265e-05
-5.56316e-05
4.22792e-05
-7.40254e-05
4.24437e-05
-9.14686e-05
3.89361e-05
-0.000102295
3.86651e-05
-0.000112775
4.05479e-05
-0.000107045
4.52618e-05
-8.11661e-05
4.54342e-05
-3.69325e-05
4.83053e-05
6.19426e-06
4.70614e-05
3.90063e-05
4.19267e-05
3.1706e-05
2.20528e-05
0.00011898
0.000184161
-0.000115006
0.000114643
-0.000161071
5.04847e-05
-0.000170217
4.05754e-06
-0.000147092
-3.60042e-05
-0.000110595
-5.4022e-05
-6.82496e-05
-6.02648e-05
-3.83447e-05
-4.27417e-05
3.2532e-07
-4.40188e-05
3.39551e-05
-3.37132e-05
6.08167e-05
-2.75686e-05
8.08737e-05
-2.02278e-05
9.43432e-05
-1.34747e-05
9.87557e-05
-4.30262e-06
9.54172e-05
3.15295e-06
8.45851e-05
1.05354e-05
6.61568e-05
1.86661e-05
3.87656e-05
2.91298e-05
1.33472e-05
1.47739e-05
6.86394e-06
-0.000100433
0.000216103
-0.000123672
9.4074e-05
-0.000134869
-1.53838e-06
-0.000127261
-5.98344e-05
-9.36043e-05
-9.95711e-05
-4.74978e-05
-0.000127184
-1.33664e-05
-0.000104719
1.35338e-05
-8.66271e-05
4.542e-05
-6.09077e-05
7.16591e-05
-5.47286e-05
9.3194e-05
-4.03785e-05
0.000106685
-2.71248e-05
0.000110294
-8.02511e-06
0.000107942
5.81716e-06
9.51108e-05
2.35765e-05
7.82977e-05
3.59933e-05
5.2836e-05
5.79741e-05
2.23497e-05
5.14805e-05
2.90717e-05
-8.30355e-05
0.000304784
-0.00010478
0.000121545
-0.000101165
-5.32877e-06
-8.77098e-05
-5.73236e-05
-6.49789e-05
-0.00011389
-2.29392e-05
-0.000176136
9.27146e-06
-0.000169993
2.78134e-05
-0.000149478
4.02945e-05
-0.000106463
7.69591e-05
-7.65054e-05
0.000100536
-5.81608e-05
0.000113505
-3.96221e-05
0.000118611
-1.28603e-05
0.000119039
5.45117e-06
0.000106342
3.63018e-05
8.99368e-05
5.27115e-05
6.50162e-05
8.45234e-05
3.42667e-05
8.45783e-05
6.0084e-05
-5.35589e-05
0.000364097
-5.60994e-05
0.000108251
-6.49612e-05
-4.25067e-05
-6.2053e-05
-5.08874e-05
-3.47751e-05
-0.000105066
-9.66841e-07
-0.000201313
2.85481e-05
-0.0002099
4.30017e-05
-0.000196054
4.89298e-05
-0.000153963
6.82284e-05
-0.000105642
0.00010702
-7.56768e-05
0.000120594
-5.27977e-05
0.000127336
-1.97194e-05
0.000126651
6.00099e-06
0.000117344
4.55378e-05
0.000102134
6.79555e-05
7.59129e-05
0.00011153
4.14971e-05
0.00012079
0.000101654
-3.79585e-05
0.000402156
-3.13411e-05
9.71397e-05
-2.51735e-05
-0.000105897
-3.25175e-05
-9.90798e-05
-1.25291e-05
-0.000108032
1.99112e-05
-0.000210353
4.77144e-05
-0.000227081
5.59138e-05
-0.000219794
5.90649e-05
-0.000185995
6.97212e-05
-0.000129093
0.000108124
-7.86282e-05
0.000123408
-5.94145e-05
0.000131866
-2.78566e-05
0.000132138
5.60008e-06
0.000126243
5.14366e-05
0.000109686
8.44819e-05
8.34698e-05
0.000137904
4.37573e-05
0.000161013
0.000145729
-4.17438e-05
0.000416507
-2.41326e-05
0.000195046
1.08883e-06
-5.71361e-05
1.90454e-06
-0.000188628
6.84593e-06
-0.000177123
4.03116e-05
-0.000207193
6.31068e-05
-0.000226538
6.70999e-05
-0.000230968
7.19911e-05
-0.000210297
9.21943e-05
-0.000157206
0.000105342
-0.000112529
0.000119853
-7.83888e-05
0.000137484
-3.91074e-05
0.000138384
3.23762e-06
0.000136043
5.43797e-05
0.000117458
0.000103093
8.75509e-05
0.00016779
4.80153e-05
0.000200605
0.000193826
-4.73942e-05
0.000413946
-3.86887e-06
0.00028445
1.55409e-05
5.53625e-05
3.16316e-05
-6.26327e-05
2.18453e-05
-0.00024322
6.50647e-05
-0.000169779
7.84309e-05
-0.00020254
7.79578e-05
-0.000227914
8.91562e-05
-0.000221255
0.000103468
-0.00019648
0.000105377
-0.000159487
0.000104764
-0.000110743
0.000139969
-5.18313e-05
0.000142316
5.09714e-07
0.000143391
5.61462e-05
0.000126905
0.000119873
9.05631e-05
0.000204063
4.57167e-05
0.000245442
0.000239544
-5.14997e-05
0.000210498
-3.28169e-05
0.000310815
2.96427e-05
0.000113351
8.45557e-05
8.95371e-06
5.17574e-05
-2.35616e-05
9.62989e-05
-0.000108141
8.92099e-05
-0.000164667
8.93343e-05
-0.000211337
0.000106366
-0.000207926
0.000109961
-0.000219201
0.000107616
-0.000195566
0.000103076
-0.000125896
0.000140924
-6.1589e-05
0.00015136
-1.38664e-05
0.000155539
4.1709e-05
0.000138984
0.000130409
0.000105328
0.000237322
5.39545e-05
0.00029677
0.00029349
7.22843e-06
-5.12208e-05
1.4478e-05
-5.20937e-05
2.17063e-05
-5.37947e-05
2.87427e-05
-5.62775e-05
3.61798e-05
-5.94811e-05
4.25951e-05
-6.55329e-05
5.01242e-05
-7.13785e-05
5.62483e-05
-8.12034e-05
6.17907e-05
-8.69459e-05
6.63925e-05
-9.28974e-05
6.73578e-05
-0.000103661
7.10427e-05
-0.000110217
7.38075e-05
-8.04749e-05
7.69743e-05
-7.57972e-05
8.46146e-05
-7.59164e-05
0.00010242
-6.16951e-05
0.000118759
-3.75561e-05
0.000111543
-2.23881e-05
0.00013367
-4.09585e-07
0.00010534
5.32197e-05
0.000103493
5.60318e-05
6.37432e-05
0.000113119
0.000177137
7.04543e-05
6.03035e-06
-9.31706e-05
1.20334e-05
-9.43332e-05
1.75001e-05
-9.60388e-05
2.26007e-05
-9.88623e-05
2.74142e-05
-0.000102461
3.04692e-05
-0.000108257
3.36055e-05
-0.000112283
3.85026e-05
-0.000106229
4.33386e-05
-8.62615e-05
5.04682e-05
-7.90175e-05
5.67611e-05
-7.70907e-05
6.27175e-05
-7.06805e-05
8.75609e-05
-5.38895e-05
0.000102434
-4.5518e-05
0.000115659
-4.3649e-05
0.000128529
-4.25545e-05
0.000142119
-3.63184e-05
0.000152238
-2.4149e-05
0.000147033
1.45784e-06
0.000100968
5.18939e-05
0.00011868
8.98894e-05
8.59329e-05
0.000122563
0.000176969
8.33935e-05
3.82871e-06
-7.75017e-05
7.91202e-06
-7.74835e-05
1.20848e-05
-7.67179e-05
1.69508e-05
-7.61746e-05
2.2283e-05
-7.51885e-05
2.75904e-05
-7.48403e-05
3.37691e-05
-7.29133e-05
4.45081e-05
-6.58518e-05
5.90133e-05
-5.26107e-05
6.90807e-05
-4.70868e-05
8.01792e-05
-4.61311e-05
9.16716e-05
-4.71595e-05
0.000102787
-4.82919e-05
0.00011628
-5.09875e-05
0.000129806
-5.36274e-05
0.000140902
-5.25521e-05
0.000152345
-4.60468e-05
0.00016036
-3.17227e-05
0.000131196
7.51088e-07
0.00010114
4.86897e-05
0.000123598
9.49591e-05
0.000118479
0.000118284
0.000179496
0.000108247
7.29694e-06
-3.36674e-05
1.43293e-05
-3.37173e-05
2.14906e-05
-3.35225e-05
2.84083e-05
-3.39907e-05
3.53487e-05
-3.46355e-05
4.23756e-05
-3.62296e-05
4.97863e-05
-3.85851e-05
5.78035e-05
-4.40537e-05
6.56039e-05
-4.70816e-05
7.35493e-05
-5.50184e-05
8.30743e-05
-6.25457e-05
9.20972e-05
-6.47896e-05
0.000103953
-6.99028e-05
0.000117469
-7.58973e-05
0.000130522
-7.72079e-05
0.000142545
-7.30894e-05
0.000152385
-5.98676e-05
0.000157201
-3.80442e-05
0.000121368
3.41444e-06
9.06064e-05
4.32434e-05
0.000115907
9.55647e-05
0.000135395
0.000106589
0.000175356
0.000136465
6.88712e-06
-5.84089e-05
1.3683e-05
-5.88695e-05
2.07022e-05
-5.93949e-05
2.73859e-05
-6.01471e-05
3.42981e-05
-6.1281e-05
4.09059e-05
-6.26274e-05
4.754e-05
-6.40909e-05
5.36448e-05
-6.73843e-05
6.04646e-05
-6.76786e-05
6.86941e-05
-7.49311e-05
7.63415e-05
-7.62816e-05
8.78357e-05
-8.07063e-05
0.000102612
-8.77536e-05
0.000117253
-9.22764e-05
0.000129748
-9.04021e-05
0.000137613
-8.0749e-05
0.000139031
-6.17649e-05
0.000131958
-3.32301e-05
0.000117733
1.26448e-05
6.71802e-05
5.02308e-05
0.000106699
8.08345e-05
0.00013031
9.22155e-05
0.000158077
0.000144444
6.19496e-06
-6.48718e-05
1.23923e-05
-6.53079e-05
1.86697e-05
-6.58611e-05
2.48774e-05
-6.65568e-05
3.10054e-05
-6.76182e-05
3.71384e-05
-6.89564e-05
4.36327e-05
-7.07535e-05
4.98415e-05
-7.37199e-05
5.7954e-05
-7.58935e-05
6.59791e-05
-8.30166e-05
7.43928e-05
-8.47263e-05
8.84409e-05
-9.47685e-05
0.00010322
-0.000102438
0.000113697
-0.000102425
0.000118872
-9.54912e-05
0.000117475
-8.06244e-05
0.000104692
-5.19096e-05
8.54509e-05
-1.66805e-05
7.41489e-05
2.40506e-05
6.22141e-05
5.14031e-05
7.541e-05
7.10054e-05
0.000118965
7.26492e-05
0.00013407
0.000143247
6.10294e-06
-7.09745e-05
1.22696e-05
-7.14743e-05
1.83637e-05
-7.19553e-05
2.4509e-05
-7.27023e-05
3.06083e-05
-7.37178e-05
3.67277e-05
-7.50762e-05
4.29748e-05
-7.70008e-05
4.86424e-05
-7.93878e-05
5.50975e-05
-8.23489e-05
6.10346e-05
-8.8954e-05
6.91233e-05
-9.28064e-05
8.16001e-05
-0.000107116
8.98919e-05
-0.000110484
9.15836e-05
-0.000104802
8.57461e-05
-9.20762e-05
6.82399e-05
-6.63499e-05
4.73751e-05
-3.23666e-05
3.55379e-05
-2.74161e-06
3.76819e-05
2.5198e-05
4.93623e-05
4.28493e-05
5.12001e-05
7.57478e-05
9.15215e-05
4.91765e-05
7.93478e-05
0.000141752
5.66573e-06
-7.66402e-05
1.13743e-05
-7.7183e-05
1.71097e-05
-7.76909e-05
2.28262e-05
-7.84191e-05
2.8516e-05
-7.94079e-05
3.4001e-05
-8.05614e-05
3.88251e-05
-8.18255e-05
4.29846e-05
-8.35497e-05
4.73085e-05
-8.66829e-05
5.08521e-05
-9.25303e-05
5.86498e-05
-0.000100577
6.59227e-05
-0.00011446
6.38981e-05
-0.000110409
5.41385e-05
-9.81367e-05
3.33416e-05
-7.37806e-05
1.48412e-05
-4.71647e-05
7.60161e-06
-2.21207e-05
1.28191e-05
-5.39823e-06
2.59844e-05
1.32519e-05
4.36673e-05
2.57107e-05
7.45192e-05
4.57437e-05
7.20015e-05
4.66736e-05
4.08931e-05
0.000132286
5.65207e-06
-8.23516e-05
1.12404e-05
-8.28398e-05
1.6835e-05
-8.33736e-05
2.24311e-05
-8.41431e-05
2.80381e-05
-8.52228e-05
3.35165e-05
-8.64071e-05
3.82468e-05
-8.72435e-05
4.14075e-05
-8.79843e-05
4.23925e-05
-8.97416e-05
4.09802e-05
-9.35834e-05
3.97777e-05
-0.000101805
3.087e-05
-0.00011094
1.76801e-05
-0.000100818
6.034e-07
-8.19956e-05
-9.82681e-06
-6.09326e-05
-9.77848e-06
-4.47387e-05
-9.3142e-07
-2.97112e-05
1.33567e-05
-1.9535e-05
3.15538e-05
-4.90782e-06
5.27449e-05
4.52226e-06
8.08332e-05
1.76544e-05
0.000108245
1.88678e-05
2.5715e-05
0.000138646
5.41855e-06
-9.2437e-05
1.08416e-05
-9.32392e-05
1.61755e-05
-9.42661e-05
2.15978e-05
-9.60917e-05
2.71827e-05
-9.8777e-05
3.31429e-05
-0.000103296
3.8276e-05
-0.000108807
4.01738e-05
-0.000114725
3.57584e-05
-0.000119939
2.05068e-05
-0.000121758
-8.80154e-06
-0.000122341
-2.38372e-05
-0.000123587
-2.66045e-05
-0.000103549
-2.7608e-05
-8.05248e-05
-2.19645e-05
-6.61724e-05
-1.05101e-05
-5.62187e-05
6.24595e-06
-4.67263e-05
2.31884e-05
-3.66404e-05
4.33609e-05
-2.52307e-05
6.3209e-05
-1.54879e-05
8.4722e-05
-4.03628e-06
0.000104011
-7.42734e-07
-4.15937e-06
0.000133037
5.31303e-06
-0.000137688
1.04165e-05
-0.000139939
1.51654e-05
-0.000143822
1.93914e-05
-0.000150508
2.33637e-05
-0.000161938
2.76128e-05
-0.000172005
3.12396e-05
-0.00018036
3.28884e-05
-0.000191679
2.48064e-05
-0.000198671
-1.97647e-05
-0.000192563
-6.7861e-05
-0.00018475
-5.94459e-05
-0.000179789
-4.33007e-05
-0.000158037
-3.33056e-05
-0.000120096
-1.78787e-05
-0.000106814
-6.1606e-07
-9.13224e-05
1.6789e-05
-7.79412e-05
3.34421e-05
-6.50881e-05
5.44959e-05
-5.91406e-05
7.51368e-05
-5.25995e-05
9.69136e-05
-4.78044e-05
0.000121526
-5.4446e-05
-7.25955e-05
0.000134284
3.826e-06
-0.000240914
7.35664e-06
-0.000244938
1.04917e-05
-0.000251233
1.28812e-05
-0.000253812
1.42196e-05
-0.000228931
1.32469e-05
-0.000162249
1.02635e-05
-0.000127612
7.12182e-07
-0.000110766
-3.81602e-05
-7.35191e-05
-0.000101112
-4.28771e-05
-0.000117346
-6.1676e-05
-8.26682e-05
-0.000162249
-3.77165e-05
-0.000252177
-1.31517e-05
-0.000221605
3.14089e-06
-0.000192512
1.45124e-05
-0.000164931
2.73578e-05
-0.000147203
4.11992e-05
-0.00013428
5.58489e-05
-0.000129716
7.23523e-05
-0.000128715
7.99834e-05
-0.000127772
8.26775e-05
-0.000126747
-0.000105849
9.32977e-05
-1.73177e-05
-8.71861e-05
-3.64925e-05
-8.46239e-05
-5.83703e-05
-8.11133e-05
-8.1147e-05
-7.9051e-05
-0.000100796
-7.74572e-05
-0.000114209
-7.55721e-05
-0.000112838
-8.84538e-05
-0.000100507
-9.03327e-05
-6.8105e-05
-7.34468e-05
4.20435e-06
-4.39442e-05
9.23407e-05
-8.5351e-05
9.52432e-05
-0.000134328
7.63351e-05
-0.000140326
5.50206e-05
-0.000107338
3.56224e-05
-9.05695e-05
2.56576e-05
-9.62438e-05
2.50262e-05
-9.90893e-05
2.7218e-05
-9.24737e-05
2.70493e-05
-8.72289e-05
2.3823e-05
-8.18055e-05
-1.43603e-05
-2.0664e-05
-7.90972e-05
1.59695e-05
-5.92103e-05
-7.16646e-05
-1.08828e-05
-6.79534e-05
-1.89427e-05
-7.02173e-05
-2.32323e-05
-7.28478e-05
-2.41096e-05
-7.63512e-05
-2.16698e-05
-7.94818e-05
-1.47494e-05
-8.24695e-05
-1.47334e-05
-8.84664e-05
-1.69525e-05
-8.81182e-05
-1.45067e-05
-7.58795e-05
5.70669e-06
-6.38515e-05
1.30715e-05
-9.27065e-05
1.61171e-06
-0.000122876
-1.72488e-05
-0.000121285
-1.95342e-05
-0.000100678
-1.59167e-05
-7.90043e-05
-2.28212e-05
-6.18228e-05
-4.06746e-05
-5.0008e-05
-5.79051e-05
-4.28106e-05
-6.51711e-05
-5.00194e-05
-5.85249e-05
-6.22311e-05
-1.48907e-05
-3.40629e-05
3.41676e-06
5.28523e-07
-9.09525e-06
-4.67092e-05
-4.37519e-06
-6.35777e-05
-7.5265e-06
-6.70648e-05
-1.06313e-05
-6.97413e-05
-1.39382e-05
-7.30422e-05
-1.67379e-05
-7.66797e-05
-1.85922e-05
-8.06123e-05
-2.2328e-05
-8.47271e-05
-2.50089e-05
-8.54339e-05
-1.96492e-05
-8.12351e-05
-5.17867e-06
-7.8318e-05
-4.54118e-06
-9.33402e-05
-2.28974e-05
-0.000104516
-4.00093e-05
-0.00010417
-4.96012e-05
-9.10831e-05
-4.64894e-05
-8.21128e-05
-3.1179e-05
-7.71303e-05
-1.04793e-05
-7.07055e-05
9.05213e-06
-6.23383e-05
1.21915e-05
-5.31574e-05
-1.2145e-05
-3.78915e-05
-5.23749e-05
6.169e-06
-7.87999e-05
2.69565e-05
1.60834e-05
-0.000103972
-1.55856e-06
-6.20185e-05
-3.1354e-06
-6.5487e-05
-4.91389e-06
-6.79614e-05
-6.81584e-06
-7.11387e-05
-8.86987e-06
-7.46239e-05
-1.14089e-05
-7.80712e-05
-1.52049e-05
-8.09286e-05
-1.83407e-05
-8.22953e-05
-1.7504e-05
-8.20688e-05
-1.34609e-05
-8.23581e-05
-1.86528e-05
-8.81454e-05
-3.08782e-05
-9.22881e-05
-4.03176e-05
-9.47284e-05
-4.27918e-05
-8.86065e-05
-3.8417e-05
-8.64856e-05
-3.24629e-05
-8.30811e-05
-3.03949e-05
-7.27708e-05
-4.03395e-05
-5.23929e-05
-6.67568e-05
-2.67367e-05
-9.4723e-05
-9.92476e-06
-9.19311e-05
3.37926e-06
-8.14982e-05
1.65259e-05
1.54946e-05
-8.09063e-05
4.81432e-07
-6.24994e-05
6.92534e-07
-6.56974e-05
6.77116e-08
-6.73357e-05
-1.4888e-06
-6.95811e-05
-4.08934e-06
-7.20223e-05
-7.88314e-06
-7.42762e-05
-1.28647e-05
-7.59456e-05
-1.83132e-05
-7.68451e-05
-2.34672e-05
-7.69129e-05
-2.86447e-05
-7.71787e-05
-3.52028e-05
-8.15854e-05
-4.18219e-05
-8.5667e-05
-4.91316e-05
-8.74169e-05
-5.21318e-05
-8.56045e-05
-5.49596e-05
-8.36535e-05
-6.08535e-05
-7.71857e-05
-7.10143e-05
-6.26059e-05
-8.42071e-05
-3.91949e-05
-9.17769e-05
-1.91653e-05
-9.42435e-05
-7.45407e-06
-9.51538e-05
4.29192e-06
-8.95734e-05
1.09457e-05
1.39947e-05
-8.80672e-05
-4.92423e-07
-6.20061e-05
-1.1072e-06
-6.5082e-05
-2.16075e-06
-6.62817e-05
-4.09602e-06
-6.76454e-05
-7.22908e-06
-6.88887e-05
-1.15301e-05
-6.99745e-05
-1.66863e-05
-7.07886e-05
-2.23445e-05
-7.11859e-05
-2.77971e-05
-7.14593e-05
-3.2459e-05
-7.25157e-05
-3.8041e-05
-7.60023e-05
-4.48629e-05
-7.88439e-05
-5.3849e-05
-7.84292e-05
-6.31487e-05
-7.63021e-05
-7.37656e-05
-7.30367e-05
-8.41954e-05
-6.67497e-05
-9.34813e-05
-5.33137e-05
-0.000101153
-3.15188e-05
-0.000103558
-1.67543e-05
-0.000100465
-1.05439e-05
-9.22722e-05
-3.89703e-06
-8.5389e-05
4.06782e-06
9.23091e-06
-8.06229e-05
-1.03025e-06
-6.09756e-05
-2.46835e-06
-6.36434e-05
-4.54948e-06
-6.42e-05
-7.24573e-06
-6.49486e-05
-1.05323e-05
-6.56016e-05
-1.43748e-05
-6.61314e-05
-1.85468e-05
-6.66158e-05
-2.28059e-05
-6.69259e-05
-2.70861e-05
-6.7178e-05
-3.15113e-05
-6.80891e-05
-3.75669e-05
-6.99451e-05
-4.63766e-05
-7.00324e-05
-5.66547e-05
-6.81494e-05
-6.74361e-05
-6.55195e-05
-7.85886e-05
-6.1878e-05
-8.86893e-05
-5.66472e-05
-9.54312e-05
-4.65686e-05
-9.58637e-05
-3.10835e-05
-9.27636e-05
-1.98514e-05
-8.84353e-05
-1.48691e-05
-8.30316e-05
-9.29767e-06
-7.75081e-05
-1.45351e-06
3.95952e-06
-7.22311e-05
-1.83352e-06
-5.91414e-05
-3.87495e-06
-6.16017e-05
-6.21446e-06
-6.18603e-05
-8.86134e-06
-6.23017e-05
-1.17915e-05
-6.26714e-05
-1.4922e-05
-6.30008e-05
-1.82942e-05
-6.32434e-05
-2.18571e-05
-6.33627e-05
-2.56028e-05
-6.3432e-05
-3.00588e-05
-6.36327e-05
-3.65004e-05
-6.3503e-05
-4.40885e-05
-6.24437e-05
-5.18621e-05
-6.03747e-05
-6.02039e-05
-5.71762e-05
-6.91116e-05
-5.29708e-05
-7.76716e-05
-4.80842e-05
-8.26218e-05
-4.1617e-05
-8.141e-05
-3.22934e-05
-7.85205e-05
-2.27385e-05
-7.67868e-05
-1.66004e-05
-7.40263e-05
-1.20557e-05
-7.01085e-05
-5.36806e-06
1.32545e-06
-6.74708e-05
-2.00442e-06
-5.7137e-05
-4.16874e-06
-5.94372e-05
-6.52966e-06
-5.94993e-05
-9.12711e-06
-5.97041e-05
-1.19162e-05
-5.98822e-05
-1.48907e-05
-6.00262e-05
-1.80272e-05
-6.01067e-05
-2.13549e-05
-6.00348e-05
-2.49976e-05
-5.9789e-05
-2.92167e-05
-5.94133e-05
-3.41611e-05
-5.85582e-05
-3.96199e-05
-5.69842e-05
-4.52993e-05
-5.46945e-05
-5.0806e-05
-5.16697e-05
-5.59096e-05
-4.78648e-05
-6.12246e-05
-4.27698e-05
-6.6115e-05
-3.67254e-05
-6.83348e-05
-3.00723e-05
-6.78104e-05
-2.32614e-05
-6.71162e-05
-1.72928e-05
-6.64541e-05
-1.27153e-05
-6.50306e-05
-6.78994e-06
1.08584e-06
-6.47863e-05
-2.26342e-06
-5.4873e-05
-4.65179e-06
-5.70485e-05
-7.12564e-06
-5.70253e-05
-9.73259e-06
-5.70971e-05
-1.24872e-05
-5.71275e-05
-1.54279e-05
-5.70853e-05
-1.85919e-05
-5.69427e-05
-2.19607e-05
-5.66658e-05
-2.54669e-05
-5.62826e-05
-2.92506e-05
-5.56294e-05
-3.35188e-05
-5.42897e-05
-3.8439e-05
-5.20636e-05
-4.33714e-05
-4.97617e-05
-4.79263e-05
-4.71138e-05
-5.20721e-05
-4.37201e-05
-5.56277e-05
-3.92128e-05
-5.86551e-05
-3.36976e-05
-6.07681e-05
-2.79588e-05
-6.17825e-05
-2.22457e-05
-6.16907e-05
-1.73833e-05
-6.16062e-05
-1.27981e-05
-6.16181e-05
-6.77565e-06
2.60929e-07
-6.07904e-05
-2.15214e-06
-5.27208e-05
-4.43702e-06
-5.47634e-05
-6.80839e-06
-5.46537e-05
-9.29618e-06
-5.46092e-05
-1.19318e-05
-5.44918e-05
-1.47369e-05
-5.42801e-05
-1.77478e-05
-5.39317e-05
-2.09892e-05
-5.34242e-05
-2.4558e-05
-5.27136e-05
-2.85255e-05
-5.16617e-05
-3.26494e-05
-5.01655e-05
-3.64343e-05
-4.82784e-05
-4.01652e-05
-4.60305e-05
-4.41495e-05
-4.31298e-05
-4.8219e-05
-3.96493e-05
-5.15582e-05
-3.58746e-05
-5.36107e-05
-3.1645e-05
-5.5048e-05
-2.65211e-05
-5.6094e-05
-2.11991e-05
-5.70668e-05
-1.64095e-05
-5.7677e-05
-1.21863e-05
-5.74848e-05
-6.96687e-06
-9.70173e-07
-5.62501e-05
-2.15716e-06
-5.05632e-05
-4.42298e-06
-5.24973e-05
-6.76621e-06
-5.23103e-05
-9.23294e-06
-5.21423e-05
-1.1849e-05
-5.18757e-05
-1.4641e-05
-5.1488e-05
-1.7613e-05
-5.09596e-05
-2.07494e-05
-5.02877e-05
-2.40225e-05
-4.94404e-05
-2.73758e-05
-4.83082e-05
-3.07106e-05
-4.68305e-05
-3.3998e-05
-4.49908e-05
-3.73341e-05
-4.26942e-05
-4.0436e-05
-4.00272e-05
-4.33312e-05
-3.67556e-05
-4.64156e-05
-3.27894e-05
-4.93548e-05
-2.87065e-05
-5.1292e-05
-2.45839e-05
-5.21289e-05
-2.0362e-05
-5.23241e-05
-1.62137e-05
-5.27593e-05
-1.175e-05
-5.29532e-05
-6.77121e-06
-2.09418e-06
-5.18271e-05
-2.16405e-06
-4.83991e-05
-4.41813e-06
-5.02431e-05
-6.70576e-06
-5.00225e-05
-9.04642e-06
-4.98015e-05
-1.14513e-05
-4.94707e-05
-1.39258e-05
-4.90134e-05
-1.64805e-05
-4.84049e-05
-1.91503e-05
-4.76179e-05
-2.19883e-05
-4.66023e-05
-2.50171e-05
-4.52792e-05
-2.82295e-05
-4.36179e-05
-3.15536e-05
-4.16665e-05
-3.48321e-05
-3.94155e-05
-3.80761e-05
-3.67839e-05
-4.09905e-05
-3.38401e-05
-4.30809e-05
-3.07006e-05
-4.44561e-05
-2.73316e-05
-4.55924e-05
-2.34478e-05
-4.67254e-05
-1.9229e-05
-4.79056e-05
-1.5033e-05
-4.87835e-05
-1.08712e-05
-4.86397e-05
-6.91434e-06
-2.85359e-06
-4.78775e-05
-2.09025e-06
-4.63084e-05
-4.26433e-06
-4.80688e-05
-6.47384e-06
-4.78128e-05
-8.7415e-06
-4.75337e-05
-1.10794e-05
-4.71327e-05
-1.34931e-05
-4.65997e-05
-1.5984e-05
-4.59139e-05
-1.85552e-05
-4.50467e-05
-2.12031e-05
-4.39543e-05
-2.38895e-05
-4.25927e-05
-2.65508e-05
-4.09564e-05
-2.91102e-05
-3.91069e-05
-3.15611e-05
-3.69645e-05
-3.38394e-05
-3.45052e-05
-3.60007e-05
-3.16802e-05
-3.81748e-05
-2.85262e-05
-4.04267e-05
-2.50804e-05
-4.23673e-05
-2.15077e-05
-4.36321e-05
-1.79642e-05
-4.41941e-05
-1.44709e-05
-4.43532e-05
-1.07116e-05
-4.44486e-05
-6.81766e-06
-3.07701e-06
-4.42237e-05
-1.98021e-06
-4.43283e-05
-4.0322e-06
-4.60167e-05
-6.10723e-06
-4.57377e-05
-8.2281e-06
-4.54128e-05
-1.04087e-05
-4.49519e-05
-1.26613e-05
-4.4347e-05
-1.49925e-05
-4.35827e-05
-1.73971e-05
-4.26421e-05
-1.98454e-05
-4.15058e-05
-2.22881e-05
-4.01499e-05
-2.47002e-05
-3.85441e-05
-2.71356e-05
-3.66714e-05
-2.95657e-05
-3.45344e-05
-3.19176e-05
-3.21538e-05
-3.40497e-05
-2.95476e-05
-3.58621e-05
-2.67151e-05
-3.725e-05
-2.36932e-05
-3.82879e-05
-2.04703e-05
-3.9195e-05
-1.70574e-05
-4.01224e-05
-1.35433e-05
-4.07491e-05
-1.00843e-05
-4.08947e-05
-6.67176e-06
-3.22324e-06
-4.07463e-05
-1.88862e-06
-4.24393e-05
-3.84813e-06
-4.4057e-05
-5.82143e-06
-4.37642e-05
-7.82576e-06
-4.34083e-05
-9.86245e-06
-4.29152e-05
-1.19325e-05
-4.22769e-05
-1.40364e-05
-4.14788e-05
-1.61763e-05
-4.05022e-05
-1.83543e-05
-3.93277e-05
-2.05596e-05
-3.79446e-05
-2.27513e-05
-3.63523e-05
-2.48724e-05
-3.45501e-05
-2.68845e-05
-3.25223e-05
-2.87844e-05
-3.02536e-05
-3.05754e-05
-2.77581e-05
-3.22305e-05
-2.50598e-05
-3.37511e-05
-2.21737e-05
-3.50687e-05
-1.91532e-05
-3.60832e-05
-1.60434e-05
-3.67647e-05
-1.28619e-05
-3.72003e-05
-9.64834e-06
-3.74497e-05
-6.4216e-06
-3.18693e-06
-3.74848e-05
-1.77567e-06
-4.06637e-05
-3.60626e-06
-4.22263e-05
-5.44751e-06
-4.19229e-05
-7.31226e-06
-4.15435e-05
-9.20578e-06
-4.10216e-05
-1.11308e-05
-4.03518e-05
-1.30858e-05
-3.95238e-05
-1.50615e-05
-3.85265e-05
-1.70399e-05
-3.73492e-05
-1.90027e-05
-3.59817e-05
-2.09407e-05
-3.44142e-05
-2.28497e-05
-3.26409e-05
-2.47059e-05
-3.06659e-05
-2.64614e-05
-2.84988e-05
-2.80762e-05
-2.61427e-05
-2.95307e-05
-2.36067e-05
-3.07902e-05
-2.09149e-05
-3.18543e-05
-1.80898e-05
-3.27425e-05
-1.51555e-05
-3.34542e-05
-1.21504e-05
-3.3965e-05
-9.13722e-06
-3.42609e-05
-6.12551e-06
-3.08128e-06
-3.43649e-05
-1.64801e-06
-3.90154e-05
-3.35162e-06
-4.05226e-05
-5.05901e-06
-4.02154e-05
-6.7829e-06
-3.98195e-05
-8.52502e-06
-3.92794e-05
-1.02858e-05
-3.8591e-05
-1.20631e-05
-3.77465e-05
-1.38516e-05
-3.67379e-05
-1.56424e-05
-3.55583e-05
-1.7422e-05
-3.42021e-05
-1.91704e-05
-3.26657e-05
-2.0864e-05
-3.09471e-05
-2.2485e-05
-2.9045e-05
-2.40217e-05
-2.69619e-05
-2.54569e-05
-2.47088e-05
-2.67646e-05
-2.22991e-05
-2.79296e-05
-1.97507e-05
-2.89337e-05
-1.70864e-05
-2.97611e-05
-1.43286e-05
-3.04079e-05
-1.15039e-05
-3.0892e-05
-8.65302e-06
-3.12192e-05
-5.79772e-06
-2.91597e-06
-3.13836e-05
-1.52368e-06
-3.74919e-05
-3.09287e-06
-3.89534e-05
-4.66339e-06
-3.86448e-05
-6.24524e-06
-3.82376e-05
-7.83889e-06
-3.76858e-05
-9.44345e-06
-3.69864e-05
-1.10555e-05
-3.61345e-05
-1.26686e-05
-3.51248e-05
-1.42742e-05
-3.39527e-05
-1.58618e-05
-3.26144e-05
-1.74201e-05
-3.11074e-05
-1.89357e-05
-2.94315e-05
-2.0391e-05
-2.75897e-05
-2.17658e-05
-2.55875e-05
-2.3042e-05
-2.34323e-05
-2.42059e-05
-2.11363e-05
-2.52427e-05
-1.87146e-05
-2.61436e-05
-1.61863e-05
-2.69021e-05
-1.35705e-05
-2.7516e-05
-1.08903e-05
-2.79898e-05
-8.17906e-06
-2.83274e-05
-5.46005e-06
-2.71718e-06
-2.8525e-05
-1.38811e-06
-3.61034e-05
-2.81934e-06
-3.7522e-05
-4.24877e-06
-3.72153e-05
-5.68607e-06
-3.68003e-05
-7.13098e-06
-3.62408e-05
-8.58206e-06
-3.55353e-05
-1.00359e-05
-3.46806e-05
-1.1487e-05
-3.36737e-05
-1.29278e-05
-3.2512e-05
-1.43484e-05
-3.11937e-05
-1.57373e-05
-2.97183e-05
-1.70819e-05
-2.80868e-05
-1.83694e-05
-2.63021e-05
-1.95872e-05
-2.43696e-05
-2.07226e-05
-2.22982e-05
-2.17611e-05
-2.00978e-05
-2.2693e-05
-1.77836e-05
-2.35089e-05
-1.5371e-05
-2.42027e-05
-1.28773e-05
-2.47726e-05
-1.03208e-05
-2.5224e-05
-7.72771e-06
-2.55613e-05
-5.12236e-06
-2.49784e-06
-2.57801e-05
-1.25295e-06
-3.48507e-05
-2.54351e-06
-3.62314e-05
-3.83087e-06
-3.59279e-05
-5.12382e-06
-3.55073e-05
-6.42123e-06
-3.49434e-05
-7.72124e-06
-3.42353e-05
-9.0205e-06
-3.33814e-05
-1.0314e-05
-3.23802e-05
-1.15951e-05
-3.12308e-05
-1.28559e-05
-2.99329e-05
-1.4087e-05
-2.84871e-05
-1.52784e-05
-2.68954e-05
-1.64189e-05
-2.51616e-05
-1.74975e-05
-2.32916e-05
-1.85026e-05
-2.12926e-05
-1.94258e-05
-1.91759e-05
-2.02574e-05
-1.69526e-05
-2.09915e-05
-1.46376e-05
-2.16234e-05
-1.2246e-05
-2.2151e-05
-9.79353e-06
-2.25774e-05
-7.30128e-06
-2.29071e-05
-4.7927e-06
-2.26842e-06
-2.31357e-05
-1.11326e-06
-3.37371e-05
-2.26161e-06
-3.5083e-05
-3.40587e-06
-3.47836e-05
-4.55466e-06
-3.43585e-05
-5.70646e-06
-3.37916e-05
-6.85929e-06
-3.30825e-05
-8.01005e-06
-3.22306e-05
-9.15415e-06
-3.12361e-05
-1.02856e-05
-3.00994e-05
-1.13973e-05
-2.88212e-05
-1.24812e-05
-2.74032e-05
-1.35287e-05
-2.58478e-05
-1.45312e-05
-2.41593e-05
-1.54795e-05
-2.23431e-05
-1.63659e-05
-2.04073e-05
-1.71816e-05
-1.83603e-05
-1.79206e-05
-1.62143e-05
-1.85776e-05
-1.39814e-05
-1.9149e-05
-1.16752e-05
-1.96332e-05
-9.30969e-06
-2.00323e-05
-6.90236e-06
-2.03499e-05
-4.47492e-06
-2.0348e-06
-2.05832e-05
-9.70924e-07
-3.27664e-05
-1.97599e-06
-3.4078e-05
-2.97698e-06
-3.37826e-05
-3.98227e-06
-3.33532e-05
-4.98996e-06
-3.27839e-05
-5.99814e-06
-3.20744e-05
-7.00431e-06
-3.12245e-05
-8.00433e-06
-3.02361e-05
-8.99283e-06
-2.91109e-05
-9.96344e-06
-2.78506e-05
-1.09092e-05
-2.64574e-05
-1.18227e-05
-2.49342e-05
-1.26969e-05
-2.32851e-05
-1.35249e-05
-2.15155e-05
-1.42993e-05
-1.96325e-05
-1.5015e-05
-1.76457e-05
-1.56661e-05
-1.55639e-05
-1.62491e-05
-1.33991e-05
-1.67616e-05
-1.11633e-05
-1.72023e-05
-8.86937e-06
-1.75727e-05
-6.53214e-06
-1.78763e-05
-4.17147e-06
-1.79939e-06
-1.81112e-05
-8.23358e-07
-3.19428e-05
-1.68571e-06
-3.32156e-05
-2.54406e-06
-3.29243e-05
-3.4064e-06
-3.24909e-05
-4.27077e-06
-3.19196e-05
-5.1356e-06
-3.12095e-05
-5.99977e-06
-3.03603e-05
-6.86024e-06
-2.93757e-05
-7.71202e-06
-2.82591e-05
-8.54908e-06
-2.70135e-05
-9.36483e-06
-2.56416e-05
-1.01527e-05
-2.41464e-05
-1.09069e-05
-2.25311e-05
-1.16216e-05
-2.08007e-05
-1.22922e-05
-1.8963e-05
-1.29126e-05
-1.70254e-05
-1.348e-05
-1.49974e-05
-1.39916e-05
-1.28883e-05
-1.4446e-05
-1.07096e-05
-1.48428e-05
-8.47301e-06
-1.51836e-05
-6.19161e-06
-1.54715e-05
-3.88361e-06
-1.56524e-06
-1.57054e-05
-6.70194e-07