/*--------------------------------*- C++ -*----------------------------------*\
| =========                 |                                                 |
| \\      /  F ield         | OpenFOAM: The Open Source CFD Toolbox           |
|  \\    /   O peration     | Version:  2.4.0                                 |
|   \\  /    A nd           | Web:      www.OpenFOAM.org                      |
|    \\/     M anipulation  |                                                 |
\*---------------------------------------------------------------------------*/
FoamFile
{
    version     2.0;
    format      ascii;
    class       volScalarField;
    location    "0.25";
    object      rho;
}
// * * * * * * * * * * * * * * * * * * * * * * * * * * * * * * * * * * * * * //

dimensions      [1 -3 0 0 0 0 0];

internalField   nonuniform List<scalar> 
2268
(
13529
13529
13529
13529
13529
13529
13529
13529
13529
13529
13529
13529
13529
13529
13529
13529
13529
13529
13529
13529
13528.8
13527.7
13526
13529
13529
13529
13529
13529
13529
13529
13529
13529
13529
13529
13529
13529
13529
13529
13529
13529
13529
13529
13528.9
13528.8
13527.6
13525.4
13529
13529
13529
13529
13529
13529
13529
13529
13529
13529
13529
13529
13529
13529
13529
13529
13528.8
13527.8
13527.7
13528
13528.4
13527.4
13524.7
13529
13529
13529
13529
13529
13529
13529
13529
13529
13529
13529
13529
13529
13528.9
13528.6
13526.2
13512.5
13423.6
13443.9
13488.5
13519.7
13526.4
13524.2
13529
13529
13529
13529
13529
13529
13529
13529
13529
13529
13529
13528.7
13526.4
13516.8
13479.8
13299.2
12662.2
10773.1
8869.09
9999.68
12693.8
13484.1
13523.4
13529
13529
13529
13529
13529
13529
13529
13529
13528.9
13528.4
13522.5
13486.9
13317.7
12858.8
11804.9
9451.96
5809.94
2203.24
1440.6
2210.96
8598.72
13125.4
13519.4
13529
13529
13529
13529
13529
13529
13528.6
13524
13507.4
13443
13186.5
12371.9
10459.1
7584.98
4390.04
1814.9
1091.45
984.312
961.679
936.156
3202.11
11782.1
13492.2
13529
13529
13529
13529
13525.8
13490.6
13414.8
13172.8
12715.4
11868.1
10176.7
7226.56
3948.58
1826.05
1097.99
1022.2
997.349
986.865
963.393
909.33
1266.4
9742.17
13411.3
499.956
499.9
499.873
499.892
499.937
499.938
499.908
499.936
499.928
499.951
499.979
499.97
499.592
494.216
495.97
498.145
488.46
423.976
486.591
499.976
499.986
500.04
500.128
500.188
500.243
500.146
500.049
500.007
500.002
500.001
499.981
499.813
499.818
499.789
499.544
489.018
424.109
466.662
499.989
500.008
500.056
500.135
500.293
500.478
500.602
500.355
500.073
500.006
500.001
500.001
500
500
500
499.977
492.841
463.912
475.618
499.987
498.746
479.994
499.135
500.113
500.424
500.854
500.659
500.217
500.021
500.001
500
500
500
500
499.998
498.188
492.126
491.762
499.451
432.04
102.777
435.9
499.423
500.315
501.04
500.846
500.322
500.047
500.005
500.001
500.001
500
500
500
499.862
499.1
498.561
494.352
182.516
3.9478
112.093
482.431
500.055
501.315
501.035
500.394
500.111
500.044
500.014
500.003
500.001
500
500
499.998
499.951
499.847
495.07
67.3935
1.35697
15.4486
372.086
499.393
501.786
501.206
500.436
500.305
500.192
500.06
500.008
500.003
500.001
500
500
499.999
499.991
496.224
59.463
1.36605
2.87261
306.72
499.582
503.143
501.416
500.565
500.673
500.4
500.104
500.012
500.004
500.001
500
500
500
500
12196.6
12103.1
11908.6
11599
11193.7
10491.1
9671.21
8396.4
6871.91
5243.94
3525.93
2023.03
1288.5
1053.1
1008.83
1001.84
997.726
990.709
972.763
918.884
884.169
5935.84
12144.9
4986.46
4786.95
4424.02
3925.61
3383.51
2727.78
2121.48
1592.01
1255.04
1086.71
1022.38
1004.08
1000.65
1000.38
1000.1
999.664
998.254
993.28
975.693
926.288
826.838
2896.24
8947.94
1102.3
1088.39
1067.53
1044.75
1027.39
1014
1005.95
1002.19
1000.86
1000.36
1000.14
1000.07
1000.03
999.995
999.865
999.216
996.4
987.628
965.564
913.607
795.8
1335.26
5030.32
1000.35
1000.31
1000.26
1000.2
1000.14
1000.09
1000.06
1000.04
1000.02
1000.02
1000.01
1000
999.99
999.92
999.514
997.096
987.589
961.976
917.87
850.177
733.146
757.18
2189.22
1000
1000
1000
1000
1000
1000
1000
1000
1000
1000
1000
999.998
999.973
999.769
997.848
987.349
954.073
884.473
791.389
705.392
624.747
569.598
950.236
1000
1000
1000
1000
1000
1000
1000
1000
1000
1000
1000
999.988
999.727
997.009
981.658
932.743
838.732
712.782
610.466
559.025
533.694
511.43
575.171
1000
1000
1000
1000
1000
1000
1000
1000
1000
1000
999.983
998.858
989.763
957.173
882.571
761.075
632.345
543.95
515.258
505.805
503.217
500.663
505.061
1000
1000
1000
1000
1000
1000
1000
1000
999.999
999.992
998.874
973.215
897.425
787.217
670.149
569.429
516.885
502.681
500.562
500.107
500.05
500.006
500.056
999.997
999.996
999.994
999.99
999.981
999.958
999.898
999.732
999.362
998.627
980.209
842.064
680.746
581.291
529.691
506.568
500.836
500.056
500.003
500
500
500
500
997.585
997.255
996.556
995.162
992.509
987.458
977.945
960.647
936.538
918.818
845.97
617.086
532.693
510.434
502.354
500.279
500.016
499.997
499.998
499.998
499.999
499.999
499.99
860.237
850.466
831.38
798.705
748.844
676.536
577.068
453.923
341.634
294.55
266.795
295.382
402.462
461.245
478.194
489.585
494.22
496.427
496.79
496.626
496.474
494.256
487.432
183.185
169.161
144.606
110.846
73.4299
39.5592
16.6379
5.37618
2.17691
2.66134
3.06679
11.3488
53.5236
140.83
201.266
274.18
319.612
347.32
346.931
328.796
304.052
252.995
128.402
1.1169
1.08683
1.04741
1.01849
1.00558
1.00169
1.00083
1.00419
1.01579
1.02016
1.0019
1.00151
1.01481
1.1829
1.94136
5.50682
10.7428
14.3944
12.7429
6.61869
1.90562
1.03801
1.00798
1.00028
1.00017
1.00012
1.00013
1.00017
1.00019
1.00019
1.00033
1.00011
1.00002
1.00001
1.00001
1.00002
1.00006
1.00014
1.00035
1.00051
1.00052
1.00039
1.00025
1.0002
1.00029
1.00014
1.00005
1.00001
1
1.00001
1.00001
1.00002
1.00002
1.00001
1.00001
1
1
1
1.00001
1.00004
1.00006
1.00008
1.00011
1.00015
1.00021
1.00017
1.00009
1.00008
1.00005
1.00001
1
1
0.999999
1
1
1
1
0.999999
1
1
1
1.00001
1.00005
1.00014
1.00023
1.00027
1.00026
1.00023
1.00012
1.00005
1.00004
1.00003
0.999999
0.999999
0.999999
0.999999
0.999999
0.999999
0.999999
0.999999
0.999999
1
1
1
1.00001
1.00005
1.00025
1.00039
1.0004
1.0004
1.00015
1.00006
1.00004
1.00003
1.00002
0.999999
0.999999
0.999999
0.999999
0.999999
0.999999
0.999999
0.999999
1
1
1
1
1
1.00006
1.00027
1.0004
1.0004
1.00024
1.00005
1.00004
1.00004
1.00002
1.00001
0.999999
0.999999
0.999999
0.999999
0.999999
0.999999
0.999999
1
1
1
1
1
1
1.00003
1.00012
1.00035
1.00037
1.00022
1.00016
1.00009
1.00005
1.00002
1.00001
0.999999
0.999999
0.999999
0.999999
0.999999
0.999999
1
1
1
1
1
1
1
1.00001
1.00006
1.00012
1.00017
1.00023
1.00019
1.00013
1.00007
1.00003
1.00001
0.999999
0.999999
0.999999
0.999999
1
1
1
1
1
1
1
1
1
1
1.00002
1.00006
1.00009
1.00012
1.00013
1.00011
1.00006
1.00003
1.00001
0.999999
0.999999
0.999999
0.999999
1
1
1
1
1
1
1
1
1
1
1
1.00001
1.00004
1.00004
1.00004
1.00004
1.00003
1.00001
1
0.999999
0.999999
0.999999
1
1
1
1
1
1
1
1
1
1
1
0.999999
1
1
1
1.00001
1.00001
1
1
1
0.999999
0.999999
0.999999
1
1
1
1
1
1
1
1
1
1
1
1
0.999999
0.999999
1
1
1
0.999999
0.999999
0.999999
0.999999
0.999999
1
1
1
1
1
1
1
1
1
1
1
1
1
0.999999
0.999999
0.999999
0.999998
0.999998
0.999998
0.999998
0.999998
0.999999
0.999999
1
1
1
1
1
1
1
1
1
1
1
1
1
0.999999
0.999999
0.999999
0.999999
0.999998
0.999998
0.999998
0.999997
1
1
1
1
1
1
1
1
1
1
1
1
1
1
1
1
0.999999
0.999999
0.999999
0.999998
0.999998
0.999998
0.999997
1
1
1
1
1
1
1
1
1
1
1
1
1
1
1
1
1
0.999999
0.999999
0.999999
0.999998
0.999998
0.999997
1
1
1
1
1
1
1
1
1
1
1
1
1
1
1
1
1
0.999999
0.999999
0.999999
0.999999
0.999998
0.999998
1
1
1
1
1
1
1
1
1
1
1
1
1
1
1
1
1
1
1
0.999999
0.999999
0.999999
0.999998
1
1
1
1
1
1
1
1
1
1
1
1
1
1
1
1
1
1
1
0.999999
0.999999
0.999999
0.999998
1
1
1
1
1
1
1
1
1
1
1
1
1
1
1
1
1
1
1
1
1
0.999999
0.999999
1
1
1
1
1
1
1
1
1
1
1
1
1
1
1
1
1
1
1
1
1
1
0.999999
1
1
1
1
1
1
1
1
1
1
1
1
1
1
1
1
1
1
1
1
1
1
1
1
1
1
1
1
1
1
1
1
1
1
1
1
1
1
1
1
1
1
1
1
1
1
1
1
1
1
1
1
1
1
1
1
1
1
1
1
1
1
1
1
1
1
1
1
1
1
1
1
1
1
1
1
1
1
1
1
1
1
1
1
1
1
1
1
1
1
1
1
1
1
1
1
1
1
1
1
1
1
1
1
1
1
1
1
1
1
1
1
1
1
1
1
1
1
1
1
1
1
1
1
1
1
1
1
1
1
1
1
1
1
1
1
1
1
1
1
1
1
1
1
1
1
1
1
1
1
1
1
1
1
0.999999
0.999999
0.999999
0.999999
1
1
1
1
1
1
1
1
1
1
1
1
1
1
1
1
1
1
1
0.999999
0.999999
0.999999
0.999999
0.999999
1
1
1
1
1
1
1
1
1
1
1
1
1
1
1
1
1
1
1
1
1
1
1
1
1
10440.7
608.77
15.1605
181.611
9817.59
7218.7
2605.88
532.037
7673.51
7472.21
6367.62
4402.24
4038.27
5210.03
5338.35
5104.89
1600.59
2358.6
3075.08
3535.03
697.807
906.596
1262.8
1704.38
514.18
534.889
593.592
722.853
500.167
500.564
502.425
510.622
500
500.001
500.005
500.077
499.956
499.931
499.866
499.473
464.547
449.181
439.409
403.779
27.4115
7.18641
1.45159
1.01684
1.07
1.01649
1.00043
1.00002
1.00027
1.00027
1.00012
1.00004
1.00007
1.00007
1.00005
1.00003
1.00003
1.00002
1.00002
1.00001
1.00001
1.00001
1.00001
1
1
1
1
1
1
1
1
1
1
1
1
1
1
1
1
1
1
1
1
1
1
1
1
1
0.999999
1
1
1
0.999999
0.999999
0.999999
0.999999
0.999997
0.999998
0.999998
0.999998
0.999997
0.999997
0.999997
0.999997
0.999997
0.999997
0.999997
0.999997
0.999997
0.999997
0.999997
0.999997
0.999997
0.999997
0.999997
0.999997
0.999998
0.999997
0.999997
0.999997
0.999998
0.999998
0.999998
0.999997
0.999999
0.999998
0.999998
0.999998
0.999999
0.999998
0.999998
0.999998
0.999999
0.999999
0.999999
0.999999
1
0.999999
0.999999
0.999999
1
0.999999
0.999999
0.999999
1
0.999999
0.999999
0.999999
0.999999
0.999999
1
0.999999
1
1
1
1
1
1
1
1
0.999999
1
1
1
428.984
16.4127
1.35768
33.4644
399.391
516.814
510.225
503.583
502.43
500.217
491.976
476.07
440.845
418.142
391.438
435.043
493.915
499.819
499.998
94.5575
5.28162
3.83194
180.729
546.114
563.408
527.788
513.19
498.753
435.533
304.438
161.425
48.2075
8.18989
14.8395
52.1282
317.125
493.751
499.979
1720.37
351.275
332.64
702.127
764.527
664.344
576.419
532.314
380.762
128.788
15.866
1.65254
1.01334
1.00583
1.02228
1.35319
48.862
463.093
499.723
4102.22
2643.72
1912.61
1453.88
1084.1
769.896
656.729
480.995
126.769
7.99592
1.07665
1.00196
1.00239
1.00231
1.00286
1.00218
2.22973
344.601
495.824
3382.93
2841.75
2229.19
1648.55
1173.96
831.877
673.609
275.656
25.4263
1.29123
1.0032
1.00187
1.00152
1.00148
1.00166
1.00216
1.00624
164.388
486.255
2026.96
1956.81
1678.27
1283.5
996.103
813.398
498.929
93.0036
4.46065
1.01253
1.00145
1.0012
1.00102
1.00103
1.00136
1.00206
1.00211
86.5825
489.974
947.854
968
902.265
803.972
686.214
508.809
130.132
11.2287
1.21428
1.00307
1.001
1.0008
1.00072
1.00082
1.00116
1.00185
1.00222
78.6399
492.93
545.63
562.282
557.07
532.605
419.615
111.97
7.4634
1.41158
1.01625
1.00085
1.00067
1.00053
1.00051
1.00065
1.00101
1.00165
1.0022
53.1208
492.93
500.771
500.68
488.051
345.209
63.9231
2.39229
1.00971
1.00093
1.00069
1.00057
1.00043
1.00033
1.00035
1.00053
1.00092
1.00159
1.0022
16.3732
478.228
494.974
436.708
177.658
12.5487
1.04096
1.00053
1.0005
1.0005
1.00045
1.00035
1.00026
1.0002
1.00024
1.00044
1.00088
1.00166
1.00233
2.62788
398.029
184.21
13.7122
1.04366
1.00822
1.0002
1.00024
1.00031
1.00031
1.00027
1.00021
1.00015
1.00012
1.00015
1.00034
1.00079
1.00162
1.00244
1.04956
186.166
1.00331
1.01559
1.00049
1.00002
1.0001
1.00015
1.00018
1.00018
1.00015
1.00011
1.00008
1.00006
1.00009
1.00022
1.00063
1.00145
1.0023
1.00249
31.486
1.00002
1.00002
1.00002
1.00002
1.00005
1.00008
1.0001
1.0001
1.00008
1.00006
1.00004
1.00003
1.00004
1.00012
1.00043
1.00118
1.00193
1.02429
2.35286
1.00001
1.00001
1.00001
1.00001
1.00003
1.00004
1.00005
1.00005
1.00004
1.00003
1.00002
1.00002
1.00002
1.00005
1.0002
1.00085
1.00293
1.02198
1.01675
1.00001
1
1
1.00001
1.00001
1.00002
1.00002
1.00002
1.00002
1.00001
1.00001
1.00001
1.00001
1.00002
1.00006
1.00028
1.00124
1.00364
1.0018
1.00001
1
1
1
1
1.00001
1.00001
1.00001
1.00001
1.00001
1
1
1
1.00001
1.00002
1.00007
1.00029
1.00089
1.00097
1
0.999999
0.999999
0.999999
1
1
1
1
1
1
1
1
1
1
1
1.00002
1.00007
1.00022
1.00033
1
0.999998
0.999998
0.999998
0.999998
0.999999
0.999999
1
1
1
1
1
1
1
1
1
1.00001
1.00004
1.00008
0.999999
0.999998
0.999998
0.999998
0.999998
0.999998
0.999998
0.999999
0.999999
1
1
1
1
1
1
1
1
1.00001
1.00001
1
0.999999
0.999998
0.999998
0.999998
0.999998
0.999998
0.999998
0.999999
0.999999
0.999999
1
1
1
1
1
1
1
1
1
0.999999
0.999999
0.999998
0.999998
0.999998
0.999998
0.999998
0.999999
0.999999
0.999999
1
1
1
1
1
1
1
1
1
1
0.999999
0.999999
0.999999
0.999998
0.999998
0.999999
0.999999
0.999999
0.999999
0.999999
1
1
1
1
1
1
1
1
1
1
0.999999
0.999999
0.999999
0.999999
0.999999
0.999999
0.999999
0.999999
1
1
1
1
1
1
1
1
1
1
1
0.999999
0.999999
0.999999
0.999999
0.999999
0.999999
0.999999
1
1
1
1
1
1
1
1
0.999999
0.999999
0.999999
0.999999
0.999999
0.999999
0.999999
0.999999
0.999999
0.999999
1
1
1
1
1
1
1
0.999999
1
0.999999
0.999998
0.999998
0.999999
0.999999
0.999999
0.999999
0.999999
0.999999
0.999999
1
1
1
1
1
1
1
1
1
1
0.999998
0.999998
0.999998
0.999998
0.999999
0.999999
0.999999
0.999999
0.999999
1
1
1
1
1
1
1
1
1
1
0.999997
0.999997
0.999998
0.999998
0.999999
0.999999
0.999999
0.999999
0.999999
0.999999
1
1
1
1
1
1
1
1
1
0.999997
0.999997
0.999997
0.999998
0.999998
0.999999
0.999999
0.999999
0.999999
0.999999
1
1
1
1
1
1
1
1
1
0.999997
0.999997
0.999997
0.999998
0.999998
0.999999
0.999999
0.999999
0.999999
0.999999
1
1
1
1
1
1
1
1
1
0.999997
0.999997
0.999997
0.999998
0.999998
0.999998
0.999999
0.999999
0.999999
0.999999
1
1
1
1
1
1
1
1
1
0.999997
0.999997
0.999997
0.999998
0.999998
0.999998
0.999999
0.999999
0.999999
0.999999
1
1
1
1
1
1
1
1
1
0.999998
0.999998
0.999998
0.999998
0.999998
0.999998
0.999999
0.999999
0.999999
0.999999
1
1
1
1
1
1
1
1
1
0.999998
0.999998
0.999998
0.999998
0.999998
0.999999
0.999999
0.999999
0.999999
0.999999
1
1
1
1
1
1
1
1
1
0.999998
0.999998
0.999998
0.999998
0.999998
0.999999
0.999999
0.999999
0.999999
0.999999
1
1
1
1
1
1
1
1
1
0.999999
0.999999
0.999999
0.999999
0.999999
0.999999
0.999999
0.999999
0.999999
0.999999
1
1
1
1
1
1
1
1
1
0.999999
0.999999
0.999999
0.999999
0.999999
0.999999
0.999999
0.999999
0.999999
0.999999
0.999999
0.999999
1
1
1
1
1
1
1
0.999999
0.999999
0.999999
0.999999
0.999999
0.999999
0.999999
0.999999
0.999999
0.999999
0.999999
0.999999
0.999999
1
1
1
1
1
1
0.999999
0.999999
0.999999
0.999999
0.999999
0.999999
0.999999
0.999999
0.999999
0.999999
0.999999
0.999999
1
1
1
1
1
0.999999
1
1
0.999999
0.999999
0.999999
0.999999
0.999999
0.999999
0.999999
0.999999
1
1
1
1
1
1
1
1
1
1
1
0.999999
0.999999
0.999999
0.999999
0.999999
0.999999
0.999999
0.999999
1
1
1
1
1
1
1
1
1
1
1
1
1
1
1
0.999999
0.999999
0.999999
0.999999
0.999999
1
1
1
1
1
1
1
1
1
)
;

boundaryField
{
    leftWall
    {
        type            calculated;
        value           nonuniform List<scalar> 
50
(
13529
13529
13529
13529
13529
13529
13529
13529
12196.6
4986.46
1102.3
1000.35
1000
1000
1000
1000
999.997
997.585
860.237
183.185
1.1169
1.00028
1.00005
1.00001
0.999999
0.999999
0.999999
0.999999
0.999999
0.999999
0.999999
0.999999
0.999999
0.999999
1
1
1
1
1
1
1
1
1
1
1
1
1
1
1
1
)
;
    }
    rightWall
    {
        type            calculated;
        value           nonuniform List<scalar> 
50
(
486.591
466.662
475.618
491.762
498.561
499.847
499.991
500
499.998
499.979
499.723
495.824
486.255
489.974
492.93
492.93
478.228
398.029
186.166
31.486
2.35286
1.01675
1.0018
1.00097
1.00033
1.00008
1.00001
1
1
1
1
0.999999
0.999999
1
1
1
1
1
1
1
1
1
1
1
1
1
1
1
1
1
)
;
    }
    lowerWall
    {
        type            calculated;
        value           nonuniform List<scalar> 
62
(
13529
13529
13529
13529
13529
13529
13529
13529
13529
13529
13529
13529
13529
13529
13529
13529
13529
13529
13529
13529
13528.8
13527.7
13526
13526
13525.4
13524.7
13524.2
13523.4
13519.4
13492.2
13411.3
10440.7
608.77
15.1605
181.611
499.956
499.976
499.989
499.987
499.451
494.352
495.07
496.224
499.956
499.9
499.873
499.892
499.937
499.938
499.908
499.936
499.928
499.951
499.979
499.97
499.592
494.216
495.97
498.145
488.46
423.976
486.591
)
;
    }
    atmosphere
    {
        type            calculated;
        value           nonuniform List<scalar> 
46
(
1
1
1
1
1
1
1
1
1
1
1
1
1
1
1
1
1
1
1
1
1
1
1
0.999999
1
1
1
1
1
1
1
1
0.999999
0.999999
0.999999
0.999999
0.999999
1
1
1
1
1
1
1
1
1
)
;
    }
    defaultFaces
    {
        type            empty;
    }
}


// ************************************************************************* //
