/*--------------------------------*- C++ -*----------------------------------*\
| =========                 |                                                 |
| \\      /  F ield         | OpenFOAM: The Open Source CFD Toolbox           |
|  \\    /   O peration     | Version:  2.4.0                                 |
|   \\  /    A nd           | Web:      www.OpenFOAM.org                      |
|    \\/     M anipulation  |                                                 |
\*---------------------------------------------------------------------------*/
FoamFile
{
    version     2.0;
    format      ascii;
    class       volVectorField;
    location    "0.25";
    object      U;
}
// * * * * * * * * * * * * * * * * * * * * * * * * * * * * * * * * * * * * * //

dimensions      [0 1 -1 0 0 0 0];

internalField   nonuniform List<vector> 
2268
(
(0.0194666 -0.00918164 0)
(0.0582304 -0.00922756 0)
(0.0981546 -0.00928869 0)
(0.135724 -0.00950172 0)
(0.180789 -0.00946649 0)
(0.213883 -0.0104327 0)
(0.267227 -0.00875391 0)
(0.296794 -0.0128356 0)
(0.358519 -0.010176 0)
(0.401307 -0.00937283 0)
(0.432486 -0.0124099 0)
(0.490176 -0.0156248 0)
(0.574046 -0.0142116 0)
(0.621078 -0.0141461 0)
(0.670763 -0.00676747 0)
(0.691926 -0.00677845 0)
(0.715245 -0.00463066 0)
(0.734465 0.00122183 0)
(0.718598 0.0102702 0)
(0.667057 0.026612 0)
(0.561459 0.0372137 0)
(0.375682 0.0912896 0)
(0.09725 0.027139 0)
(0.0194564 -0.0275525 0)
(0.0582155 -0.027702 0)
(0.0981053 -0.0278672 0)
(0.135647 -0.02864 0)
(0.180864 -0.0279346 0)
(0.213415 -0.032585 0)
(0.266682 -0.024108 0)
(0.299064 -0.040112 0)
(0.357068 -0.0316811 0)
(0.400065 -0.0263724 0)
(0.433035 -0.0359183 0)
(0.495842 -0.047603 0)
(0.575129 -0.0464531 0)
(0.624163 -0.0382068 0)
(0.661595 -0.0268174 0)
(0.688298 -0.0190247 0)
(0.71692 -0.00938854 0)
(0.75205 -0.00392417 0)
(0.749078 0.0234804 0)
(0.706948 0.0579816 0)
(0.601725 0.0974132 0)
(0.39287 0.142572 0)
(0.119751 0.18209 0)
(0.0194152 -0.0458927 0)
(0.0581116 -0.0461338 0)
(0.0978471 -0.0464129 0)
(0.135437 -0.0476529 0)
(0.180417 -0.046893 0)
(0.212547 -0.0523905 0)
(0.266336 -0.0441266 0)
(0.300173 -0.0634132 0)
(0.353464 -0.0516156 0)
(0.398463 -0.0456953 0)
(0.437116 -0.0640553 0)
(0.50153 -0.0797905 0)
(0.571026 -0.0746473 0)
(0.614575 -0.0580338 0)
(0.660819 -0.0409721 0)
(0.688257 -0.0340714 0)
(0.7465 -0.0333318 0)
(0.777557 -0.016066 0)
(0.788157 0.0424571 0)
(0.752754 0.112544 0)
(0.654979 0.225036 0)
(0.398665 0.271655 0)
(0.168943 0.270516 0)
(0.019356 -0.0642121 0)
(0.0579618 -0.064531 0)
(0.09745 -0.0649511 0)
(0.135257 -0.0666486 0)
(0.179345 -0.0655046 0)
(0.212126 -0.0731374 0)
(0.265174 -0.0628262 0)
(0.300172 -0.0863937 0)
(0.349495 -0.0735912 0)
(0.396618 -0.0668518 0)
(0.443688 -0.0894427 0)
(0.505785 -0.10817 0)
(0.555788 -0.0994629 0)
(0.60389 -0.0837933 0)
(0.657987 -0.0620165 0)
(0.716601 -0.0622441 0)
(0.783324 -0.0508768 0)
(0.8269 -0.0304426 0)
(0.850791 0.0347618 0)
(0.799933 0.117852 0)
(0.71726 0.292419 0)
(0.487474 0.404722 0)
(0.126268 0.432812 0)
(0.019278 -0.0825523 0)
(0.0577429 -0.0829314 0)
(0.0969389 -0.0835473 0)
(0.134885 -0.0855504 0)
(0.17812 -0.0845186 0)
(0.211038 -0.0928914 0)
(0.264343 -0.0839533 0)
(0.297969 -0.107616 0)
(0.346678 -0.0936511 0)
(0.393159 -0.0929306 0)
(0.451468 -0.117628 0)
(0.503489 -0.127072 0)
(0.538746 -0.119393 0)
(0.602669 -0.108891 0)
(0.66605 -0.0948231 0)
(0.757016 -0.0949521 0)
(0.822926 -0.114152 0)
(0.84216 -0.0794916 0)
(0.834287 0.032568 0)
(0.735339 0.135965 0)
(0.681436 0.347214 0)
(0.46769 0.511097 0)
(0.202318 0.546024 0)
(0.0191818 -0.100533 0)
(0.0574437 -0.100937 0)
(0.0963194 -0.10173 0)
(0.134315 -0.103939 0)
(0.176496 -0.102723 0)
(0.209897 -0.11256 0)
(0.262923 -0.103726 0)
(0.293659 -0.126018 0)
(0.348578 -0.11653 0)
(0.388675 -0.118676 0)
(0.455447 -0.139449 0)
(0.497833 -0.144799 0)
(0.538546 -0.155338 0)
(0.616353 -0.15439 0)
(0.691925 -0.153146 0)
(0.753008 -0.149393 0)
(0.748262 -0.0853995 0)
(0.680639 0.0775832 0)
(0.659859 0.255782 0)
(0.492669 0.468764 0)
(0.531559 0.448408 0)
(0.44129 0.595303 0)
(0.14102 0.694347 0)
(0.0191061 -0.116783 0)
(0.0571702 -0.117076 0)
(0.0958385 -0.117789 0)
(0.133705 -0.11964 0)
(0.174983 -0.117955 0)
(0.209465 -0.128025 0)
(0.260375 -0.118635 0)
(0.292417 -0.142121 0)
(0.344706 -0.132388 0)
(0.395289 -0.149618 0)
(0.450835 -0.168936 0)
(0.497529 -0.189715 0)
(0.569131 -0.205296 0)
(0.631965 -0.17835 0)
(0.628995 -0.111095 0)
(0.548871 0.0197608 0)
(0.482098 0.000793009 0)
(0.525999 -0.0908947 0)
(0.573034 -0.0560317 0)
(0.633303 0.172617 0)
(0.337136 0.550301 0)
(0.38136 0.709266 0)
(0.200022 0.7979 0)
(0.0191926 -0.135704 0)
(0.0573494 -0.136079 0)
(0.0962453 -0.137089 0)
(0.133903 -0.139182 0)
(0.174962 -0.137178 0)
(0.211325 -0.150929 0)
(0.258321 -0.142747 0)
(0.294492 -0.168103 0)
(0.337953 -0.172306 0)
(0.404963 -0.18172 0)
(0.438097 -0.199129 0)
(0.506343 -0.197278 0)
(0.556515 -0.178405 0)
(0.524718 -0.078149 0)
(0.441141 -0.051898 0)
(0.451609 -0.129782 0)
(0.532314 -0.138864 0)
(0.666707 -0.0415446 0)
(0.614955 0.113305 0)
(0.706601 0.325419 0)
(0.272935 0.650518 0)
(0.347384 0.728697 0)
(0.144258 0.942648 0)
(-1.1514 0.346192 0)
(-1.78497 0.134037 0)
(-2.04128 0.0421084 0)
(-1.98266 -0.114183 0)
(-1.37454 -0.12613 0)
(-1.10585 -0.0795729 0)
(-0.666201 -0.101035 0)
(-0.164141 -0.120062 0)
(0.189607 -0.103056 0)
(0.546776 -0.0916423 0)
(0.800351 -0.0833155 0)
(1.00479 -0.0683668 0)
(1.12263 -0.0596417 0)
(1.10752 -0.0478279 0)
(1.0477 -0.0451665 0)
(0.904375 -0.00631141 0)
(0.669763 -0.0300922 0)
(0.103565 -0.0930712 0)
(0.165734 -0.0805939 0)
(-1.06132 0.703442 0)
(-1.64971 0.321948 0)
(-1.83709 0.0742016 0)
(-1.65899 -0.188863 0)
(-1.41252 -0.306111 0)
(-0.984737 -0.340357 0)
(-0.43239 -0.220713 0)
(0.020251 -0.283526 0)
(0.361228 -0.218454 0)
(0.686727 -0.171457 0)
(0.952052 -0.11559 0)
(1.1422 -0.0653294 0)
(1.24085 0.0110075 0)
(1.2477 0.0736347 0)
(1.18308 0.138888 0)
(1.02439 0.182081 0)
(0.820691 0.289837 0)
(0.277558 0.269342 0)
(0.202914 0.144844 0)
(-1.04626 1.27857 0)
(-1.29919 0.643836 0)
(-1.33311 0.0664654 0)
(-1.27929 -0.222317 0)
(-1.12827 -0.467724 0)
(-0.817436 -0.597512 0)
(-0.254771 -0.505264 0)
(0.145708 -0.475526 0)
(0.499078 -0.408788 0)
(0.799421 -0.342758 0)
(1.04649 -0.264652 0)
(1.21082 -0.183795 0)
(1.33285 -0.0758321 0)
(1.35349 -0.00652598 0)
(1.31332 0.105864 0)
(1.14919 0.18502 0)
(0.959674 0.320441 0)
(0.508281 0.326878 0)
(0.296262 0.196849 0)
(-0.909541 1.57569 0)
(-0.640045 0.569085 0)
(-0.718648 0.0195726 0)
(-0.870613 -0.117434 0)
(-0.778575 -0.414882 0)
(-0.526464 -0.74952 0)
(-0.124191 -0.662361 0)
(0.276749 -0.615431 0)
(0.606769 -0.516431 0)
(0.889945 -0.410933 0)
(1.12666 -0.308459 0)
(1.28318 -0.212686 0)
(1.42405 -0.0600219 0)
(1.4401 0.0538094 0)
(1.41151 0.234724 0)
(1.28365 0.314556 0)
(1.09488 0.492954 0)
(0.675426 0.503118 0)
(0.334705 0.405926 0)
(-0.709075 1.87207 0)
(-0.294355 0.589502 0)
(-0.5775 0.183273 0)
(-0.452264 -0.352569 0)
(-0.387469 -0.522316 0)
(-0.347267 -0.870904 0)
(0.0593015 -0.857583 0)
(0.392959 -0.794941 0)
(0.68814 -0.691734 0)
(0.949003 -0.556246 0)
(1.17201 -0.422601 0)
(1.31246 -0.302892 0)
(1.47766 -0.122065 0)
(1.48222 0.00942111 0)
(1.49873 0.219754 0)
(1.36382 0.369633 0)
(1.19013 0.632775 0)
(0.759767 0.676478 0)
(0.322184 0.600612 0)
(-0.709074 2.07719 0)
(-0.00704395 0.710283 0)
(-2.21899 0.631799 0)
(-0.870288 -0.258028 0)
(-0.0442951 -0.806957 0)
(-0.143532 -0.926458 0)
(0.179222 -0.973146 0)
(0.511473 -0.889491 0)
(0.766625 -0.774898 0)
(1.01535 -0.620022 0)
(1.23692 -0.46501 0)
(1.37465 -0.326709 0)
(1.55005 -0.147086 0)
(1.5557 0.0467112 0)
(1.6077 0.281231 0)
(1.452 0.456422 0)
(1.27457 0.707381 0)
(0.791421 0.903289 0)
(0.402423 0.800762 0)
(-0.728592 2.06559 0)
(0.323937 1.1581 0)
(-0.845286 -0.0956833 0)
(-1.72294 0.0542891 0)
(0.0848144 -1.03115 0)
(0.128001 -1.07884 0)
(0.334056 -1.1158 0)
(0.613719 -1.03762 0)
(0.842582 -0.916573 0)
(1.07379 -0.74834 0)
(1.27534 -0.576334 0)
(1.43523 -0.401881 0)
(1.58716 -0.19084 0)
(1.61895 -0.00379477 0)
(1.67234 0.269055 0)
(1.5491 0.571962 0)
(1.37462 0.90466 0)
(0.790723 1.06596 0)
(0.344535 1.04385 0)
(-0.736836 2.01 0)
(0.542778 1.40302 0)
(1.06733 0.443342 0)
(-1.09489 -0.580956 0)
(0.254588 -1.0341 0)
(0.336864 -1.12816 0)
(0.457685 -1.16166 0)
(0.700786 -1.10218 0)
(0.92525 -0.977121 0)
(1.13679 -0.817414 0)
(1.3334 -0.62595 0)
(1.50713 -0.453315 0)
(1.61735 -0.217083 0)
(1.68646 0.0386717 0)
(1.79965 0.302834 0)
(1.70705 0.639054 0)
(1.50081 1.12136 0)
(0.97126 1.28409 0)
(0.35422 1.27906 0)
(0.0197541 -0.190751 0)
(0.0588883 -0.192707 0)
(0.0991048 -0.196482 0)
(0.13737 -0.201648 0)
(0.177759 -0.204175 0)
(0.218173 -0.21844 0)
(0.251159 -0.215158 0)
(0.306427 -0.217964 0)
(0.32478 -0.217842 0)
(0.373584 -0.190437 0)
(0.387585 -0.15377 0)
(0.399531 -0.116356 0)
(0.39557 -0.106767 0)
(0.404292 -0.150901 0)
(0.469729 -0.19297 0)
(0.580608 -0.152285 0)
(0.664267 -0.125585 0)
(0.696623 -0.0908654 0)
(0.679653 0.0128437 0)
(0.831107 0.292168 0)
(0.514863 0.748248 0)
(0.496638 0.765063 0)
(0.297956 1.06632 0)
(0.017231 -0.192093 0)
(0.0511163 -0.189636 0)
(0.0850954 -0.184351 0)
(0.114639 -0.174582 0)
(0.145791 -0.165847 0)
(0.178173 -0.149173 0)
(0.195481 -0.123356 0)
(0.234611 -0.103191 0)
(0.251533 -0.0909359 0)
(0.279607 -0.113635 0)
(0.325775 -0.179944 0)
(0.390208 -0.242832 0)
(0.453246 -0.272653 0)
(0.52625 -0.264148 0)
(0.619009 -0.245586 0)
(0.702428 -0.238514 0)
(0.759997 -0.201835 0)
(0.81757 -0.118339 0)
(0.833167 0.0344258 0)
(0.903856 0.294191 0)
(0.87249 0.961985 0)
(0.746577 0.958191 0)
(0.477532 0.980431 0)
(0.0112436 -0.144677 0)
(0.0335471 -0.149195 0)
(0.0593719 -0.153678 0)
(0.086399 -0.167775 0)
(0.118931 -0.184896 0)
(0.154052 -0.213724 0)
(0.193677 -0.250232 0)
(0.241854 -0.301458 0)
(0.302962 -0.311594 0)
(0.360599 -0.333689 0)
(0.43091 -0.339274 0)
(0.481339 -0.323528 0)
(0.53137 -0.304435 0)
(0.59542 -0.299732 0)
(0.671484 -0.312756 0)
(0.740514 -0.303568 0)
(0.80205 -0.249423 0)
(0.861188 -0.163851 0)
(0.89011 0.00674362 0)
(0.921619 0.270206 0)
(0.938382 0.929598 0)
(0.980449 1.1964 0)
(0.727245 1.03988 0)
(0.0185064 -0.305535 0)
(0.0547624 -0.307821 0)
(0.0931355 -0.306751 0)
(0.132148 -0.309895 0)
(0.171343 -0.308521 0)
(0.213581 -0.310728 0)
(0.253805 -0.309024 0)
(0.298034 -0.319116 0)
(0.339089 -0.303531 0)
(0.377189 -0.321107 0)
(0.431707 -0.334399 0)
(0.473254 -0.331565 0)
(0.526476 -0.34259 0)
(0.59341 -0.378664 0)
(0.673029 -0.391171 0)
(0.735303 -0.374431 0)
(0.803721 -0.313827 0)
(0.858008 -0.210978 0)
(0.850179 -0.0060589 0)
(0.856141 0.277596 0)
(0.877794 0.841915 0)
(1.0171 1.22861 0)
(1.01051 1.15373 0)
(0.0185213 -0.281784 0)
(0.0552928 -0.283858 0)
(0.09244 -0.285425 0)
(0.129212 -0.289993 0)
(0.165089 -0.296269 0)
(0.20328 -0.305094 0)
(0.237556 -0.314379 0)
(0.273089 -0.333818 0)
(0.308505 -0.33583 0)
(0.342188 -0.380601 0)
(0.395577 -0.393327 0)
(0.43507 -0.407678 0)
(0.506746 -0.445217 0)
(0.588843 -0.472088 0)
(0.671488 -0.468672 0)
(0.726764 -0.434792 0)
(0.769465 -0.354406 0)
(0.759099 -0.220143 0)
(0.697158 0.0461959 0)
(0.6476 0.320268 0)
(0.643235 0.73053 0)
(0.882704 1.10437 0)
(1.08142 1.13014 0)
(0.0165776 -0.332432 0)
(0.0503025 -0.33536 0)
(0.0830863 -0.339768 0)
(0.117386 -0.344932 0)
(0.150514 -0.352989 0)
(0.1838 -0.361596 0)
(0.216561 -0.370949 0)
(0.25211 -0.389696 0)
(0.287786 -0.395866 0)
(0.331267 -0.435081 0)
(0.382748 -0.439571 0)
(0.42733 -0.473307 0)
(0.513507 -0.512843 0)
(0.587345 -0.537213 0)
(0.635425 -0.523182 0)
(0.652601 -0.465747 0)
(0.644534 -0.344661 0)
(0.526874 -0.130954 0)
(0.431429 0.144111 0)
(0.372903 0.333875 0)
(0.453301 0.650388 0)
(0.607738 0.74415 0)
(0.930884 0.930215 0)
(0.0164929 -0.373331 0)
(0.0493068 -0.375738 0)
(0.0826136 -0.378146 0)
(0.114975 -0.381797 0)
(0.148805 -0.386867 0)
(0.180876 -0.393757 0)
(0.214009 -0.403919 0)
(0.247342 -0.416822 0)
(0.279905 -0.433361 0)
(0.307357 -0.47108 0)
(0.357764 -0.482992 0)
(0.395602 -0.548689 0)
(0.464725 -0.597467 0)
(0.497359 -0.587095 0)
(0.496127 -0.547484 0)
(0.452055 -0.445183 0)
(0.32428 -0.210605 0)
(0.200671 0.00259788 0)
(0.192085 0.184347 0)
(0.20525 0.290601 0)
(0.334963 0.499341 0)
(0.473848 0.53202 0)
(0.750114 0.593729 0)
(0.0152014 -0.395409 0)
(0.0457683 -0.398307 0)
(0.0765932 -0.400903 0)
(0.107611 -0.405119 0)
(0.137945 -0.410172 0)
(0.168603 -0.41717 0)
(0.19707 -0.425594 0)
(0.219762 -0.436249 0)
(0.245881 -0.452006 0)
(0.261289 -0.487278 0)
(0.299384 -0.524631 0)
(0.32977 -0.626427 0)
(0.363365 -0.634762 0)
(0.338283 -0.59283 0)
(0.26565 -0.477098 0)
(0.111301 -0.262665 0)
(0.0532549 -0.0870217 0)
(0.0326967 0.00600899 0)
(0.108909 0.122362 0)
(0.172136 0.19707 0)
(0.317606 0.329201 0)
(0.474399 0.325609 0)
(0.68707 0.379736 0)
(0.0152153 -0.428102 0)
(0.0455723 -0.430535 0)
(0.0753102 -0.432746 0)
(0.105694 -0.435724 0)
(0.136007 -0.439969 0)
(0.165216 -0.44438 0)
(0.194489 -0.447804 0)
(0.213449 -0.452341 0)
(0.23364 -0.464831 0)
(0.224663 -0.489761 0)
(0.232406 -0.541618 0)
(0.188692 -0.634522 0)
(0.146177 -0.600024 0)
(0.0491562 -0.483417 0)
(-0.0426845 -0.311696 0)
(-0.0620802 -0.20757 0)
(-0.0396709 -0.119741 0)
(0.0293826 -0.0604683 0)
(0.121879 0.0277709 0)
(0.215908 0.0847533 0)
(0.3688 0.160491 0)
(0.499553 0.161318 0)
(0.656296 0.196624 0)
(0.0146547 -0.450599 0)
(0.043543 -0.453139 0)
(0.0728685 -0.456172 0)
(0.101456 -0.460982 0)
(0.131737 -0.469297 0)
(0.163121 -0.48047 0)
(0.194425 -0.493544 0)
(0.213713 -0.506471 0)
(0.213368 -0.515257 0)
(0.174488 -0.523932 0)
(0.0572082 -0.559956 0)
(-0.141493 -0.57067 0)
(-0.129767 -0.490809 0)
(-0.155259 -0.377903 0)
(-0.134533 -0.298507 0)
(-0.0973538 -0.24471 0)
(-0.0155655 -0.19342 0)
(0.0854873 -0.151167 0)
(0.170687 -0.0824825 0)
(0.290222 -0.0365214 0)
(0.401915 0.0397362 0)
(0.496283 0.0585835 0)
(0.6533 0.110359 0)
(0.0143011 -0.535254 0)
(0.0418738 -0.536966 0)
(0.0678685 -0.535519 0)
(0.092273 -0.532304 0)
(0.118982 -0.523251 0)
(0.156391 -0.52708 0)
(0.193921 -0.540407 0)
(0.216013 -0.539588 0)
(0.204458 -0.514667 0)
(0.11008 -0.467912 0)
(-0.301681 -0.349394 0)
(-0.442157 -0.455343 0)
(-0.255572 -0.537754 0)
(-0.214843 -0.468831 0)
(-0.140586 -0.415695 0)
(-0.0501428 -0.36324 0)
(0.0426217 -0.300125 0)
(0.142203 -0.231427 0)
(0.221651 -0.182059 0)
(0.368721 -0.132062 0)
(0.437992 -0.0909367 0)
(0.614577 -0.0677647 0)
(0.67286 -0.161688 0)
(0.0151867 -0.51365 0)
(0.04232 -0.503337 0)
(0.0712469 -0.477201 0)
(0.0970955 -0.418709 0)
(0.109702 -0.301526 0)
(0.0810665 -0.0620229 0)
(0.0256148 0.25645 0)
(-0.0576377 0.48604 0)
(-0.0715032 0.693991 0)
(-0.411515 1.11328 0)
(-0.789 1.09557 0)
(-0.479325 -0.00786282 0)
(-0.308557 -0.473282 0)
(-0.167757 -0.553154 0)
(-0.0329379 -0.553682 0)
(0.0230696 -0.507112 0)
(0.101304 -0.457698 0)
(0.183482 -0.405123 0)
(0.26386 -0.389281 0)
(0.354564 -0.355548 0)
(0.424014 -0.32831 0)
(0.460496 -0.369834 0)
(0.472724 -0.218415 0)
(-0.0516642 0.238232 0)
(-0.158269 0.219772 0)
(-0.269309 0.174293 0)
(-0.384841 0.0743225 0)
(-0.493248 -0.107287 0)
(-0.582194 -0.37439 0)
(-0.614844 -0.707908 0)
(-0.584228 -0.892579 0)
(-0.470046 -0.852456 0)
(-0.225041 -0.567783 0)
(0.282869 -0.890588 0)
(0.613404 -0.926643 0)
(0.471504 -0.550107 0)
(0.413555 0.0105102 0)
(0.31697 0.251119 0)
(0.199255 0.233992 0)
(0.127529 0.165865 0)
(0.0770219 0.161342 0)
(0.0655345 0.257536 0)
(-0.00386736 0.469008 0)
(0.0845386 0.945332 0)
(-0.403768 0.76681 0)
(-0.541266 -0.0561673 0)
(-0.031826 -0.832072 0)
(-0.0860461 -0.827864 0)
(-0.116947 -0.812862 0)
(-0.130605 -0.786719 0)
(-0.126585 -0.734897 0)
(-0.0984178 -0.654965 0)
(-0.0751741 -0.539985 0)
(-0.086504 -0.397175 0)
(-0.103467 -0.227409 0)
(-0.0403171 -0.122118 0)
(0.104595 -0.313863 0)
(0.0451438 -0.75528 0)
(-0.0443825 -0.864645 0)
(-0.119103 -0.85398 0)
(-0.0795025 -0.757676 0)
(-0.0831842 -0.625435 0)
(-0.163441 -0.523142 0)
(-0.273264 -0.452573 0)
(-0.362962 -0.539459 0)
(-0.345234 -0.754158 0)
(-0.23858 -0.720123 0)
(0.0776403 -0.422039 0)
(-0.0498027 -0.387842 0)
(-0.0128316 -0.107423 0)
(-0.0330217 -0.128824 0)
(-0.0483216 -0.154706 0)
(-0.0653886 -0.190213 0)
(-0.082037 -0.234851 0)
(-0.0940581 -0.287805 0)
(-0.109187 -0.351697 0)
(-0.129238 -0.397716 0)
(-0.129292 -0.414186 0)
(-0.0746475 -0.40538 0)
(0.0217034 -0.519226 0)
(-0.0808416 -0.57321 0)
(-0.176522 -0.533663 0)
(-0.252728 -0.415632 0)
(-0.271067 -0.320778 0)
(-0.209818 -0.279621 0)
(-0.114091 -0.248453 0)
(-0.00785325 -0.229673 0)
(0.0952128 -0.231473 0)
(0.0363523 -0.161614 0)
(-0.16906 0.181385 0)
(-0.363989 0.36875 0)
(-0.547316 0.224781 0)
(-0.00465573 -0.420305 0)
(-0.0127688 -0.439469 0)
(-0.0208409 -0.452791 0)
(-0.0310276 -0.468613 0)
(-0.0411559 -0.483592 0)
(-0.0535234 -0.497125 0)
(-0.0704479 -0.507745 0)
(-0.0918335 -0.506814 0)
(-0.103809 -0.493458 0)
(-0.0762722 -0.489807 0)
(-0.0646626 -0.517575 0)
(-0.144271 -0.517093 0)
(-0.198334 -0.524379 0)
(-0.231893 -0.460968 0)
(-0.221984 -0.425985 0)
(-0.186978 -0.396345 0)
(-0.164908 -0.35104 0)
(-0.170857 -0.277319 0)
(-0.253106 -0.183612 0)
(-0.471648 -0.116969 0)
(-0.519737 -0.0635837 0)
(-0.454035 0.0182053 0)
(-0.446725 0.0150515 0)
(0.00154347 -0.350706 0)
(0.0037341 -0.366883 0)
(0.00348434 -0.374408 0)
(-0.00276835 -0.385303 0)
(-0.0136279 -0.398199 0)
(-0.0306628 -0.410236 0)
(-0.0538976 -0.418434 0)
(-0.0837792 -0.421046 0)
(-0.112049 -0.418698 0)
(-0.132424 -0.417439 0)
(-0.172468 -0.451528 0)
(-0.211988 -0.479391 0)
(-0.250779 -0.50561 0)
(-0.270709 -0.507141 0)
(-0.283314 -0.517754 0)
(-0.302355 -0.500741 0)
(-0.348344 -0.432723 0)
(-0.426363 -0.305198 0)
(-0.477697 -0.153046 0)
(-0.506852 -0.0296596 0)
(-0.510724 0.0736584 0)
(-0.496706 0.108321 0)
(-0.477936 0.107894 0)
(-0.00102742 -0.318714 0)
(-0.00407773 -0.337751 0)
(-0.0077975 -0.347739 0)
(-0.015483 -0.359658 0)
(-0.0289676 -0.371495 0)
(-0.0487926 -0.382577 0)
(-0.0742482 -0.391695 0)
(-0.104036 -0.397551 0)
(-0.134149 -0.400786 0)
(-0.157872 -0.40762 0)
(-0.189338 -0.423728 0)
(-0.226222 -0.446302 0)
(-0.26505 -0.452249 0)
(-0.307559 -0.436791 0)
(-0.362473 -0.409987 0)
(-0.423541 -0.361664 0)
(-0.483733 -0.273238 0)
(-0.533612 -0.138866 0)
(-0.551544 -0.0584526 0)
(-0.55144 -0.033483 0)
(-0.515856 -0.00886634 0)
(-0.473215 0.0353359 0)
(-0.445273 0.065282 0)
(-0.002358 -0.332674 0)
(-0.00870592 -0.347742 0)
(-0.0180097 -0.351927 0)
(-0.0311686 -0.356934 0)
(-0.0469088 -0.362222 0)
(-0.0659833 -0.367552 0)
(-0.087816 -0.372965 0)
(-0.110719 -0.375719 0)
(-0.131604 -0.376467 0)
(-0.155172 -0.379903 0)
(-0.183714 -0.390066 0)
(-0.226584 -0.400366 0)
(-0.276069 -0.393477 0)
(-0.328355 -0.378479 0)
(-0.390123 -0.362849 0)
(-0.45089 -0.33713 0)
(-0.503379 -0.275815 0)
(-0.524434 -0.179592 0)
(-0.510583 -0.111103 0)
(-0.487336 -0.0781 0)
(-0.460044 -0.0399116 0)
(-0.429771 0.00531949 0)
(-0.400221 0.0337154 0)
(-0.00462059 -0.323153 0)
(-0.0152152 -0.336881 0)
(-0.026777 -0.338955 0)
(-0.0400579 -0.342753 0)
(-0.0550539 -0.346338 0)
(-0.0711428 -0.349 0)
(-0.0888145 -0.350209 0)
(-0.10701 -0.350989 0)
(-0.125333 -0.352546 0)
(-0.146819 -0.357016 0)
(-0.178414 -0.36124 0)
(-0.218447 -0.3567 0)
(-0.255749 -0.3466 0)
(-0.298577 -0.33087 0)
(-0.344047 -0.303829 0)
(-0.395978 -0.273301 0)
(-0.436944 -0.229829 0)
(-0.444539 -0.165612 0)
(-0.432242 -0.111145 0)
(-0.419018 -0.0882577 0)
(-0.406995 -0.0628361 0)
(-0.383377 -0.0215586 0)
(-0.367392 0.00697703 0)
(-0.00508536 -0.313002 0)
(-0.016514 -0.325967 0)
(-0.0285012 -0.327185 0)
(-0.0417564 -0.329536 0)
(-0.0561895 -0.331719 0)
(-0.0717231 -0.333852 0)
(-0.0879954 -0.335691 0)
(-0.104794 -0.336462 0)
(-0.122665 -0.335953 0)
(-0.144871 -0.334166 0)
(-0.171731 -0.328999 0)
(-0.197174 -0.322267 0)
(-0.227379 -0.311974 0)
(-0.257041 -0.292358 0)
(-0.285623 -0.271175 0)
(-0.3138 -0.245719 0)
(-0.339854 -0.21735 0)
(-0.363969 -0.182406 0)
(-0.372184 -0.135299 0)
(-0.362965 -0.0884086 0)
(-0.360725 -0.0662386 0)
(-0.353195 -0.0377422 0)
(-0.347223 0.00680887 0)
(-0.00579013 -0.2999 0)
(-0.0185324 -0.31206 0)
(-0.0315088 -0.311983 0)
(-0.0450716 -0.312487 0)
(-0.0593596 -0.313193 0)
(-0.0746357 -0.313492 0)
(-0.0908728 -0.31314 0)
(-0.108048 -0.311932 0)
(-0.126904 -0.309923 0)
(-0.147504 -0.306532 0)
(-0.16842 -0.300826 0)
(-0.192403 -0.291445 0)
(-0.219107 -0.276908 0)
(-0.244491 -0.263659 0)
(-0.269249 -0.247256 0)
(-0.28861 -0.22053 0)
(-0.305246 -0.18577 0)
(-0.321956 -0.149335 0)
(-0.329179 -0.120649 0)
(-0.336241 -0.101444 0)
(-0.332519 -0.0737877 0)
(-0.329102 -0.0354176 0)
(-0.331725 0.00562207 0)
(-0.0055719 -0.291442 0)
(-0.0176097 -0.30285 0)
(-0.0300965 -0.302797 0)
(-0.0430889 -0.303245 0)
(-0.0568085 -0.303172 0)
(-0.0713622 -0.302628 0)
(-0.0868433 -0.301419 0)
(-0.103539 -0.29938 0)
(-0.122044 -0.296404 0)
(-0.142669 -0.291945 0)
(-0.164813 -0.284025 0)
(-0.185702 -0.27245 0)
(-0.204394 -0.262294 0)
(-0.2255 -0.246399 0)
(-0.247469 -0.22494 0)
(-0.267987 -0.203777 0)
(-0.283791 -0.181179 0)
(-0.292442 -0.154763 0)
(-0.30009 -0.12203 0)
(-0.304992 -0.0882044 0)
(-0.308981 -0.0625427 0)
(-0.312951 -0.0380355 0)
(-0.307162 -0.00298687 0)
(-0.00558867 -0.276681 0)
(-0.0176491 -0.287339 0)
(-0.0299384 -0.28639 0)
(-0.042826 -0.285613 0)
(-0.0564276 -0.284493 0)
(-0.070918 -0.28275 0)
(-0.0863653 -0.280233 0)
(-0.102897 -0.276849 0)
(-0.120401 -0.272333 0)
(-0.138401 -0.266184 0)
(-0.15593 -0.259229 0)
(-0.173095 -0.251236 0)
(-0.191384 -0.237612 0)
(-0.209026 -0.221974 0)
(-0.224029 -0.204753 0)
(-0.239583 -0.183269 0)
(-0.256815 -0.156968 0)
(-0.272852 -0.128852 0)
(-0.280056 -0.105957 0)
(-0.281317 -0.0903503 0)
(-0.28189 -0.0705377 0)
(-0.285728 -0.036964 0)
(-0.285066 -0.00750211 0)
(-0.00562563 -0.268657 0)
(-0.0176848 -0.278923 0)
(-0.0298289 -0.277938 0)
(-0.0422587 -0.277059 0)
(-0.0550069 -0.275584 0)
(-0.0680944 -0.273455 0)
(-0.0815977 -0.270561 0)
(-0.095634 -0.266799 0)
(-0.110438 -0.261978 0)
(-0.126009 -0.25562 0)
(-0.142585 -0.246817 0)
(-0.160227 -0.2349 0)
(-0.177926 -0.222361 0)
(-0.195261 -0.208092 0)
(-0.212769 -0.191323 0)
(-0.226573 -0.173157 0)
(-0.23577 -0.156561 0)
(-0.241477 -0.138872 0)
(-0.248295 -0.114299 0)
(-0.253082 -0.083769 0)
(-0.261299 -0.0567365 0)
(-0.26389 -0.0370624 0)
(-0.260037 -0.0151542 0)
(-0.00542686 -0.253354 0)
(-0.0170723 -0.262957 0)
(-0.028788 -0.261609 0)
(-0.0408032 -0.260171 0)
(-0.0531611 -0.258106 0)
(-0.0659255 -0.255331 0)
(-0.0791106 -0.251718 0)
(-0.0927399 -0.247115 0)
(-0.106755 -0.241285 0)
(-0.12105 -0.233997 0)
(-0.135342 -0.225472 0)
(-0.149369 -0.216642 0)
(-0.162853 -0.205529 0)
(-0.175635 -0.191619 0)
(-0.18697 -0.175704 0)
(-0.198666 -0.158404 0)
(-0.210697 -0.137342 0)
(-0.223263 -0.114841 0)
(-0.232039 -0.0952075 0)
(-0.236253 -0.0797945 0)
(-0.237181 -0.0609756 0)
(-0.239209 -0.0375669 0)
(-0.239725 -0.0158076 0)
(-0.00518578 -0.246173 0)
(-0.0161499 -0.255633 0)
(-0.027201 -0.25428 0)
(-0.0384523 -0.252788 0)
(-0.0499896 -0.250602 0)
(-0.0618815 -0.247671 0)
(-0.0741934 -0.243884 0)
(-0.0869337 -0.239114 0)
(-0.0999903 -0.233198 0)
(-0.113091 -0.225895 0)
(-0.126028 -0.216844 0)
(-0.138974 -0.205825 0)
(-0.152051 -0.193542 0)
(-0.164907 -0.180553 0)
(-0.177236 -0.166323 0)
(-0.187948 -0.150448 0)
(-0.196648 -0.134329 0)
(-0.20276 -0.117025 0)
(-0.207804 -0.0973232 0)
(-0.21286 -0.0756818 0)
(-0.217427 -0.0553918 0)
(-0.22003 -0.0366708 0)
(-0.22006 -0.0175022 0)
(-0.00490909 -0.232727 0)
(-0.015429 -0.241496 0)
(-0.0259407 -0.239885 0)
(-0.0366236 -0.237937 0)
(-0.0474741 -0.23525 0)
(-0.0585032 -0.231785 0)
(-0.0697098 -0.227481 0)
(-0.0810851 -0.222259 0)
(-0.0926299 -0.216045 0)
(-0.104366 -0.208818 0)
(-0.116199 -0.200604 0)
(-0.127819 -0.191356 0)
(-0.138902 -0.180624 0)
(-0.14938 -0.168021 0)
(-0.159244 -0.153986 0)
(-0.168523 -0.138984 0)
(-0.177074 -0.122593 0)
(-0.184923 -0.105477 0)
(-0.191316 -0.0884111 0)
(-0.195615 -0.0715477 0)
(-0.19839 -0.0539392 0)
(-0.200884 -0.0356625 0)
(-0.202013 -0.0174568 0)
(-0.00465352 -0.224953 0)
(-0.0144646 -0.233632 0)
(-0.0242946 -0.232069 0)
(-0.034237 -0.23016 0)
(-0.0443211 -0.227505 0)
(-0.0545685 -0.224059 0)
(-0.0649818 -0.219737 0)
(-0.0755304 -0.21445 0)
(-0.0861397 -0.208093 0)
(-0.0967034 -0.200571 0)
(-0.107146 -0.191817 0)
(-0.117453 -0.181838 0)
(-0.127582 -0.170803 0)
(-0.137311 -0.158886 0)
(-0.146386 -0.145943 0)
(-0.154646 -0.131886 0)
(-0.161953 -0.117006 0)
(-0.168191 -0.101282 0)
(-0.173468 -0.084746 0)
(-0.177714 -0.067708 0)
(-0.180912 -0.0508208 0)
(-0.183477 -0.0340885 0)
(-0.184879 -0.0171068 0)
(-0.00430393 -0.214508 0)
(-0.0134428 -0.222731 0)
(-0.0225677 -0.221066 0)
(-0.0317752 -0.218945 0)
(-0.0410755 -0.216047 0)
(-0.0504739 -0.212353 0)
(-0.0599632 -0.207825 0)
(-0.0695221 -0.20242 0)
(-0.0791164 -0.196108 0)
(-0.0886932 -0.188857 0)
(-0.0981661 -0.180635 0)
(-0.10741 -0.171398 0)
(-0.116302 -0.161066 0)
(-0.124778 -0.149602 0)
(-0.13277 -0.137134 0)
(-0.140148 -0.123799 0)
(-0.146803 -0.109655 0)
(-0.152667 -0.0948879 0)
(-0.157629 -0.0796472 0)
(-0.161533 -0.0640497 0)
(-0.164455 -0.0482493 0)
(-0.166928 -0.0323724 0)
(-0.168592 -0.0163211 0)
(-0.00399597 -0.206604 0)
(-0.0124078 -0.214642 0)
(-0.0208113 -0.212993 0)
(-0.0292671 -0.210845 0)
(-0.0377859 -0.207921 0)
(-0.0463641 -0.204199 0)
(-0.0549903 -0.199639 0)
(-0.0636386 -0.1942 0)
(-0.0722696 -0.187843 0)
(-0.080833 -0.180539 0)
(-0.089271 -0.172274 0)
(-0.0975206 -0.163054 0)
(-0.105502 -0.152919 0)
(-0.113108 -0.141911 0)
(-0.120232 -0.130047 0)
(-0.126793 -0.117371 0)
(-0.132711 -0.103985 0)
(-0.137932 -0.0899813 0)
(-0.142423 -0.0754694 0)
(-0.146092 -0.0605963 0)
(-0.14892 -0.0455833 0)
(-0.151286 -0.0305369 0)
(-0.15305 -0.0153149 0)
(-0.00364367 -0.198451 0)
(-0.0113038 -0.206207 0)
(-0.0189632 -0.204547 0)
(-0.0266491 -0.202327 0)
(-0.0343794 -0.199327 0)
(-0.0421456 -0.195538 0)
(-0.0499351 -0.190938 0)
(-0.0577246 -0.185508 0)
(-0.0654798 -0.179231 0)
(-0.0731551 -0.172092 0)
(-0.0806941 -0.16408 0)
(-0.088031 -0.155193 0)
(-0.0950972 -0.145436 0)
(-0.101827 -0.134833 0)
(-0.10815 -0.123439 0)
(-0.113994 -0.111323 0)
(-0.119294 -0.0985626 0)
(-0.124002 -0.0852541 0)
(-0.128083 -0.0714923 0)
(-0.131475 -0.0573798 0)
(-0.134144 -0.0430681 0)
(-0.136377 -0.0286884 0)
(-0.138166 -0.014165 0)
(-0.00330017 -0.191451 0)
(-0.0101913 -0.199009 0)
(-0.0171 -0.197366 0)
(-0.0240142 -0.195116 0)
(-0.0309612 -0.192091 0)
(-0.0379258 -0.188283 0)
(-0.0448953 -0.183678 0)
(-0.0518476 -0.178264 0)
(-0.0587519 -0.172029 0)
(-0.0655699 -0.164969 0)
(-0.0722557 -0.157085 0)
(-0.0787579 -0.148387 0)
(-0.0850193 -0.138898 0)
(-0.0909793 -0.128647 0)
(-0.0965783 -0.117677 0)
(-0.101762 -0.106043 0)
(-0.10648 -0.0938133 0)
(-0.110695 -0.0810703 0)
(-0.114385 -0.0678995 0)
(-0.117506 -0.0543921 0)
(-0.120016 -0.0406725 0)
(-0.12211 -0.0268653 0)
(-0.123868 -0.0129376 0)
(-0.00294188 -0.185011 0)
(-0.00904884 -0.192366 0)
(-0.0152026 -0.190742 0)
(-0.0213421 -0.188462 0)
(-0.0275116 -0.185414 0)
(-0.0336903 -0.181595 0)
(-0.0398665 -0.176997 0)
(-0.0460199 -0.171619 0)
(-0.0521223 -0.165458 0)
(-0.0581391 -0.158516 0)
(-0.0640299 -0.150799 0)
(-0.0697504 -0.142318 0)
(-0.075254 -0.133094 0)
(-0.0804937 -0.123158 0)
(-0.085423 -0.112552 0)
(-0.0899972 -0.101329 0)
(-0.0941778 -0.089553 0)
(-0.0979347 -0.0772951 0)
(-0.10125 -0.0646319 0)
(-0.104098 -0.0516417 0)
(-0.106436 -0.0384252 0)
(-0.108391 -0.0251012 0)
(-0.110086 -0.0116763 0)
(-0.00257435 -0.179401 0)
(-0.00788644 -0.186575 0)
(-0.0132863 -0.184973 0)
(-0.0186516 -0.182669 0)
(-0.0240499 -0.179605 0)
(-0.0294534 -0.175779 0)
(-0.0348532 -0.171191 0)
(-0.0402323 -0.165843 0)
(-0.0455649 -0.159744 0)
(-0.0508197 -0.152899 0)
(-0.0559612 -0.145319 0)
(-0.0609512 -0.137019 0)
(-0.0657508 -0.12802 0)
(-0.0703217 -0.118354 0)
(-0.0746268 -0.108059 0)
(-0.0786316 -0.0971856 0)
(-0.0823056 -0.0857895 0)
(-0.0856263 -0.0739345 0)
(-0.0885811 -0.0616903 0)
(-0.0911549 -0.0491275 0)
(-0.0933154 -0.036331 0)
(-0.095136 -0.0234092 0)
(-0.0967548 -0.0104006 0)
(-0.00218531 -0.174546 0)
(-0.00669475 -0.181529 0)
(-0.0113502 -0.179946 0)
(-0.0159425 -0.177616 0)
(-0.0205729 -0.174538 0)
(-0.0252066 -0.170706 0)
(-0.0298397 -0.166123 0)
(-0.0344631 -0.160804 0)
(-0.0390545 -0.154763 0)
(-0.0435845 -0.14801 0)
(-0.0480192 -0.140557 0)
(-0.0523232 -0.13242 0)
(-0.056463 -0.123619 0)
(-0.0604081 -0.114182 0)
(-0.0641292 -0.10415 0)
(-0.0675981 -0.0935693 0)
(-0.0707915 -0.0824891 0)
(-0.0736938 -0.0709668 0)
(-0.0762975 -0.0590657 0)
(-0.0785968 -0.0468511 0)
(-0.0805716 -0.0343963 0)
(-0.0822623 -0.0218006 0)
(-0.0837948 -0.00912674 0)
(-0.00176563 -0.170473 0)
(-0.00547784 -0.177218 0)
(-0.00941978 -0.175657 0)
(-0.0132472 -0.17331 0)
(-0.017109 -0.170227 0)
(-0.0209657 -0.166401 0)
(-0.0248137 -0.161836 0)
(-0.02866 -0.156551 0)
(-0.0324977 -0.150558 0)
(-0.0363111 -0.143873 0)
(-0.0400713 -0.136517 0)
(-0.0437395 -0.128508 0)
(-0.0472772 -0.119866 0)
(-0.050652 -0.110617 0)
(-0.0538407 -0.100805 0)
(-0.0568165 -0.0904675 0)
(-0.059559 -0.0796448 0)
(-0.0620611 -0.0683876 0)
(-0.0643227 -0.0567569 0)
(-0.0663457 -0.044815 0)
(-0.0681264 -0.0326241 0)
(-0.0696914 -0.0202755 0)
(-0.0711468 -0.00784944 0)
(-0.00130736 -0.167277 0)
(-0.00428117 -0.173667 0)
(-0.00761505 -0.17214 0)
(-0.0107322 -0.169804 0)
(-0.0138547 -0.166741 0)
(-0.0169475 -0.162959 0)
(-0.0199237 -0.158404 0)
(-0.0228008 -0.153081 0)
(-0.0256595 -0.147038 0)
(-0.0285695 -0.140324 0)
(-0.0315757 -0.132982 0)
(-0.0346612 -0.125051 0)
(-0.037759 -0.116558 0)
(-0.0407367 -0.107504 0)
(-0.0435007 -0.097897 0)
(-0.046086 -0.0877842 0)
(-0.0484604 -0.0771991 0)
(-0.0506157 -0.066174 0)
(-0.052565 -0.0547649 0)
(-0.0543202 -0.0430321 0)
(-0.0558962 -0.0310251 0)
(-0.0573305 -0.0188506 0)
(-0.0587236 -0.0066026 0)
(-0.000843772 -0.165218 0)
(-0.00328229 -0.17108 0)
(-0.00626536 -0.169609 0)
(-0.00886641 -0.167318 0)
(-0.0114364 -0.164291 0)
(-0.0139087 -0.160542 0)
(-0.0162463 -0.156032 0)
(-0.0184851 -0.150767 0)
(-0.0205669 -0.144723 0)
(-0.022448 -0.137908 0)
(-0.0242029 -0.130421 0)
(-0.0259541 -0.122329 0)
(-0.0278137 -0.113693 0)
(-0.0298683 -0.104567 0)
(-0.0321648 -0.0950054 0)
(-0.0345449 -0.0850392 0)
(-0.0368929 -0.0747135 0)
(-0.0390374 -0.0640316 0)
(-0.040813 -0.0529417 0)
(-0.0423774 -0.0414561 0)