/*--------------------------------*- C++ -*----------------------------------*\
| =========                 |                                                 |
| \\      /  F ield         | OpenFOAM: The Open Source CFD Toolbox           |
|  \\    /   O peration     | Version:  2.4.0                                 |
|   \\  /    A nd           | Web:      www.OpenFOAM.org                      |
|    \\/     M anipulation  |                                                 |
\*---------------------------------------------------------------------------*/
FoamFile
{
    version     2.0;
    format      ascii;
    class       volVectorField;
    location    "0.25";
    object      U.air;
}
// * * * * * * * * * * * * * * * * * * * * * * * * * * * * * * * * * * * * * //

dimensions      [0 1 -1 0 0 0 0];

internalField   nonuniform List<vector> 
2268
(
(0.0194667 -0.00918125 0)
(0.0582307 -0.00922717 0)
(0.0981553 -0.00928828 0)
(0.135725 -0.0095013 0)
(0.18079 -0.00946604 0)
(0.213884 -0.0104323 0)
(0.267228 -0.00875347 0)
(0.296795 -0.0128352 0)
(0.35852 -0.0101756 0)
(0.401309 -0.0093724 0)
(0.432487 -0.0124095 0)
(0.490177 -0.0156244 0)
(0.574047 -0.0142112 0)
(0.62108 -0.0141458 0)
(0.670765 -0.0067672 0)
(0.691929 -0.00677802 0)
(0.715247 -0.00463006 0)
(0.734466 0.00122261 0)
(0.718599 0.0102713 0)
(0.667058 0.0266135 0)
(0.56146 0.0372151 0)
(0.375683 0.0912901 0)
(0.0972502 0.0271404 0)
(0.0194565 -0.0275511 0)
(0.0582158 -0.0277007 0)
(0.0981059 -0.0278657 0)
(0.135648 -0.0286385 0)
(0.180865 -0.0279331 0)
(0.213416 -0.0325835 0)
(0.266683 -0.0241065 0)
(0.299065 -0.0401105 0)
(0.357069 -0.0316797 0)
(0.400066 -0.026371 0)
(0.433036 -0.0359169 0)
(0.495844 -0.0476016 0)
(0.575131 -0.0464518 0)
(0.624166 -0.0382056 0)
(0.661597 -0.0268162 0)
(0.688301 -0.0190232 0)
(0.716922 -0.00938636 0)
(0.752052 -0.00392109 0)
(0.74908 0.0234845 0)
(0.70695 0.0579867 0)
(0.601725 0.0974184 0)
(0.39287 0.142577 0)
(0.119751 0.182098 0)
(0.0194153 -0.0458904 0)
(0.0581119 -0.0461315 0)
(0.0978478 -0.0464105 0)
(0.135438 -0.0476504 0)
(0.180418 -0.0468905 0)
(0.212548 -0.0523879 0)
(0.266337 -0.044124 0)
(0.300174 -0.0634107 0)
(0.353466 -0.0516133 0)
(0.398464 -0.045693 0)
(0.437118 -0.064053 0)
(0.501532 -0.0797882 0)
(0.571028 -0.0746452 0)
(0.614577 -0.0580318 0)
(0.660822 -0.04097 0)
(0.688259 -0.0340686 0)
(0.746502 -0.0333282 0)
(0.77756 -0.0160604 0)
(0.788159 0.042464 0)
(0.752755 0.112552 0)
(0.654979 0.225045 0)
(0.398665 0.271664 0)
(0.168941 0.270534 0)
(0.0193561 -0.0642091 0)
(0.0579622 -0.0645279 0)
(0.0974507 -0.064948 0)
(0.135258 -0.0666454 0)
(0.179346 -0.0655013 0)
(0.212127 -0.073134 0)
(0.265176 -0.0628229 0)
(0.300173 -0.0863905 0)
(0.349496 -0.0735881 0)
(0.39662 -0.0668487 0)
(0.44369 -0.0894396 0)
(0.505787 -0.108167 0)
(0.55579 -0.0994599 0)
(0.603892 -0.0837903 0)
(0.657989 -0.0620132 0)
(0.716605 -0.0622266 0)
(0.783364 -0.050389 0)
(0.826862 -0.0288554 0)
(0.85055 0.0363961 0)
(0.799593 0.119123 0)
(0.71718 0.292612 0)
(0.487472 0.40474 0)
(0.126264 0.432841 0)
(0.0192781 -0.0825487 0)
(0.0577433 -0.0829278 0)
(0.0969397 -0.0835436 0)
(0.134886 -0.0855466 0)
(0.178122 -0.0845146 0)
(0.21104 -0.0928874 0)
(0.264345 -0.0839493 0)
(0.29797 -0.107612 0)
(0.346679 -0.0936473 0)
(0.39316 -0.092927 0)
(0.451469 -0.117625 0)
(0.503491 -0.127068 0)
(0.538751 -0.119371 0)
(0.602732 -0.108548 0)
(0.666237 -0.0937384 0)
(0.757274 -0.0933061 0)
(0.822729 -0.115558 0)
(0.840949 -0.10022 0)
(0.838705 -0.0238781 0)
(0.747746 0.0957427 0)
(0.68265 0.344762 0)
(0.467152 0.512101 0)
(0.202309 0.546073 0)
(0.0191819 -0.100529 0)
(0.0574442 -0.100933 0)
(0.0963202 -0.101726 0)
(0.134316 -0.103935 0)
(0.176497 -0.102719 0)
(0.209899 -0.112555 0)
(0.262924 -0.103722 0)
(0.29366 -0.126014 0)
(0.348579 -0.116526 0)
(0.388676 -0.118671 0)
(0.455469 -0.13934 0)
(0.498032 -0.143818 0)
(0.53888 -0.153646 0)
(0.616368 -0.154322 0)
(0.690612 -0.160979 0)
(0.74944 -0.181971 0)
(0.742808 -0.178746 0)
(0.680231 -0.124649 0)
(0.672148 0.0170994 0)
(0.618845 0.164997 0)
(0.569419 0.384235 0)
(0.440948 0.595878 0)
(0.140989 0.694472 0)
(0.0191062 -0.116779 0)
(0.0571707 -0.117072 0)
(0.0958394 -0.117784 0)
(0.133707 -0.119636 0)
(0.174984 -0.11795 0)
(0.209466 -0.128021 0)
(0.260376 -0.11863 0)
(0.292427 -0.142056 0)
(0.344802 -0.131775 0)
(0.395526 -0.148298 0)
(0.451126 -0.167521 0)
(0.496803 -0.192747 0)
(0.564505 -0.226301 0)
(0.621906 -0.240894 0)
(0.619235 -0.23968 0)
(0.529066 -0.182424 0)
(0.487066 -0.105771 0)
(0.525234 -0.105882 0)
(0.571836 -0.0535916 0)
(0.646814 0.13551 0)
(0.47978 0.372357 0)
(0.389026 0.698925 0)
(0.19984 0.798766 0)
(0.0191927 -0.1357 0)
(0.05735 -0.136075 0)
(0.0962463 -0.137085 0)
(0.133905 -0.139178 0)
(0.174967 -0.13715 0)
(0.211416 -0.149996 0)
(0.258462 -0.141273 0)
(0.294669 -0.166707 0)
(0.337854 -0.173011 0)
(0.403749 -0.188562 0)
(0.43328 -0.221698 0)
(0.492466 -0.260752 0)
(0.530509 -0.317475 0)
(0.496555 -0.265031 0)
(0.437602 -0.160452 0)
(0.45242 -0.179634 0)
(0.53174 -0.150022 0)
(0.666171 -0.0384806 0)
(0.612883 0.117663 0)
(0.705904 0.327525 0)
(0.402579 0.458829 0)
(0.364365 0.698956 0)
(0.144231 0.944013 0)
(-0.934343 0.445937 0)
(-1.40574 0.256999 0)
(-1.95055 0.205594 0)
(-2.20776 0.029871 0)
(-1.66168 -0.0395318 0)
(-1.34639 0.00036282 0)
(-0.86526 -0.0271095 0)
(-0.294674 -0.0526819 0)
(0.148215 -0.0198431 0)
(0.549477 -0.023869 0)
(0.809704 -0.0440055 0)
(0.982345 -0.016157 0)
(0.975704 0.192951 0)
(0.802161 0.199465 0)
(0.631408 0.168335 0)
(0.418187 0.18964 0)
(0.181686 0.158892 0)
(-0.271271 0.0661468 0)
(-0.0262681 0.176343 0)
(-0.968089 0.881623 0)
(-1.5282 0.460888 0)
(-1.81441 0.201465 0)
(-1.67438 -0.0736732 0)
(-1.42914 -0.239566 0)
(-0.994456 -0.287286 0)
(-0.436003 -0.183444 0)
(0.0192317 -0.246698 0)
(0.360817 -0.178768 0)
(0.686576 -0.139938 0)
(0.95319 -0.0967426 0)
(1.13145 -0.0185346 0)
(1.16751 0.220747 0)
(1.08775 0.306448 0)
(0.901654 0.348335 0)
(0.596217 0.40423 0)
(0.348868 0.549907 0)
(-0.100542 0.492589 0)
(0.00903891 0.335013 0)
(-1.00523 1.41966 0)
(-1.24818 0.968853 0)
(-1.32898 0.397412 0)
(-1.30486 -0.0784843 0)
(-1.16007 -0.434138 0)
(-0.834842 -0.57324 0)
(-0.259768 -0.503982 0)
(0.144371 -0.475318 0)
(0.498347 -0.407723 0)
(0.799222 -0.341628 0)
(1.04642 -0.26319 0)
(1.2107 -0.164942 0)
(1.33263 -0.00394506 0)
(1.35285 0.0593524 0)
(1.29971 0.177848 0)
(0.909306 0.293003 0)
(0.49398 0.623025 0)
(0.0771319 0.528119 0)
(0.0692472 0.288372 0)
(-0.655081 1.98432 0)
(-0.24519 1.33935 0)
(-0.758231 0.759849 0)
(-1.30266 0.342542 0)
(-1.06143 -0.276228 0)
(-0.592611 -0.678518 0)
(-0.145837 -0.659004 0)
(0.276489 -0.617768 0)
(0.606112 -0.515125 0)
(0.889713 -0.409454 0)
(1.12661 -0.307032 0)
(1.28305 -0.21145 0)
(1.42359 -0.0588963 0)
(1.43927 0.0551039 0)
(1.40915 0.236451 0)
(1.07604 0.326867 0)
(0.644039 0.858472 0)
(0.216274 0.780188 0)
(0.101214 0.63487 0)
(-0.370804 2.67498 0)
(0.0231887 1.14087 0)
(-0.650689 0.377965 0)
(-0.956136 0.365315 0)
(-0.962413 -0.128181 0)
(-0.640234 -0.690559 0)
(0.00181773 -0.851504 0)
(0.394196 -0.798528 0)
(0.687699 -0.690751 0)
(0.948723 -0.554622 0)
(1.17197 -0.420977 0)
(1.31237 -0.301229 0)
(1.47728 -0.120318 0)
(1.48146 0.0113497 0)
(1.49742 0.221761 0)
(1.28384 0.372801 0)
(0.902512 0.892012 0)
(0.298693 1.00174 0)
(0.0687014 0.893155 0)
(-0.198217 2.61873 0)
(0.192367 0.778559 0)
(-2.23356 0.640718 0)
(-1.16647 -0.0571297 0)
(-1.19014 -0.209452 0)
(-0.546785 -0.589236 0)
(0.0221519 -0.964658 0)
(0.514128 -0.893085 0)
(0.766483 -0.77434 0)
(1.01506 -0.618333 0)
(1.23691 -0.463183 0)
(1.37461 -0.324877 0)
(1.54977 -0.145124 0)
(1.55496 0.049219 0)
(1.60617 0.284488 0)
(1.44619 0.459995 0)
(1.23049 0.792085 0)
(0.652909 1.10383 0)
(0.301476 1.03536 0)
(-0.222339 2.17583 0)
(0.449456 1.13766 0)
(-0.846355 -0.0952702 0)
(-1.79262 0.0862417 0)
(-0.62297 -0.680306 0)
(-0.612467 -0.693463 0)
(0.143187 -1.10467 0)
(0.616706 -1.03924 0)
(0.84273 -0.916649 0)
(1.07376 -0.748233 0)
(1.27545 -0.575588 0)
(1.43525 -0.400783 0)
(1.58698 -0.189653 0)
(1.6181 -0.00213539 0)
(1.67024 0.27153 0)
(1.54586 0.574808 0)
(1.36946 0.911553 0)
(0.774422 1.10504 0)
(0.331561 1.14037 0)
(-0.152666 2.1283 0)
(0.691175 1.37364 0)
(1.06845 0.442748 0)
(-1.1041 -0.585158 0)
(-0.362355 -0.954328 0)
(-0.555839 -0.825239 0)
(0.265618 -1.1462 0)
(0.704744 -1.09815 0)
(0.925319 -0.924763 0)
(1.13696 -0.598431 0)
(1.33341 -0.353578 0)
(1.50716 -0.152956 0)
(1.61743 0.161306 0)
(1.68651 0.566782 0)
(1.79956 0.915756 0)
(1.70653 1.08556 0)
(1.49981 1.35172 0)
(0.968894 1.38576 0)
(0.352536 1.29828 0)
(0.0197087 -0.194868 0)
(0.0587328 -0.197523 0)
(0.098777 -0.202805 0)
(0.136766 -0.210511 0)
(0.17681 -0.216612 0)
(0.216615 -0.237585 0)
(0.248764 -0.242961 0)
(0.3023 -0.262367 0)
(0.317446 -0.28691 0)
(0.366675 -0.289824 0)
(0.375633 -0.295388 0)
(0.382536 -0.308847 0)
(0.393857 -0.244821 0)
(0.403177 -0.214957 0)
(0.467705 -0.217681 0)
(0.579496 -0.161269 0)
(0.664112 -0.124969 0)
(0.696051 -0.0883603 0)
(0.678094 0.0172208 0)
(0.831315 0.296207 0)
(0.535986 0.643456 0)
(0.459849 0.676897 0)
(1.74997 1.05427 0)
(0.0167014 -0.288898 0)
(0.0494903 -0.290617 0)
(0.0823688 -0.293324 0)
(0.11052 -0.295171 0)
(0.140007 -0.299729 0)
(0.169064 -0.302685 0)
(0.181282 -0.296376 0)
(0.218526 -0.281338 0)
(0.240514 -0.228497 0)
(0.273706 -0.201703 0)
(0.322641 -0.223098 0)
(0.3889 -0.254818 0)
(0.453112 -0.273376 0)
(0.526275 -0.264248 0)
(0.619039 -0.24559 0)
(0.702473 -0.238317 0)
(0.760014 -0.200984 0)
(0.817715 -0.116003 0)
(0.8326 0.039001 0)
(0.904434 0.29801 0)
(0.851969 0.919883 0)
(0.645775 0.76692 0)
(0.591045 0.978535 0)
(0.0110578 -0.234777 0)
(0.033007 -0.233706 0)
(0.0584831 -0.228387 0)
(0.0849645 -0.228536 0)
(0.117585 -0.23151 0)
(0.152601 -0.245396 0)
(0.192577 -0.267654 0)
(0.241351 -0.307251 0)
(0.302921 -0.31262 0)
(0.360622 -0.333735 0)
(0.430922 -0.339247 0)
(0.481354 -0.323494 0)
(0.531389 -0.3044 0)
(0.595446 -0.299702 0)
(0.671518 -0.312717 0)
(0.740602 -0.303217 0)
(0.802266 -0.247963 0)
(0.861768 -0.160687 0)
(0.890721 0.0116188 0)
(0.92227 0.272742 0)
(0.921659 0.896721 0)
(0.833727 0.922088 0)
(0.632465 0.979905 0)
(0.0185109 -0.305547 0)
(0.0547714 -0.307821 0)
(0.0931482 -0.306739 0)
(0.132161 -0.309872 0)
(0.171355 -0.308492 0)
(0.213593 -0.310695 0)
(0.253815 -0.308986 0)
(0.298044 -0.319072 0)
(0.339099 -0.303479 0)
(0.377201 -0.321041 0)
(0.431721 -0.334326 0)
(0.473273 -0.3315 0)
(0.526499 -0.342538 0)
(0.593438 -0.378624 0)
(0.67311 -0.390951 0)
(0.735598 -0.373312 0)
(0.804512 -0.310934 0)
(0.859399 -0.206867 0)
(0.850896 -0.00341534 0)
(0.85521 0.274043 0)
(0.87191 0.810926 0)
(0.910017 1.02381 0)
(0.836223 1.02753 0)
(0.0185235 -0.281721 0)
(0.0552991 -0.283794 0)
(0.0924493 -0.285361 0)
(0.129223 -0.289927 0)
(0.1651 -0.296202 0)
(0.203291 -0.305024 0)
(0.237568 -0.314304 0)
(0.2731 -0.333731 0)
(0.308518 -0.335726 0)
(0.342205 -0.380475 0)
(0.395597 -0.393223 0)
(0.435093 -0.407601 0)
(0.506773 -0.445164 0)
(0.588879 -0.472018 0)
(0.671768 -0.467846 0)
(0.727521 -0.432203 0)
(0.770717 -0.350876 0)
(0.759052 -0.220414 0)
(0.694289 0.0367646 0)
(0.645154 0.302059 0)
(0.648059 0.697569 0)
(0.855193 1.02417 0)
(0.93288 1.02709 0)
(0.0165799 -0.332326 0)
(0.0503089 -0.33525 0)
(0.083096 -0.339655 0)
(0.117398 -0.344816 0)
(0.150527 -0.352868 0)
(0.183814 -0.361466 0)
(0.216575 -0.370794 0)
(0.252126 -0.389503 0)
(0.287806 -0.395618 0)
(0.331292 -0.434869 0)
(0.382771 -0.439438 0)
(0.42735 -0.473237 0)
(0.51353 -0.512788 0)
(0.587476 -0.536373 0)
(0.635995 -0.520485 0)
(0.65319 -0.463248 0)
(0.643441 -0.348648 0)
(0.523694 -0.146895 0)
(0.430685 0.118371 0)
(0.381211 0.310868 0)
(0.463379 0.626354 0)
(0.611863 0.733288 0)
(0.897308 0.909981 0)
(0.0164952 -0.373108 0)
(0.0493138 -0.3755 0)
(0.0826247 -0.377907 0)
(0.114989 -0.381557 0)
(0.148823 -0.386625 0)
(0.180898 -0.393517 0)
(0.214037 -0.403664 0)
(0.247376 -0.416516 0)
(0.279945 -0.432905 0)
(0.307396 -0.470438 0)
(0.357797 -0.481939 0)
(0.39561 -0.547411 0)
(0.464789 -0.595342 0)
(0.497591 -0.584269 0)
(0.496095 -0.547827 0)
(0.450477 -0.456069 0)
(0.321159 -0.232428 0)
(0.201469 -0.0181994 0)
(0.196665 0.169622 0)
(0.210762 0.283178 0)
(0.340008 0.495654 0)
(0.474826 0.531728 0)
(0.751192 0.597635 0)
(0.0152053 -0.394399 0)
(0.0457806 -0.397124 0)
(0.0766147 -0.399362 0)
(0.107642 -0.402761 0)
(0.137982 -0.405938 0)
(0.168639 -0.408393 0)
(0.197102 -0.405991 0)
(0.219793 -0.392585 0)
(0.245935 -0.369499 0)
(0.26143 -0.377454 0)
(0.29985 -0.412234 0)
(0.331061 -0.51586 0)
(0.364625 -0.596741 0)
(0.339271 -0.595407 0)
(0.266857 -0.495609 0)
(0.109814 -0.282789 0)
(0.0549073 -0.0999525 0)
(0.0341168 0.00159646 0)
(0.109532 0.121279 0)
(0.172238 0.196981 0)
(0.317679 0.329144 0)
(0.474446 0.325545 0)
(0.687121 0.37966 0)
(0.0152263 -0.298906 0)
(0.045621 -0.299264 0)
(0.0754563 -0.298023 0)
(0.106141 -0.295675 0)
(0.137377 -0.290914 0)
(0.168944 -0.282273 0)
(0.201763 -0.262868 0)
(0.221936 -0.233724 0)
(0.239414 -0.199376 0)
(0.23636 -0.201926 0)
(0.289217 -0.240561 0)
(0.279499 -0.240994 0)
(0.200909 -0.372552 0)
(0.0665975 -0.375037 0)
(-0.0417507 -0.240836 0)
(-0.0611479 -0.191097 0)
(-0.0393282 -0.11616 0)
(0.0293293 -0.0589803 0)
(0.121838 0.0287313 0)
(0.215904 0.0855363 0)
(0.368809 0.160939 0)
(0.499585 0.161977 0)
(0.656352 0.200414 0)
(0.015633 -0.132588 0)
(0.0474592 -0.134022 0)
(0.0830009 -0.136134 0)
(0.125062 -0.140543 0)
(0.179512 -0.148137 0)
(0.236322 -0.144549 0)
(0.264654 -0.129359 0)
(0.2539 -0.113036 0)
(0.219683 -0.0975053 0)
(0.163618 -0.0845016 0)
(0.0637247 -0.0465429 0)
(-0.139356 -0.0361851 0)
(-0.148975 -0.0978043 0)
(-0.201006 -0.0719391 0)
(-0.182109 -0.0500177 0)
(-0.120039 -0.086783 0)
(-0.0212185 -0.064768 0)
(0.0841023 -0.029784 0)
(0.170193 0.044071 0)
(0.289934 0.094752 0)
(0.401773 0.179867 0)
(0.496467 0.215153 0)
(0.658086 0.284798 0)
(0.0132815 -0.165778 0)
(0.0388469 -0.166492 0)
(0.062901 -0.164286 0)
(0.0875415 -0.163879 0)
(0.13007 -0.169143 0)
(0.196592 -0.221522 0)
(0.244292 -0.304838 0)
(0.253281 -0.358519 0)
(0.221273 -0.367859 0)
(0.11643 -0.319223 0)
(-0.320678 -0.115804 0)
(-0.492553 -0.184761 0)
(-0.290566 -0.226553 0)
(-0.239615 -0.138503 0)
(-0.184717 -0.0695504 0)
(-0.1067 -0.0243011 0)
(-0.0134511 0.0353611 0)
(0.104415 0.10952 0)
(0.208421 0.183166 0)
(0.371362 0.269737 0)
(0.461988 0.361364 0)
(0.665541 0.408205 0)
(0.762642 0.360612 0)
(0.0161777 -0.421502 0)
(0.0450746 -0.413805 0)
(0.0753577 -0.392505 0)
(0.101773 -0.341364 0)
(0.113052 -0.234398 0)
(0.0813565 -0.0146014 0)
(0.0246987 0.281249 0)
(-0.0583172 0.49436 0)
(-0.071631 0.696685 0)
(-0.411422 1.11974 0)
(-0.789469 1.10435 0)
(-0.47666 0.0178622 0)
(-0.315884 -0.395309 0)
(-0.181247 -0.435664 0)
(-0.0524655 -0.401974 0)
(-0.00279905 -0.311885 0)
(0.0829027 -0.222179 0)
(0.178588 -0.139499 0)
(0.274383 -0.117522 0)
(0.377087 -0.0938224 0)
(0.440398 -0.085037 0)
(0.469861 -0.153867 0)
(0.484311 -0.0616279 0)
(-0.0516723 0.238476 0)
(-0.158284 0.219954 0)
(-0.269322 0.174392 0)
(-0.384848 0.0743592 0)
(-0.49325 -0.107279 0)
(-0.582195 -0.37439 0)
(-0.614845 -0.707908 0)
(-0.584229 -0.892581 0)
(-0.470049 -0.852455 0)
(-0.225035 -0.567764 0)
(0.28287 -0.890587 0)
(0.613405 -0.926642 0)
(0.47152 -0.550069 0)
(0.413701 0.0111324 0)
(0.317356 0.254341 0)
(0.200077 0.247399 0)
(0.127393 0.191063 0)
(0.0747146 0.193859 0)
(0.0621258 0.287179 0)
(-0.00626496 0.485411 0)
(0.0842947 0.94886 0)
(-0.403812 0.766927 0)
(-0.541275 -0.0561602 0)
(-0.031826 -0.832072 0)
(-0.0860462 -0.827865 0)
(-0.116947 -0.812863 0)
(-0.130606 -0.78672 0)
(-0.126586 -0.734898 0)
(-0.0984179 -0.654965 0)
(-0.0751741 -0.539986 0)
(-0.0865041 -0.397175 0)
(-0.103467 -0.227409 0)
(-0.0403171 -0.122118 0)
(0.104595 -0.313863 0)
(0.0451438 -0.755281 0)
(-0.0443825 -0.864645 0)
(-0.119103 -0.85398 0)
(-0.0795025 -0.757676 0)
(-0.0831842 -0.625435 0)
(-0.163441 -0.523142 0)
(-0.273264 -0.452573 0)
(-0.362962 -0.539459 0)
(-0.345234 -0.754158 0)
(-0.238579 -0.720123 0)
(0.0776403 -0.422039 0)
(-0.0498027 -0.387842 0)
(-0.0128316 -0.107424 0)
(-0.0330217 -0.128824 0)
(-0.0483217 -0.154706 0)
(-0.0653887 -0.190214 0)
(-0.0820372 -0.234852 0)
(-0.0940582 -0.287805 0)
(-0.109187 -0.351698 0)
(-0.129238 -0.397716 0)
(-0.129292 -0.414187 0)
(-0.0746476 -0.40538 0)
(0.0217034 -0.519226 0)
(-0.0808417 -0.573211 0)
(-0.176522 -0.533663 0)
(-0.252728 -0.415632 0)
(-0.271067 -0.320778 0)
(-0.209818 -0.279621 0)
(-0.114091 -0.248453 0)
(-0.00785325 -0.229673 0)
(0.0952127 -0.231473 0)
(0.0363523 -0.161614 0)
(-0.16906 0.181385 0)
(-0.363989 0.36875 0)
(-0.547316 0.224781 0)
(-0.00465574 -0.420306 0)
(-0.0127688 -0.439469 0)
(-0.0208409 -0.452792 0)
(-0.0310276 -0.468614 0)
(-0.041156 -0.483592 0)
(-0.0535235 -0.497126 0)
(-0.0704479 -0.507746 0)
(-0.0918336 -0.506815 0)
(-0.10381 -0.493459 0)
(-0.0762722 -0.489808 0)
(-0.0646626 -0.517575 0)
(-0.144271 -0.517093 0)
(-0.198335 -0.52438 0)
(-0.231893 -0.460968 0)
(-0.221984 -0.425986 0)
(-0.186978 -0.396345 0)
(-0.164908 -0.35104 0)
(-0.170857 -0.27732 0)
(-0.253106 -0.183612 0)
(-0.471648 -0.116969 0)
(-0.519737 -0.0635837 0)
(-0.454035 0.0182053 0)
(-0.446725 0.0150515 0)
(0.00154347 -0.350707 0)
(0.00373411 -0.366884 0)
(0.00348435 -0.374408 0)
(-0.00276836 -0.385304 0)
(-0.0136279 -0.3982 0)
(-0.0306628 -0.410237 0)
(-0.0538976 -0.418435 0)
(-0.0837793 -0.421047 0)
(-0.112049 -0.418698 0)
(-0.132424 -0.41744 0)
(-0.172468 -0.451529 0)
(-0.211988 -0.479391 0)
(-0.250779 -0.50561 0)
(-0.270709 -0.507141 0)
(-0.283315 -0.517754 0)
(-0.302355 -0.500741 0)
(-0.348345 -0.432724 0)
(-0.426363 -0.305198 0)
(-0.477697 -0.153046 0)
(-0.506852 -0.0296596 0)
(-0.510724 0.0736584 0)
(-0.496707 0.108321 0)
(-0.477937 0.107894 0)
(-0.00102742 -0.318714 0)
(-0.00407774 -0.337752 0)
(-0.00779751 -0.347739 0)
(-0.015483 -0.359659 0)
(-0.0289677 -0.371496 0)
(-0.0487927 -0.382578 0)
(-0.0742483 -0.391696 0)
(-0.104036 -0.397551 0)
(-0.134149 -0.400786 0)
(-0.157872 -0.40762 0)
(-0.189338 -0.423728 0)
(-0.226222 -0.446302 0)
(-0.26505 -0.45225 0)
(-0.307559 -0.436791 0)
(-0.362474 -0.409988 0)
(-0.423541 -0.361664 0)
(-0.483733 -0.273238 0)
(-0.533612 -0.138866 0)
(-0.551544 -0.0584526 0)
(-0.55144 -0.033483 0)
(-0.515856 -0.00886635 0)
(-0.473215 0.035336 0)
(-0.445273 0.0652821 0)
(-0.002358 -0.332674 0)
(-0.00870593 -0.347742 0)
(-0.0180097 -0.351928 0)
(-0.0311686 -0.356935 0)
(-0.0469089 -0.362222 0)
(-0.0659833 -0.367553 0)
(-0.0878161 -0.372965 0)
(-0.110719 -0.375719 0)
(-0.131605 -0.376467 0)
(-0.155172 -0.379903 0)
(-0.183714 -0.390066 0)
(-0.226584 -0.400366 0)
(-0.276069 -0.393477 0)
(-0.328355 -0.378479 0)
(-0.390123 -0.36285 0)
(-0.45089 -0.33713 0)
(-0.503379 -0.275815 0)
(-0.524434 -0.179592 0)
(-0.510582 -0.111103 0)
(-0.487336 -0.0781 0)
(-0.460044 -0.0399116 0)
(-0.429771 0.00531949 0)
(-0.400221 0.0337154 0)
(-0.0046206 -0.323153 0)
(-0.0152153 -0.336881 0)
(-0.0267771 -0.338955 0)
(-0.0400579 -0.342753 0)
(-0.0550539 -0.346338 0)
(-0.0711428 -0.349 0)
(-0.0888145 -0.350209 0)
(-0.10701 -0.350989 0)
(-0.125333 -0.352546 0)
(-0.146819 -0.357016 0)
(-0.178414 -0.36124 0)
(-0.218447 -0.3567 0)
(-0.255749 -0.3466 0)
(-0.298577 -0.33087 0)
(-0.344047 -0.303829 0)
(-0.395978 -0.273301 0)
(-0.436944 -0.229829 0)
(-0.444539 -0.165612 0)
(-0.432242 -0.111145 0)
(-0.419017 -0.0882576 0)
(-0.406995 -0.062836 0)
(-0.383377 -0.0215586 0)
(-0.367392 0.00697703 0)
(-0.00508537 -0.313002 0)
(-0.016514 -0.325968 0)
(-0.0285012 -0.327185 0)
(-0.0417565 -0.329537 0)
(-0.0561895 -0.331719 0)
(-0.0717232 -0.333852 0)
(-0.0879954 -0.335691 0)
(-0.104794 -0.336462 0)
(-0.122665 -0.335953 0)
(-0.144871 -0.334166 0)
(-0.171731 -0.328999 0)
(-0.197174 -0.322267 0)
(-0.227379 -0.311974 0)
(-0.257041 -0.292359 0)
(-0.285623 -0.271175 0)
(-0.3138 -0.245719 0)
(-0.339854 -0.21735 0)
(-0.363969 -0.182406 0)
(-0.372184 -0.135299 0)
(-0.362964 -0.0884085 0)
(-0.360724 -0.0662385 0)
(-0.353194 -0.0377421 0)
(-0.347222 0.00680886 0)
(-0.00579014 -0.2999 0)
(-0.0185324 -0.31206 0)
(-0.0315088 -0.311984 0)
(-0.0450716 -0.312487 0)
(-0.0593597 -0.313193 0)
(-0.0746358 -0.313492 0)
(-0.0908728 -0.31314 0)
(-0.108048 -0.311932 0)
(-0.126904 -0.309923 0)
(-0.147504 -0.306532 0)
(-0.16842 -0.300826 0)
(-0.192403 -0.291445 0)
(-0.219107 -0.276908 0)
(-0.244491 -0.263659 0)
(-0.26925 -0.247257 0)
(-0.28861 -0.22053 0)
(-0.305247 -0.18577 0)
(-0.321956 -0.149335 0)
(-0.329179 -0.120649 0)
(-0.336241 -0.101444 0)
(-0.332519 -0.0737876 0)
(-0.329102 -0.0354175 0)
(-0.331724 0.00562206 0)
(-0.00557191 -0.291442 0)
(-0.0176097 -0.30285 0)
(-0.0300966 -0.302798 0)
(-0.0430889 -0.303245 0)
(-0.0568085 -0.303172 0)
(-0.0713623 -0.302628 0)
(-0.0868433 -0.301419 0)
(-0.103539 -0.29938 0)
(-0.122044 -0.296404 0)
(-0.142669 -0.291945 0)
(-0.164813 -0.284025 0)
(-0.185702 -0.27245 0)
(-0.204394 -0.262294 0)
(-0.2255 -0.246399 0)
(-0.247469 -0.22494 0)
(-0.267988 -0.203777 0)
(-0.283791 -0.181179 0)
(-0.292442 -0.154763 0)
(-0.30009 -0.122031 0)
(-0.304992 -0.0882044 0)
(-0.308981 -0.0625427 0)
(-0.312951 -0.0380355 0)
(-0.307162 -0.00298686 0)
(-0.00558867 -0.276681 0)
(-0.0176491 -0.28734 0)
(-0.0299384 -0.28639 0)
(-0.042826 -0.285613 0)
(-0.0564277 -0.284493 0)
(-0.070918 -0.28275 0)
(-0.0863654 -0.280233 0)
(-0.102897 -0.276849 0)
(-0.120401 -0.272333 0)
(-0.138401 -0.266184 0)
(-0.15593 -0.259229 0)
(-0.173095 -0.251236 0)
(-0.191384 -0.237612 0)
(-0.209026 -0.221974 0)
(-0.224029 -0.204753 0)
(-0.239583 -0.183269 0)
(-0.256816 -0.156969 0)
(-0.272853 -0.128852 0)
(-0.280057 -0.105957 0)
(-0.281317 -0.0903504 0)
(-0.28189 -0.0705378 0)
(-0.285728 -0.036964 0)
(-0.285067 -0.00750211 0)
(-0.00562564 -0.268657 0)
(-0.0176848 -0.278923 0)
(-0.029829 -0.277938 0)
(-0.0422587 -0.277059 0)
(-0.0550069 -0.275584 0)
(-0.0680945 -0.273455 0)
(-0.0815977 -0.270561 0)
(-0.0956341 -0.266799 0)
(-0.110438 -0.261978 0)
(-0.126009 -0.25562 0)
(-0.142585 -0.246817 0)
(-0.160227 -0.2349 0)
(-0.177926 -0.222361 0)
(-0.195261 -0.208092 0)
(-0.212769 -0.191323 0)
(-0.226573 -0.173157 0)
(-0.235771 -0.156561 0)
(-0.241477 -0.138872 0)
(-0.248295 -0.1143 0)
(-0.253083 -0.0837692 0)
(-0.261299 -0.0567366 0)
(-0.263891 -0.0370624 0)
(-0.260037 -0.0151542 0)
(-0.00542686 -0.253354 0)
(-0.0170723 -0.262957 0)
(-0.028788 -0.261609 0)
(-0.0408032 -0.260171 0)
(-0.0531611 -0.258107 0)
(-0.0659255 -0.255331 0)
(-0.0791106 -0.251718 0)
(-0.0927399 -0.247115 0)
(-0.106755 -0.241285 0)
(-0.12105 -0.233997 0)
(-0.135342 -0.225472 0)
(-0.149369 -0.216642 0)
(-0.162853 -0.205529 0)
(-0.175635 -0.191619 0)
(-0.18697 -0.175704 0)
(-0.198666 -0.158404 0)
(-0.210697 -0.137342 0)
(-0.223264 -0.114841 0)
(-0.232039 -0.0952076 0)
(-0.236254 -0.0797947 0)
(-0.237181 -0.0609757 0)
(-0.23921 -0.037567 0)
(-0.239726 -0.0158076 0)
(-0.00518579 -0.246173 0)
(-0.0161499 -0.255634 0)
(-0.027201 -0.25428 0)
(-0.0384523 -0.252788 0)
(-0.0499896 -0.250602 0)
(-0.0618815 -0.247671 0)
(-0.0741934 -0.243884 0)
(-0.0869337 -0.239114 0)
(-0.0999903 -0.233198 0)
(-0.113091 -0.225895 0)
(-0.126028 -0.216844 0)
(-0.138974 -0.205825 0)
(-0.152051 -0.193542 0)
(-0.164907 -0.180553 0)
(-0.177236 -0.166323 0)
(-0.187948 -0.150448 0)
(-0.196648 -0.134329 0)
(-0.20276 -0.117025 0)
(-0.207804 -0.0973233 0)
(-0.212861 -0.075682 0)
(-0.217427 -0.0553919 0)
(-0.220031 -0.0366708 0)
(-0.22006 -0.0175022 0)
(-0.00490909 -0.232727 0)
(-0.015429 -0.241496 0)
(-0.0259407 -0.239885 0)
(-0.0366236 -0.237937 0)
(-0.0474741 -0.23525 0)
(-0.0585032 -0.231785 0)
(-0.0697098 -0.227481 0)
(-0.0810851 -0.222259 0)
(-0.0926299 -0.216045 0)
(-0.104366 -0.208818 0)
(-0.116199 -0.200604 0)
(-0.127819 -0.191356 0)
(-0.138902 -0.180624 0)
(-0.14938 -0.168021 0)
(-0.159244 -0.153986 0)
(-0.168523 -0.138984 0)
(-0.177075 -0.122594 0)
(-0.184923 -0.105477 0)
(-0.191316 -0.0884111 0)
(-0.195615 -0.0715478 0)
(-0.19839 -0.0539393 0)
(-0.200884 -0.0356626 0)
(-0.202014 -0.0174569 0)
(-0.00465353 -0.224953 0)
(-0.0144646 -0.233632 0)
(-0.0242946 -0.232069 0)
(-0.0342371 -0.23016 0)
(-0.0443212 -0.227505 0)
(-0.0545685 -0.224059 0)
(-0.0649818 -0.219737 0)
(-0.0755304 -0.21445 0)
(-0.0861397 -0.208093 0)
(-0.0967034 -0.200571 0)
(-0.107146 -0.191817 0)
(-0.117453 -0.181838 0)
(-0.127582 -0.170803 0)
(-0.137311 -0.158886 0)
(-0.146386 -0.145943 0)
(-0.154646 -0.131886 0)
(-0.161953 -0.117006 0)
(-0.168191 -0.101282 0)
(-0.173469 -0.0847461 0)
(-0.177714 -0.0677081 0)
(-0.180912 -0.0508209 0)
(-0.183478 -0.0340885 0)
(-0.184879 -0.0171068 0)
(-0.00430394 -0.214508 0)
(-0.0134428 -0.222731 0)
(-0.0225677 -0.221066 0)
(-0.0317752 -0.218945 0)
(-0.0410756 -0.216047 0)
(-0.0504739 -0.212353 0)
(-0.0599632 -0.207825 0)
(-0.0695221 -0.20242 0)
(-0.0791164 -0.196108 0)
(-0.0886932 -0.188857 0)
(-0.0981661 -0.180635 0)
(-0.10741 -0.171397 0)
(-0.116302 -0.161066 0)
(-0.124778 -0.149602 0)
(-0.13277 -0.137134 0)
(-0.140148 -0.123799 0)
(-0.146803 -0.109655 0)
(-0.152668 -0.0948879 0)
(-0.157629 -0.0796473 0)
(-0.161533 -0.0640497 0)
(-0.164455 -0.0482494 0)
(-0.166928 -0.0323724 0)
(-0.168592 -0.0163211 0)
(-0.00399597 -0.206604 0)
(-0.0124078 -0.214642 0)
(-0.0208113 -0.212993 0)
(-0.0292671 -0.210845 0)
(-0.0377859 -0.207921 0)
(-0.0463641 -0.204199 0)
(-0.0549903 -0.199639 0)
(-0.0636386 -0.1942 0)
(-0.0722696 -0.187843 0)
(-0.080833 -0.180539 0)
(-0.089271 -0.172274 0)
(-0.0975206 -0.163054 0)
(-0.105502 -0.152919 0)
(-0.113108 -0.141911 0)
(-0.120232 -0.130047 0)
(-0.126793 -0.117371 0)
(-0.132711 -0.103985 0)
(-0.137932 -0.0899814 0)
(-0.142423 -0.0754695 0)
(-0.146092 -0.0605963 0)
(-0.14892 -0.0455834 0)
(-0.151286 -0.0305369 0)
(-0.15305 -0.0153149 0)
(-0.00364367 -0.198451 0)
(-0.0113038 -0.206207 0)
(-0.0189632 -0.204547 0)
(-0.0266491 -0.202327 0)
(-0.0343794 -0.199327 0)
(-0.0421456 -0.195538 0)
(-0.0499351 -0.190938 0)
(-0.0577246 -0.185508 0)
(-0.0654798 -0.179231 0)
(-0.0731551 -0.172092 0)
(-0.0806941 -0.16408 0)
(-0.088031 -0.155193 0)
(-0.0950972 -0.145436 0)
(-0.101827 -0.134833 0)
(-0.10815 -0.123439 0)
(-0.113994 -0.111323 0)
(-0.119294 -0.0985626 0)
(-0.124002 -0.0852541 0)
(-0.128083 -0.0714924 0)
(-0.131475 -0.0573799 0)
(-0.134144 -0.0430681 0)
(-0.136377 -0.0286884 0)
(-0.138167 -0.014165 0)
(-0.00330017 -0.191451 0)
(-0.0101913 -0.199009 0)
(-0.0171 -0.197366 0)
(-0.0240142 -0.195116 0)
(-0.0309612 -0.192091 0)
(-0.0379258 -0.188283 0)
(-0.0448953 -0.183678 0)
(-0.0518476 -0.178264 0)
(-0.0587519 -0.172029 0)
(-0.0655699 -0.164969 0)
(-0.0722557 -0.157085 0)
(-0.0787578 -0.148387 0)
(-0.0850193 -0.138898 0)
(-0.0909792 -0.128647 0)
(-0.0965783 -0.117677 0)
(-0.101762 -0.106043 0)
(-0.106479 -0.0938133 0)
(-0.110695 -0.0810703 0)
(-0.114385 -0.0678995 0)
(-0.117506 -0.0543921 0)
(-0.120016 -0.0406725 0)
(-0.12211 -0.0268653 0)
(-0.123868 -0.0129376 0)
(-0.00294188 -0.185011 0)
(-0.00904884 -0.192366 0)
(-0.0152026 -0.190742 0)
(-0.0213421 -0.188462 0)
(-0.0275116 -0.185414 0)
(-0.0336903 -0.181595 0)
(-0.0398665 -0.176997 0)
(-0.0460199 -0.171619 0)
(-0.0521223 -0.165458 0)
(-0.058139 -0.158516 0)
(-0.0640299 -0.150799 0)
(-0.0697504 -0.142318 0)
(-0.0752539 -0.133094 0)
(-0.0804937 -0.123158 0)
(-0.085423 -0.112552 0)
(-0.0899972 -0.101329 0)
(-0.0941778 -0.089553 0)
(-0.0979347 -0.0772951 0)
(-0.10125 -0.0646319 0)
(-0.104098 -0.0516417 0)
(-0.106436 -0.0384252 0)
(-0.108391 -0.0251012 0)
(-0.110086 -0.0116763 0)
(-0.00257435 -0.179401 0)
(-0.00788644 -0.186575 0)
(-0.0132863 -0.184973 0)
(-0.0186516 -0.182669 0)
(-0.0240499 -0.179605 0)
(-0.0294534 -0.175779 0)
(-0.0348532 -0.171191 0)
(-0.0402323 -0.165843 0)
(-0.0455649 -0.159744 0)
(-0.0508197 -0.152899 0)
(-0.0559612 -0.145319 0)
(-0.0609512 -0.137019 0)
(-0.0657508 -0.12802 0)
(-0.0703217 -0.118354 0)
(-0.0746268 -0.108059 0)
(-0.0786316 -0.0971856 0)
(-0.0823056 -0.0857895 0)
(-0.0856263 -0.0739345 0)
(-0.088581 -0.0616903 0)
(-0.0911549 -0.0491275 0)
(-0.0933154 -0.036331 0)
(-0.095136 -0.0234092 0)
(-0.0967548 -0.0104006 0)
(-0.00218531 -0.174546 0)
(-0.00669475 -0.181529 0)
(-0.0113502 -0.179946 0)
(-0.0159425 -0.177616 0)
(-0.0205729 -0.174538 0)
(-0.0252066 -0.170706 0)
(-0.0298397 -0.166123 0)
(-0.0344631 -0.160804 0)
(-0.0390545 -0.154763 0)
(-0.0435845 -0.14801 0)
(-0.0480192 -0.140557 0)
(-0.0523232 -0.13242 0)
(-0.056463 -0.123619 0)
(-0.060408 -0.114182 0)
(-0.0641292 -0.10415 0)
(-0.0675981 -0.0935693 0)
(-0.0707915 -0.0824891 0)
(-0.0736938 -0.0709668 0)
(-0.0762975 -0.0590657 0)
(-0.0785968 -0.0468511 0)
(-0.0805715 -0.0343963 0)
(-0.0822623 -0.0218006 0)
(-0.0837948 -0.00912674 0)
(-0.00176563 -0.170473 0)
(-0.00547784 -0.177218 0)
(-0.00941978 -0.175657 0)
(-0.0132472 -0.17331 0)
(-0.017109 -0.170227 0)
(-0.0209657 -0.166401 0)
(-0.0248137 -0.161836 0)
(-0.02866 -0.156551 0)
(-0.0324977 -0.150558 0)
(-0.0363111 -0.143873 0)
(-0.0400713 -0.136517 0)
(-0.0437395 -0.128508 0)
(-0.0472772 -0.119866 0)
(-0.050652 -0.110617 0)
(-0.0538407 -0.100805 0)
(-0.0568165 -0.0904675 0)
(-0.059559 -0.0796447 0)
(-0.0620611 -0.0683876 0)
(-0.0643227 -0.0567569 0)
(-0.0663457 -0.044815 0)
(-0.0681264 -0.0326241 0)
(-0.0696914 -0.0202755 0)
(-0.0711468 -0.00784944 0)
(-0.00130736 -0.167277 0)
(-0.00428117 -0.173667 0)
(-0.00761505 -0.17214 0)
(-0.0107322 -0.169804 0)
(-0.0138547 -0.166741 0)
(-0.0169475 -0.162959 0)
(-0.0199237 -0.158404 0)
(-0.0228008 -0.153081 0)
(-0.0256595 -0.147038 0)
(-0.0285695 -0.140324 0)
(-0.0315757 -0.132982 0)
(-0.0346612 -0.125051 0)
(-0.0377589 -0.116558 0)
(-0.0407367 -0.107504 0)
(-0.0435007 -0.097897 0)
(-0.046086 -0.0877842 0)
(-0.0484604 -0.0771992 0)
(-0.0506157 -0.066174 0)
(-0.052565 -0.0547649 0)
(-0.0543202 -0.0430321 0)
(-0.0558962 -0.0310251 0)
(-0.0573305 -0.0188506 0)
(-0.0587236 -0.0066026 0)
(-0.000843772 -0.165218 0)
(-0.00328229 -0.17108 0)
(-0.00626536 -0.169609 0)
(-0.00886641 -0.167318 0)
(-0.0114364 -0.164291 0)
(-0.0139087 -0.160542 0)
(-0.0162463 -0.156032 0)
(-0.0184851 -0.150767 0)
(-0.0205669 -0.144723 0)
(-0.022448 -0.137908 0)
(-0.0242029 -0.130421 0)
(-0.0259541 -0.122329 0)
(-0.0278137 -0.113693 0)
(-0.0298683 -0.104567 0)
(-0.0321648 -0.0950054 0)
(-0.0345449 -0.0850393 0)
(-0.0368929 -0.0747135 0)
(-0.0390374 -0.0640317 0)
(-0.040813 -0.0529417 0)