/*--------------------------------*- C++ -*----------------------------------*\
| =========                 |                                                 |
| \\      /  F ield         | OpenFOAM: The Open Source CFD Toolbox           |
|  \\    /   O peration     | Version:  2.4.0                                 |
|   \\  /    A nd           | Web:      www.OpenFOAM.org                      |
|    \\/     M anipulation  |                                                 |
\*---------------------------------------------------------------------------*/
FoamFile
{
    version     2.0;
    format      ascii;
    class       volVectorField;
    location    "0.25";
    object      U.mercury;
}
// * * * * * * * * * * * * * * * * * * * * * * * * * * * * * * * * * * * * * //

dimensions      [0 1 -1 0 0 0 0];

internalField   nonuniform List<vector> 
2268
(
(0.0194666 -0.00918164 0)
(0.0582304 -0.00922756 0)
(0.0981547 -0.00928869 0)
(0.135724 -0.00950172 0)
(0.180789 -0.0094665 0)
(0.213883 -0.0104327 0)
(0.267227 -0.00875391 0)
(0.296794 -0.0128357 0)
(0.358519 -0.010176 0)
(0.401307 -0.00937283 0)
(0.432486 -0.0124099 0)
(0.490176 -0.0156248 0)
(0.574046 -0.0142116 0)
(0.621078 -0.0141461 0)
(0.670763 -0.00676747 0)
(0.691926 -0.00677845 0)
(0.715245 -0.00463066 0)
(0.734465 0.00122183 0)
(0.718598 0.0102702 0)
(0.667057 0.026612 0)
(0.56146 0.0372136 0)
(0.375686 0.0912855 0)
(0.0972555 0.0271215 0)
(0.0194564 -0.0275525 0)
(0.0582155 -0.027702 0)
(0.0981053 -0.0278672 0)
(0.135647 -0.02864 0)
(0.180864 -0.0279346 0)
(0.213415 -0.032585 0)
(0.266682 -0.024108 0)
(0.299064 -0.040112 0)
(0.357068 -0.0316811 0)
(0.400065 -0.0263724 0)
(0.433035 -0.0359183 0)
(0.495842 -0.047603 0)
(0.575129 -0.0464531 0)
(0.624164 -0.0382068 0)
(0.661595 -0.0268174 0)
(0.688298 -0.0190247 0)
(0.71692 -0.00938855 0)
(0.75205 -0.00392418 0)
(0.749078 0.0234804 0)
(0.706948 0.0579816 0)
(0.601725 0.097413 0)
(0.392874 0.142567 0)
(0.119758 0.182064 0)
(0.0194152 -0.0458927 0)
(0.0581116 -0.0461338 0)
(0.0978471 -0.0464129 0)
(0.135437 -0.0476529 0)
(0.180417 -0.046893 0)
(0.212547 -0.0523905 0)
(0.266336 -0.0441266 0)
(0.300173 -0.0634132 0)
(0.353464 -0.0516156 0)
(0.398463 -0.0456953 0)
(0.437116 -0.0640554 0)
(0.50153 -0.0797905 0)
(0.571026 -0.0746473 0)
(0.614575 -0.0580338 0)
(0.660819 -0.0409721 0)
(0.688257 -0.0340714 0)
(0.7465 -0.0333322 0)
(0.777557 -0.0160708 0)
(0.788158 0.0424514 0)
(0.752755 0.112539 0)
(0.65498 0.225034 0)
(0.39867 0.271647 0)
(0.168953 0.27048 0)
(0.019356 -0.0642121 0)
(0.0579618 -0.064531 0)
(0.09745 -0.0649512 0)
(0.135257 -0.0666486 0)
(0.179345 -0.0655046 0)
(0.212126 -0.0731374 0)
(0.265175 -0.0628262 0)
(0.300172 -0.0863937 0)
(0.349495 -0.0735912 0)
(0.396618 -0.0668518 0)
(0.443688 -0.0894428 0)
(0.505785 -0.10817 0)
(0.555788 -0.0994629 0)
(0.60389 -0.0837933 0)
(0.657987 -0.0620173 0)
(0.716599 -0.06226 0)
(0.783308 -0.0511006 0)
(0.826948 -0.0322312 0)
(0.851026 0.033179 0)
(0.80014 0.117076 0)
(0.717308 0.29231 0)
(0.487484 0.404703 0)
(0.126279 0.432765 0)
(0.019278 -0.0825523 0)
(0.0577429 -0.0829314 0)
(0.0969389 -0.0835473 0)
(0.134885 -0.0855504 0)
(0.17812 -0.0845186 0)
(0.211038 -0.0928914 0)
(0.264344 -0.0839533 0)
(0.297969 -0.107616 0)
(0.346678 -0.0936511 0)
(0.393159 -0.0929307 0)
(0.451468 -0.117628 0)
(0.503489 -0.127072 0)
(0.538743 -0.119409 0)
(0.602641 -0.109049 0)
(0.665931 -0.0955183 0)
(0.756492 -0.0983389 0)
(0.820961 -0.12791 0)
(0.839205 -0.129839 0)
(0.842517 -0.0737145 0)
(0.76073 0.0538834 0)
(0.689658 0.330506 0)
(0.468112 0.510342 0)
(0.202338 0.545962 0)
(0.0191818 -0.100533 0)
(0.0574437 -0.100937 0)
(0.0963194 -0.10173 0)
(0.134315 -0.103939 0)
(0.176496 -0.102723 0)
(0.209897 -0.11256 0)
(0.262923 -0.103726 0)
(0.293659 -0.126018 0)
(0.348578 -0.11653 0)
(0.388675 -0.118678 0)
(0.455435 -0.139513 0)
(0.497716 -0.14538 0)
(0.537939 -0.158423 0)
(0.614418 -0.164452 0)
(0.687427 -0.179916 0)
(0.745352 -0.219316 0)
(0.738531 -0.252522 0)
(0.679627 -0.334504 0)
(0.688755 -0.331943 0)
(0.732349 -0.110237 0)
(0.599104 0.333938 0)
(0.445856 0.588185 0)
(0.141056 0.694218 0)
(0.0191061 -0.116783 0)
(0.0571702 -0.117076 0)
(0.0958385 -0.117789 0)
(0.133705 -0.11964 0)
(0.174983 -0.117955 0)
(0.209465 -0.128026 0)
(0.260374 -0.118637 0)
(0.292411 -0.142165 0)
(0.344662 -0.132672 0)
(0.395079 -0.150789 0)
(0.449852 -0.173724 0)
(0.493483 -0.206603 0)
(0.558024 -0.255717 0)
(0.613075 -0.295775 0)
(0.611357 -0.343341 0)
(0.503934 -0.437925 0)
(0.504875 -0.512575 0)
(0.530203 -0.50291 0)
(0.627667 -0.292775 0)
(0.768405 -0.206591 0)
(0.584999 0.241583 0)
(0.402006 0.681312 0)
(0.200175 0.797219 0)
(0.0191926 -0.135704 0)
(0.0573494 -0.136079 0)
(0.0962453 -0.137089 0)
(0.133903 -0.139182 0)
(0.17496 -0.137201 0)
(0.211275 -0.151448 0)
(0.258171 -0.144316 0)
(0.293861 -0.173066 0)
(0.336336 -0.18385 0)
(0.400626 -0.206174 0)
(0.426927 -0.251471 0)
(0.480425 -0.315826 0)
(0.509028 -0.432326 0)
(0.460384 -0.504924 0)
(0.423682 -0.582087 0)
(0.45897 -0.625991 0)
(0.518261 -0.534755 0)
(0.667847 -0.202618 0)
(0.627942 0.0735911 0)
(0.730304 0.219533 0)
(0.596129 0.171766 0)
(0.380613 0.670579 0)
(0.144352 0.940331 0)
(-1.1525 0.345883 0)
(-1.79745 0.128333 0)
(-2.04512 0.0254306 0)
(-1.93699 -0.139132 0)
(-1.32768 -0.167832 0)
(-1.05893 -0.132121 0)
(-0.635337 -0.123688 0)
(-0.152266 -0.132609 0)
(0.190413 -0.104796 0)
(0.546757 -0.0922924 0)
(0.800239 -0.0835149 0)
(1.00468 -0.0684339 0)
(1.12266 -0.0598573 0)
(1.11082 -0.0505532 0)
(1.05081 -0.0467935 0)
(0.906026 -0.00699381 0)
(0.680455 -0.0342397 0)
(0.166647 -0.119872 0)
(0.170719 -0.0872672 0)
(-1.06397 0.701035 0)
(-1.67249 0.298605 0)
(-1.82043 0.00863349 0)
(-1.55083 -0.27816 0)
(-1.23385 -0.422648 0)
(-0.819724 -0.49573 0)
(-0.311601 -0.350563 0)
(0.070305 -0.352175 0)
(0.367796 -0.234402 0)
(0.686475 -0.17574 0)
(0.951849 -0.116633 0)
(1.14215 -0.065729 0)
(1.24084 0.0107981 0)
(1.24772 0.0735075 0)
(1.18316 0.138786 0)
(1.02473 0.181887 0)
(0.830508 0.28442 0)
(0.341004 0.231887 0)
(0.21598 0.132027 0)
(-1.05895 1.2576 0)
(-1.31231 0.58045 0)
(-1.31043 -0.0212074 0)
(-1.1547 -0.319368 0)
(-0.904359 -0.600399 0)
(-0.545299 -0.798018 0)
(-0.0277606 -0.740026 0)
(0.266293 -0.646873 0)
(0.527657 -0.477231 0)
(0.801399 -0.354302 0)
(1.04624 -0.266659 0)
(1.21066 -0.18484 0)
(1.33289 -0.0763166 0)
(1.35355 -0.00669236 0)
(1.31334 0.105791 0)
(1.14919 0.184993 0)
(0.965937 0.316363 0)
(0.539625 0.312251 0)
(0.307271 0.192411 0)
(-0.912643 1.56287 0)
(-0.669159 0.541919 0)
(-0.708315 -0.0509606 0)
(-0.791954 -0.178295 0)
(-0.637083 -0.477949 0)
(-0.245417 -0.926299 0)
(0.209777 -0.969614 0)
(0.4597 -0.879294 0)
(0.656745 -0.658959 0)
(0.892211 -0.446683 0)
(1.12681 -0.312119 0)
(1.28312 -0.214033 0)
(1.42412 -0.0609056 0)
(1.44023 0.0533615 0)
(1.41162 0.234514 0)
(1.28371 0.314495 0)
(1.0964 0.491704 0)
(0.682244 0.499003 0)
(0.338391 0.402314 0)
(-0.712021 1.868 0)
(-0.351499 0.502501 0)
(-0.322969 -0.499745 0)
(-0.35861 -0.484742 0)
(-0.32485 -0.582689 0)
(-0.0767012 -1.01014 0)
(0.467419 -1.11516 0)
(0.644191 -1.06589 0)
(0.76648 -0.87009 0)
(0.961562 -0.617176 0)
(1.17694 -0.434646 0)
(1.31441 -0.306678 0)
(1.47813 -0.123993 0)
(1.48249 0.00827513 0)
(1.4989 0.219285 0)
(1.36388 0.369548 0)
(1.19021 0.632692 0)
(0.76055 0.67593 0)
(0.322868 0.599818 0)
(-0.714797 2.07153 0)
(-0.327336 0.600414 0)
(-0.917519 -0.166055 0)
(0.0556768 -0.887453 0)
(0.0102156 -0.845712 0)
(0.179081 -1.01261 0)
(0.663057 -1.12637 0)
(0.814061 -1.11678 0)
(0.867727 -0.973123 0)
(1.0473 -0.728972 0)
(1.25585 -0.526139 0)
(1.387 -0.3521 0)
(1.5531 -0.155518 0)
(1.55634 0.042524 0)
(1.6081 0.279309 0)
(1.45225 0.456194 0)
(1.27457 0.707351 0)
(0.791446 0.903257 0)
(0.40245 0.800705 0)
(-0.733286 2.06473 0)
(-0.381996 1.27298 0)
(-0.540964 -0.213271 0)
(-0.0288018 -0.722912 0)
(0.31117 -1.14486 0)
(0.551993 -1.04822 0)
(0.881564 -1.10096 0)
(0.957687 -1.15264 0)
(0.976078 -1.09363 0)
(1.13227 -0.937785 0)
(1.30884 -0.728059 0)
(1.45417 -0.477907 0)
(1.59195 -0.213958 0)
(1.62025 -0.0124652 0)
(1.67335 0.265208 0)
(1.54948 0.571223 0)
(1.37461 0.904588 0)
(0.790677 1.06596 0)
(0.34453 1.04386 0)
(-0.741043 2.00768 0)
(-0.414188 1.59233 0)
(0.739272 0.613431 0)
(-0.0315724 -0.0986552 0)
(0.638574 -1.07456 0)
(1.11315 -0.733034 0)
(1.05399 -0.923164 0)
(1.0734 -1.08555 0)
(1.12057 -1.10398 0)
(1.26592 -1.09196 0)
(1.36989 -0.906636 0)
(1.51333 -0.587503 0)
(1.62284 -0.255217 0)
(1.68701 0.0259121 0)
(1.80056 0.298037 0)
(1.708 0.63792 0)
(1.50104 1.12114 0)
(0.971254 1.28409 0)
(0.354207 1.27905 0)
(0.019546 -0.209549 0)
(0.0582327 -0.212924 0)
(0.0978988 -0.219657 0)
(0.13546 -0.229622 0)
(0.17512 -0.238677 0)
(0.214398 -0.264784 0)
(0.245868 -0.276554 0)
(0.298206 -0.3064 0)
(0.311195 -0.345787 0)
(0.36107 -0.37043 0)
(0.365258 -0.418269 0)
(0.362751 -0.53284 0)
(0.390039 -0.550137 0)
(0.396544 -0.589096 0)
(0.432023 -0.64736 0)
(0.534211 -0.527823 0)
(0.677511 -0.283266 0)
(0.717778 -0.162813 0)
(0.688765 -0.02106 0)
(0.838607 0.264005 0)
(0.654006 0.15159 0)
(0.434318 0.616812 0)
(0.278483 1.05269 0)
(0.016261 -0.369159 0)
(0.0481346 -0.374544 0)
(0.0800753 -0.384706 0)
(0.106974 -0.398739 0)
(0.134797 -0.420074 0)
(0.160085 -0.453826 0)
(0.164986 -0.494837 0)
(0.194199 -0.550651 0)
(0.214582 -0.552032 0)
(0.248196 -0.581924 0)
(0.291966 -0.644156 0)
(0.347799 -0.628321 0)
(0.421125 -0.430115 0)
(0.526857 -0.346385 0)
(0.617196 -0.305184 0)
(0.701785 -0.276508 0)
(0.761463 -0.227409 0)
(0.819499 -0.140713 0)
(0.834876 0.0132891 0)
(0.911025 0.280782 0)
(0.622667 0.457989 0)
(0.573231 0.636315 0)
(0.410685 0.978439 0)
(0.0103098 -0.593245 0)
(0.0306415 -0.599412 0)
(0.0539329 -0.606396 0)
(0.0756139 -0.621183 0)
(0.10575 -0.637521 0)
(0.133237 -0.664885 0)
(0.166598 -0.675892 0)
(0.214354 -0.613842 0)
(0.295078 -0.477641 0)
(0.371742 -0.401672 0)
(0.432989 -0.374232 0)
(0.481244 -0.346477 0)
(0.53093 -0.321082 0)
(0.594638 -0.312657 0)
(0.671245 -0.323635 0)
(0.740253 -0.313311 0)
(0.80169 -0.257079 0)
(0.86129 -0.169633 0)
(0.890375 0.00300883 0)
(0.920517 0.265003 0)
(0.625021 0.531505 0)
(0.678611 0.638454 0)
(0.575418 0.954136 0)
(0.0210239 -0.359338 0)
(0.0579631 -0.357301 0)
(0.0980841 -0.350344 0)
(0.137167 -0.346688 0)
(0.174677 -0.339643 0)
(0.215656 -0.335842 0)
(0.254491 -0.328607 0)
(0.298332 -0.33327 0)
(0.339366 -0.313897 0)
(0.377439 -0.328613 0)
(0.431645 -0.339214 0)
(0.473251 -0.335281 0)
(0.526342 -0.345464 0)
(0.593234 -0.381011 0)
(0.672866 -0.393104 0)
(0.735269 -0.375612 0)
(0.804117 -0.31315 0)
(0.858851 -0.209309 0)
(0.850414 -0.00623046 0)
(0.852489 0.27192 0)
(0.63678 0.546124 0)
(0.686434 0.593273 0)
(0.713627 0.944077 0)
(0.0185255 -0.284267 0)
(0.0552987 -0.286296 0)
(0.0924483 -0.287775 0)
(0.129222 -0.292276 0)
(0.165099 -0.298449 0)
(0.20329 -0.307114 0)
(0.237569 -0.31617 0)
(0.273095 -0.335317 0)
(0.308509 -0.337087 0)
(0.342187 -0.381618 0)
(0.395576 -0.394018 0)
(0.435073 -0.408219 0)
(0.506753 -0.445613 0)
(0.58886 -0.472347 0)
(0.671625 -0.468492 0)
(0.727208 -0.433447 0)
(0.770171 -0.352537 0)
(0.758475 -0.221971 0)
(0.69395 0.0355733 0)
(0.645584 0.300726 0)
(0.619819 0.598497 0)
(0.6703 0.553832 0)
(0.743328 0.898095 0)
(0.0165795 -0.33249 0)
(0.0503078 -0.335411 0)
(0.083094 -0.339803 0)
(0.117395 -0.344973 0)
(0.150524 -0.353033 0)
(0.183809 -0.361639 0)
(0.216569 -0.370987 0)
(0.252118 -0.389726 0)
(0.287794 -0.39589 0)
(0.331276 -0.435095 0)
(0.382758 -0.439577 0)
(0.427342 -0.473309 0)
(0.513523 -0.512836 0)
(0.587413 -0.536843 0)
(0.635749 -0.521699 0)
(0.652837 -0.464819 0)
(0.643076 -0.349936 0)
(0.523608 -0.147321 0)
(0.4307 0.119012 0)
(0.38074 0.311773 0)
(0.482658 0.621932 0)
(0.643839 0.528728 0)
(0.754138 0.830847 0)
(0.0164944 -0.3733 0)
(0.049311 -0.375709 0)
(0.0826197 -0.378118 0)
(0.114981 -0.381771 0)
(0.148812 -0.386843 0)
(0.180882 -0.393735 0)
(0.214016 -0.403898 0)
(0.247348 -0.416803 0)
(0.279911 -0.433343 0)
(0.307364 -0.471065 0)
(0.357771 -0.482978 0)
(0.395604 -0.548631 0)
(0.464761 -0.596622 0)
(0.497479 -0.58573 0)
(0.495877 -0.549303 0)
(0.450358 -0.456877 0)
(0.32121 -0.232076 0)
(0.201414 -0.0166836 0)
(0.196096 0.171471 0)
(0.209721 0.284523 0)
(0.339209 0.495344 0)
(0.51379 0.504023 0)
(0.765145 0.707063 0)
(0.0152025 -0.395381 0)
(0.0457713 -0.398279 0)
(0.0765974 -0.400877 0)
(0.107616 -0.405094 0)
(0.13795 -0.410149 0)
(0.168608 -0.417149 0)
(0.197075 -0.425575 0)
(0.219767 -0.436231 0)
(0.245886 -0.45199 0)
(0.261293 -0.487264 0)
(0.299379 -0.524558 0)
(0.329546 -0.625334 0)
(0.363437 -0.635653 0)
(0.338956 -0.601939 0)
(0.26681 -0.49646 0)
(0.1099 -0.281819 0)
(0.0546956 -0.0982754 0)
(0.0337571 0.00269079 0)
(0.109304 0.121664 0)
(0.172218 0.196967 0)
(0.317671 0.32901 0)
(0.475782 0.324362 0)
(0.703867 0.425072 0)
(0.015216 -0.428077 0)
(0.0455742 -0.430511 0)
(0.075313 -0.432723 0)
(0.105698 -0.435704 0)
(0.136011 -0.439953 0)
(0.165219 -0.44437 0)
(0.194492 -0.447807 0)
(0.21345 -0.452385 0)
(0.233639 -0.464985 0)
(0.224651 -0.490061 0)
(0.231825 -0.541246 0)
(0.190337 -0.638987 0)
(0.148488 -0.618785 0)
(0.0521573 -0.508223 0)
(-0.0423075 -0.326349 0)
(-0.0608982 -0.213246 0)
(-0.0393006 -0.120891 0)
(0.0294131 -0.060514 0)
(0.121909 0.027718 0)
(0.215938 0.0846833 0)
(0.368827 0.160402 0)
(0.499575 0.161101 0)
(0.65623 0.194526 0)
(0.0146527 -0.451332 0)
(0.0435332 -0.453979 0)
(0.0728356 -0.457234 0)
(0.101346 -0.462485 0)
(0.131388 -0.471642 0)
(0.162218 -0.484604 0)
(0.192889 -0.501501 0)
(0.21212 -0.522067 0)
(0.212956 -0.542595 0)
(0.174908 -0.560181 0)
(0.0567571 -0.602318 0)
(-0.138292 -0.627462 0)
(-0.128168 -0.516688 0)
(-0.154331 -0.388573 0)
(-0.133748 -0.301687 0)
(-0.0972163 -0.245156 0)
(-0.015552 -0.193454 0)
(0.0855016 -0.151208 0)
(0.170702 -0.0825371 0)
(0.290235 -0.0365904 0)
(0.401924 0.0396533 0)
(0.496284 0.0584883 0)
(0.653287 0.110211 0)
(0.0144615 -0.593269 0)
(0.0423889 -0.59991 0)
(0.0688435 -0.608255 0)
(0.0934277 -0.621959 0)
(0.115392 -0.637836 0)
(0.137864 -0.667844 0)
(0.158424 -0.706403 0)
(0.173119 -0.747977 0)
(0.173707 -0.783126 0)
(0.0865621 -0.79686 0)
(-0.252707 -0.747564 0)
(-0.419362 -0.683026 0)
(-0.245932 -0.614818 0)
(-0.212748 -0.496868 0)
(-0.138687 -0.430754 0)
(-0.0490069 -0.370046 0)
(0.0432413 -0.303835 0)
(0.142462 -0.233759 0)
(0.221733 -0.184307 0)
(0.368705 -0.134658 0)
(0.437832 -0.0939797 0)
(0.614022 -0.0729681 0)
(0.670709 -0.174241 0)
(0.0110884 -0.894626 0)
(0.0298168 -0.909585 0)
(0.048943 -0.936578 0)
(0.0631655 -0.979663 0)
(0.0724371 -1.04843 0)
(0.0751473 -1.03071 0)
(0.067375 -0.87392 0)
(0.0266363 -0.545626 0)
(-0.0185927 -0.0754598 0)
(-0.391381 0.196638 0)
(-0.736703 0.143864 0)
(-0.563254 -0.820583 0)
(-0.256097 -1.03117 0)
(-0.136436 -0.82599 0)
(-0.00613587 -0.76191 0)
(0.0429806 -0.657383 0)
(0.111047 -0.582386 0)
(0.185505 -0.514808 0)
(0.259501 -0.5019 0)
(0.343563 -0.483436 0)
(0.41412 -0.475223 0)
(0.451979 -0.566433 0)
(0.442292 -0.63034 0)
(-0.0440616 0.00779114 0)
(-0.142849 0.0268101 0)
(-0.25227 0.0454284 0)
(-0.373743 0.0147377 0)
(-0.489897 -0.120671 0)
(-0.581895 -0.375131 0)
(-0.614827 -0.707925 0)
(-0.584142 -0.89223 0)
(-0.469657 -0.852649 0)
(-0.227205 -0.574699 0)
(0.282554 -0.890861 0)
(0.613086 -0.926981 0)
(0.46104 -0.575531 0)
(0.359434 -0.220067 0)
(0.253227 -0.281489 0)
(0.150177 -0.567348 0)
(0.132061 -0.667423 0)
(0.135746 -0.665647 0)
(0.162509 -0.585366 0)
(0.118836 -0.369952 0)
(0.127998 0.318618 0)
(-0.37604 0.693588 0)
(-0.536698 -0.0596524 0)
(-0.0318315 -0.832087 0)
(-0.0860611 -0.82788 0)
(-0.116965 -0.812878 0)
(-0.13062 -0.786735 0)
(-0.126594 -0.734912 0)
(-0.0984264 -0.654983 0)
(-0.0751828 -0.540006 0)
(-0.086507 -0.397194 0)
(-0.10346 -0.227422 0)
(-0.0403048 -0.122126 0)
(0.104613 -0.313862 0)
(0.045179 -0.755269 0)
(-0.0443328 -0.86463 0)
(-0.119026 -0.853973 0)
(-0.0794057 -0.757672 0)
(-0.083072 -0.625433 0)
(-0.163312 -0.523151 0)
(-0.273116 -0.452602 0)
(-0.362798 -0.539503 0)
(-0.345061 -0.754222 0)
(-0.238394 -0.720212 0)
(0.0778443 -0.422151 0)
(-0.0495793 -0.388001 0)
(-0.0128353 -0.107432 0)
(-0.0330308 -0.128829 0)
(-0.0483321 -0.154706 0)
(-0.0653972 -0.190209 0)
(-0.0820437 -0.234846 0)
(-0.0940641 -0.2878 0)
(-0.109191 -0.351689 0)
(-0.129237 -0.397704 0)
(-0.129284 -0.414174 0)
(-0.0746322 -0.405365 0)
(0.0217268 -0.519208 0)
(-0.0808051 -0.573189 0)
(-0.176472 -0.533643 0)
(-0.252662 -0.41562 0)
(-0.270985 -0.320778 0)
(-0.209719 -0.279636 0)
(-0.113977 -0.248481 0)
(-0.00772265 -0.229715 0)
(0.0953576 -0.231531 0)
(0.0365102 -0.161686 0)
(-0.168892 0.181293 0)
(-0.363811 0.368639 0)
(-0.547127 0.22464 0)
(-0.00465848 -0.420302 0)
(-0.0127758 -0.439464 0)
(-0.0208493 -0.452782 0)
(-0.0310354 -0.468601 0)
(-0.0411625 -0.483578 0)
(-0.0535284 -0.49711 0)
(-0.0704499 -0.507728 0)
(-0.0918304 -0.506795 0)
(-0.1038 -0.493437 0)
(-0.0762556 -0.489786 0)
(-0.0646366 -0.517552 0)
(-0.144234 -0.517071 0)
(-0.198285 -0.524359 0)
(-0.231832 -0.460953 0)
(-0.221911 -0.425981 0)
(-0.186891 -0.39635 0)
(-0.164806 -0.351061 0)
(-0.170742 -0.277355 0)
(-0.252978 -0.183662 0)
(-0.47151 -0.117035 0)
(-0.519594 -0.0636663 0)
(-0.453883 0.0181034 0)
(-0.446563 0.0149226 0)
(0.00154178 -0.3507 0)
(0.00372976 -0.366874 0)
(0.0034792 -0.374396 0)
(-0.00277322 -0.385288 0)
(-0.0136318 -0.39818 0)
(-0.0306649 -0.410214 0)
(-0.0538967 -0.41841 0)
(-0.0837738 -0.42102 0)
(-0.112037 -0.41867 0)
(-0.132407 -0.417412 0)
(-0.172443 -0.451501 0)
(-0.211955 -0.479365 0)
(-0.250737 -0.505589 0)
(-0.270659 -0.507124 0)
(-0.283252 -0.517746 0)
(-0.302281 -0.500748 0)
(-0.348258 -0.432745 0)
(-0.426262 -0.305233 0)
(-0.477586 -0.153097 0)
(-0.506733 -0.0297258 0)
(-0.510596 0.0735767 0)
(-0.496576 0.10822 0)
(-0.477797 0.107772 0)
(-0.0010279 -0.318699 0)
(-0.00407907 -0.337735 0)
(-0.00779937 -0.347721 0)
(-0.0154852 -0.359638 0)
(-0.0289691 -0.371472 0)
(-0.0487924 -0.382552 0)
(-0.0742452 -0.391668 0)
(-0.104029 -0.397522 0)
(-0.134137 -0.400756 0)
(-0.157855 -0.407591 0)
(-0.189314 -0.4237 0)
(-0.226192 -0.446276 0)
(-0.265013 -0.452227 0)
(-0.307514 -0.436774 0)
(-0.362422 -0.409979 0)
(-0.423481 -0.361662 0)
(-0.483657 -0.273245 0)
(-0.533526 -0.138885 0)
(-0.551449 -0.0584881 0)
(-0.551337 -0.0335343 0)
(-0.515749 -0.00893523 0)
(-0.473103 0.035248 0)
(-0.445158 0.0651758 0)
(-0.00235818 -0.332656 0)
(-0.00870619 -0.347723 0)
(-0.0180099 -0.351907 0)
(-0.0311686 -0.356912 0)
(-0.046908 -0.362197 0)
(-0.065981 -0.367526 0)
(-0.0878115 -0.372936 0)
(-0.110711 -0.375689 0)
(-0.131593 -0.376437 0)
(-0.155156 -0.379872 0)
(-0.183692 -0.390036 0)
(-0.226557 -0.400338 0)
(-0.276036 -0.393451 0)
(-0.328318 -0.378457 0)
(-0.390077 -0.362833 0)
(-0.450834 -0.337117 0)
(-0.503314 -0.275811 0)
(-0.524361 -0.1796 0)
(-0.510503 -0.111124 0)
(-0.48725 -0.0781378 0)
(-0.459954 -0.0399658 0)
(-0.429679 0.00524847 0)
(-0.400124 0.033626 0)
(-0.00462016 -0.323133 0)
(-0.0152142 -0.33686 0)
(-0.0267756 -0.338932 0)
(-0.040056 -0.342729 0)
(-0.0550512 -0.346313 0)
(-0.0711388 -0.348973 0)
(-0.0888084 -0.35018 0)
(-0.107001 -0.35096 0)
(-0.125321 -0.352515 0)
(-0.146803 -0.356985 0)
(-0.178393 -0.36121 0)
(-0.218422 -0.356671 0)
(-0.255719 -0.346573 0)
(-0.298541 -0.330845 0)
(-0.344007 -0.303806 0)
(-0.39593 -0.273284 0)
(-0.436889 -0.22982 0)
(-0.444479 -0.165613 0)
(-0.432176 -0.111158 0)
(-0.418947 -0.0882848 0)
(-0.406921 -0.0628782 0)
(-0.383301 -0.0216158 0)
(-0.367313 0.00690513 0)
(-0.00508489 -0.312981 0)
(-0.0165126 -0.325946 0)
(-0.0284988 -0.327162 0)
(-0.0417532 -0.329513 0)
(-0.0561854 -0.331694 0)
(-0.0717177 -0.333826 0)
(-0.087988 -0.335664 0)
(-0.104784 -0.336434 0)
(-0.122652 -0.335924 0)
(-0.144855 -0.334137 0)
(-0.171711 -0.32897 0)
(-0.19715 -0.322239 0)
(-0.22735 -0.311947 0)
(-0.257009 -0.292334 0)
(-0.285585 -0.271153 0)
(-0.313758 -0.245701 0)
(-0.339809 -0.217339 0)
(-0.363919 -0.182403 0)
(-0.37213 -0.135307 0)
(-0.362907 -0.0884277 0)
(-0.360664 -0.0662704 0)
(-0.353133 -0.0377869 0)
(-0.347156 0.00675181 0)
(-0.00578934 -0.299878 0)
(-0.0185302 -0.312038 0)
(-0.0315056 -0.311961 0)
(-0.0450675 -0.312464 0)
(-0.0593544 -0.313169 0)
(-0.0746292 -0.313467 0)
(-0.0908645 -0.313114 0)
(-0.108038 -0.311906 0)
(-0.126891 -0.309896 0)
(-0.147488 -0.306505 0)
(-0.168401 -0.300799 0)
(-0.19238 -0.291419 0)
(-0.21908 -0.276883 0)
(-0.24446 -0.263636 0)
(-0.269215 -0.247235 0)
(-0.288574 -0.220512 0)
(-0.305207 -0.185758 0)
(-0.321915 -0.14933 0)
(-0.329136 -0.120653 0)
(-0.336195 -0.101457 0)
(-0.332471 -0.0738115 0)
(-0.329051 -0.0354523 0)
(-0.33167 0.00557732 0)
(-0.00557124 -0.29142 0)
(-0.0176076 -0.302828 0)
(-0.0300931 -0.302775 0)
(-0.0430842 -0.303222 0)
(-0.0568026 -0.303148 0)
(-0.0713549 -0.302604 0)
(-0.0868343 -0.301394 0)
(-0.103528 -0.299355 0)
(-0.122031 -0.296379 0)
(-0.142653 -0.29192 0)
(-0.164794 -0.284 0)
(-0.18568 -0.272425 0)
(-0.204368 -0.262271 0)
(-0.225472 -0.246377 0)
(-0.247438 -0.22492 0)
(-0.267954 -0.20376 0)
(-0.283758 -0.181167 0)
(-0.292408 -0.154756 0)
(-0.300055 -0.122031 0)
(-0.304956 -0.0882133 0)
(-0.308942 -0.0625603 0)
(-0.312911 -0.0380623 0)
(-0.307117 -0.00302218 0)
(-0.00558778 -0.276659 0)
(-0.0176467 -0.287318 0)
(-0.0299345 -0.286368 0)
(-0.0428209 -0.285591 0)
(-0.0564212 -0.284471 0)
(-0.0709102 -0.282727 0)
(-0.086356 -0.280209 0)
(-0.102885 -0.276825 0)
(-0.120388 -0.272309 0)
(-0.138385 -0.266161 0)
(-0.155912 -0.259206 0)
(-0.173074 -0.251213 0)
(-0.19136 -0.237591 0)
(-0.208998 -0.221954 0)
(-0.224001 -0.204735 0)
(-0.239554 -0.183253 0)
(-0.256787 -0.156957 0)
(-0.272825 -0.128845 0)
(-0.280029 -0.105956 0)
(-0.281288 -0.090356 0)
(-0.281861 -0.0705508 0)
(-0.285697 -0.0369847 0)
(-0.285031 -0.00753013 0)
(-0.00562492 -0.268636 0)
(-0.0176826 -0.278901 0)
(-0.0298251 -0.277917 0)
(-0.0422534 -0.277038 0)
(-0.0550003 -0.275562 0)
(-0.0680864 -0.273433 0)
(-0.0815881 -0.270539 0)
(-0.0956228 -0.266776 0)
(-0.110425 -0.261956 0)
(-0.125994 -0.255598 0)
(-0.142567 -0.246796 0)
(-0.160207 -0.234879 0)
(-0.177902 -0.222341 0)
(-0.195236 -0.208074 0)
(-0.212742 -0.191306 0)
(-0.226546 -0.173143 0)
(-0.235746 -0.156551 0)
(-0.241454 -0.138865 0)
(-0.248273 -0.114298 0)
(-0.253061 -0.0837726 0)
(-0.261276 -0.056746 0)
(-0.263866 -0.0370781 0)
(-0.260008 -0.0151762 0)
(-0.00542595 -0.253333 0)
(-0.0170697 -0.262936 0)
(-0.028784 -0.261588 0)
(-0.0407978 -0.26015 0)
(-0.0531543 -0.258085 0)
(-0.0659173 -0.25531 0)
(-0.079101 -0.251697 0)
(-0.0927288 -0.247094 0)
(-0.106743 -0.241264 0)
(-0.121035 -0.233977 0)
(-0.135324 -0.225452 0)
(-0.149349 -0.216623 0)
(-0.162831 -0.205511 0)
(-0.17561 -0.191602 0)
(-0.186945 -0.175689 0)
(-0.198643 -0.158392 0)
(-0.210675 -0.137332 0)
(-0.223244 -0.114835 0)
(-0.232021 -0.095205 0)
(-0.236237 -0.0797964 0)
(-0.237164 -0.0609823 0)
(-0.239191 -0.0375789 0)
(-0.239704 -0.0158246 0)
(-0.00518508 -0.246152 0)
(-0.0161477 -0.255613 0)
(-0.0271971 -0.25426 0)
(-0.038447 -0.252767 0)
(-0.0499828 -0.250582 0)
(-0.0618734 -0.247651 0)
(-0.074184 -0.243864 0)
(-0.0869228 -0.239095 0)
(-0.0999779 -0.233179 0)
(-0.113077 -0.225876 0)
(-0.126011 -0.216826 0)
(-0.138955 -0.205808 0)
(-0.15203 -0.193526 0)
(-0.164885 -0.180538 0)
(-0.177214 -0.16631 0)
(-0.187926 -0.150437 0)
(-0.196629 -0.13432 0)
(-0.202744 -0.117019 0)
(-0.20779 -0.0973203 0)
(-0.212848 -0.0756826 0)
(-0.217414 -0.0553964 0)
(-0.220017 -0.0366797 0)
(-0.220043 -0.0175153 0)
(-0.00490821 -0.232707 0)
(-0.0154265 -0.241476 0)
(-0.0259368 -0.239865 0)
(-0.0366184 -0.237918 0)
(-0.0474675 -0.23523 0)
(-0.0584954 -0.231766 0)
(-0.0697006 -0.227462 0)
(-0.0810746 -0.22224 0)
(-0.0926179 -0.216027 0)
(-0.104353 -0.208801 0)
(-0.116184 -0.200587 0)
(-0.127801 -0.19134 0)
(-0.138882 -0.180609 0)
(-0.149359 -0.168007 0)
(-0.159224 -0.153974 0)
(-0.168504 -0.138974 0)
(-0.177058 -0.122586 0)
(-0.18491 -0.105471 0)
(-0.191305 -0.0884081 0)
(-0.195606 -0.0715477 0)
(-0.198381 -0.0539423 0)
(-0.200874 -0.0356691 0)
(-0.202001 -0.0174669 0)
(-0.00465286 -0.224934 0)
(-0.0144625 -0.233613 0)
(-0.024291 -0.232051 0)
(-0.034232 -0.230141 0)
(-0.0443148 -0.227487 0)
(-0.0545609 -0.22404 0)
(-0.064973 -0.21972 0)
(-0.0755204 -0.214433 0)
(-0.0861283 -0.208076 0)
(-0.0966904 -0.200555 0)
(-0.107131 -0.191801 0)
(-0.117437 -0.181824 0)
(-0.127564 -0.17079 0)
(-0.137292 -0.158874 0)
(-0.146367 -0.145933 0)
(-0.154628 -0.131877 0)
(-0.161939 -0.116999 0)
(-0.16818 -0.101276 0)
(-0.17346 -0.0847431 0)
(-0.177707 -0.0677073 0)
(-0.180906 -0.0508227 0)
(-0.183471 -0.0340931 0)
(-0.18487 -0.0171143 0)
(-0.00430313 -0.21449 0)
(-0.0134406 -0.222713 0)
(-0.0225641 -0.221048 0)
(-0.0317704 -0.218928 0)
(-0.0410695 -0.21603 0)
(-0.0504667 -0.212336 0)
(-0.0599548 -0.207808 0)
(-0.0695126 -0.202404 0)
(-0.0791056 -0.196092 0)
(-0.088681 -0.188843 0)
(-0.0981522 -0.180621 0)
(-0.107394 -0.171384 0)
(-0.116285 -0.161054 0)
(-0.12476 -0.149592 0)
(-0.132752 -0.137125 0)
(-0.140133 -0.123792 0)
(-0.14679 -0.109648 0)
(-0.152658 -0.0948833 0)
(-0.157623 -0.0796444 0)
(-0.161529 -0.0640486 0)
(-0.164451 -0.0482503 0)
(-0.166924 -0.0323755 0)
(-0.168586 -0.0163265 0)
(-0.00399539 -0.206587 0)
(-0.0124059 -0.214624 0)
(-0.020808 -0.212976 0)
(-0.0292625 -0.210828 0)
(-0.0377802 -0.207905 0)
(-0.0463573 -0.204183 0)
(-0.0549825 -0.199623 0)
(-0.0636296 -0.194185 0)
(-0.0722594 -0.187829 0)
(-0.0808215 -0.180525 0)
(-0.089258 -0.172261 0)
(-0.0975059 -0.163043 0)
(-0.105486 -0.152908 0)
(-0.113092 -0.141901 0)
(-0.120216 -0.130039 0)
(-0.126778 -0.117364 0)
(-0.1327 -0.10398 0)
(-0.137924 -0.0899773 0)
(-0.142418 -0.0754667 0)
(-0.146089 -0.060595 0)
(-0.148918 -0.0455836 0)
(-0.151284 -0.0305389 0)
(-0.153046 -0.0153187 0)
(-0.00364295 -0.198434 0)
(-0.0113018 -0.206191 0)
(-0.0189601 -0.20453 0)
(-0.0266448 -0.202311 0)
(-0.0343741 -0.199312 0)
(-0.0421393 -0.195523 0)
(-0.0499278 -0.190924 0)
(-0.0577162 -0.185495 0)
(-0.0654704 -0.179218 0)
(-0.0731444 -0.172079 0)
(-0.0806819 -0.164068 0)
(-0.0880174 -0.155182 0)
(-0.0950824 -0.145426 0)
(-0.101811 -0.134824 0)
(-0.108136 -0.123432 0)
(-0.113982 -0.111317 0)
(-0.119284 -0.0985579 0)
(-0.123995 -0.0852505 0)
(-0.12808 -0.0714898 0)
(-0.131473 -0.0573785 0)
(-0.134144 -0.0430679 0)
(-0.136376 -0.0286896 0)
(-0.138164 -0.0141676 0)
(-0.00329968 -0.191436 0)
(-0.0101897 -0.198993 0)
(-0.0170972 -0.197351 0)
(-0.0240103 -0.195101 0)
(-0.0309563 -0.192077 0)
(-0.03792 -0.188269 0)
(-0.0448886 -0.183665 0)
(-0.0518398 -0.178251 0)
(-0.0587432 -0.172017 0)
(-0.06556 -0.164958 0)
(-0.0722445 -0.157075 0)
(-0.0787453 -0.148378 0)
(-0.0850055 -0.138889 0)
(-0.0909654 -0.12864 0)
(-0.0965646 -0.117671 0)
(-0.10175 -0.106037 0)
(-0.106471 -0.0938094 0)
(-0.110689 -0.0810672 0)
(-0.114382 -0.0678974 0)
(-0.117506 -0.0543908 0)
(-0.120016 -0.0406721 0)
(-0.12211 -0.026866 0)
(-0.123867 -0.0129393 0)
(-0.00294126 -0.184997 0)
(-0.00904714 -0.192352 0)
(-0.0151999 -0.190727 0)
(-0.0213385 -0.188448 0)
(-0.0275071 -0.185401 0)
(-0.033685 -0.181581 0)
(-0.0398603 -0.176984 0)
(-0.0460128 -0.171607 0)
(-0.0521143 -0.165447 0)
(-0.05813 -0.158506 0)
(-0.0640196 -0.150789 0)
(-0.0697389 -0.14231 0)
(-0.0752415 -0.133087 0)
(-0.0804805 -0.123152 0)
(-0.0854106 -0.112547 0)
(-0.0899867 -0.101325 0)
(-0.0941696 -0.0895497 0)
(-0.0979298 -0.0772926 0)
(-0.101248 -0.0646302 0)
(-0.104098 -0.0516407 0)
(-0.106438 -0.0384248 0)
(-0.108392 -0.0251016 0)
(-0.110086 -0.0116775 0)
(-0.00257396 -0.179388 0)
(-0.00788515 -0.186561 0)
(-0.013284 -0.184959 0)
(-0.0186484 -0.182655 0)
(-0.0240459 -0.179592 0)
(-0.0294486 -0.175767 0)
(-0.0348477 -0.171179 0)
(-0.0402259 -0.165832 0)
(-0.0455577 -0.159734 0)
(-0.0508115 -0.15289 0)
(-0.0559519 -0.145311 0)
(-0.0609407 -0.137012 0)
(-0.0657393 -0.128014 0)
(-0.0703101 -0.118348 0)
(-0.0746153 -0.108055 0)
(-0.0786215 -0.0971823 0)
(-0.0822985 -0.0857869 0)
(-0.0856222 -0.0739328 0)
(-0.0885797 -0.0616891 0)
(-0.0911556 -0.0491269 0)
(-0.0933173 -0.0363309 0)
(-0.0951381 -0.0234097 0)
(-0.0967557 -0.0104017 0)
(-0.0021848 -0.174533 0)
(-0.00669338 -0.181516 0)
(-0.0113481 -0.179934 0)
(-0.0159396 -0.177604 0)
(-0.0205693 -0.174526 0)
(-0.0252023 -0.170695 0)
(-0.0298347 -0.166112 0)
(-0.0344575 -0.160794 0)
(-0.0390481 -0.154753 0)
(-0.0435771 -0.148001 0)
(-0.0480108 -0.140549 0)
(-0.0523138 -0.132413 0)
(-0.0564528 -0.123613 0)
(-0.0603971 -0.114178 0)
(-0.064119 -0.104147 0)
(-0.0675893 -0.0935669 0)
(-0.0707848 -0.0824876 0)
(-0.0736903 -0.0709659 0)
(-0.0762967 -0.0590653 0)
(-0.078598 -0.0468512 0)
(-0.080574 -0.0343967 0)
(-0.0822649 -0.0218015 0)
(-0.0837965 -0.009128 0)
(-0.00176535 -0.170461 0)
(-0.00547688 -0.177205 0)
(-0.00941806 -0.175644 0)
(-0.0132448 -0.173298 0)
(-0.017106 -0.170216 0)
(-0.0209621 -0.16639 0)
(-0.0248094 -0.161826 0)
(-0.0286551 -0.156541 0)
(-0.0324921 -0.15055 0)
(-0.0363046 -0.143866 0)
(-0.0400639 -0.13651 0)
(-0.0437312 -0.128502 0)
(-0.0472679 -0.119861 0)
(-0.0506426 -0.110614 0)
(-0.0538312 -0.100803 0)
(-0.0568082 -0.0904662 0)
(-0.0595534 -0.0796444 0)
(-0.0620581 -0.0683878 0)
(-0.0643223 -0.0567576 0)
(-0.0663473 -0.044816 0)
(-0.0681291 -0.0326254 0)
(-0.0696943 -0.0202771 0)
(-0.0711488 -0.00785125 0)
(-0.00130697 -0.167265 0)
(-0.00428015 -0.173655 0)
(-0.00761354 -0.172129 0)
(-0.0107301 -0.169792 0)
(-0.0138521 -0.16673 0)
(-0.0169445 -0.162949 0)
(-0.0199201 -0.158394 0)
(-0.0227967 -0.153073 0)
(-0.0256547 -0.147031 0)
(-0.028564 -0.140317 0)
(-0.0315694 -0.132977 0)
(-0.0346541 -0.125047 0)
(-0.0377511 -0.116554 0)
(-0.0407281 -0.107502 0)
(-0.0434924 -0.0978961 0)
(-0.0460791 -0.0877845 0)
(-0.0484551 -0.0772001 0)
(-0.0506132 -0.0661756 0)
(-0.052565 -0.0547669 0)
(-0.0543221 -0.0430345 0)
(-0.0558992 -0.0310277 0)
(-0.0573336 -0.0188533 0)
(-0.0587259 -0.00660521 0)
(-0.000843615 -0.165206 0)
(-0.00328169 -0.171068 0)
(-0.00626424 -0.169598 0)
(-0.00886483 -0.167307 0)
(-0.0114344 -0.164281 0)
(-0.0139063 -0.160533 0)
(-0.0162435 -0.156023 0)
(-0.0184818 -0.150759 0)
(-0.0205631 -0.144716 0)
(-0.0224436 -0.137902 0)
(-0.0241978 -0.130416 0)
(-0.0259482 -0.122325 0)
(-0.027807 -0.113691 0)
(-0.0298614 -0.104566 0)
(-0.0321576 -0.0950061 0)
(-0.0345385 -0.0850409 0)
(-0.0368887 -0.0747162 0)
(-0.0390355 -0.0640352 0)
(-0.0408134 -0.0529456 0)