/*--------------------------------*- C++ -*----------------------------------*\
| =========                 |                                                 |
| \\      /  F ield         | OpenFOAM: The Open Source CFD Toolbox           |
|  \\    /   O peration     | Version:  2.4.0                                 |
|   \\  /    A nd           | Web:      www.OpenFOAM.org                      |
|    \\/     M anipulation  |                                                 |
\*---------------------------------------------------------------------------*/
FoamFile
{
    version     2.0;
    format      ascii;
    class       volVectorField;
    location    "0.25";
    object      U.oil;
}
// * * * * * * * * * * * * * * * * * * * * * * * * * * * * * * * * * * * * * //

dimensions      [0 1 -1 0 0 0 0];

internalField   nonuniform List<vector> 
2268
(
(0.0194667 -0.00918125 0)
(0.0582307 -0.00922717 0)
(0.0981553 -0.00928828 0)
(0.135725 -0.0095013 0)
(0.18079 -0.00946604 0)
(0.213884 -0.0104323 0)
(0.267228 -0.00875347 0)
(0.296795 -0.0128352 0)
(0.35852 -0.0101756 0)
(0.401309 -0.0093724 0)
(0.432487 -0.0124092 0)
(0.490178 -0.0156204 0)
(0.574049 -0.0141975 0)
(0.621083 -0.0141134 0)
(0.670772 -0.00669256 0)
(0.69194 -0.00653757 0)
(0.715222 -0.00389391 0)
(0.734131 0.00272784 0)
(0.717364 0.0130411 0)
(0.662708 0.0307794 0)
(0.544279 0.0481771 0)
(0.339146 0.132104 0)
(0.0734777 0.104159 0)
(0.0194565 -0.0275511 0)
(0.0582158 -0.0277007 0)
(0.0981059 -0.0278657 0)
(0.135648 -0.0286385 0)
(0.180865 -0.0279331 0)
(0.213416 -0.0325835 0)
(0.266683 -0.0241065 0)
(0.299065 -0.0401105 0)
(0.357069 -0.0316797 0)
(0.400066 -0.026371 0)
(0.433037 -0.0359152 0)
(0.495847 -0.047584 0)
(0.575138 -0.0464056 0)
(0.624181 -0.0380843 0)
(0.661631 -0.0263955 0)
(0.688352 -0.0176318 0)
(0.716878 -0.0062981 0)
(0.751597 0.00421302 0)
(0.747602 0.034399 0)
(0.70263 0.0691574 0)
(0.583233 0.112613 0)
(0.35478 0.193116 0)
(0.0952643 0.274297 0)
(0.0194153 -0.0458904 0)
(0.0581119 -0.0461315 0)
(0.0978478 -0.0464105 0)
(0.135438 -0.0476504 0)
(0.180418 -0.0468905 0)
(0.212548 -0.0523879 0)
(0.266337 -0.044124 0)
(0.300174 -0.0634107 0)
(0.353466 -0.0516133 0)
(0.398465 -0.045693 0)
(0.43712 -0.0640476 0)
(0.501541 -0.0797182 0)
(0.571054 -0.0742827 0)
(0.614659 -0.0567653 0)
(0.66104 -0.0373897 0)
(0.688586 -0.0246986 0)
(0.746367 -0.00916113 0)
(0.77526 0.0401108 0)
(0.781033 0.102514 0)
(0.741179 0.168405 0)
(0.633068 0.265127 0)
(0.356434 0.334713 0)
(0.139505 0.380521 0)
(0.0193561 -0.0642091 0)
(0.0579622 -0.0645279 0)
(0.0974507 -0.064948 0)
(0.135258 -0.0666454 0)
(0.179346 -0.0655013 0)
(0.212127 -0.073134 0)
(0.265176 -0.0628229 0)
(0.300173 -0.0863905 0)
(0.349496 -0.0735881 0)
(0.39662 -0.0668487 0)
(0.443699 -0.0894261 0)
(0.505863 -0.107715 0)
(0.556081 -0.0967195 0)
(0.604673 -0.0758318 0)
(0.659837 -0.0440841 0)
(0.720118 -0.018547 0)
(0.787339 0.047315 0)
(0.819695 0.183721 0)
(0.816401 0.275592 0)
(0.746862 0.338407 0)
(0.662258 0.424901 0)
(0.434913 0.509102 0)
(0.0946683 0.560323 0)
(0.0192781 -0.0825487 0)
(0.0577433 -0.0829278 0)
(0.0969397 -0.0835436 0)
(0.134886 -0.0855466 0)
(0.178122 -0.0845146 0)
(0.21104 -0.0928874 0)
(0.264345 -0.0839493 0)
(0.29797 -0.107612 0)
(0.346679 -0.0936473 0)
(0.393161 -0.092927 0)
(0.451542 -0.11759 0)
(0.504077 -0.125546 0)
(0.54067 -0.110153 0)
(0.606876 -0.0803549 0)
(0.675571 -0.031074 0)
(0.776882 0.0395573 0)
(0.850554 0.0780104 0)
(0.853857 0.11126 0)
(0.816325 0.230669 0)
(0.668902 0.361786 0)
(0.559978 0.59499 0)
(0.342144 0.72657 0)
(0.15532 0.693926 0)
(0.0191819 -0.100529 0)
(0.0574442 -0.100933 0)
(0.0963202 -0.101726 0)
(0.134316 -0.103935 0)
(0.176497 -0.102719 0)
(0.209899 -0.112555 0)
(0.262924 -0.103722 0)
(0.29366 -0.126014 0)
(0.348579 -0.116526 0)
(0.38868 -0.118672 0)
(0.455651 -0.139326 0)
(0.499429 -0.142124 0)
(0.544083 -0.13856 0)
(0.62923 -0.0961671 0)
(0.71492 -0.0336091 0)
(0.779175 0.000927329 0)
(0.768054 0.04881 0)
(0.671323 0.238578 0)
(0.625679 0.399397 0)
(0.39865 0.653046 0)
(0.419582 0.640833 0)
(0.296895 0.817609 0)
(0.0883395 0.886372 0)
(0.0191062 -0.116779 0)
(0.0571707 -0.117072 0)
(0.0958394 -0.117784 0)
(0.133707 -0.119636 0)
(0.174984 -0.11795 0)
(0.209466 -0.128021 0)
(0.260376 -0.118631 0)
(0.292423 -0.14208 0)
(0.344767 -0.131997 0)
(0.395476 -0.148596 0)
(0.45121 -0.167819 0)
(0.498336 -0.191809 0)
(0.570335 -0.215255 0)
(0.634012 -0.183291 0)
(0.632123 -0.102221 0)
(0.531959 0.105708 0)
(0.423206 0.0867225 0)
(0.469272 -0.0289788 0)
(0.534465 0.0369984 0)
(0.595093 0.283805 0)
(0.233366 0.692345 0)
(0.246409 0.892985 0)
(0.143039 1.04212 0)
(0.0191927 -0.1357 0)
(0.05735 -0.136075 0)
(0.0962463 -0.137085 0)
(0.133905 -0.139178 0)
(0.174966 -0.13716 0)
(0.211392 -0.150248 0)
(0.258432 -0.141591 0)
(0.294628 -0.167029 0)
(0.337821 -0.173247 0)
(0.403743 -0.188605 0)
(0.433417 -0.221336 0)
(0.494109 -0.255443 0)
(0.534938 -0.296618 0)
(0.495711 -0.227874 0)
(0.39518 -0.0800749 0)
(0.416007 -0.0862015 0)
(0.504389 -0.0576793 0)
(0.646929 0.0708221 0)
(0.560835 0.221799 0)
(0.665153 0.43106 0)
(0.172775 0.791463 0)
(0.266527 0.875229 0)
(0.131017 1.19786 0)
(-1.15141 0.346182 0)
(-1.78505 0.134011 0)
(-2.0413 0.0420634 0)
(-1.9826 -0.114221 0)
(-1.37448 -0.126146 0)
(-1.10581 -0.0795882 0)
(-0.666158 -0.101051 0)
(-0.164123 -0.120071 0)
(0.189613 -0.103068 0)
(0.546775 -0.0916489 0)
(0.800349 -0.0833171 0)
(1.00479 -0.0683699 0)
(1.12275 -0.0598489 0)
(1.11109 -0.0507286 0)
(1.05108 -0.0469052 0)
(0.906188 -0.0070433 0)
(0.681317 -0.0345669 0)
(0.170937 -0.121689 0)
(0.171036 -0.0876897 0)
(-1.06132 0.703431 0)
(-1.64971 0.321941 0)
(-1.83708 0.0741984 0)
(-1.65898 -0.188863 0)
(-1.41252 -0.306109 0)
(-0.984739 -0.340354 0)
(-0.432391 -0.220711 0)
(0.0202508 -0.283526 0)
(0.361228 -0.218454 0)
(0.686727 -0.171457 0)
(0.952051 -0.11559 0)
(1.1422 -0.0653312 0)
(1.24088 0.0109288 0)
(1.24776 0.0735494 0)
(1.1832 0.138799 0)
(1.02478 0.181877 0)
(0.831308 0.283984 0)
(0.345376 0.229298 0)
(0.216794 0.131227 0)
(-1.04626 1.27856 0)
(-1.29919 0.643824 0)
(-1.3331 0.0664575 0)
(-1.27928 -0.222319 0)
(-1.12827 -0.46772 0)
(-0.817445 -0.597504 0)
(-0.254782 -0.505253 0)
(0.145705 -0.475521 0)
(0.499078 -0.408788 0)
(0.799421 -0.342758 0)
(1.04649 -0.264652 0)
(1.21082 -0.183795 0)
(1.33285 -0.0758321 0)
(1.35349 -0.00652601 0)
(1.31332 0.105864 0)
(1.1492 0.185015 0)
(0.966452 0.316036 0)
(0.541893 0.311188 0)
(0.307924 0.192146 0)
(-0.909546 1.57567 0)
(-0.641048 0.567121 0)
(-0.716988 -0.0114011 0)
(-0.869796 -0.1183 0)
(-0.778557 -0.414889 0)
(-0.526471 -0.749515 0)
(-0.124212 -0.66234 0)
(0.27674 -0.615417 0)
(0.606768 -0.516428 0)
(0.889945 -0.410933 0)
(1.12666 -0.308459 0)
(1.28318 -0.212686 0)
(1.42405 -0.0600219 0)
(1.4401 0.0538094 0)
(1.41151 0.234724 0)
(1.28365 0.314556 0)
(1.09652 0.491621 0)
(0.682787 0.498675 0)
(0.338624 0.402081 0)
(-0.709446 1.87118 0)
(-0.344422 0.502561 0)
(-0.291826 -0.576629 0)
(-0.377973 -0.458409 0)
(-0.386748 -0.522808 0)
(-0.347232 -0.870925 0)
(0.059269 -0.857562 0)
(0.392943 -0.794923 0)
(0.688138 -0.69173 0)
(0.949002 -0.556246 0)
(1.17201 -0.422601 0)
(1.31246 -0.302892 0)
(1.47766 -0.122065 0)
(1.48222 0.0094211 0)
(1.49873 0.219754 0)
(1.36382 0.369633 0)
(1.19021 0.632703 0)
(0.7606 0.675889 0)
(0.322916 0.599764 0)
(-0.714921 2.07098 0)
(-0.355832 0.590851 0)
(0.234004 -0.869707 0)
(0.163934 -0.95951 0)
(-0.00246066 -0.82877 0)
(-0.143268 -0.926682 0)
(0.179174 -0.97313 0)
(0.511449 -0.889472 0)
(0.766622 -0.774892 0)
(1.01535 -0.620021 0)
(1.23692 -0.46501 0)
(1.37465 -0.326709 0)
(1.55005 -0.147086 0)
(1.5557 0.0467112 0)
(1.60769 0.281231 0)
(1.452 0.456422 0)
(1.27457 0.70738 0)
(0.791434 0.903268 0)
(0.402453 0.800688 0)
(-0.733643 2.06448 0)
(-0.49394 1.29124 0)
(0.658072 -0.671781 0)
(0.614172 -1.0173 0)
(0.328791 -1.15208 0)
(0.129641 -1.07971 0)
(0.333983 -1.1158 0)
(0.613687 -1.03761 0)
(0.842577 -0.916567 0)
(1.07378 -0.748335 0)
(1.27534 -0.576332 0)
(1.43522 -0.40188 0)
(1.58716 -0.19084 0)
(1.61895 -0.00379477 0)
(1.67234 0.269055 0)
(1.5491 0.571962 0)
(1.37462 0.904659 0)
(0.790722 1.06596 0)
(0.344534 1.04385 0)
(-0.74129 2.00909 0)
(-0.575486 1.62429 0)
(-0.472255 1.24777 0)
(1.35328 0.535779 0)
(0.644628 -1.08452 0)
(0.340655 -1.12953 0)
(0.457543 -1.16172 0)
(0.700746 -1.10218 0)
(0.925241 -0.977115 0)
(1.13679 -0.8174 0)
(1.3334 -0.625941 0)
(1.50713 -0.453313 0)
(1.61735 -0.217083 0)
(1.68646 0.0386715 0)
(1.79965 0.302834 0)
(1.70705 0.639054 0)
(1.50081 1.12136 0)
(0.971259 1.28409 0)
(0.354219 1.27906 0)
(0.0197074 -0.194987 0)
(0.0587296 -0.19762 0)
(0.0987742 -0.202858 0)
(0.136767 -0.210492 0)
(0.176818 -0.216499 0)
(0.216638 -0.237306 0)
(0.248806 -0.242479 0)
(0.302488 -0.260342 0)
(0.318048 -0.281244 0)
(0.36746 -0.278538 0)
(0.37718 -0.277076 0)
(0.384826 -0.282241 0)
(0.393606 -0.219552 0)
(0.402439 -0.195991 0)
(0.459999 -0.161224 0)
(0.571638 -0.048878 0)
(0.64368 -0.0217901 0)
(0.669748 0.013069 0)
(0.636461 0.126936 0)
(0.834711 0.434219 0)
(0.454016 0.884014 0)
(0.544108 0.885894 0)
(0.465971 1.1763 0)
(0.0167619 -0.27787 0)
(0.0496836 -0.278646 0)
(0.0827174 -0.27943 0)
(0.111071 -0.279086 0)
(0.140775 -0.281986 0)
(0.170287 -0.282105 0)
(0.183264 -0.272246 0)
(0.220995 -0.254006 0)
(0.242529 -0.20336 0)
(0.275035 -0.181896 0)
(0.323539 -0.210721 0)
(0.389417 -0.249877 0)
(0.453499 -0.271121 0)
(0.527007 -0.252117 0)
(0.619073 -0.207695 0)
(0.704228 -0.143769 0)
(0.755431 -0.097345 0)
(0.821549 -0.00401673 0)
(0.815612 0.157746 0)
(0.919634 0.419838 0)
(0.871357 1.12821 0)
(0.781213 1.06394 0)
(0.597518 0.986648 0)
(0.0110993 -0.214882 0)
(0.033131 -0.214546 0)
(0.058697 -0.210616 0)
(0.0853349 -0.212981 0)
(0.117964 -0.218499 0)
(0.153059 -0.235467 0)
(0.192985 -0.261246 0)
(0.241591 -0.304533 0)
(0.302951 -0.31199 0)
(0.360614 -0.333707 0)
(0.430931 -0.339256 0)
(0.481427 -0.323109 0)
(0.531625 -0.300445 0)
(0.596219 -0.285299 0)
(0.675992 -0.267252 0)
(0.754157 -0.207604 0)
(0.814421 -0.140932 0)
(0.879742 -0.0507967 0)
(0.903651 0.130603 0)
(0.946958 0.386767 0)
(0.951845 1.0781 0)
(1.01198 1.29565 0)
(0.797352 1.09486 0)
(0.0185097 -0.305534 0)
(0.0547701 -0.307815 0)
(0.0931466 -0.306741 0)
(0.13216 -0.30988 0)
(0.171355 -0.308505 0)
(0.213592 -0.310711 0)
(0.253815 -0.309007 0)
(0.298044 -0.3191 0)
(0.339099 -0.303515 0)
(0.377199 -0.32109 0)
(0.43174 -0.334367 0)
(0.473487 -0.330699 0)
(0.527548 -0.336058 0)
(0.59764 -0.352475 0)
(0.696001 -0.297739 0)
(0.758391 -0.274935 0)
(0.830854 -0.208611 0)
(0.892559 -0.104318 0)
(0.876878 0.103994 0)
(0.88146 0.364918 0)
(0.887342 0.945166 0)
(1.03439 1.28394 0)
(1.0562 1.20265 0)
(0.0185234 -0.281757 0)
(0.0552989 -0.283831 0)
(0.0924489 -0.285399 0)
(0.129222 -0.289969 0)
(0.165099 -0.296246 0)
(0.20329 -0.305073 0)
(0.237566 -0.314359 0)
(0.273098 -0.333799 0)
(0.308514 -0.335812 0)
(0.3422 -0.380582 0)
(0.395662 -0.393277 0)
(0.435662 -0.405447 0)
(0.509833 -0.431495 0)
(0.602434 -0.413872 0)
(0.700298 -0.375905 0)
(0.753602 -0.339037 0)
(0.802128 -0.259136 0)
(0.791697 -0.135682 0)
(0.719805 0.118775 0)
(0.654814 0.372217 0)
(0.637063 0.773141 0)
(0.886405 1.12479 0)
(1.0962 1.14527 0)
(0.0165795 -0.332402 0)
(0.0503078 -0.335331 0)
(0.083094 -0.33974 0)
(0.117395 -0.344906 0)
(0.150524 -0.352965 0)
(0.183809 -0.361574 0)
(0.216569 -0.370928 0)
(0.252118 -0.389677 0)
(0.287794 -0.395848 0)
(0.331279 -0.435056 0)
(0.383058 -0.437957 0)
(0.429363 -0.46606 0)
(0.521939 -0.472206 0)
(0.598193 -0.456918 0)
(0.653176 -0.43595 0)
(0.671499 -0.381503 0)
(0.665297 -0.27147 0)
(0.536897 -0.0815107 0)
(0.432357 0.173715 0)
(0.367695 0.348392 0)
(0.449185 0.660262 0)
(0.606912 0.745965 0)
(0.931381 0.931316 0)
(0.0164944 -0.3733 0)
(0.049311 -0.375709 0)
(0.0826197 -0.378118 0)
(0.114981 -0.381771 0)
(0.148812 -0.386843 0)
(0.180882 -0.393735 0)
(0.214016 -0.403898 0)
(0.247348 -0.416803 0)
(0.279912 -0.433343 0)
(0.307682 -0.470373 0)
(0.359684 -0.475398 0)
(0.388098 -0.497678 0)
(0.466961 -0.521906 0)
(0.503479 -0.508676 0)
(0.50741 -0.471306 0)
(0.460526 -0.387724 0)
(0.328842 -0.179073 0)
(0.200287 0.013231 0)
(0.190887 0.188235 0)
(0.204337 0.291835 0)
(0.334301 0.49982 0)
(0.473757 0.532038 0)
(0.750045 0.593628 0)
(0.0152025 -0.395381 0)
(0.0457713 -0.398279 0)
(0.0765974 -0.400877 0)
(0.107616 -0.405094 0)
(0.13795 -0.410149 0)
(0.168608 -0.417149 0)
(0.197075 -0.425575 0)
(0.219767 -0.436231 0)
(0.245987 -0.451887 0)
(0.262131 -0.482494 0)
(0.289656 -0.467849 0)
(0.315168 -0.557909 0)
(0.358381 -0.56253 0)
(0.333898 -0.53216 0)
(0.263268 -0.436758 0)
(0.11242 -0.247642 0)
(0.0527897 -0.0833117 0)
(0.0325165 0.00658913 0)
(0.108857 0.122458 0)
(0.172128 0.197076 0)
(0.317602 0.3292 0)
(0.474399 0.325609 0)
(0.68707 0.379736 0)
(0.015216 -0.428077 0)
(0.0455742 -0.430511 0)
(0.075313 -0.432723 0)
(0.105698 -0.435704 0)
(0.136011 -0.439953 0)
(0.165219 -0.44437 0)
(0.194492 -0.447807 0)
(0.213458 -0.452359 0)
(0.233702 -0.462991 0)
(0.199575 -0.471884 0)
(0.195226 -0.485078 0)
(0.162582 -0.576314 0)
(0.140793 -0.557018 0)
(0.0464881 -0.461327 0)
(-0.0428462 -0.305196 0)
(-0.0623522 -0.206247 0)
(-0.0397225 -0.119574 0)
(0.0293817 -0.0604658 0)
(0.121879 0.0277709 0)
(0.215908 0.0847533 0)
(0.368801 0.160491 0)
(0.499553 0.161318 0)
(0.656296 0.196624 0)
(0.0146527 -0.451332 0)
(0.0435332 -0.453979 0)
(0.0728356 -0.457234 0)
(0.101346 -0.462485 0)
(0.131388 -0.471642 0)
(0.162219 -0.484604 0)
(0.192895 -0.5015 0)
(0.212293 -0.522246 0)
(0.209222 -0.546399 0)
(0.0809668 -0.582812 0)
(-0.00300208 -0.559007 0)
(-0.148033 -0.572463 0)
(-0.130053 -0.488749 0)
(-0.155258 -0.376583 0)
(-0.134616 -0.298248 0)
(-0.0973688 -0.244677 0)
(-0.0155654 -0.193423 0)
(0.0854873 -0.151167 0)
(0.170687 -0.0824831 0)
(0.290222 -0.0365219 0)
(0.401915 0.0397359 0)
(0.496283 0.058583 0)
(0.6533 0.110355 0)
(0.0144615 -0.593269 0)
(0.0423889 -0.59991 0)
(0.0688435 -0.608255 0)
(0.0934277 -0.621959 0)
(0.115392 -0.637836 0)
(0.137866 -0.667846 0)
(0.158406 -0.7065 0)
(0.172605 -0.747271 0)
(0.0858734 -0.807017 0)
(-0.198067 -0.843137 0)
(-0.320648 -0.693663 0)
(-0.399777 -0.651431 0)
(-0.246965 -0.615762 0)
(-0.212698 -0.497404 0)
(-0.13855 -0.431633 0)
(-0.0489346 -0.370481 0)
(0.0432789 -0.304058 0)
(0.142476 -0.233886 0)
(0.221737 -0.184424 0)
(0.368703 -0.134798 0)
(0.437821 -0.0941553 0)
(0.613983 -0.0733073 0)
(0.67054 -0.175184 0)
(0.0110884 -0.894626 0)
(0.0298168 -0.909585 0)
(0.0489429 -0.936578 0)
(0.0631651 -0.979663 0)
(0.0724295 -1.04842 0)
(0.0749938 -1.03067 0)
(0.0643405 -0.875844 0)
(-0.00512515 -0.60754 0)
(-0.311306 -0.880275 0)
(-0.496678 -0.973368 0)
(-0.676528 -1.03837 0)
(-0.605903 -1.22597 0)
(-0.246239 -1.1372 0)
(-0.133072 -0.855129 0)
(-0.00380552 -0.780009 0)
(0.0444538 -0.668496 0)
(0.111723 -0.591042 0)
(0.185639 -0.522227 0)
(0.259203 -0.50953 0)
(0.342801 -0.492244 0)
(0.413421 -0.485606 0)
(0.451316 -0.581525 0)
(0.438926 -0.675719 0)
(-0.0440616 0.00779113 0)
(-0.142849 0.02681 0)
(-0.252269 0.0454276 0)
(-0.373734 0.0147259 0)
(-0.489496 -0.120708 0)
(-0.578768 -0.372856 0)
(-0.606945 -0.647007 0)
(-0.534776 -0.694294 0)
(-0.387566 -0.890463 0)
(-0.378218 -1.05559 0)
(0.0251863 -1.10658 0)
(0.318845 -1.22736 0)
(-0.0637398 -1.84775 0)
(0.0133989 -1.69295 0)
(0.112699 -1.45423 0)
(0.109062 -1.23715 0)
(0.134342 -1.0995 0)
(0.16067 -1.01754 0)
(0.206971 -0.972482 0)
(0.206668 -0.971359 0)
(0.218675 -0.995321 0)
(0.174975 -0.771267 0)
(0.0396667 -0.502167 0)
(-0.0318315 -0.832087 0)
(-0.0860611 -0.82788 0)
(-0.116966 -0.812879 0)
(-0.130628 -0.786756 0)
(-0.126869 -0.735901 0)
(-0.100579 -0.663055 0)
(-0.0802621 -0.566032 0)
(-0.0910486 -0.443388 0)
(-0.103949 -0.244456 0)
(-0.0402686 -0.127746 0)
(0.104778 -0.316899 0)
(0.0449433 -0.756797 0)
(-0.0442378 -0.863394 0)
(-0.118491 -0.841938 0)
(-0.0782926 -0.733816 0)
(-0.0813393 -0.585507 0)
(-0.160817 -0.518971 0)
(-0.240965 -0.488485 0)
(-0.315401 -0.559151 0)
(-0.311735 -0.730139 0)
(-0.256547 -0.728616 0)
(0.0640996 -0.425606 0)
(-0.0576153 -0.381028 0)
(-0.0128353 -0.107432 0)
(-0.0330308 -0.128829 0)
(-0.048332 -0.154707 0)
(-0.0653955 -0.190216 0)
(-0.0820345 -0.234939 0)
(-0.0940634 -0.288201 0)
(-0.109145 -0.352432 0)
(-0.129154 -0.398788 0)
(-0.129303 -0.414846 0)
(-0.0747014 -0.405535 0)
(0.0216993 -0.519308 0)
(-0.0809426 -0.573223 0)
(-0.176986 -0.533857 0)
(-0.253813 -0.41777 0)
(-0.272639 -0.32671 0)
(-0.211512 -0.290247 0)
(-0.116367 -0.263273 0)
(-0.0113946 -0.249553 0)
(0.0920597 -0.254939 0)
(0.0379454 -0.179407 0)
(-0.168459 0.172949 0)
(-0.363597 0.363905 0)
(-0.546032 0.222562 0)
(-0.00465848 -0.420302 0)
(-0.0127758 -0.439464 0)
(-0.0208494 -0.452782 0)
(-0.0310359 -0.468603 0)
(-0.0411658 -0.483597 0)
(-0.053537 -0.497191 0)
(-0.0704572 -0.507865 0)
(-0.0918319 -0.506895 0)
(-0.103801 -0.493515 0)
(-0.0762572 -0.489843 0)
(-0.0646446 -0.517573 0)
(-0.144263 -0.517121 0)
(-0.198421 -0.524599 0)
(-0.23231 -0.461637 0)
(-0.223676 -0.426505 0)
(-0.191905 -0.398175 0)
(-0.169929 -0.350751 0)
(-0.173846 -0.273778 0)
(-0.256512 -0.177886 0)
(-0.472488 -0.115373 0)
(-0.519953 -0.0636862 0)
(-0.454264 0.0185244 0)
(-0.447119 0.0151404 0)
(0.00154178 -0.3507 0)
(0.00372976 -0.366874 0)
(0.0034792 -0.374396 0)
(-0.00277322 -0.385288 0)
(-0.0136318 -0.398184 0)
(-0.0306649 -0.410223 0)
(-0.0538967 -0.418419 0)
(-0.0837739 -0.421024 0)
(-0.112038 -0.418673 0)
(-0.132408 -0.417418 0)
(-0.172447 -0.451514 0)
(-0.211965 -0.479396 0)
(-0.250823 -0.505821 0)
(-0.271287 -0.508887 0)
(-0.28572 -0.524816 0)
(-0.306162 -0.512253 0)
(-0.351574 -0.444397 0)
(-0.428326 -0.316646 0)
(-0.48088 -0.157305 0)
(-0.507681 -0.0314424 0)
(-0.510862 0.0720015 0)
(-0.496557 0.107093 0)
(-0.478011 0.107128 0)
(-0.0010279 -0.318699 0)
(-0.00407907 -0.337735 0)
(-0.00779937 -0.347721 0)
(-0.0154852 -0.359638 0)
(-0.0289691 -0.371473 0)
(-0.0487924 -0.382553 0)
(-0.0742453 -0.391669 0)
(-0.10403 -0.397523 0)
(-0.134137 -0.400757 0)
(-0.157856 -0.407595 0)
(-0.189316 -0.423709 0)
(-0.226198 -0.446299 0)
(-0.265072 -0.452397 0)
(-0.308233 -0.438393 0)
(-0.365171 -0.416934 0)
(-0.426862 -0.372223 0)
(-0.487909 -0.28428 0)
(-0.535609 -0.145458 0)
(-0.551952 -0.0605952 0)
(-0.551461 -0.0347908 0)
(-0.515848 -0.00972478 0)
(-0.473467 0.0348115 0)
(-0.445406 0.0648985 0)
(-0.00235818 -0.332656 0)
(-0.00870619 -0.347723 0)
(-0.0180099 -0.351907 0)
(-0.0311686 -0.356912 0)
(-0.046908 -0.362197 0)
(-0.065981 -0.367526 0)
(-0.0878115 -0.372937 0)
(-0.110711 -0.37569 0)
(-0.131593 -0.376438 0)
(-0.155156 -0.379876 0)
(-0.183694 -0.390045 0)
(-0.226561 -0.400362 0)
(-0.276069 -0.393574 0)
(-0.328586 -0.379465 0)
(-0.391325 -0.366337 0)
(-0.453619 -0.346083 0)
(-0.505846 -0.285448 0)
(-0.526294 -0.185318 0)
(-0.51192 -0.114834 0)
(-0.488034 -0.0806093 0)
(-0.460358 -0.0414667 0)
(-0.429885 0.00456061 0)
(-0.40023 0.0333229 0)
(-0.00462016 -0.323133 0)
(-0.0152142 -0.33686 0)
(-0.0267756 -0.338932 0)
(-0.040056 -0.342729 0)
(-0.0550512 -0.346313 0)
(-0.0711388 -0.348973 0)
(-0.0888084 -0.35018 0)
(-0.107001 -0.35096 0)
(-0.125321 -0.352516 0)
(-0.146804 -0.356988 0)
(-0.178396 -0.36122 0)
(-0.218427 -0.356694 0)
(-0.255728 -0.346627 0)
(-0.298657 -0.33125 0)
(-0.344528 -0.305643 0)
(-0.396722 -0.277092 0)
(-0.438039 -0.234473 0)
(-0.44662 -0.171773 0)
(-0.433854 -0.116184 0)
(-0.419958 -0.0916724 0)
(-0.407435 -0.0646695 0)
(-0.383497 -0.0223371 0)
(-0.367372 0.00666555 0)
(-0.00508489 -0.312981 0)
(-0.0165126 -0.325946 0)
(-0.0284988 -0.327162 0)
(-0.0417532 -0.329513 0)
(-0.0561854 -0.331694 0)
(-0.0717177 -0.333826 0)
(-0.087988 -0.335664 0)
(-0.104784 -0.336434 0)
(-0.122653 -0.335925 0)
(-0.144855 -0.334139 0)
(-0.171712 -0.328976 0)
(-0.197152 -0.322253 0)
(-0.227352 -0.311964 0)
(-0.257019 -0.292465 0)
(-0.285696 -0.27192 0)
(-0.314174 -0.247698 0)
(-0.340508 -0.220236 0)
(-0.364846 -0.186051 0)
(-0.373195 -0.13911 0)
(-0.363682 -0.0912651 0)
(-0.361107 -0.0678902 0)
(-0.353308 -0.0384402 0)
(-0.347195 0.00658572 0)
(-0.00578934 -0.299878 0)
(-0.0185302 -0.312038 0)
(-0.0315056 -0.311961 0)
(-0.0450675 -0.312464 0)
(-0.0593544 -0.313169 0)
(-0.0746292 -0.313467 0)
(-0.0908645 -0.313114 0)
(-0.108038 -0.311906 0)
(-0.126891 -0.309896 0)
(-0.147488 -0.306505 0)
(-0.168401 -0.300801 0)
(-0.19238 -0.291423 0)
(-0.219081 -0.276887 0)
(-0.244461 -0.263656 0)
(-0.269225 -0.247415 0)
(-0.288658 -0.221166 0)
(-0.305451 -0.187035 0)
(-0.322224 -0.15086 0)
(-0.329452 -0.122282 0)
(-0.336467 -0.102843 0)
(-0.33264 -0.0746859 0)
(-0.329124 -0.035846 0)
(-0.331692 0.00547857 0)
(-0.00557124 -0.29142 0)
(-0.0176076 -0.302828 0)
(-0.0300931 -0.302775 0)
(-0.0430842 -0.303222 0)
(-0.0568026 -0.303148 0)
(-0.0713549 -0.302604 0)
(-0.0868343 -0.301394 0)
(-0.103528 -0.299355 0)
(-0.122031 -0.296379 0)
(-0.142653 -0.29192 0)
(-0.164794 -0.284 0)
(-0.18568 -0.272426 0)
(-0.204368 -0.262271 0)
(-0.225472 -0.246378 0)
(-0.247438 -0.224937 0)
(-0.267957 -0.203881 0)
(-0.283772 -0.181502 0)
(-0.292446 -0.155197 0)
(-0.300109 -0.122529 0)
(-0.305008 -0.0886634 0)
(-0.308967 -0.0628366 0)
(-0.312927 -0.0382055 0)
(-0.307122 -0.00306238 0)
(-0.00558778 -0.276659 0)
(-0.0176467 -0.287318 0)
(-0.0299345 -0.286368 0)
(-0.0428209 -0.285591 0)
(-0.0564212 -0.284471 0)
(-0.0709102 -0.282727 0)
(-0.086356 -0.280209 0)
(-0.102885 -0.276825 0)
(-0.120388 -0.272309 0)
(-0.138385 -0.266161 0)
(-0.155912 -0.259206 0)
(-0.173074 -0.251213 0)
(-0.19136 -0.237591 0)
(-0.208998 -0.221954 0)
(-0.224001 -0.204736 0)
(-0.239554 -0.183258 0)
(-0.256788 -0.156985 0)
(-0.27283 -0.128913 0)
(-0.280037 -0.106055 0)
(-0.281296 -0.0904533 0)
(-0.281863 -0.0705978 0)
(-0.285697 -0.037012 0)
(-0.285031 -0.00753837 0)
(-0.00562492 -0.268636 0)
(-0.0176826 -0.278901 0)
(-0.0298251 -0.277917 0)
(-0.0422534 -0.277038 0)
(-0.0550003 -0.275562 0)
(-0.0680864 -0.273433 0)
(-0.0815881 -0.270539 0)
(-0.0956228 -0.266776 0)
(-0.110425 -0.261956 0)
(-0.125994 -0.255598 0)
(-0.142567 -0.246796 0)
(-0.160207 -0.234879 0)
(-0.177902 -0.222341 0)
(-0.195236 -0.208074 0)
(-0.212742 -0.191306 0)
(-0.226546 -0.173143 0)
(-0.235746 -0.156553 0)
(-0.241454 -0.138874 0)
(-0.248273 -0.114312 0)
(-0.253061 -0.0837865 0)
(-0.261276 -0.0567524 0)
(-0.263866 -0.0370802 0)
(-0.260008 -0.0151768 0)
(-0.00542595 -0.253333 0)
(-0.0170697 -0.262936 0)
(-0.028784 -0.261588 0)
(-0.0407978 -0.26015 0)
(-0.0531543 -0.258085 0)
(-0.0659173 -0.25531 0)
(-0.079101 -0.251697 0)
(-0.0927288 -0.247094 0)
(-0.106743 -0.241264 0)
(-0.121035 -0.233977 0)
(-0.135324 -0.225452 0)
(-0.149349 -0.216623 0)
(-0.162831 -0.205511 0)
(-0.17561 -0.191602 0)
(-0.186945 -0.175689 0)
(-0.198643 -0.158392 0)
(-0.210675 -0.137332 0)
(-0.223244 -0.114835 0)
(-0.232021 -0.0952057 0)
(-0.236237 -0.0797974 0)
(-0.237164 -0.0609833 0)
(-0.239191 -0.0375795 0)
(-0.239704 -0.0158248 0)
(-0.00518508 -0.246152 0)
(-0.0161477 -0.255613 0)
(-0.0271971 -0.25426 0)
(-0.038447 -0.252767 0)
(-0.0499828 -0.250582 0)
(-0.0618734 -0.247651 0)
(-0.074184 -0.243864 0)
(-0.0869228 -0.239095 0)
(-0.0999779 -0.233179 0)
(-0.113077 -0.225876 0)
(-0.126011 -0.216826 0)
(-0.138955 -0.205808 0)
(-0.15203 -0.193526 0)
(-0.164885 -0.180538 0)
(-0.177214 -0.16631 0)
(-0.187926 -0.150437 0)
(-0.196629 -0.13432 0)
(-0.202744 -0.117019 0)
(-0.20779 -0.0973204 0)
(-0.212848 -0.0756827 0)
(-0.217414 -0.0553965 0)
(-0.220017 -0.0366797 0)
(-0.220043 -0.0175154 0)
(-0.00490821 -0.232707 0)
(-0.0154265 -0.241476 0)
(-0.0259368 -0.239865 0)
(-0.0366184 -0.237918 0)
(-0.0474675 -0.23523 0)
(-0.0584954 -0.231766 0)
(-0.0697006 -0.227462 0)
(-0.0810746 -0.22224 0)
(-0.0926179 -0.216027 0)
(-0.104353 -0.208801 0)
(-0.116184 -0.200587 0)
(-0.127801 -0.19134 0)
(-0.138882 -0.180609 0)
(-0.149359 -0.168007 0)
(-0.159224 -0.153974 0)
(-0.168504 -0.138974 0)
(-0.177058 -0.122586 0)
(-0.18491 -0.105471 0)
(-0.191305 -0.0884081 0)
(-0.195606 -0.0715477 0)
(-0.198381 -0.0539423 0)
(-0.200874 -0.0356691 0)
(-0.202001 -0.0174669 0)
(-0.00465286 -0.224934 0)
(-0.0144625 -0.233613 0)
(-0.024291 -0.232051 0)
(-0.034232 -0.230141 0)
(-0.0443148 -0.227487 0)
(-0.0545609 -0.22404 0)
(-0.064973 -0.21972 0)
(-0.0755204 -0.214433 0)
(-0.0861283 -0.208076 0)
(-0.0966904 -0.200555 0)
(-0.107131 -0.191801 0)
(-0.117437 -0.181824 0)
(-0.127564 -0.17079 0)
(-0.137292 -0.158874 0)
(-0.146367 -0.145933 0)
(-0.154628 -0.131877 0)
(-0.161939 -0.116999 0)
(-0.16818 -0.101276 0)
(-0.17346 -0.0847431 0)
(-0.177707 -0.0677073 0)
(-0.180906 -0.0508227 0)
(-0.183471 -0.0340931 0)
(-0.18487 -0.0171143 0)
(-0.00430313 -0.21449 0)
(-0.0134406 -0.222713 0)
(-0.0225641 -0.221048 0)
(-0.0317704 -0.218928 0)
(-0.0410695 -0.21603 0)
(-0.0504667 -0.212336 0)
(-0.0599548 -0.207808 0)
(-0.0695126 -0.202404 0)
(-0.0791056 -0.196092 0)
(-0.088681 -0.188843 0)
(-0.0981522 -0.180621 0)
(-0.107394 -0.171384 0)
(-0.116285 -0.161054 0)
(-0.12476 -0.149592 0)
(-0.132752 -0.137125 0)
(-0.140133 -0.123792 0)
(-0.14679 -0.109648 0)
(-0.152658 -0.0948833 0)
(-0.157623 -0.0796444 0)
(-0.161529 -0.0640486 0)
(-0.164451 -0.0482503 0)
(-0.166924 -0.0323755 0)
(-0.168586 -0.0163265 0)
(-0.00399539 -0.206587 0)
(-0.0124059 -0.214624 0)
(-0.020808 -0.212976 0)
(-0.0292625 -0.210828 0)
(-0.0377802 -0.207905 0)
(-0.0463573 -0.204183 0)
(-0.0549825 -0.199623 0)
(-0.0636296 -0.194185 0)
(-0.0722594 -0.187829 0)
(-0.0808215 -0.180525 0)
(-0.089258 -0.172261 0)
(-0.0975059 -0.163043 0)
(-0.105486 -0.152908 0)
(-0.113092 -0.141901 0)
(-0.120216 -0.130039 0)
(-0.126778 -0.117364 0)
(-0.1327 -0.10398 0)
(-0.137924 -0.0899773 0)
(-0.142418 -0.0754667 0)
(-0.146089 -0.060595 0)
(-0.148918 -0.0455836 0)
(-0.151284 -0.0305389 0)
(-0.153046 -0.0153187 0)
(-0.00364295 -0.198434 0)
(-0.0113018 -0.206191 0)
(-0.0189601 -0.20453 0)
(-0.0266448 -0.202311 0)
(-0.0343741 -0.199312 0)
(-0.0421393 -0.195523 0)
(-0.0499278 -0.190924 0)
(-0.0577162 -0.185495 0)
(-0.0654704 -0.179218 0)
(-0.0731444 -0.172079 0)
(-0.0806819 -0.164068 0)
(-0.0880174 -0.155182 0)
(-0.0950824 -0.145426 0)
(-0.101811 -0.134824 0)
(-0.108136 -0.123432 0)
(-0.113982 -0.111317 0)
(-0.119284 -0.0985579 0)
(-0.123995 -0.0852505 0)
(-0.12808 -0.0714898 0)
(-0.131473 -0.0573785 0)
(-0.134144 -0.0430679 0)
(-0.136376 -0.0286896 0)
(-0.138164 -0.0141676 0)
(-0.00329968 -0.191436 0)
(-0.0101897 -0.198993 0)
(-0.0170972 -0.197351 0)
(-0.0240103 -0.195101 0)
(-0.0309563 -0.192077 0)
(-0.03792 -0.188269 0)
(-0.0448886 -0.183665 0)
(-0.0518398 -0.178251 0)
(-0.0587432 -0.172017 0)
(-0.06556 -0.164958 0)
(-0.0722445 -0.157075 0)
(-0.0787453 -0.148378 0)
(-0.0850055 -0.138889 0)
(-0.0909654 -0.12864 0)
(-0.0965646 -0.117671 0)
(-0.10175 -0.106037 0)
(-0.106471 -0.0938094 0)
(-0.110689 -0.0810672 0)
(-0.114382 -0.0678974 0)
(-0.117506 -0.0543908 0)
(-0.120016 -0.0406721 0)
(-0.12211 -0.026866 0)
(-0.123867 -0.0129393 0)
(-0.00294126 -0.184997 0)
(-0.00904714 -0.192352 0)
(-0.0151999 -0.190727 0)
(-0.0213385 -0.188448 0)
(-0.0275071 -0.185401 0)
(-0.033685 -0.181581 0)
(-0.0398603 -0.176984 0)
(-0.0460128 -0.171607 0)
(-0.0521143 -0.165447 0)
(-0.05813 -0.158506 0)
(-0.0640196 -0.150789 0)
(-0.0697389 -0.14231 0)
(-0.0752415 -0.133087 0)
(-0.0804805 -0.123152 0)
(-0.0854106 -0.112547 0)
(-0.0899867 -0.101325 0)
(-0.0941696 -0.0895497 0)
(-0.0979298 -0.0772926 0)
(-0.101248 -0.0646302 0)
(-0.104098 -0.0516407 0)
(-0.106438 -0.0384248 0)
(-0.108392 -0.0251016 0)
(-0.110086 -0.0116775 0)
(-0.00257396 -0.179388 0)
(-0.00788515 -0.186561 0)
(-0.013284 -0.184959 0)
(-0.0186484 -0.182655 0)
(-0.0240459 -0.179592 0)
(-0.0294486 -0.175767 0)
(-0.0348477 -0.171179 0)
(-0.0402259 -0.165832 0)
(-0.0455577 -0.159734 0)
(-0.0508115 -0.15289 0)
(-0.0559519 -0.145311 0)
(-0.0609407 -0.137012 0)
(-0.0657393 -0.128014 0)
(-0.0703101 -0.118348 0)
(-0.0746153 -0.108055 0)
(-0.0786215 -0.0971823 0)
(-0.0822985 -0.0857869 0)
(-0.0856222 -0.0739328 0)
(-0.0885797 -0.0616891 0)
(-0.0911556 -0.0491269 0)
(-0.0933173 -0.0363309 0)
(-0.0951381 -0.0234097 0)
(-0.0967557 -0.0104017 0)
(-0.0021848 -0.174533 0)
(-0.00669338 -0.181516 0)
(-0.0113481 -0.179934 0)
(-0.0159396 -0.177604 0)
(-0.0205693 -0.174526 0)
(-0.0252023 -0.170695 0)
(-0.0298347 -0.166112 0)
(-0.0344575 -0.160794 0)
(-0.0390481 -0.154753 0)
(-0.0435771 -0.148001 0)
(-0.0480108 -0.140549 0)
(-0.0523138 -0.132413 0)
(-0.0564528 -0.123613 0)
(-0.0603971 -0.114178 0)
(-0.064119 -0.104147 0)
(-0.0675893 -0.0935669 0)
(-0.0707848 -0.0824876 0)
(-0.0736903 -0.0709659 0)
(-0.0762967 -0.0590653 0)
(-0.078598 -0.0468512 0)
(-0.080574 -0.0343967 0)
(-0.0822649 -0.0218015 0)
(-0.0837965 -0.009128 0)
(-0.00176535 -0.170461 0)
(-0.00547688 -0.177205 0)
(-0.00941806 -0.175644 0)
(-0.0132448 -0.173298 0)
(-0.017106 -0.170216 0)
(-0.0209621 -0.16639 0)
(-0.0248094 -0.161826 0)
(-0.0286551 -0.156541 0)
(-0.0324921 -0.15055 0)
(-0.0363046 -0.143866 0)
(-0.0400639 -0.13651 0)
(-0.0437312 -0.128502 0)
(-0.0472679 -0.119861 0)
(-0.0506426 -0.110614 0)
(-0.0538312 -0.100803 0)
(-0.0568082 -0.0904662 0)
(-0.0595534 -0.0796444 0)
(-0.0620581 -0.0683878 0)
(-0.0643223 -0.0567576 0)
(-0.0663473 -0.044816 0)
(-0.0681291 -0.0326254 0)
(-0.0696943 -0.0202771 0)
(-0.0711488 -0.00785125 0)
(-0.00130697 -0.167265 0)
(-0.00428015 -0.173655 0)
(-0.00761354 -0.172129 0)
(-0.0107301 -0.169792 0)
(-0.0138521 -0.16673 0)
(-0.0169445 -0.162949 0)
(-0.0199201 -0.158394 0)
(-0.0227967 -0.153073 0)
(-0.0256547 -0.147031 0)
(-0.028564 -0.140317 0)
(-0.0315694 -0.132977 0)
(-0.0346541 -0.125047 0)
(-0.0377511 -0.116554 0)
(-0.0407281 -0.107502 0)
(-0.0434924 -0.0978961 0)
(-0.0460791 -0.0877845 0)
(-0.0484551 -0.0772001 0)
(-0.0506132 -0.0661756 0)
(-0.052565 -0.0547669 0)
(-0.0543221 -0.0430345 0)
(-0.0558992 -0.0310277 0)
(-0.0573336 -0.0188533 0)
(-0.0587259 -0.00660521 0)
(-0.000843615 -0.165206 0)
(-0.00328169 -0.171068 0)
(-0.00626424 -0.169598 0)
(-0.00886483 -0.167307 0)
(-0.0114344 -0.164281 0)
(-0.0139063 -0.160533 0)
(-0.0162435 -0.156023 0)
(-0.0184818 -0.150759 0)
(-0.0205631 -0.144716 0)
(-0.0224436 -0.137902 0)
(-0.0241978 -0.130416 0)
(-0.0259482 -0.122325 0)
(-0.027807 -0.113691 0)
(-0.0298614 -0.104566 0)
(-0.0321576 -0.0950061 0)
(-0.0345385 -0.0850409 0)
(-0.0368887 -0.0747162 0)
(-0.0390355 -0.0640352 0)
(-0.0408134 -0.0529456 0)