/*--------------------------------*- C++ -*----------------------------------*\
| =========                 |                                                 |
| \\      /  F ield         | OpenFOAM: The Open Source CFD Toolbox           |
|  \\    /   O peration     | Version:  2.4.0                                 |
|   \\  /    A nd           | Web:      www.OpenFOAM.org                      |
|    \\/     M anipulation  |                                                 |
\*---------------------------------------------------------------------------*/
FoamFile
{
    version     2.0;
    format      ascii;
    class       volVectorField;
    location    "0.25";
    object      U.water;
}
// * * * * * * * * * * * * * * * * * * * * * * * * * * * * * * * * * * * * * //

dimensions      [0 1 -1 0 0 0 0];

internalField   nonuniform List<vector> 
2268
(
(0.0194667 -0.00918121 0)
(0.0582307 -0.00922715 0)
(0.0981553 -0.00928825 0)
(0.135725 -0.00950128 0)
(0.18079 -0.00946602 0)
(0.213884 -0.0104322 0)
(0.267228 -0.00875343 0)
(0.296795 -0.0128351 0)
(0.35852 -0.0101753 0)
(0.401309 -0.00937156 0)
(0.432487 -0.0124064 0)
(0.490177 -0.0156193 0)
(0.574048 -0.0142059 0)
(0.62108 -0.0141413 0)
(0.670765 -0.00676449 0)
(0.691929 -0.0067758 0)
(0.715247 -0.00462478 0)
(0.734466 0.0012542 0)
(0.718599 0.0103171 0)
(0.667058 0.0266574 0)
(0.56146 0.0372455 0)
(0.375683 0.0912947 0)
(0.0972513 0.0271368 0)
(0.0194565 -0.0275508 0)
(0.0582158 -0.0277005 0)
(0.0981059 -0.0278656 0)
(0.135648 -0.0286384 0)
(0.180865 -0.0279329 0)
(0.213416 -0.0325833 0)
(0.266683 -0.0241062 0)
(0.299065 -0.0401096 0)
(0.35707 -0.031678 0)
(0.400067 -0.0263661 0)
(0.433038 -0.0359014 0)
(0.495846 -0.0475812 0)
(0.575133 -0.0464333 0)
(0.624168 -0.0381893 0)
(0.661598 -0.0267848 0)
(0.688301 -0.0188386 0)
(0.71692 -0.00805123 0)
(0.752036 0.00356364 0)
(0.749034 0.0319959 0)
(0.706878 0.0651626 0)
(0.601656 0.10097 0)
(0.392838 0.144101 0)
(0.119749 0.182155 0)
(0.0194153 -0.0458894 0)
(0.0581119 -0.0461309 0)
(0.0978478 -0.04641 0)
(0.135438 -0.0476499 0)
(0.180418 -0.04689 0)
(0.212548 -0.0523873 0)
(0.266337 -0.044123 0)
(0.300174 -0.0634063 0)
(0.353467 -0.051604 0)
(0.398467 -0.0456704 0)
(0.437124 -0.0639963 0)
(0.50154 -0.0797283 0)
(0.571035 -0.0744945 0)
(0.614587 -0.0574295 0)
(0.660852 -0.0374276 0)
(0.688358 -0.0188772 0)
(0.746303 -0.00333796 0)
(0.775072 0.0344114 0)
(0.780756 0.0955189 0)
(0.743007 0.163868 0)
(0.647515 0.260313 0)
(0.395083 0.280333 0)
(0.168066 0.271541 0)
(0.0193561 -0.064206 0)
(0.0579622 -0.0645264 0)
(0.0974508 -0.0649469 0)
(0.135258 -0.0666443 0)
(0.179347 -0.0655002 0)
(0.212127 -0.073132 0)
(0.265176 -0.0628182 0)
(0.300175 -0.0863682 0)
(0.349501 -0.0735462 0)
(0.396631 -0.0667821 0)
(0.443709 -0.0889295 0)
(0.505825 -0.104137 0)
(0.55591 -0.0841073 0)
(0.604505 -0.0570268 0)
(0.661062 -0.0270857 0)
(0.725531 0.0158436 0)
(0.797319 0.13364 0)
(0.82142 0.181149 0)
(0.816024 0.266289 0)
(0.732216 0.365737 0)
(0.647467 0.449421 0)
(0.461538 0.4595 0)
(0.122473 0.438058 0)
(0.0192782 -0.0825417 0)
(0.0577434 -0.0829249 0)
(0.0969397 -0.0835418 0)
(0.134886 -0.085545 0)
(0.178122 -0.084513 0)
(0.21104 -0.0928759 0)
(0.264347 -0.0839307 0)
(0.297978 -0.107432 0)
(0.346693 -0.0925083 0)
(0.39324 -0.0859478 0)
(0.452232 -0.0958378 0)
(0.507832 -0.0908753 0)
(0.553675 -0.0377463 0)
(0.632436 0.05734 0)
(0.696764 0.0848344 0)
(0.78534 0.0878366 0)
(0.849357 0.0709926 0)
(0.852596 0.0988607 0)
(0.820968 0.210735 0)
(0.670169 0.344189 0)
(0.566798 0.579828 0)
(0.35339 0.722952 0)
(0.179002 0.57355 0)
(0.019182 -0.100517 0)
(0.0574443 -0.10093 0)
(0.0963203 -0.101724 0)
(0.134316 -0.103933 0)
(0.176498 -0.102714 0)
(0.209901 -0.111757 0)
(0.262943 -0.0983666 0)
(0.293811 -0.106847 0)
(0.349817 -0.0887103 0)
(0.395601 -0.0733958 0)
(0.479509 -0.0155905 0)
(0.53266 0.0277224 0)
(0.573979 0.0247216 0)
(0.650673 0.024011 0)
(0.720145 0.0148812 0)
(0.768792 -0.00440797 0)
(0.754041 0.0183192 0)
(0.681168 0.116961 0)
(0.66263 0.26548 0)
(0.479359 0.510062 0)
(0.427785 0.623416 0)
(0.305038 0.809335 0)
(0.1078 0.792914 0)
(0.0191063 -0.11677 0)
(0.0571708 -0.117069 0)
(0.0958395 -0.117783 0)
(0.133707 -0.119635 0)
(0.175038 -0.101264 0)
(0.210142 -0.0996686 0)
(0.264217 -0.077282 0)
(0.307441 -0.03316 0)
(0.370267 0.032105 0)
(0.42568 0.0197459 0)
(0.485825 0.00147285 0)
(0.537295 -0.0237268 0)
(0.603359 -0.04991 0)
(0.652905 -0.0481626 0)
(0.635547 -0.0247632 0)
(0.552116 0.0514115 0)
(0.482973 0.00345844 0)
(0.528459 -0.0934065 0)
(0.576347 -0.0640114 0)
(0.641186 0.149645 0)
(0.295867 0.597893 0)
(0.254788 0.880107 0)
(0.152572 1.02324 0)
(0.0191302 -0.106446 0)
(0.0573613 -0.106485 0)
(0.0962673 -0.106954 0)
(0.134856 -0.108284 0)
(0.185648 -0.0473587 0)
(0.227626 0.0176346 0)
(0.274594 0.0278625 0)
(0.31603 0.00153343 0)
(0.36124 -0.00606807 0)
(0.433343 -0.0216952 0)
(0.468674 -0.0558466 0)
(0.531949 -0.080157 0)
(0.571131 -0.100248 0)
(0.529266 -0.0479883 0)
(0.441318 -0.0476739 0)
(0.451779 -0.12902 0)
(0.532669 -0.139771 0)
(0.667264 -0.0446992 0)
(0.619239 0.104719 0)
(0.715825 0.301911 0)
(0.297455 0.617125 0)
(0.270532 0.860051 0)
(0.138072 1.18571 0)
(-1.15142 0.346201 0)
(-1.78509 0.134016 0)
(-2.04134 0.0420641 0)
(-1.98267 -0.114206 0)
(-1.37467 -0.126122 0)
(-1.10607 -0.0795774 0)
(-0.666449 -0.10105 0)
(-0.164408 -0.120077 0)
(0.189361 -0.103077 0)
(0.546571 -0.0916592 0)
(0.800193 -0.0833264 0)
(1.00467 -0.0683762 0)
(1.12266 -0.0598404 0)
(1.11081 -0.0505473 0)
(1.05081 -0.046791 0)
(0.906025 -0.00699268 0)
(0.680454 -0.0342392 0)
(0.166647 -0.119872 0)
(0.170719 -0.0872671 0)
(-1.0613 0.703413 0)
(-1.64973 0.321947 0)
(-1.83711 0.0742147 0)
(-1.65903 -0.188857 0)
(-1.41249 -0.306197 0)
(-0.984703 -0.34059 0)
(-0.432583 -0.220811 0)
(0.0199692 -0.283551 0)
(0.360975 -0.218483 0)
(0.686523 -0.171489 0)
(0.951896 -0.115617 0)
(1.14209 -0.0653518 0)
(1.2408 0.0109196 0)
(1.2477 0.0735458 0)
(1.18315 0.138801 0)
(1.02472 0.181892 0)
(0.830505 0.284422 0)
(0.341004 0.231888 0)
(0.21598 0.132027 0)
(-1.04622 1.27856 0)
(-1.2992 0.643822 0)
(-1.33313 0.0664656 0)
(-1.2793 -0.222295 0)
(-1.1279 -0.467946 0)
(-0.816355 -0.598428 0)
(-0.253771 -0.506604 0)
(0.145688 -0.475951 0)
(0.498826 -0.408851 0)
(0.799218 -0.342811 0)
(1.04634 -0.264699 0)
(1.21072 -0.18383 0)
(1.33278 -0.0758551 0)
(1.35343 -0.00654014 0)
(1.31328 0.105856 0)
(1.14916 0.185016 0)
(0.96593 0.316371 0)
(0.539624 0.312251 0)
(0.307271 0.192411 0)
(-0.909669 1.57569 0)
(-0.640942 0.567326 0)
(-0.717127 -0.00900291 0)
(-0.86993 -0.118155 0)
(-0.778628 -0.414798 0)
(-0.52549 -0.750212 0)
(-0.121219 -0.665387 0)
(0.277568 -0.61711 0)
(0.606555 -0.51665 0)
(0.889744 -0.411012 0)
(1.12651 -0.308526 0)
(1.28308 -0.212737 0)
(1.42398 -0.0600572 0)
(1.44006 0.053788 0)
(1.41148 0.234718 0)
(1.28362 0.314561 0)
(1.09637 0.491727 0)
(0.682238 0.499005 0)
(0.338391 0.402314 0)
(-0.709466 1.8712 0)
(-0.341095 0.508425 0)
(-0.322548 -0.494818 0)
(-0.383368 -0.450759 0)
(-0.386965 -0.522616 0)
(-0.346546 -0.871303 0)
(0.0638621 -0.860684 0)
(0.394773 -0.797324 0)
(0.688019 -0.692188 0)
(0.948804 -0.556361 0)
(1.17187 -0.422691 0)
(1.31237 -0.302959 0)
(1.4776 -0.122111 0)
(1.48218 0.00939799 0)
(1.4987 0.219749 0)
(1.36379 0.369637 0)
(1.19019 0.63272 0)
(0.760541 0.675936 0)
(0.322868 0.599818 0)
(-0.714347 2.07153 0)
(-0.32721 0.600659 0)
(-0.917343 -0.165365 0)
(0.0558938 -0.886325 0)
(-0.00654311 -0.826662 0)
(-0.14233 -0.926834 0)
(0.18604 -0.975454 0)
(0.514226 -0.891927 0)
(0.766624 -0.775587 0)
(1.01516 -0.620207 0)
(1.2368 -0.465133 0)
(1.37457 -0.326793 0)
(1.55 -0.147146 0)
(1.55567 0.0466815 0)
(1.60767 0.281228 0)
(1.45198 0.456427 0)
(1.27455 0.707379 0)
(0.791438 0.903265 0)
(0.402449 0.800705 0)
(-0.733263 2.06468 0)
(-0.381981 1.27298 0)
(-0.540968 -0.213255 0)
(-0.028786 -0.722833 0)
(0.3115 -1.14361 0)
(0.131717 -1.07928 0)
(0.34429 -1.11556 0)
(0.617195 -1.03906 0)
(0.842699 -0.917298 0)
(1.0737 -0.748875 0)
(1.27526 -0.576613 0)
(1.43516 -0.401993 0)
(1.58712 -0.190906 0)
(1.61893 -0.00382876 0)
(1.67232 0.269048 0)
(1.54905 0.571971 0)
(1.37457 0.904659 0)
(0.790669 1.06597 0)
(0.344529 1.04386 0)
(-0.741032 2.00921 0)
(-0.414188 1.59233 0)
(0.739288 0.61349 0)
(-0.0320124 -0.0964188 0)
(0.616584 -1.08101 0)
(0.35902 -1.11974 0)
(0.476118 -1.15418 0)
(0.705199 -1.10216 0)
(0.925762 -0.977886 0)
(1.1374 -0.819325 0)
(1.33343 -0.627086 0)
(1.50709 -0.453472 0)
(1.61733 -0.217149 0)
(1.68644 0.0386479 0)
(1.79961 0.302853 0)
(1.70701 0.639064 0)
(1.5008 1.12136 0)
(0.97121 1.2841 0)
(0.354205 1.27905 0)
(0.0215028 -0.0327883 0)
(0.0639938 -0.0352747 0)
(0.107224 -0.0404716 0)
(0.147858 -0.0480274 0)
(0.189278 -0.0535746 0)
(0.229969 -0.0736476 0)
(0.26305 -0.0771597 0)
(0.318273 -0.0905231 0)
(0.336762 -0.104988 0)
(0.379994 -0.0982375 0)
(0.393223 -0.0869802 0)
(0.402802 -0.0793253 0)
(0.395701 -0.0963157 0)
(0.404325 -0.149031 0)
(0.46976 -0.192655 0)
(0.580636 -0.152406 0)
(0.664391 -0.126204 0)
(0.697146 -0.0928897 0)
(0.682147 0.00625452 0)
(0.830408 0.264618 0)
(0.544374 0.684115 0)
(0.53505 0.850633 0)
(0.44863 1.18303 0)
(0.0176837 -0.109463 0)
(0.052408 -0.109536 0)
(0.0869833 -0.109006 0)
(0.116974 -0.106294 0)
(0.148374 -0.10612 0)
(0.181066 -0.10044 0)
(0.198478 -0.0868355 0)
(0.236615 -0.0809996 0)
(0.252301 -0.081355 0)
(0.279826 -0.110371 0)
(0.325836 -0.179113 0)
(0.390222 -0.242706 0)
(0.453248 -0.272645 0)
(0.52625 -0.264146 0)
(0.619009 -0.245594 0)
(0.702427 -0.238599 0)
(0.760014 -0.202214 0)
(0.817515 -0.119906 0)
(0.834066 0.0281159 0)
(0.901124 0.272439 0)
(0.873868 0.858171 0)
(0.782439 0.978516 0)
(0.600197 0.978714 0)
(0.0112513 -0.140984 0)
(0.0335677 -0.145996 0)
(0.0594014 -0.151225 0)
(0.0864377 -0.16615 0)
(0.11896 -0.183905 0)
(0.154075 -0.213219 0)
(0.193689 -0.25003 0)
(0.241859 -0.301403 0)
(0.302962 -0.311583 0)
(0.360599 -0.333687 0)
(0.43091 -0.339273 0)
(0.481339 -0.323528 0)
(0.53137 -0.304435 0)
(0.59542 -0.299733 0)
(0.671483 -0.312771 0)
(0.740493 -0.303722 0)
(0.80196 -0.250213 0)
(0.860717 -0.166722 0)
(0.889109 -0.00242086 0)
(0.91632 0.245833 0)
(0.928577 0.815587 0)
(0.969573 1.10398 0)
(0.832868 1.05176 0)
(0.0185064 -0.305534 0)
(0.0547624 -0.30782 0)
(0.0931354 -0.306751 0)
(0.132147 -0.309894 0)
(0.171342 -0.308521 0)
(0.213581 -0.310728 0)
(0.253805 -0.309024 0)
(0.298034 -0.319116 0)
(0.339089 -0.303531 0)
(0.377189 -0.321107 0)
(0.431707 -0.334399 0)
(0.473254 -0.331565 0)
(0.526476 -0.34259 0)
(0.593409 -0.378668 0)
(0.673007 -0.391262 0)
(0.735168 -0.375013 0)
(0.803031 -0.316505 0)
(0.855164 -0.219757 0)
(0.844932 -0.0276896 0)
(0.845303 0.240219 0)
(0.866628 0.719208 0)
(0.97501 1.07323 0)
(1.03368 1.07915 0)
(0.0185213 -0.281784 0)
(0.0552928 -0.283858 0)
(0.09244 -0.285425 0)
(0.129212 -0.289993 0)
(0.165089 -0.296269 0)
(0.20328 -0.305094 0)
(0.237556 -0.314379 0)
(0.273089 -0.333818 0)
(0.308505 -0.33583 0)
(0.342188 -0.380601 0)
(0.395577 -0.393327 0)
(0.43507 -0.407678 0)
(0.506746 -0.445218 0)
(0.588837 -0.472115 0)
(0.671363 -0.469073 0)
(0.726067 -0.437278 0)
(0.766161 -0.364042 0)
(0.749303 -0.245522 0)
(0.680945 -0.00576539 0)
(0.637252 0.245749 0)
(0.661958 0.601323 0)
(0.851003 0.918043 0)
(1.04324 1.03563 0)
(0.0165776 -0.332433 0)
(0.0503025 -0.335361 0)
(0.0830863 -0.339768 0)
(0.117386 -0.344932 0)
(0.150514 -0.352989 0)
(0.1838 -0.361596 0)
(0.216561 -0.370949 0)
(0.25211 -0.389696 0)
(0.287786 -0.395866 0)
(0.331267 -0.435081 0)
(0.382748 -0.439571 0)
(0.42733 -0.473307 0)
(0.513502 -0.512865 0)
(0.58728 -0.537696 0)
(0.634749 -0.526504 0)
(0.649663 -0.478841 0)
(0.634648 -0.379506 0)
(0.513344 -0.197693 0)
(0.428157 0.039718 0)
(0.411812 0.225422 0)
(0.510334 0.51357 0)
(0.650339 0.651628 0)
(0.963239 0.889138 0)
(0.0164929 -0.373331 0)
(0.0493068 -0.375738 0)
(0.0826136 -0.378146 0)
(0.114975 -0.381797 0)
(0.148805 -0.386867 0)
(0.180876 -0.393757 0)
(0.214009 -0.403919 0)
(0.247342 -0.416822 0)
(0.279905 -0.433361 0)
(0.307357 -0.47108 0)
(0.357764 -0.482992 0)
(0.395619 -0.548806 0)
(0.464678 -0.599046 0)
(0.496785 -0.594441 0)
(0.492664 -0.570867 0)
(0.444303 -0.497768 0)
(0.311606 -0.298201 0)
(0.20466 -0.107737 0)
(0.230133 0.0608411 0)
(0.282953 0.185593 0)
(0.43715 0.425335 0)
(0.550668 0.517474 0)
(0.83901 0.677057 0)
(0.0152014 -0.395409 0)
(0.0457683 -0.398307 0)
(0.0765932 -0.400903 0)
(0.107611 -0.405119 0)
(0.137945 -0.410172 0)
(0.168603 -0.41717 0)
(0.19707 -0.425594 0)
(0.219762 -0.436249 0)
(0.245881 -0.452006 0)
(0.261288 -0.487278 0)
(0.299406 -0.524759 0)
(0.330596 -0.630305 0)
(0.364652 -0.653405 0)
(0.341532 -0.637777 0)
(0.270266 -0.5553 0)
(0.104367 -0.355832 0)
(0.0665664 -0.19317 0)
(0.0661228 -0.101583 0)
(0.155188 0.0366251 0)
(0.208091 0.170259 0)
(0.355932 0.337641 0)
(0.480984 0.335417 0)
(0.695574 0.389106 0)
(0.0152153 -0.428103 0)
(0.0455723 -0.430536 0)
(0.0753102 -0.432747 0)
(0.105694 -0.435726 0)
(0.136007 -0.439972 0)
(0.165216 -0.444387 0)
(0.194488 -0.447822 0)
(0.213447 -0.4524 0)
(0.233636 -0.465001 0)
(0.224663 -0.490089 0)
(0.233745 -0.544218 0)
(0.200453 -0.661874 0)
(0.15561 -0.676053 0)
(0.0628879 -0.59718 0)
(-0.0401234 -0.414638 0)
(-0.0416465 -0.306998 0)
(-0.0088842 -0.219522 0)
(0.038025 -0.0820405 0)
(0.122764 0.024539 0)
(0.215876 0.0833661 0)
(0.36887 0.159377 0)
(0.499576 0.160689 0)
(0.6563 0.196236 0)
(0.0146524 -0.451369 0)
(0.0435322 -0.454019 0)
(0.0728335 -0.457279 0)
(0.101341 -0.462542 0)
(0.131376 -0.471724 0)
(0.162191 -0.484741 0)
(0.192839 -0.501765 0)
(0.212065 -0.522604 0)
(0.21294 -0.543589 0)
(0.175974 -0.561264 0)
(0.0684929 -0.612036 0)
(-0.128243 -0.685907 0)
(-0.122277 -0.604285 0)
(-0.146971 -0.483769 0)
(-0.111087 -0.392102 0)
(-0.071518 -0.328491 0)
(-0.0129427 -0.205623 0)
(0.0855322 -0.15321 0)
(0.170654 -0.0830073 0)
(0.290236 -0.036626 0)
(0.401924 0.0396427 0)
(0.496284 0.0584872 0)
(0.653287 0.110249 0)
(0.014467 -0.595352 0)
(0.0424066 -0.602181 0)
(0.0688772 -0.610903 0)
(0.0934669 -0.625273 0)
(0.115258 -0.642175 0)
(0.137141 -0.673388 0)
(0.15694 -0.713355 0)
(0.171079 -0.757896 0)
(0.172003 -0.798321 0)
(0.110073 -0.811616 0)
(-0.202771 -0.811934 0)
(-0.509923 -0.897674 0)
(-0.216625 -0.701648 0)
(-0.207725 -0.57162 0)
(-0.142533 -0.486892 0)
(-0.046911 -0.371668 0)
(0.043303 -0.304971 0)
(0.14246 -0.23399 0)
(0.221734 -0.184316 0)
(0.368704 -0.13466 0)
(0.437833 -0.0939802 0)
(0.614022 -0.0729682 0)
(0.670709 -0.174241 0)
(0.0107438 -0.926791 0)
(0.0287101 -0.945686 0)
(0.0467609 -0.981695 0)
(0.0592379 -1.04478 0)
(0.0668584 -1.16028 0)
(0.0738442 -1.24321 0)
(0.0832255 -1.30295 0)
(0.0968304 -1.40486 0)
(0.104313 -1.49033 0)
(0.0137898 -1.5012 0)
(-0.528251 -1.47075 0)
(-0.472017 -1.23165 0)
(-0.204286 -1.03642 0)
(-0.158791 -0.855632 0)
(-0.0083612 -0.750962 0)
(0.0426175 -0.657164 0)
(0.111049 -0.58266 0)
(0.185507 -0.514853 0)
(0.259501 -0.501905 0)
(0.343563 -0.483436 0)
(0.41412 -0.475223 0)
(0.451979 -0.566433 0)
(0.442292 -0.63034 0)
(0.0171535 -1.84711 0)
(0.00953794 -1.87952 0)
(0.00823597 -1.92424 0)
(-0.0160634 -1.90494 0)
(-0.133863 -1.5372 0)
(-0.377545 -0.853248 0)
(-0.528057 -0.754724 0)
(-0.562356 -0.900383 0)
(-0.482704 -0.828652 0)
(-0.268303 -0.504924 0)
(0.283433 -0.889379 0)
(0.611334 -0.924406 0)
(0.446236 -0.569998 0)
(0.327516 -0.270479 0)
(0.246448 -0.3045 0)
(0.150116 -0.568893 0)
(0.132059 -0.667525 0)
(0.135746 -0.665657 0)
(0.162509 -0.585367 0)
(0.118836 -0.369952 0)
(0.127998 0.318618 0)
(-0.37604 0.693588 0)
(-0.536698 -0.0596524 0)
(-0.0312062 -0.820902 0)
(-0.0921311 -0.820831 0)
(-0.1237 -0.803406 0)
(-0.138054 -0.778391 0)
(-0.133586 -0.738577 0)
(-0.100426 -0.672107 0)
(-0.0756254 -0.543746 0)
(-0.0865405 -0.398342 0)
(-0.103463 -0.228413 0)
(-0.0403025 -0.123453 0)
(0.10462 -0.314136 0)
(0.0451442 -0.755772 0)
(-0.0443118 -0.865816 0)
(-0.118577 -0.855759 0)
(-0.0792133 -0.758626 0)
(-0.0830721 -0.625545 0)
(-0.163312 -0.523157 0)
(-0.273116 -0.452602 0)
(-0.362798 -0.539503 0)
(-0.345061 -0.754222 0)
(-0.238394 -0.720212 0)
(0.0778443 -0.422151 0)
(-0.0495793 -0.388001 0)
(-0.0126799 -0.111777 0)
(-0.0329367 -0.130356 0)
(-0.048268 -0.155637 0)
(-0.0653241 -0.191103 0)
(-0.0819508 -0.235878 0)
(-0.0940664 -0.288568 0)
(-0.10914 -0.351625 0)
(-0.129228 -0.397712 0)
(-0.129283 -0.414178 0)
(-0.0746338 -0.405373 0)
(0.0217194 -0.519215 0)
(-0.0808209 -0.573198 0)
(-0.176495 -0.533665 0)
(-0.25268 -0.415698 0)
(-0.270985 -0.320799 0)
(-0.209719 -0.279636 0)
(-0.113977 -0.248481 0)
(-0.00772265 -0.229715 0)
(0.0953576 -0.231531 0)
(0.0365102 -0.161686 0)
(-0.168892 0.181293 0)
(-0.363811 0.368639 0)
(-0.547127 0.22464 0)
(-0.00468972 -0.420635 0)
(-0.0127969 -0.439559 0)
(-0.0208595 -0.452838 0)
(-0.0310443 -0.46867 0)
(-0.0411732 -0.483722 0)
(-0.0535418 -0.497273 0)
(-0.0704585 -0.50787 0)
(-0.0918319 -0.506818 0)
(-0.1038 -0.493443 0)
(-0.0762566 -0.489794 0)
(-0.0646402 -0.517564 0)
(-0.144242 -0.517083 0)
(-0.198293 -0.52437 0)
(-0.231835 -0.460954 0)
(-0.221911 -0.425981 0)
(-0.186891 -0.39635 0)
(-0.164806 -0.351061 0)
(-0.170742 -0.277355 0)
(-0.252978 -0.183662 0)
(-0.47151 -0.117035 0)
(-0.519594 -0.0636663 0)
(-0.453883 0.0181034 0)
(-0.446563 0.0149226 0)
(0.00154264 -0.350863 0)
(0.00373007 -0.36693 0)
(0.00347961 -0.374418 0)
(-0.00277308 -0.385301 0)
(-0.0136318 -0.398192 0)
(-0.0306649 -0.410227 0)
(-0.0538967 -0.418422 0)
(-0.0837739 -0.421027 0)
(-0.112038 -0.418673 0)
(-0.132407 -0.417416 0)
(-0.172445 -0.451507 0)
(-0.211958 -0.479372 0)
(-0.25074 -0.505598 0)
(-0.27066 -0.507131 0)
(-0.283252 -0.517746 0)
(-0.302281 -0.500748 0)
(-0.348258 -0.432745 0)
(-0.426262 -0.305233 0)
(-0.477586 -0.153097 0)
(-0.506733 -0.0297258 0)
(-0.510596 0.0735767 0)
(-0.496576 0.10822 0)
(-0.477797 0.107772 0)
(-0.00102789 -0.318707 0)
(-0.00407905 -0.337741 0)
(-0.00779937 -0.347723 0)
(-0.0154852 -0.35964 0)
(-0.0289691 -0.371473 0)
(-0.0487924 -0.382553 0)
(-0.0742453 -0.391669 0)
(-0.104029 -0.397524 0)
(-0.134137 -0.400757 0)
(-0.157855 -0.407592 0)
(-0.189314 -0.423702 0)
(-0.226193 -0.446278 0)
(-0.265014 -0.452229 0)
(-0.307514 -0.436775 0)
(-0.362422 -0.409979 0)
(-0.423481 -0.361662 0)
(-0.483657 -0.273245 0)
(-0.533526 -0.138885 0)
(-0.551449 -0.0584881 0)
(-0.551337 -0.0335343 0)
(-0.515749 -0.00893523 0)
(-0.473103 0.035248 0)
(-0.445158 0.0651758 0)
(-0.00235818 -0.332656 0)
(-0.00870619 -0.347723 0)
(-0.0180099 -0.351907 0)
(-0.0311686 -0.356912 0)
(-0.046908 -0.362197 0)
(-0.065981 -0.367526 0)
(-0.0878115 -0.372937 0)
(-0.110711 -0.375689 0)
(-0.131593 -0.376437 0)
(-0.155156 -0.379873 0)
(-0.183692 -0.390036 0)
(-0.226557 -0.400338 0)
(-0.276036 -0.393452 0)
(-0.328318 -0.378457 0)
(-0.390077 -0.362833 0)
(-0.450834 -0.337117 0)
(-0.503314 -0.275811 0)
(-0.524361 -0.1796 0)
(-0.510503 -0.111124 0)
(-0.48725 -0.0781378 0)
(-0.459954 -0.0399658 0)
(-0.429679 0.00524847 0)
(-0.400124 0.033626 0)
(-0.00462016 -0.323133 0)
(-0.0152142 -0.33686 0)
(-0.0267756 -0.338932 0)
(-0.040056 -0.342729 0)
(-0.0550512 -0.346313 0)
(-0.0711388 -0.348973 0)
(-0.0888084 -0.35018 0)
(-0.107001 -0.35096 0)
(-0.125321 -0.352515 0)
(-0.146803 -0.356985 0)
(-0.178393 -0.36121 0)
(-0.218422 -0.356671 0)
(-0.255719 -0.346573 0)
(-0.298541 -0.330845 0)
(-0.344007 -0.303806 0)
(-0.39593 -0.273284 0)
(-0.436889 -0.22982 0)
(-0.444479 -0.165613 0)
(-0.432176 -0.111158 0)
(-0.418947 -0.0882848 0)
(-0.406921 -0.0628782 0)
(-0.383301 -0.0216158 0)
(-0.367313 0.00690513 0)
(-0.00508489 -0.312981 0)
(-0.0165126 -0.325946 0)
(-0.0284988 -0.327162 0)
(-0.0417532 -0.329513 0)
(-0.0561854 -0.331694 0)
(-0.0717177 -0.333826 0)
(-0.087988 -0.335664 0)
(-0.104784 -0.336434 0)
(-0.122652 -0.335924 0)
(-0.144855 -0.334137 0)
(-0.171711 -0.32897 0)
(-0.19715 -0.322239 0)
(-0.22735 -0.311947 0)
(-0.257009 -0.292334 0)
(-0.285585 -0.271153 0)
(-0.313758 -0.245701 0)
(-0.339809 -0.217339 0)
(-0.363919 -0.182403 0)
(-0.37213 -0.135307 0)
(-0.362907 -0.0884277 0)
(-0.360664 -0.0662704 0)
(-0.353133 -0.0377869 0)
(-0.347156 0.00675181 0)
(-0.00578934 -0.299878 0)
(-0.0185302 -0.312038 0)
(-0.0315056 -0.311961 0)
(-0.0450675 -0.312464 0)
(-0.0593544 -0.313169 0)
(-0.0746292 -0.313467 0)
(-0.0908645 -0.313114 0)
(-0.108038 -0.311906 0)
(-0.126891 -0.309896 0)
(-0.147488 -0.306505 0)
(-0.168401 -0.300799 0)
(-0.19238 -0.291419 0)
(-0.21908 -0.276883 0)
(-0.24446 -0.263636 0)
(-0.269215 -0.247235 0)
(-0.288574 -0.220512 0)
(-0.305207 -0.185758 0)
(-0.321915 -0.14933 0)
(-0.329136 -0.120653 0)
(-0.336195 -0.101457 0)
(-0.332471 -0.0738115 0)
(-0.329051 -0.0354523 0)
(-0.33167 0.00557732 0)
(-0.00557124 -0.29142 0)
(-0.0176076 -0.302828 0)
(-0.0300931 -0.302775 0)
(-0.0430842 -0.303222 0)
(-0.0568026 -0.303148 0)
(-0.0713549 -0.302604 0)
(-0.0868343 -0.301394 0)
(-0.103528 -0.299355 0)
(-0.122031 -0.296379 0)
(-0.142653 -0.29192 0)
(-0.164794 -0.284 0)
(-0.18568 -0.272425 0)
(-0.204368 -0.262271 0)
(-0.225472 -0.246377 0)
(-0.247438 -0.22492 0)
(-0.267954 -0.20376 0)
(-0.283758 -0.181167 0)
(-0.292408 -0.154756 0)
(-0.300055 -0.122031 0)
(-0.304956 -0.0882133 0)
(-0.308942 -0.0625603 0)
(-0.312911 -0.0380623 0)
(-0.307117 -0.00302218 0)
(-0.00558778 -0.276659 0)
(-0.0176467 -0.287318 0)
(-0.0299345 -0.286368 0)
(-0.0428209 -0.285591 0)
(-0.0564212 -0.284471 0)
(-0.0709102 -0.282727 0)
(-0.086356 -0.280209 0)
(-0.102885 -0.276825 0)
(-0.120388 -0.272309 0)
(-0.138385 -0.266161 0)
(-0.155912 -0.259206 0)
(-0.173074 -0.251213 0)
(-0.19136 -0.237591 0)
(-0.208998 -0.221954 0)
(-0.224001 -0.204735 0)
(-0.239554 -0.183253 0)
(-0.256787 -0.156957 0)
(-0.272825 -0.128845 0)
(-0.280029 -0.105956 0)
(-0.281288 -0.090356 0)
(-0.281861 -0.0705508 0)
(-0.285697 -0.0369847 0)
(-0.285031 -0.00753013 0)
(-0.00562492 -0.268636 0)
(-0.0176826 -0.278901 0)
(-0.0298251 -0.277917 0)
(-0.0422534 -0.277038 0)
(-0.0550003 -0.275562 0)
(-0.0680864 -0.273433 0)
(-0.0815881 -0.270539 0)
(-0.0956228 -0.266776 0)
(-0.110425 -0.261956 0)
(-0.125994 -0.255598 0)
(-0.142567 -0.246796 0)
(-0.160207 -0.234879 0)
(-0.177902 -0.222341 0)
(-0.195236 -0.208074 0)
(-0.212742 -0.191306 0)
(-0.226546 -0.173143 0)
(-0.235746 -0.156551 0)
(-0.241454 -0.138865 0)
(-0.248273 -0.114298 0)
(-0.253061 -0.0837726 0)
(-0.261276 -0.056746 0)
(-0.263866 -0.0370781 0)
(-0.260008 -0.0151762 0)
(-0.00542595 -0.253333 0)
(-0.0170697 -0.262936 0)
(-0.028784 -0.261588 0)
(-0.0407978 -0.26015 0)
(-0.0531543 -0.258085 0)
(-0.0659173 -0.25531 0)
(-0.079101 -0.251697 0)
(-0.0927288 -0.247094 0)
(-0.106743 -0.241264 0)
(-0.121035 -0.233977 0)
(-0.135324 -0.225452 0)
(-0.149349 -0.216623 0)
(-0.162831 -0.205511 0)
(-0.17561 -0.191602 0)
(-0.186945 -0.175689 0)
(-0.198643 -0.158392 0)
(-0.210675 -0.137332 0)
(-0.223244 -0.114835 0)
(-0.232021 -0.095205 0)
(-0.236237 -0.0797964 0)
(-0.237164 -0.0609823 0)
(-0.239191 -0.0375789 0)
(-0.239704 -0.0158246 0)
(-0.00518508 -0.246152 0)
(-0.0161477 -0.255613 0)
(-0.0271971 -0.25426 0)
(-0.038447 -0.252767 0)
(-0.0499828 -0.250582 0)
(-0.0618734 -0.247651 0)
(-0.074184 -0.243864 0)
(-0.0869228 -0.239095 0)
(-0.0999779 -0.233179 0)
(-0.113077 -0.225876 0)
(-0.126011 -0.216826 0)
(-0.138955 -0.205808 0)
(-0.15203 -0.193526 0)
(-0.164885 -0.180538 0)
(-0.177214 -0.16631 0)
(-0.187926 -0.150437 0)
(-0.196629 -0.13432 0)
(-0.202744 -0.117019 0)
(-0.20779 -0.0973203 0)
(-0.212848 -0.0756826 0)
(-0.217414 -0.0553964 0)
(-0.220017 -0.0366797 0)
(-0.220043 -0.0175153 0)
(-0.00490821 -0.232707 0)
(-0.0154265 -0.241476 0)
(-0.0259368 -0.239865 0)
(-0.0366184 -0.237918 0)
(-0.0474675 -0.23523 0)
(-0.0584954 -0.231766 0)
(-0.0697006 -0.227462 0)
(-0.0810746 -0.22224 0)
(-0.0926179 -0.216027 0)
(-0.104353 -0.208801 0)
(-0.116184 -0.200587 0)
(-0.127801 -0.19134 0)
(-0.138882 -0.180609 0)
(-0.149359 -0.168007 0)
(-0.159224 -0.153974 0)
(-0.168504 -0.138974 0)
(-0.177058 -0.122586 0)
(-0.18491 -0.105471 0)
(-0.191305 -0.0884081 0)
(-0.195606 -0.0715477 0)
(-0.198381 -0.0539423 0)
(-0.200874 -0.0356691 0)
(-0.202001 -0.0174669 0)
(-0.00465286 -0.224934 0)
(-0.0144625 -0.233613 0)
(-0.024291 -0.232051 0)
(-0.034232 -0.230141 0)
(-0.0443148 -0.227487 0)
(-0.0545609 -0.22404 0)
(-0.064973 -0.21972 0)
(-0.0755204 -0.214433 0)
(-0.0861283 -0.208076 0)
(-0.0966904 -0.200555 0)
(-0.107131 -0.191801 0)
(-0.117437 -0.181824 0)
(-0.127564 -0.17079 0)
(-0.137292 -0.158874 0)
(-0.146367 -0.145933 0)
(-0.154628 -0.131877 0)
(-0.161939 -0.116999 0)
(-0.16818 -0.101276 0)
(-0.17346 -0.0847431 0)
(-0.177707 -0.0677073 0)
(-0.180906 -0.0508227 0)
(-0.183471 -0.0340931 0)
(-0.18487 -0.0171143 0)
(-0.00430313 -0.21449 0)
(-0.0134406 -0.222713 0)
(-0.0225641 -0.221048 0)
(-0.0317704 -0.218928 0)
(-0.0410695 -0.21603 0)
(-0.0504667 -0.212336 0)
(-0.0599548 -0.207808 0)
(-0.0695126 -0.202404 0)
(-0.0791056 -0.196092 0)
(-0.088681 -0.188843 0)
(-0.0981522 -0.180621 0)
(-0.107394 -0.171384 0)
(-0.116285 -0.161054 0)
(-0.12476 -0.149592 0)
(-0.132752 -0.137125 0)
(-0.140133 -0.123792 0)
(-0.14679 -0.109648 0)
(-0.152658 -0.0948833 0)
(-0.157623 -0.0796444 0)
(-0.161529 -0.0640486 0)
(-0.164451 -0.0482503 0)
(-0.166924 -0.0323755 0)
(-0.168586 -0.0163265 0)
(-0.00399539 -0.206587 0)
(-0.0124059 -0.214624 0)
(-0.020808 -0.212976 0)
(-0.0292625 -0.210828 0)
(-0.0377802 -0.207905 0)
(-0.0463573 -0.204183 0)
(-0.0549825 -0.199623 0)
(-0.0636296 -0.194185 0)
(-0.0722594 -0.187829 0)
(-0.0808215 -0.180525 0)
(-0.089258 -0.172261 0)
(-0.0975059 -0.163043 0)
(-0.105486 -0.152908 0)
(-0.113092 -0.141901 0)
(-0.120216 -0.130039 0)
(-0.126778 -0.117364 0)
(-0.1327 -0.10398 0)
(-0.137924 -0.0899773 0)
(-0.142418 -0.0754667 0)
(-0.146089 -0.060595 0)
(-0.148918 -0.0455836 0)
(-0.151284 -0.0305389 0)
(-0.153046 -0.0153187 0)
(-0.00364295 -0.198434 0)
(-0.0113018 -0.206191 0)
(-0.0189601 -0.20453 0)
(-0.0266448 -0.202311 0)
(-0.0343741 -0.199312 0)
(-0.0421393 -0.195523 0)
(-0.0499278 -0.190924 0)
(-0.0577162 -0.185495 0)
(-0.0654704 -0.179218 0)
(-0.0731444 -0.172079 0)
(-0.0806819 -0.164068 0)
(-0.0880174 -0.155182 0)
(-0.0950824 -0.145426 0)
(-0.101811 -0.134824 0)
(-0.108136 -0.123432 0)
(-0.113982 -0.111317 0)
(-0.119284 -0.0985579 0)
(-0.123995 -0.0852505 0)
(-0.12808 -0.0714898 0)
(-0.131473 -0.0573785 0)
(-0.134144 -0.0430679 0)
(-0.136376 -0.0286896 0)
(-0.138164 -0.0141676 0)
(-0.00329968 -0.191436 0)
(-0.0101897 -0.198993 0)
(-0.0170972 -0.197351 0)
(-0.0240103 -0.195101 0)
(-0.0309563 -0.192077 0)
(-0.03792 -0.188269 0)
(-0.0448886 -0.183665 0)
(-0.0518398 -0.178251 0)
(-0.0587432 -0.172017 0)
(-0.06556 -0.164958 0)
(-0.0722445 -0.157075 0)
(-0.0787453 -0.148378 0)
(-0.0850055 -0.138889 0)
(-0.0909654 -0.12864 0)
(-0.0965646 -0.117671 0)
(-0.10175 -0.106037 0)
(-0.106471 -0.0938094 0)
(-0.110689 -0.0810672 0)
(-0.114382 -0.0678974 0)
(-0.117506 -0.0543908 0)
(-0.120016 -0.0406721 0)
(-0.12211 -0.026866 0)
(-0.123867 -0.0129393 0)
(-0.00294126 -0.184997 0)
(-0.00904714 -0.192352 0)
(-0.0151999 -0.190727 0)
(-0.0213385 -0.188448 0)
(-0.0275071 -0.185401 0)
(-0.033685 -0.181581 0)
(-0.0398603 -0.176984 0)
(-0.0460128 -0.171607 0)
(-0.0521143 -0.165447 0)
(-0.05813 -0.158506 0)
(-0.0640196 -0.150789 0)
(-0.0697389 -0.14231 0)
(-0.0752415 -0.133087 0)
(-0.0804805 -0.123152 0)
(-0.0854106 -0.112547 0)
(-0.0899867 -0.101325 0)
(-0.0941696 -0.0895497 0)
(-0.0979298 -0.0772926 0)
(-0.101248 -0.0646302 0)
(-0.104098 -0.0516407 0)
(-0.106438 -0.0384248 0)
(-0.108392 -0.0251016 0)
(-0.110086 -0.0116775 0)
(-0.00257396 -0.179388 0)
(-0.00788515 -0.186561 0)
(-0.013284 -0.184959 0)
(-0.0186484 -0.182655 0)
(-0.0240459 -0.179592 0)
(-0.0294486 -0.175767 0)
(-0.0348477 -0.171179 0)
(-0.0402259 -0.165832 0)
(-0.0455577 -0.159734 0)
(-0.0508115 -0.15289 0)
(-0.0559519 -0.145311 0)
(-0.0609407 -0.137012 0)
(-0.0657393 -0.128014 0)
(-0.0703101 -0.118348 0)
(-0.0746153 -0.108055 0)
(-0.0786215 -0.0971823 0)
(-0.0822985 -0.0857869 0)
(-0.0856222 -0.0739328 0)
(-0.0885797 -0.0616891 0)
(-0.0911556 -0.0491269 0)
(-0.0933173 -0.0363309 0)
(-0.0951381 -0.0234097 0)
(-0.0967557 -0.0104017 0)
(-0.0021848 -0.174533 0)
(-0.00669338 -0.181516 0)
(-0.0113481 -0.179934 0)
(-0.0159396 -0.177604 0)
(-0.0205693 -0.174526 0)
(-0.0252023 -0.170695 0)
(-0.0298347 -0.166112 0)
(-0.0344575 -0.160794 0)
(-0.0390481 -0.154753 0)
(-0.0435771 -0.148001 0)
(-0.0480108 -0.140549 0)
(-0.0523138 -0.132413 0)
(-0.0564528 -0.123613 0)
(-0.0603971 -0.114178 0)
(-0.064119 -0.104147 0)
(-0.0675893 -0.0935669 0)
(-0.0707848 -0.0824876 0)
(-0.0736903 -0.0709659 0)
(-0.0762967 -0.0590653 0)
(-0.078598 -0.0468512 0)
(-0.080574 -0.0343967 0)
(-0.0822649 -0.0218015 0)
(-0.0837965 -0.009128 0)
(-0.00176535 -0.170461 0)
(-0.00547688 -0.177205 0)
(-0.00941806 -0.175644 0)
(-0.0132448 -0.173298 0)
(-0.017106 -0.170216 0)
(-0.0209621 -0.16639 0)
(-0.0248094 -0.161826 0)
(-0.0286551 -0.156541 0)
(-0.0324921 -0.15055 0)
(-0.0363046 -0.143866 0)
(-0.0400639 -0.13651 0)
(-0.0437312 -0.128502 0)
(-0.0472679 -0.119861 0)
(-0.0506426 -0.110614 0)
(-0.0538312 -0.100803 0)
(-0.0568082 -0.0904662 0)
(-0.0595534 -0.0796444 0)
(-0.0620581 -0.0683878 0)
(-0.0643223 -0.0567576 0)
(-0.0663473 -0.044816 0)
(-0.0681291 -0.0326254 0)
(-0.0696943 -0.0202771 0)
(-0.0711488 -0.00785125 0)
(-0.00130697 -0.167265 0)
(-0.00428015 -0.173655 0)
(-0.00761354 -0.172129 0)
(-0.0107301 -0.169792 0)
(-0.0138521 -0.16673 0)
(-0.0169445 -0.162949 0)
(-0.0199201 -0.158394 0)
(-0.0227967 -0.153073 0)
(-0.0256547 -0.147031 0)
(-0.028564 -0.140317 0)
(-0.0315694 -0.132977 0)
(-0.0346541 -0.125047 0)
(-0.0377511 -0.116554 0)
(-0.0407281 -0.107502 0)
(-0.0434924 -0.0978961 0)
(-0.0460791 -0.0877845 0)
(-0.0484551 -0.0772001 0)
(-0.0506132 -0.0661756 0)
(-0.052565 -0.0547669 0)
(-0.0543221 -0.0430345 0)
(-0.0558992 -0.0310277 0)
(-0.0573336 -0.0188533 0)
(-0.0587259 -0.00660521 0)
(-0.000843615 -0.165206 0)
(-0.00328169 -0.171068 0)
(-0.00626424 -0.169598 0)
(-0.00886483 -0.167307 0)
(-0.0114344 -0.164281 0)
(-0.0139063 -0.160533 0)
(-0.0162435 -0.156023 0)
(-0.0184818 -0.150759 0)
(-0.0205631 -0.144716 0)
(-0.0224436 -0.137902 0)
(-0.0241978 -0.130416 0)
(-0.0259482 -0.122325 0)
(-0.027807 -0.113691 0)
(-0.0298614 -0.104566 0)
(-0.0321576 -0.0950061 0)
(-0.0345385 -0.0850409 0)
(-0.0368887 -0.0747162 0)
(-0.0390355 -0.0640352 0)