/*--------------------------------*- C++ -*----------------------------------*\
| =========                 |                                                 |
| \\      /  F ield         | OpenFOAM: The Open Source CFD Toolbox           |
|  \\    /   O peration     | Version:  2.4.0                                 |
|   \\  /    A nd           | Web:      www.OpenFOAM.org                      |
|    \\/     M anipulation  |                                                 |
\*---------------------------------------------------------------------------*/
FoamFile
{
    version     2.0;
    format      ascii;
    class       volScalarField;
    location    "1";
    object      alpha.mercury;
}
// * * * * * * * * * * * * * * * * * * * * * * * * * * * * * * * * * * * * * //

dimensions      [0 0 0 0 0 0 0];

internalField   nonuniform List<scalar> 
559
(
5.00071e-11
7.91478e-11
8.34523e-11
7.34879e-11
5.16228e-11
2.35474e-11
1.25065e-11
1.40517e-11
1.5883e-11
7.80748e-12
3.6677e-12
1.8584e-12
1.0084e-12
5.97829e-13
4.65617e-13
5.20921e-13
6.45013e-13
7.56417e-13
8.83191e-13
1.2461e-12
2.20067e-12
3.68687e-12
6.59131e-12
1.36405e-11
1.46444e-11
1.29473e-11
1.02072e-11
7.15678e-12
5.27463e-12
4.36303e-12
1.2539e-11
1.11024e-11
5.75155e-12
3.00047e-12
1.67282e-12
9.17273e-13
4.8667e-13
3.00902e-13
2.93417e-13
3.81465e-13
4.6678e-13
5.0146e-13
5.44567e-13
7.3955e-13
1.1459e-12
2.37377e-12
3.98715e-12
4.25472e-12
3.94238e-12
2.97432e-12
2.20596e-12
1.81728e-12
1.89685e-12
1.00553e-11
7.60152e-12
4.37884e-12
2.60223e-12
1.53752e-12
8.31295e-13
4.07235e-13
2.07559e-13
1.64318e-13
2.07661e-13
2.65999e-13
2.84246e-13
2.71534e-13
2.83323e-13
3.65743e-13
6.9453e-13
1.00992e-12
1.08324e-12
1.01642e-12
7.55251e-13
6.5359e-13
7.3782e-13
1.03653e-12
7.53192e-12
5.46393e-12
3.5309e-12
2.24244e-12
1.3137e-12
6.79952e-13
3.11338e-13
1.3931e-13
9.055e-14
1.05442e-13
1.36618e-13
1.47069e-13
1.34589e-13
1.19705e-13
1.23865e-13
1.85139e-13
2.33954e-13
2.47915e-13
2.3128e-13
2.0202e-13
2.39607e-13
3.5236e-13
5.68672e-13
5.4275e-12
4.06245e-12
2.78339e-12
1.75379e-12
9.7689e-13
4.75653e-13
2.04327e-13
8.37905e-14
4.70666e-14
4.99719e-14
6.35466e-14
6.82516e-14
6.14361e-14
5.02318e-14
4.32054e-14
4.79674e-14
5.2159e-14
5.46566e-14
5.61543e-14
6.55259e-14
9.9152e-14
1.63208e-13
2.73273e-13
3.71396e-12
2.88904e-12
1.96501e-12
1.17295e-12
6.09791e-13
2.78225e-13
1.12984e-13
4.36009e-14
2.2264e-14
2.19334e-14
2.70497e-14
2.86303e-14
2.52752e-14
1.95603e-14
1.47292e-14
1.26331e-14
1.19411e-14
1.28589e-14
1.60017e-14
2.35366e-14
3.92358e-14
6.62465e-14
1.08585e-13
2.28926e-12
1.81764e-12
1.18014e-12
6.5686e-13
3.19035e-13
1.37425e-13
5.32153e-14
1.96048e-14
9.42963e-15
8.8581e-15
1.05852e-14
1.09273e-14
9.36283e-15
6.88953e-15
4.69861e-15
3.36111e-15
2.88319e-15
3.33418e-15
4.95702e-15
8.09274e-15
1.36598e-14
2.26917e-14
3.49669e-14
1.21572e-12
9.69189e-13
5.93605e-13
3.09694e-13
1.41915e-13
5.81923e-14
2.16147e-14
7.66012e-15
3.55788e-15
3.27363e-15
3.80733e-15
3.80678e-15
3.13495e-15
2.18783e-15
1.37444e-15
8.7162e-16
7.11081e-16
8.95384e-16
1.49124e-15
2.51101e-15
4.14692e-15
6.52779e-15
9.12582e-15
5.49098e-13
4.34031e-13
2.51497e-13
1.24458e-13
5.43887e-14
2.13887e-14
7.65458e-15
2.62126e-15
1.19817e-15
1.10461e-15
1.25638e-15
1.21041e-15
9.51076e-16
6.27005e-16
3.6527e-16
2.12652e-16
1.71377e-16
2.34156e-16
4.13184e-16
6.92332e-16
1.0794e-15
1.55971e-15
1.93987e-15
2.12432e-13
1.64828e-13
9.11354e-14
4.32447e-14
1.81757e-14
6.89227e-15
2.38349e-15
7.90857e-16
3.61629e-16
3.4037e-16
3.79723e-16
3.51263e-16
2.62164e-16
1.62688e-16
8.81876e-17
4.80406e-17
3.91302e-17
5.7101e-17
1.03016e-16
1.68522e-16
2.43088e-16
3.14398e-16
3.4169e-16
7.13598e-14
5.39925e-14
2.87227e-14
1.31686e-14
5.35418e-15
1.96493e-15
6.57795e-16
2.11887e-16
9.84235e-17
9.59502e-17
1.05067e-16
9.3077e-17
6.57629e-17
3.83129e-17
1.93476e-17
9.96915e-18
8.33405e-18
1.28185e-17
2.31085e-17
3.62924e-17
4.73294e-17
5.36884e-17
5.04734e-17
2.11132e-14
1.55179e-14
7.98928e-15
3.55525e-15
1.40312e-15
4.99355e-16
1.61958e-16
5.07258e-17
2.43209e-17
2.48051e-17
2.66367e-17
2.2545e-17
1.50484e-17
8.21645e-18
3.87012e-18
1.9014e-18
1.64606e-18
2.62729e-18
4.64555e-18
6.90187e-18
8.05773e-18
7.90725e-18
6.3756e-18
5.57483e-15
3.97031e-15
1.98499e-15
8.59319e-16
3.29713e-16
1.13882e-16
3.57875e-17
1.09163e-17
5.49495e-18
5.89656e-18
6.19595e-18
5.00066e-18
3.14873e-18
1.60965e-18
7.07941e-19
3.33837e-19
3.00753e-19
4.90959e-19
8.40913e-19
1.16877e-18
1.21068e-18
1.01428e-18
6.96773e-19
1.32887e-15
9.1508e-16
4.44872e-16
1.87505e-16
6.99722e-17
2.34534e-17
7.13734e-18
2.12453e-18
1.14306e-18
1.29256e-18
1.32526e-18
1.01826e-18
6.042e-19
2.89054e-19
1.18786e-19
5.40812e-20
5.0815e-20
8.3789e-20
1.37565e-19
1.77288e-19
1.63039e-19
1.15106e-19
6.69757e-20
2.88792e-16
1.91819e-16
9.06661e-17
3.71993e-17
1.34963e-17
4.38701e-18
1.29174e-18
3.76208e-19
2.20377e-19
2.62045e-19
2.6139e-19
1.90951e-19
1.06701e-19
4.77622e-20
1.83529e-20
8.11227e-21
7.94904e-21
1.30884e-20
2.04398e-20
2.42695e-20
1.98776e-20
1.16834e-20
5.73359e-21
5.77047e-17
3.68601e-17
1.69207e-17
6.7529e-18
2.37989e-18
7.49441e-19
2.13283e-19
6.0998e-20
3.9625e-20
4.92897e-20
4.76963e-20
3.30907e-20
1.74019e-20
7.28652e-21
2.61943e-21
1.13048e-21
1.15494e-21
1.881e-21
2.77433e-21
3.01666e-21
2.19459e-21
1.07358e-21
4.42553e-22
1.06792e-17
6.53681e-18
2.90976e-18
1.12835e-18
3.85834e-19
1.17568e-19
3.23019e-20
9.11758e-21
6.68226e-21
8.63232e-21
8.08039e-21
5.31872e-21
2.63036e-21
1.02966e-21
3.46355e-22
1.46847e-22
1.56242e-22
2.49734e-22
3.46397e-22
3.4381e-22
2.21791e-22
9.06578e-23
3.12158e-23
1.84213e-18
1.07617e-18
4.6362e-19
1.74474e-19
5.78134e-20
1.70242e-20
4.51095e-21
1.26567e-21
1.06228e-21
1.41313e-21
1.27656e-21
7.9686e-22
3.70497e-22
1.35549e-22
4.2676e-23
1.78731e-23
1.97504e-23
3.07694e-23
3.99427e-23
3.60982e-23
2.06633e-23
7.13093e-24
2.02955e-24
2.97858e-19
1.65385e-19
6.88273e-20
2.51059e-20
8.05145e-21
2.28832e-21
5.84175e-22
1.64439e-22
1.59789e-22
2.16976e-22
1.88793e-22
1.11686e-22
4.87971e-23
1.66785e-23
4.91834e-24
2.05046e-24
2.34912e-24
3.54519e-24
4.29455e-24
3.52551e-24
1.7847e-24
5.2856e-25
1.21631e-25
4.53845e-20
2.38444e-20
9.56546e-21
3.37719e-21
1.04657e-21
2.86596e-22
7.03908e-23
2.01221e-23
2.28345e-23
3.13914e-23
2.62646e-23
1.47189e-23
6.04068e-24
1.92763e-24
5.32671e-25
2.22675e-25
2.63703e-25
3.84366e-25
4.34766e-25
3.24699e-25
1.45877e-25
3.75807e-26
6.86818e-27
6.54524e-21
3.24317e-21
1.2522e-21
4.27552e-22
1.27918e-22
3.37202e-23
7.96287e-24
2.34472e-24
3.10612e-24
4.28995e-24
3.44886e-24
1.83143e-24
7.06336e-25
2.1051e-25
5.46079e-26
2.30777e-26
2.8133e-26
3.94665e-26
4.16357e-26
2.83481e-26
1.13601e-26
2.55762e-27
3.79736e-28
8.97319e-22
4.18016e-22
1.54953e-22
5.10448e-23
1.47019e-23
3.71851e-24
8.41629e-25
2.60322e-25
4.0422e-25
5.57092e-25
4.28636e-25
2.14683e-25
7.73862e-26
2.14182e-26
5.20796e-27
2.27687e-27
2.88022e-27
3.8859e-27
3.82318e-27
2.37126e-27
8.43831e-28
1.64712e-28
2.35703e-29
1.17454e-22
5.141e-23
1.82869e-23
5.80452e-24
1.60648e-24
3.89117e-25
8.43061e-26
2.80313e-26
5.06187e-26
6.91737e-26
5.07997e-26
2.39262e-26
8.03323e-27
2.05667e-27
4.68805e-28
2.15613e-28
2.81864e-28
3.64342e-28
3.33858e-28
1.8851e-28
5.94016e-29
1.00121e-29
2.67518e-30
1.47362e-23
6.06047e-24
2.0609e-24
6.27324e-25
1.65865e-25
3.82074e-26
7.87594e-27
2.9263e-27
6.15925e-27
8.27936e-27
5.73941e-27
2.50593e-27
7.70298e-28
1.78906e-28
3.80487e-29
1.95089e-29
2.66804e-29
3.28829e-29
2.78244e-29
1.40243e-29
3.73004e-30
5.34877e-31
1.17746e-30
)
;

boundaryField
{
    leftWall
    {
        type            zeroGradient;
    }
    rightWall
    {
        type            zeroGradient;
    }
    lowerWall
    {
        type            zeroGradient;
    }
    atmosphere
    {
        type            inletOutlet;
        inletValue      uniform 0;
        value           nonuniform List<scalar> 
23
(
1.47362e-23
6.06047e-24
2.0609e-24
6.27324e-25
1.65865e-25
3.82074e-26
7.87594e-27
2.9263e-27
6.15925e-27
8.27936e-27
5.73941e-27
2.50593e-27
7.70298e-28
1.78906e-28
3.80487e-29
1.95089e-29
2.66804e-29
3.28829e-29
2.78244e-29
1.40243e-29
3.73004e-30
5.34877e-31
1.17746e-30
)
;
    }
    defaultFaces
    {
        type            empty;
    }
    procBoundary2to0
    {
        type            processor;
        value           nonuniform List<scalar> 
24
(
2.28813e-10
2.52518e-10
2.40999e-10
2.09541e-10
1.50566e-10
1.13502e-10
6.46446e-11
4.10851e-11
1.96722e-11
9.55e-12
4.54537e-12
2.20925e-12
1.22568e-12
8.40535e-13
7.74027e-13
8.79794e-13
1.00845e-12
1.22164e-12
1.79139e-12
3.47746e-12
6.70464e-12
1.10992e-11
2.53543e-11
2.53543e-11
)
;
    }
    procBoundary2to3
    {
        type            processor;
        value           nonuniform List<scalar> 
25
(
1.1229e-11
4.04931e-12
2.0531e-12
1.23767e-12
7.02518e-13
3.38067e-13
1.31815e-13
4.10089e-14
1.02055e-14
2.04982e-15
3.37552e-16
4.6204e-17
5.35869e-18
5.33101e-19
4.62298e-20
3.53915e-21
2.41892e-22
1.4924e-23
8.36756e-25
4.27243e-26
2.12977e-27
1.59078e-28
3.75536e-29
1.59095e-29
2.59943e-29
)
;
    }
}


// ************************************************************************* //
