/*--------------------------------*- C++ -*----------------------------------*\
| =========                 |                                                 |
| \\      /  F ield         | OpenFOAM: The Open Source CFD Toolbox           |
|  \\    /   O peration     | Version:  2.4.0                                 |
|   \\  /    A nd           | Web:      www.OpenFOAM.org                      |
|    \\/     M anipulation  |                                                 |
\*---------------------------------------------------------------------------*/
FoamFile
{
    version     2.0;
    format      ascii;
    class       volScalarField;
    location    "1";
    object      alpha.water;
}
// * * * * * * * * * * * * * * * * * * * * * * * * * * * * * * * * * * * * * //

dimensions      [0 0 0 0 0 0 0];

internalField   nonuniform List<scalar> 
559
(
2.47874e-08
4.17663e-08
8.03424e-08
1.76375e-07
1.53577e-07
5.90419e-08
1.14613e-08
1.08388e-09
1.57857e-09
1.75325e-09
3.60509e-09
1.37313e-08
2.07015e-08
1.19961e-08
2.46012e-09
1.31182e-09
1.57859e-09
1.84378e-09
2.10307e-09
2.59831e-09
3.16863e-09
2.98107e-09
4.27322e-09
1.00183e-08
9.67981e-09
7.69421e-09
6.08414e-09
3.06833e-09
7.63887e-10
2.81668e-10
1.16406e-09
1.60881e-09
2.08943e-09
7.41558e-09
2.05077e-08
2.2636e-08
1.24494e-08
2.15311e-09
1.11337e-09
1.45657e-09
1.78558e-09
2.0686e-09
2.55297e-09
2.66409e-09
2.67981e-09
2.88933e-09
3.79932e-09
3.2227e-09
1.67624e-09
5.52377e-10
1.15459e-10
7.76179e-11
1.30471e-10
1.31754e-09
1.73954e-09
2.25165e-09
1.08359e-08
2.23022e-08
2.26318e-08
9.60963e-09
1.22962e-09
6.58076e-10
9.82135e-10
1.37213e-09
1.71344e-09
2.17784e-09
2.14075e-09
1.85678e-09
1.81584e-09
1.58696e-09
1.19209e-09
5.38885e-10
9.98087e-11
4.28853e-11
4.8963e-11
7.51783e-11
1.40839e-09
1.69766e-09
5.69811e-09
1.74541e-08
2.3001e-08
1.75151e-08
4.07383e-09
3.0459e-10
2.01812e-10
3.56354e-10
6.18356e-10
8.73762e-10
1.04573e-09
1.00559e-09
9.17964e-10
7.74358e-10
6.47487e-10
4.16256e-10
1.51754e-10
2.77853e-11
2.02375e-11
2.27662e-11
3.65438e-11
4.83743e-09
7.58526e-09
1.44225e-08
2.30683e-08
2.15015e-08
7.13395e-09
5.9458e-10
2.56713e-11
2.47217e-11
4.97625e-11
1.13436e-10
1.77151e-10
1.94062e-10
2.90167e-10
3.15495e-10
2.80486e-10
2.07462e-10
1.27963e-10
3.74928e-11
1.18497e-11
9.37725e-12
1.08969e-11
1.73012e-11
1.84667e-08
1.94007e-08
2.30826e-08
2.31353e-08
9.20938e-09
9.30511e-10
2.30243e-11
1.11446e-11
1.13566e-11
1.17146e-11
1.33415e-11
1.60049e-11
1.90849e-11
7.40807e-11
9.76111e-11
8.48052e-11
5.85252e-11
2.89547e-11
1.09418e-11
5.3566e-12
3.55128e-12
4.15637e-12
7.22264e-12
2.47756e-08
2.48228e-08
2.28251e-08
9.8711e-09
1.16217e-09
2.82386e-11
6.95124e-12
6.09785e-12
6.03565e-12
6.70113e-12
7.2262e-12
8.04783e-12
9.93463e-12
2.22704e-11
2.66743e-11
2.0889e-11
1.34869e-11
6.98718e-12
3.19918e-12
1.53407e-12
1.06009e-12
1.29915e-12
2.27693e-12
1.64095e-08
1.58412e-08
7.63043e-09
1.08878e-09
3.11505e-11
5.0603e-12
3.87555e-12
3.27657e-12
3.14046e-12
3.40109e-12
3.70891e-12
4.12179e-12
4.78681e-12
7.24688e-12
7.77474e-12
5.80279e-12
3.57145e-12
1.83625e-12
8.46921e-13
4.06276e-13
2.80791e-13
3.39644e-13
5.32446e-13
5.08649e-09
2.64121e-09
5.10291e-10
2.15836e-11
4.19954e-12
2.79573e-12
1.98179e-12
1.62203e-12
1.51499e-12
1.60432e-12
1.73957e-12
1.91457e-12
2.10207e-12
2.49561e-12
2.36352e-12
1.68514e-12
9.83433e-13
4.83051e-13
2.1411e-13
9.94394e-14
6.58512e-14
7.37014e-14
9.90514e-14
4.74238e-10
8.79284e-11
6.87804e-12
3.40832e-12
2.14032e-12
1.33656e-12
9.17292e-13
7.29138e-13
6.68943e-13
6.97908e-13
7.43347e-13
7.98816e-13
8.36307e-13
8.53519e-13
7.19947e-13
4.79852e-13
2.61754e-13
1.20441e-13
5.01449e-14
2.21183e-14
1.37045e-14
1.35707e-14
1.51963e-14
1.14799e-11
3.54661e-12
2.44966e-12
1.54738e-12
9.41456e-13
5.74044e-13
3.81445e-13
2.96918e-13
2.69392e-13
2.77512e-13
2.88821e-13
3.0027e-13
2.99375e-13
2.74601e-13
2.09243e-13
1.28691e-13
6.50188e-14
2.77375e-14
1.07334e-14
4.45214e-15
2.52921e-15
2.14887e-15
1.9794e-15
3.12576e-12
1.67023e-12
1.01176e-12
6.23668e-13
3.72143e-13
2.20539e-13
1.42693e-13
1.09635e-13
9.88559e-14
1.00535e-13
1.01957e-13
1.02013e-13
9.64779e-14
8.10755e-14
5.6407e-14
3.19145e-14
1.48661e-14
5.84702e-15
2.09016e-15
8.07726e-16
4.15423e-16
2.98666e-16
2.25135e-16
9.90266e-13
6.20654e-13
3.75013e-13
2.26007e-13
1.31678e-13
7.60345e-14
4.82115e-14
3.67977e-14
3.30733e-14
3.31806e-14
3.27254e-14
3.14261e-14
2.80983e-14
2.18091e-14
1.39389e-14
7.25487e-15
3.10936e-15
1.12451e-15
3.70312e-16
1.32493e-16
6.10624e-17
3.67799e-17
2.26663e-17
3.1507e-13
2.04928e-13
1.24445e-13
7.36242e-14
4.19083e-14
2.36584e-14
1.47822e-14
1.12645e-14
1.01055e-14
9.9931e-15
9.57121e-15
8.80831e-15
7.42931e-15
5.34508e-15
3.14759e-15
1.50764e-15
5.93941e-16
1.97254e-16
5.96965e-17
1.96557e-17
8.0982e-18
4.05609e-18
2.04493e-18
9.48261e-14
6.21002e-14
3.74003e-14
2.16926e-14
1.20728e-14
6.68275e-15
4.13409e-15
3.15734e-15
2.82751e-15
2.75357e-15
2.55842e-15
2.25426e-15
1.79132e-15
1.19662e-15
6.5028e-16
2.86777e-16
1.03812e-16
3.16245e-17
8.77568e-18
2.64515e-18
9.7501e-19
4.02513e-19
1.66164e-19
2.6779e-14
1.73225e-14
1.02451e-14
5.81652e-15
3.16733e-15
1.72366e-15
1.06012e-15
8.13761e-16
7.27029e-16
6.96533e-16
6.27216e-16
5.28636e-16
3.95395e-16
2.45428e-16
1.23183e-16
5.0034e-17
1.6647e-17
4.65085e-18
1.18136e-18
3.24189e-19
1.0626e-19
3.61482e-20
1.2212e-20
7.08029e-15
4.45142e-15
2.57096e-15
1.42765e-15
7.61316e-16
4.08341e-16
2.50619e-16
1.93738e-16
1.72489e-16
1.62393e-16
1.41567e-16
1.14021e-16
8.02068e-17
4.62722e-17
2.14544e-17
8.02491e-18
2.45228e-18
6.27582e-19
1.45658e-19
3.62815e-20
1.05402e-20
2.96316e-21
8.16994e-22
1.74815e-15
1.05632e-15
5.9394e-16
3.22569e-16
1.68625e-16
8.93572e-17
5.49133e-17
4.28138e-17
3.79334e-17
3.50554e-17
2.95559e-17
2.27316e-17
1.50317e-17
8.06244e-18
3.45439e-18
1.18971e-18
3.3367e-19
7.80725e-20
1.64917e-20
3.70957e-21
9.52823e-22
2.23131e-22
4.98444e-23
4.02776e-16
2.32318e-16
1.26997e-16
6.74826e-17
3.46204e-17
1.81668e-17
1.12107e-17
8.82176e-18
7.76539e-18
7.03547e-18
5.73141e-18
4.20527e-18
2.61326e-18
1.30364e-18
5.16434e-19
1.63842e-19
4.21897e-20
9.02205e-21
1.73166e-21
3.50206e-22
7.90044e-23
1.55956e-23
2.75968e-24
8.6743e-17
4.75557e-17
2.52555e-17
1.31376e-17
6.62124e-18
3.44767e-18
2.14207e-18
1.70223e-18
1.48676e-18
1.31915e-18
1.03753e-18
7.2581e-19
4.23788e-19
1.96657e-19
7.20479e-20
2.10462e-20
4.96865e-21
9.69428e-22
1.68817e-22
3.06982e-23
6.09829e-24
1.02822e-24
1.40804e-25
1.75083e-17
9.10829e-18
4.70062e-18
2.39623e-18
1.18803e-18
6.15103e-19
3.85421e-19
3.09028e-19
2.67285e-19
2.31926e-19
1.7601e-19
1.17372e-19
6.44311e-20
2.78442e-20
9.44799e-21
2.54401e-21
5.50711e-22
9.78864e-23
1.54033e-23
2.50934e-24
4.394e-25
6.34243e-26
6.65192e-27
3.32428e-18
1.63974e-18
8.22111e-19
4.10707e-19
2.00366e-19
1.03303e-19
6.54256e-20
5.29507e-20
4.52849e-20
3.83703e-20
2.80371e-20
1.77834e-20
9.15109e-21
3.66913e-21
1.14731e-21
2.83108e-22
5.58174e-23
8.97213e-24
1.27044e-24
1.86337e-25
2.89542e-26
3.55755e-27
2.81303e-28
5.96319e-19
2.79427e-19
1.36322e-19
6.67984e-20
3.20913e-20
1.65044e-20
1.05824e-20
8.63917e-21
7.29241e-21
6.02261e-21
4.22863e-21
2.54615e-21
1.22559e-21
4.54742e-22
1.30585e-22
2.93975e-23
5.24758e-24
7.56889e-25
9.57655e-26
1.26485e-26
1.74823e-27
1.80393e-28
1.16118e-29
1.01506e-19
4.52836e-20
2.14916e-20
1.0319e-20
4.87842e-21
2.50655e-21
1.63333e-21
1.34713e-21
1.11977e-21
8.9887e-22
6.02698e-22
3.42125e-22
1.52327e-22
5.14636e-23
1.32927e-23
2.65967e-24
4.1587e-25
5.17486e-26
5.69424e-27
6.86629e-28
8.4192e-29
6.47689e-30
9.5365e-31
)
;

boundaryField
{
    leftWall
    {
        type            zeroGradient;
    }
    rightWall
    {
        type            zeroGradient;
    }
    lowerWall
    {
        type            zeroGradient;
    }
    atmosphere
    {
        type            inletOutlet;
        inletValue      uniform 0;
        value           nonuniform List<scalar> 
23
(
1.01506e-19
4.52836e-20
2.14916e-20
1.0319e-20
4.87842e-21
2.50655e-21
1.63333e-21
1.34713e-21
1.11977e-21
8.9887e-22
6.02698e-22
3.42125e-22
1.52327e-22
5.14636e-23
1.32927e-23
2.65967e-24
4.1587e-25
5.17486e-26
5.69424e-27
6.86629e-28
8.4192e-29
6.47689e-30
9.5365e-31
)
;
    }
    defaultFaces
    {
        type            empty;
    }
    procBoundary2to0
    {
        type            processor;
        value           nonuniform List<scalar> 
24
(
1.11641e-07
1.41996e-07
2.94313e-07
9.14957e-07
1.03172e-06
1.01797e-06
3.25705e-07
1.23508e-09
2.04363e-09
1.63758e-09
2.02768e-09
9.24466e-09
1.19014e-08
6.43822e-09
1.82899e-09
1.33925e-09
1.51664e-09
1.73171e-09
1.91937e-09
4.30039e-09
9.20323e-09
1.11166e-08
1.8471e-08
1.8471e-08
)
;
    }
    procBoundary2to3
    {
        type            processor;
        value           nonuniform List<scalar> 
25
(
1.64676e-09
2.38814e-10
2.06375e-10
1.10515e-10
5.99278e-11
2.18896e-11
9.36979e-12
2.89659e-12
6.40644e-13
1.11027e-13
1.56256e-14
1.84389e-15
1.87846e-16
1.67809e-17
1.3314e-18
9.42966e-20
5.97701e-21
3.40234e-22
1.73773e-23
7.88723e-25
3.22834e-26
1.23915e-27
6.02725e-29
1.15308e-29
1.75401e-29
)
;
    }
}


// ************************************************************************* //
