/*--------------------------------*- C++ -*----------------------------------*\
| =========                 |                                                 |
| \\      /  F ield         | OpenFOAM: The Open Source CFD Toolbox           |
|  \\    /   O peration     | Version:  2.4.0                                 |
|   \\  /    A nd           | Web:      www.OpenFOAM.org                      |
|    \\/     M anipulation  |                                                 |
\*---------------------------------------------------------------------------*/
FoamFile
{
    version     2.0;
    format      ascii;
    class       volScalarField;
    location    "1";
    object      alpha.oil;
}
// * * * * * * * * * * * * * * * * * * * * * * * * * * * * * * * * * * * * * //

dimensions      [0 0 0 0 0 0 0];

internalField   nonuniform List<scalar> 
559
(
1.06677e-06
1.17815e-06
6.73816e-06
2.69207e-05
2.11336e-05
6.16096e-06
9.24878e-07
1.51771e-07
4.13196e-07
8.51601e-08
6.12879e-08
7.18935e-08
4.55442e-08
1.48179e-08
7.25848e-09
9.79736e-09
1.13659e-08
1.09632e-08
9.40119e-09
1.65521e-08
4.53256e-08
9.82175e-08
1.58493e-07
2.14899e-07
2.70107e-07
6.78132e-07
1.11842e-06
7.01053e-07
2.40139e-07
8.43874e-08
1.61463e-08
9.71731e-08
6.71872e-08
1.29353e-07
9.34978e-08
3.92238e-08
7.79826e-09
3.57514e-09
5.0987e-09
7.24711e-09
8.66596e-09
8.13962e-09
1.46664e-08
2.3692e-08
4.85648e-08
4.64031e-08
5.85473e-08
7.89114e-08
9.6853e-08
1.17643e-07
1.32848e-07
1.15525e-07
4.37986e-08
1.61462e-08
2.79281e-08
1.07094e-07
1.29747e-07
7.39408e-08
2.49865e-08
4.50028e-09
1.51538e-09
1.76137e-09
2.51092e-09
3.49272e-09
4.55998e-09
1.06848e-08
1.41282e-08
1.51612e-08
1.97809e-08
1.98696e-08
1.8891e-08
2.18041e-08
8.63495e-08
1.12112e-07
1.15345e-07
8.60995e-08
3.73056e-08
8.78598e-08
1.42059e-07
1.1062e-07
4.25017e-08
1.19853e-08
1.67689e-09
4.55617e-10
3.28758e-10
3.88311e-10
6.20891e-10
1.1165e-09
2.40501e-09
3.82181e-09
5.71636e-09
6.00245e-09
5.49996e-09
6.78541e-09
5.42101e-08
9.68185e-08
1.18096e-07
7.61534e-08
3.29864e-08
1.34769e-07
1.4432e-07
1.43314e-07
6.38239e-08
1.699e-08
2.56585e-09
2.1947e-10
5.15101e-11
3.25788e-11
3.83416e-11
6.45319e-11
1.05484e-10
1.47718e-10
8.15096e-10
1.63088e-09
1.93832e-09
2.14962e-09
1.03141e-08
4.20118e-08
7.99588e-08
6.08057e-08
2.40821e-08
1.07226e-08
1.39656e-07
1.40362e-07
7.85445e-08
2.3114e-08
3.36278e-09
2.22781e-10
1.33195e-11
1.29196e-11
1.845e-11
2.63354e-11
3.474e-11
4.29821e-11
5.10986e-11
2.19098e-10
5.5477e-10
1.02389e-09
2.43069e-09
1.21747e-08
2.71755e-08
2.77558e-08
2.3823e-08
1.53441e-08
9.20895e-09
5.65975e-08
5.36059e-08
2.12454e-08
3.66114e-09
2.98346e-10
9.82093e-12
7.08102e-12
8.40441e-12
1.26233e-11
2.03122e-11
2.95295e-11
3.78227e-11
4.45661e-11
1.03193e-10
3.09036e-10
1.20298e-09
5.36159e-09
9.09293e-09
1.26383e-08
1.39085e-08
1.33341e-08
1.06753e-08
7.81557e-09
1.30004e-08
7.10409e-09
1.85098e-09
2.26352e-10
9.60038e-12
4.60228e-12
3.96203e-12
5.13963e-12
8.64205e-12
1.51205e-11
2.30829e-11
3.02818e-11
3.5815e-11
6.21245e-11
2.14087e-10
8.98468e-10
2.66828e-09
4.74448e-09
8.00256e-09
1.0407e-08
9.1851e-09
7.4676e-09
5.17109e-09
2.60267e-09
3.97129e-10
5.35074e-11
5.83467e-12
3.56541e-12
2.29383e-12
2.09755e-12
3.02667e-12
5.63064e-12
1.04308e-11
1.64262e-11
2.17964e-11
2.54714e-11
3.63754e-11
1.20451e-10
4.79281e-10
9.43012e-10
1.33624e-09
3.24191e-09
5.25856e-09
4.63184e-09
3.58188e-09
2.4164e-09
2.05079e-10
1.63359e-11
4.01134e-12
2.64932e-12
1.61227e-12
1.06513e-12
1.04107e-12
1.69746e-12
3.42121e-12
6.57531e-12
1.05151e-11
1.39593e-11
1.60064e-11
2.08972e-11
4.58414e-11
1.13468e-10
1.70267e-10
2.7955e-10
6.23382e-10
1.4295e-09
1.42568e-09
1.15346e-09
8.05431e-10
6.89196e-12
4.30202e-12
2.03871e-12
1.15061e-12
6.67729e-13
4.48583e-13
4.86364e-13
8.9496e-13
1.91375e-12
3.75882e-12
6.02764e-12
7.94e-12
8.95065e-12
1.07091e-11
1.77209e-11
2.19411e-11
2.48479e-11
3.85252e-11
5.37257e-11
8.7354e-11
1.58243e-10
1.58091e-10
1.28803e-10
2.46973e-12
1.54487e-12
7.91195e-13
4.3001e-13
2.45165e-13
1.73224e-13
2.14171e-13
4.38928e-13
9.78009e-13
1.94119e-12
3.09421e-12
4.02346e-12
4.48364e-12
5.17759e-12
7.8754e-12
1.05862e-11
1.32349e-11
1.76083e-11
2.1459e-11
2.01631e-11
1.69086e-11
1.53553e-11
1.27969e-11
8.58524e-13
5.0405e-13
2.65222e-13
1.41078e-13
8.08643e-14
6.21269e-14
8.86903e-14
1.98688e-13
4.54793e-13
9.04658e-13
1.42497e-12
1.82481e-12
2.02102e-12
2.36121e-12
3.7744e-12
5.50047e-12
6.94503e-12
8.17021e-12
8.76207e-12
7.95935e-12
6.78371e-12
5.48841e-12
3.99247e-12
2.69226e-13
1.52362e-13
7.9156e-14
4.13181e-14
2.43097e-14
2.08964e-14
3.43837e-14
8.26058e-14
1.92181e-13
3.80792e-13
5.90505e-13
7.44473e-13
8.23629e-13
1.00577e-12
1.74061e-12
2.65517e-12
3.30348e-12
3.56049e-12
3.4227e-12
2.93799e-12
2.28992e-12
1.61271e-12
9.96848e-13
7.65151e-14
4.20106e-14
2.12446e-14
1.09304e-14
6.74842e-15
6.62823e-15
1.24225e-14
3.14733e-14
7.3846e-14
1.4512e-13
2.21081e-13
2.74682e-13
3.05167e-13
3.97174e-13
7.36105e-13
1.14039e-12
1.37742e-12
1.38202e-12
1.21158e-12
9.52705e-13
6.62513e-13
3.99741e-13
2.10075e-13
1.9999e-14
1.0571e-14
5.16709e-15
2.63887e-15
1.74984e-15
1.9862e-15
4.16867e-15
1.0989e-14
2.58609e-14
5.02486e-14
7.51276e-14
9.21646e-14
1.03376e-13
1.4475e-13
2.81877e-13
4.33914e-13
5.02819e-13
4.71331e-13
3.79599e-13
2.70438e-13
1.66184e-13
8.53427e-14
3.79945e-14
4.83172e-15
2.43618e-15
1.14691e-15
5.87073e-16
4.27781e-16
5.61934e-16
1.29736e-15
3.52165e-15
8.28111e-15
1.58777e-14
2.32919e-14
2.82904e-14
3.22048e-14
4.85914e-14
9.76269e-14
1.46983e-13
1.61777e-13
1.41438e-13
1.04808e-13
6.74113e-14
3.64626e-14
1.58735e-14
5.94805e-15
1.0798e-15
5.16187e-16
2.33803e-16
1.21466e-16
9.92724e-17
1.49907e-16
3.74587e-16
1.03898e-15
2.43451e-15
4.60081e-15
6.62618e-15
7.99625e-15
9.28006e-15
1.50035e-14
3.05972e-14
4.45463e-14
4.62502e-14
3.76037e-14
2.55764e-14
1.48021e-14
7.02821e-15
2.5893e-15
8.08243e-16
2.23549e-16
1.00999e-16
4.40586e-17
2.35911e-17
2.19626e-17
3.76639e-17
1.00468e-16
2.83083e-16
6.59731e-16
1.22854e-15
1.73966e-15
2.09387e-15
2.4867e-15
4.26872e-15
8.72394e-15
1.21825e-14
1.18738e-14
8.95316e-15
5.57798e-15
2.89525e-15
1.20031e-15
3.74311e-16
9.53725e-17
4.30237e-17
1.83386e-17
7.71996e-18
4.33706e-18
4.64272e-18
8.91648e-18
2.51166e-17
7.15847e-17
1.65757e-16
3.04199e-16
4.24374e-16
5.11557e-16
6.22976e-16
1.12107e-15
2.27073e-15
3.02272e-15
2.75584e-15
1.92471e-15
1.09764e-15
5.10551e-16
1.84719e-16
4.8885e-17
9.95218e-18
7.73088e-18
3.10815e-18
1.26721e-18
7.61815e-19
9.39298e-19
1.99052e-18
5.86505e-18
1.68438e-17
3.87211e-17
7.00896e-17
9.66235e-17
1.17181e-16
1.46474e-16
2.72603e-16
5.42695e-16
6.86116e-16
5.84168e-16
3.77513e-16
1.96634e-16
8.17796e-17
2.57759e-17
5.77553e-18
9.24512e-19
1.30375e-18
4.94251e-19
1.95853e-19
1.28566e-19
1.82008e-19
4.20684e-19
1.28881e-18
3.72257e-18
8.49514e-18
1.51801e-17
2.07281e-17
2.53847e-17
3.25749e-17
6.21248e-17
1.20746e-16
1.43969e-16
1.13754e-16
6.77053e-17
3.20686e-17
1.18485e-17
3.21774e-18
6.00417e-19
7.33139e-20
2.07507e-19
7.43034e-20
2.88024e-20
2.10639e-20
3.39236e-20
8.46018e-20
2.6797e-19
7.76945e-19
1.7601e-18
3.108e-18
4.21527e-18
5.22743e-18
6.8666e-18
1.32407e-17
2.49226e-17
2.78836e-17
2.0363e-17
1.11217e-17
4.76675e-18
1.55253e-18
3.59025e-19
5.46206e-20
4.97215e-21
3.1336e-20
1.06053e-20
4.04411e-21
3.36828e-21
6.12051e-21
1.63655e-20
5.34507e-20
1.55459e-19
3.49562e-19
6.10085e-19
8.22479e-19
1.03476e-18
1.38788e-18
2.68898e-18
4.86465e-18
5.02145e-18
3.31684e-18
1.62728e-18
6.1398e-19
1.68302e-19
3.05551e-20
3.25278e-21
1.5569e-22
)
;

boundaryField
{
    leftWall
    {
        type            zeroGradient;
    }
    rightWall
    {
        type            zeroGradient;
    }
    lowerWall
    {
        type            zeroGradient;
    }
    atmosphere
    {
        type            inletOutlet;
        inletValue      uniform 0;
        value           nonuniform List<scalar> 
23
(
3.1336e-20
1.06053e-20
4.04411e-21
3.36828e-21
6.12051e-21
1.63655e-20
5.34507e-20
1.55459e-19
3.49562e-19
6.10085e-19
8.22479e-19
1.03476e-18
1.38788e-18
2.68898e-18
4.86465e-18
5.02145e-18
3.31684e-18
1.62728e-18
6.1398e-19
1.68302e-19
3.05551e-20
3.25278e-21
1.5569e-22
)
;
    }
    defaultFaces
    {
        type            empty;
    }
    procBoundary2to0
    {
        type            processor;
        value           nonuniform List<scalar> 
24
(
1.12343e-05
4.65957e-06
2.10672e-05
6.60398e-05
6.59084e-05
6.05856e-05
1.097e-05
5.42271e-05
1.14306e-06
1.12273e-07
4.88312e-08
5.18036e-08
3.74337e-08
1.56797e-08
1.3467e-08
1.50012e-08
1.37435e-08
1.28124e-08
2.57103e-08
4.53742e-08
1.55221e-07
1.03332e-06
2.80252e-06
2.80252e-06
)
;
    }
    procBoundary2to3
    {
        type            processor;
        value           nonuniform List<scalar> 
25
(
1.42742e-07
4.25686e-08
2.02536e-08
2.41336e-08
1.58045e-08
6.76463e-09
6.56166e-09
6.27513e-09
3.73336e-09
1.93974e-09
6.26174e-10
1.02413e-10
1.15424e-11
3.22641e-12
7.26207e-13
1.37483e-13
2.21472e-14
3.05045e-15
3.59346e-16
3.60486e-17
3.12039e-18
2.34675e-19
1.44199e-20
7.00084e-22
4.56506e-23
)
;
    }
}


// ************************************************************************* //
