/*--------------------------------*- C++ -*----------------------------------*\
| =========                 |                                                 |
| \\      /  F ield         | OpenFOAM: The Open Source CFD Toolbox           |
|  \\    /   O peration     | Version:  2.4.0                                 |
|   \\  /    A nd           | Web:      www.OpenFOAM.org                      |
|    \\/     M anipulation  |                                                 |
\*---------------------------------------------------------------------------*/
FoamFile
{
    version     2.0;
    format      ascii;
    class       volScalarField;
    location    "1";
    object      p;
}
// * * * * * * * * * * * * * * * * * * * * * * * * * * * * * * * * * * * * * //

dimensions      [1 -1 -2 0 0 0 0];

internalField   nonuniform List<scalar> 
559
(
2.44108
2.37381
2.31646
2.28647
2.27491
2.28967
2.34471
2.51626
1.58136
2.26769
2.23171
2.40272
2.51022
2.59517
2.65395
2.6859
2.69412
2.67985
2.64775
2.60608
2.55942
2.50967
2.45758
2.4123
2.36935
2.33445
2.31785
2.3149
2.3279
2.36303
2.61473
2.16596
2.27773
2.28611
2.36334
2.43605
2.49548
2.53669
2.56084
2.56854
2.55981
2.53863
2.50928
2.47355
2.43606
2.39817
2.36497
2.33393
2.31095
2.305
2.30595
2.31674
2.34288
2.62613
2.39785
2.34876
2.31668
2.34032
2.37785
2.41183
2.43608
2.45041
2.45451
2.44902
2.43489
2.41312
2.38638
2.35831
2.33053
2.30617
2.28401
2.26972
2.26687
2.2694
2.2795
2.29898
2.60079
2.47859
2.3785
2.32601
2.31681
2.32493
2.33609
2.34498
2.34928
2.34894
2.34378
2.33226
2.31563
2.29635
2.2755
2.2553
2.23746
2.22259
2.2137
2.2113
2.21408
2.22229
2.2366
2.54145
2.47936
2.37473
2.31338
2.28214
2.26791
2.2611
2.25706
2.25299
2.24805
2.24116
2.23062
2.21764
2.20322
2.18775
2.1731
2.16015
2.1497
2.14335
2.14166
2.14399
2.15076
2.1615
2.44107
2.41462
2.32605
2.26714
2.22906
2.20064
2.18115
2.16791
2.15772
2.14893
2.13993
2.12992
2.11903
2.10746
2.0957
2.08474
2.07504
2.06732
2.06275
2.06171
2.06369
2.06883
2.07713
2.3165
2.30066
2.24178
2.19048
2.14933
2.11684
2.09271
2.07472
2.06078
2.04936
2.03892
2.0289
2.01907
2.00929
1.99991
1.99134
1.98386
1.97807
1.97462
1.97403
1.97558
1.9797
1.98613
2.1805
2.16852
2.12999
2.08892
2.0519
2.02087
1.99615
1.97657
1.96088
1.94796
1.93681
1.92676
1.91752
1.90886
1.90093
1.89387
1.88795
1.88348
1.88095
1.88079
1.88163
1.88473
1.88988
2.04024
2.03129
2.00416
1.97324
1.94275
1.91551
1.89243
1.87324
1.85735
1.84406
1.83271
1.82278
1.81398
1.8061
1.79914
1.79313
1.78821
1.78447
1.78214
1.78132
1.7827
1.78539
1.78955
1.8999
1.89312
1.87339
1.85042
1.8262
1.80332
1.78292
1.76524
1.75014
1.73724
1.72618
1.71662
1.7083
1.70103
1.69477
1.68947
1.68519
1.68203
1.6801
1.67948
1.68034
1.68246
1.68586
1.76109
1.75581
1.74124
1.72412
1.70515
1.68641
1.66898
1.65332
1.63955
1.62755
1.61716
1.60816
1.60038
1.59367
1.58796
1.58321
1.57944
1.57665
1.57491
1.5743
1.57494
1.57664
1.5794
1.62413
1.61993
1.60919
1.59626
1.58146
1.56631
1.55173
1.53823
1.52603
1.51521
1.5057
1.49742
1.49025
1.4841
1.4789
1.47461
1.47122
1.46873
1.46716
1.46657
1.46701
1.46834
1.47056
1.48897
1.48566
1.47768
1.46782
1.45628
1.44413
1.43209
1.42065
1.41009
1.40054
1.39205
1.38458
1.37808
1.37251
1.36781
1.36395
1.36089
1.35865
1.35723
1.35664
1.35693
1.35791
1.35969
1.35542
1.35283
1.34685
1.33928
1.33027
1.32055
1.31071
1.30116
1.29217
1.28391
1.27646
1.26985
1.26407
1.25909
1.25488
1.25141
1.24867
1.24665
1.24533
1.24473
1.24486
1.24562
1.24702
1.22323
1.22121
1.2167
1.21086
1.2038
1.19607
1.18809
1.1802
1.17266
1.16563
1.15921
1.15346
1.1484
1.14401
1.14028
1.13721
1.13478
1.13296
1.13176
1.13116
1.13114
1.13172
1.13282
1.09215
1.0906
1.08717
1.08265
1.07714
1.071
1.06458
1.05814
1.0519
1.046
1.04057
1.03565
1.03128
1.02748
1.02425
1.02157
1.01943
1.01781
1.01672
1.01613
1.01604
1.01646
1.01727
0.961983
0.960785
0.958165
0.954678
0.950385
0.945555
0.940434
0.935237
0.930139
0.925275
0.920745
0.916616
0.912928
0.909696
0.906926
0.90462
0.902773
0.901369
0.900398
0.899854
0.899736
0.900038
0.900561
0.832534
0.831625
0.829636
0.826961
0.823642
0.819873
0.815836
0.811698
0.807601
0.803659
0.799957
0.796558
0.793499
0.790804
0.788487
0.786549
0.784979
0.78377
0.782921
0.782425
0.782301
0.782695
0.782805
0.703648
0.702957
0.701458
0.69943
0.696902
0.694011
0.690893
0.687672
0.684456
0.681336
0.678384
0.675656
0.673187
0.671003
0.669114
0.66752
0.666218
0.665207
0.664469
0.663983
0.663707
0.663479
0.663951
0.575202
0.574695
0.573598
0.572101
0.570224
0.568066
0.565723
0.563286
0.560836
0.558443
0.556166
0.554049
0.552125
0.550412
0.548922
0.54766
0.546625
0.545804
0.545183
0.544748
0.54447
0.54433
0.544497
0.447087
0.446731
0.445955
0.444898
0.443569
0.442034
0.440355
0.438601
0.436828
0.435091
0.43343
0.431881
0.430468
0.429202
0.428095
0.427149
0.42636
0.425723
0.425231
0.42487
0.424623
0.424485
0.424446
0.319207
0.318987
0.318479
0.317787
0.316918
0.315911
0.314809
0.313654
0.312484
0.311333
0.310229
0.309195
0.308244
0.307388
0.306633
0.305981
0.305429
0.304976
0.30461
0.304319
0.304084
0.303871
0.303647
0.191471
0.191358
0.191099
0.190741
0.190269
0.189714
0.189106
0.188468
0.187821
0.187184
0.186572
0.185996
0.185467
0.184991
0.184572
0.18421
0.183903
0.183647
0.183436
0.183268
0.183144
0.183085
0.183178
0.0637921
0.0637474
0.0636447
0.0635267
0.0634031
0.0632625
0.0631094
0.0629449
0.0627764
0.0626088
0.0624474
0.0622979
0.062165
0.0620493
0.061949
0.0618629
0.0617878
0.0617192
0.0616529
0.0615769
0.0614738
0.0613127
0.0610198
)
;

boundaryField
{
    leftWall
    {
        type            fixedFluxPressure;
        gradient        uniform 0;
        value           nonuniform List<scalar> 
24
(
2.51626
2.61473
2.62613
2.60079
2.54145
2.44107
2.3165
2.1805
2.04024
1.8999
1.76109
1.62413
1.48897
1.35542
1.22323
1.09215
0.961983
0.832534
0.703648
0.575202
0.447087
0.319207
0.191471
0.0637921
)
;
    }
    rightWall
    {
        type            fixedFluxPressure;
        gradient        nonuniform 0();
        value           nonuniform 0();
    }
    lowerWall
    {
        type            fixedFluxPressure;
        gradient        nonuniform 0();
        value           nonuniform 0();
    }
    atmosphere
    {
        type            totalPressure;
        U               U.air;
        phi             phi.air;
        rho             rho;
        psi             none;
        gamma           1;
        p0              uniform 0;
        value           uniform 0;
    }
    defaultFaces
    {
        type            empty;
    }
    procBoundary2to0
    {
        type            processor;
        value           nonuniform List<scalar> 
24
(
2.44719
2.34621
2.25842
2.19876
2.16993
2.18513
2.25495
2.5029
0.91822
2.51673
2.11967
2.49837
2.61244
2.71991
2.79252
2.83043
2.83593
2.81242
2.76651
2.71032
2.65041
2.58288
2.51027
2.51027
)
;
    }
    procBoundary2to3
    {
        type            processor;
        value           nonuniform List<scalar> 
25
(
2.40614
2.40086
2.37096
2.31912
2.25094
2.17215
2.08529
1.99243
1.89498
1.79369
1.68927
1.5822
1.47286
1.36155
1.24853
1.134
1.01818
0.901207
0.783219
0.664292
0.544679
0.424493
0.303692
0.182889
0.0607559
)
;
    }
}


// ************************************************************************* //
