/*--------------------------------*- C++ -*----------------------------------*\
| =========                 |                                                 |
| \\      /  F ield         | OpenFOAM: The Open Source CFD Toolbox           |
|  \\    /   O peration     | Version:  2.4.0                                 |
|   \\  /    A nd           | Web:      www.OpenFOAM.org                      |
|    \\/     M anipulation  |                                                 |
\*---------------------------------------------------------------------------*/
FoamFile
{
    version     2.0;
    format      ascii;
    class       surfaceScalarField;
    location    "1";
    object      phi;
}
// * * * * * * * * * * * * * * * * * * * * * * * * * * * * * * * * * * * * * //

dimensions      [0 3 -1 0 0 0 0];

internalField   nonuniform List<scalar> 
1070
(
0.00013364
4.97995e-05
0.000147903
3.85355e-05
0.000157318
2.30747e-05
0.000161544
2.33469e-06
0.000158775
-2.92353e-05
0.000153958
-5.68686e-05
-7.81657e-05
6.72067e-05
0.000429825
5.29308e-05
0.000245367
5.38605e-05
0.000149184
4.37059e-05
8.8003e-05
4.23934e-05
5.52866e-05
4.23388e-05
4.28445e-05
4.41402e-05
4.18787e-05
4.7685e-05
4.57131e-05
5.5485e-05
5.32975e-05
6.65461e-05
6.72429e-05
7.59037e-05
8.07058e-05
8.2348e-05
8.29605e-05
8.88577e-05
7.55428e-05
9.57856e-05
6.5164e-05
0.000105573
5.66263e-05
0.000113829
5.00848e-05
0.000123269
4.03602e-05
0.000134195
2.76093e-05
0.00014085
1.64191e-05
0.000144688
-1.5032e-06
0.00014146
-2.60069e-05
0.000131477
-4.68858e-05
-6.30774e-05
7.50816e-05
0.000354743
7.25819e-05
0.000247867
6.50595e-05
0.000156707
5.85298e-05
9.45327e-05
5.56581e-05
5.81583e-05
5.36579e-05
4.48446e-05
5.28525e-05
4.26841e-05
5.32893e-05
4.52763e-05
5.59079e-05
5.06789e-05
6.42974e-05
5.88534e-05
7.51765e-05
6.98266e-05
8.46915e-05
7.34455e-05
9.21861e-05
6.80483e-05
9.79774e-05
5.93726e-05
0.000103644
5.09602e-05
0.000108898
4.48304e-05
0.000114712
3.45463e-05
0.000119954
2.23667e-05
0.000124018
1.23559e-05
0.000127101
-4.58606e-06
0.000123786
-2.2692e-05
0.000115888
-3.89884e-05
-5.20179e-05
6.13444e-05
0.000293399
7.4045e-05
0.000235166
7.41601e-05
0.000156592
7.19387e-05
9.67541e-05
6.77932e-05
6.23038e-05
6.3515e-05
4.91228e-05
6.00659e-05
4.61332e-05
5.79895e-05
4.73526e-05
5.78925e-05
5.07759e-05
6.19398e-05
5.48061e-05
7.07222e-05
6.10443e-05
8.08892e-05
6.32785e-05
8.87563e-05
6.01811e-05
9.42678e-05
5.38612e-05
9.82561e-05
4.69719e-05
0.000102821
4.02652e-05
0.000107195
3.01724e-05
0.000110057
1.95049e-05
0.000113432
8.98073e-06
0.000114448
-5.60168e-06
0.000110678
-1.89222e-05
0.000103874
-3.21842e-05
-4.32761e-05
5.13769e-05
0.000242022
7.50751e-05
0.000211468
8.21868e-05
0.00014948
8.11496e-05
9.77913e-05
7.58159e-05
6.76375e-05
6.96523e-05
5.52865e-05
6.44831e-05
5.13024e-05
6.11111e-05
5.07247e-05
6.00422e-05
5.18448e-05
6.17828e-05
5.30656e-05
6.75614e-05
5.52657e-05
7.52344e-05
5.56055e-05
8.19734e-05
5.34421e-05
8.72735e-05
4.8561e-05
9.13586e-05
4.28868e-05
9.57664e-05
3.58574e-05
9.93452e-05
2.65936e-05
0.000101647
1.72031e-05
0.000103426
7.20178e-06
0.000102744
-4.91996e-06
9.91931e-05
-1.53711e-05
9.34617e-05
-2.64528e-05
-3.5682e-05
4.42757e-05
0.000197746
7.25307e-05
0.000183213
8.31807e-05
0.00013883
8.28858e-05
9.80862e-05
7.74613e-05
7.3062e-05
7.07497e-05
6.1998e-05
6.53874e-05
5.66647e-05
6.19439e-05
5.41681e-05
6.07763e-05
5.30124e-05
6.16936e-05
5.21482e-05
6.51098e-05
5.18496e-05
7.00808e-05
5.06345e-05
7.53353e-05
4.81877e-05
8.00331e-05
4.38632e-05
8.4134e-05
3.87859e-05
8.80093e-05
3.1982e-05
9.07743e-05
2.38286e-05
9.25763e-05
1.54011e-05
9.33304e-05
6.44774e-06
9.18563e-05
-3.44588e-06
8.89028e-05
-1.24176e-05
8.41791e-05
-2.17291e-05
-2.93753e-05
3.61141e-05
0.000161632
6.22634e-05
0.000157064
7.52321e-05
0.000125861
7.69376e-05
9.63807e-05
7.24294e-05
7.75703e-05
6.7177e-05
6.72503e-05
6.31186e-05
6.07231e-05
6.06389e-05
5.66478e-05
5.97946e-05
5.38568e-05
6.03243e-05
5.16185e-05
6.24879e-05
4.9686e-05
6.58083e-05
4.73141e-05
6.97127e-05
4.42832e-05
7.35986e-05
3.99773e-05
7.72683e-05
3.51162e-05
8.04337e-05
2.88167e-05
8.24923e-05
2.177e-05
8.37096e-05
1.41837e-05
8.37707e-05
6.38661e-06
8.23136e-05
-1.98879e-06
7.99674e-05
-1.00714e-05
7.61364e-05
-1.7898e-05
-2.43713e-05
2.67794e-05
0.000134853
4.93334e-05
0.00013451
6.16323e-05
0.000113563
6.48562e-05
9.31568e-05
6.34588e-05
7.89677e-05
6.10982e-05
6.96109e-05
5.90009e-05
6.28204e-05
5.77086e-05
5.79401e-05
5.74363e-05
5.41291e-05
5.81193e-05
5.09354e-05
5.97786e-05
4.80266e-05
6.2158e-05
4.49347e-05
6.50458e-05
4.13954e-05
6.79702e-05
3.70529e-05
7.08173e-05
3.22691e-05
7.31528e-05
2.64811e-05
7.47851e-05
2.01377e-05
7.56923e-05
1.32765e-05
7.56028e-05
6.47614e-06
7.44551e-05
-8.41131e-07
7.2443e-05
-8.05928e-06
6.92186e-05
-1.46736e-05
-2.04559e-05
1.91626e-05
0.00011569
3.74374e-05
0.000116235
4.87863e-05
0.000102214
5.33273e-05
8.86158e-05
5.44214e-05
7.78735e-05
5.43084e-05
6.97238e-05
5.39133e-05
6.32156e-05
5.37661e-05
5.80873e-05
5.41008e-05
5.37944e-05
5.50254e-05
5.00109e-05
5.64916e-05
4.65604e-05
5.84254e-05
4.30009e-05
6.07009e-05
3.912e-05
6.29553e-05
3.47985e-05
6.51597e-05
3.00648e-05
6.69328e-05
2.4708e-05
6.81122e-05
1.89583e-05
6.85786e-05
1.28101e-05
6.83801e-05
6.67467e-06
6.73513e-05
1.8766e-07
6.54931e-05
-6.20102e-06
6.29723e-05
-1.21528e-05
-1.74701e-05
1.40761e-05
0.000101614
2.85269e-05
0.000101784
3.82853e-05
9.24552e-05
4.35865e-05
8.33146e-05
4.63011e-05
7.51589e-05
4.77532e-05
6.82717e-05
4.86266e-05
6.23422e-05
4.93829e-05
5.73309e-05
5.02714e-05
5.29059e-05
5.14289e-05
4.88534e-05
5.28727e-05
4.51166e-05
5.45456e-05
4.1328e-05
5.63392e-05
3.73263e-05
5.80998e-05
3.30379e-05
5.97286e-05
2.8436e-05
6.10117e-05
2.34248e-05
6.18656e-05
1.81045e-05
6.22037e-05
1.24719e-05
6.19982e-05
6.88018e-06
6.10891e-05
1.09681e-06
5.95673e-05
-4.67925e-06
5.73963e-05
-9.98177e-06
-1.49823e-05
1.08451e-05
9.07691e-05
2.21042e-05
9.05251e-05
3.03484e-05
8.4211e-05
3.58129e-05
7.78501e-05
3.93552e-05
7.16166e-05
4.17403e-05
6.58866e-05
4.34459e-05
6.06366e-05
4.48426e-05
5.59343e-05
4.61557e-05
5.15928e-05
4.74886e-05
4.75205e-05
4.89362e-05
4.3669e-05
5.04478e-05
3.98165e-05
5.19808e-05
3.57933e-05
5.34295e-05
3.15892e-05
5.47317e-05
2.71338e-05
5.57442e-05
2.24123e-05
5.63652e-05
1.74834e-05
5.65053e-05
1.23318e-05
5.62036e-05
7.18185e-06
5.53652e-05
1.93524e-06
5.40083e-05
-3.32235e-06
5.2265e-05
-8.23848e-06
-1.2925e-05
8.66897e-06
8.21002e-05
1.75238e-05
8.16702e-05
2.45223e-05
7.72126e-05
2.97642e-05
7.26082e-05
3.36078e-05
6.7773e-05
3.64685e-05
6.30259e-05
3.8657e-05
5.8448e-05
4.04538e-05
5.41375e-05
4.20299e-05
5.00166e-05
4.34912e-05
4.60592e-05
4.49272e-05
4.22329e-05
4.63344e-05
3.84093e-05
4.76658e-05
3.44619e-05
4.8886e-05
3.0369e-05
4.99182e-05
2.61016e-05
5.06822e-05
2.16483e-05
5.11245e-05
1.70412e-05
5.11907e-05
1.22656e-05
5.09019e-05
7.4707e-06
5.01957e-05
2.64145e-06
4.90583e-05
-2.18497e-06
4.75473e-05
-6.72741e-06
-1.11329e-05
7.09339e-06
7.50068e-05
1.42362e-05
7.45274e-05
2.01967e-05
7.12521e-05
2.50269e-05
6.7778e-05
2.88463e-05
6.39536e-05
3.18696e-05
6.00027e-05
3.42884e-05
5.60292e-05
3.62988e-05
5.21271e-05
3.80221e-05
4.82934e-05
3.95573e-05
4.45241e-05
4.09862e-05
4.08041e-05
4.23119e-05
3.70835e-05
4.35109e-05
3.3263e-05
4.45666e-05
2.93132e-05
4.5416e-05
2.52523e-05
4.60229e-05
2.10414e-05
4.63548e-05
1.67093e-05
4.63696e-05
1.22509e-05
4.60522e-05
7.78813e-06
4.53888e-05
3.30483e-06
4.43815e-05
-1.17772e-06
4.30948e-05
-5.44062e-06
-9.58667e-06
5.89594e-06
6.91108e-05
1.17756e-05
6.86477e-05
1.6891e-05
6.61366e-05
2.12468e-05
6.34222e-05
2.48691e-05
6.03313e-05
2.7864e-05
5.70077e-05
3.0345e-05
5.35482e-05
3.24314e-05
5.00407e-05
3.42145e-05
4.65103e-05
3.57701e-05
4.29684e-05
3.71634e-05
3.94108e-05
3.84124e-05
3.58344e-05
3.95061e-05
3.21693e-05
4.04282e-05
2.83911e-05
4.11538e-05
2.45267e-05
4.1653e-05
2.05422e-05
4.19086e-05
1.64536e-05
4.18777e-05
1.22818e-05
4.15685e-05
8.09726e-06
4.09663e-05
3.90713e-06
4.00637e-05
-2.75142e-07
3.89164e-05
-4.2933e-06
-8.21949e-06
4.95819e-06
6.41527e-05
9.88146e-06
6.37245e-05
1.42983e-05
6.17198e-05
1.81847e-05
5.95358e-05
2.15297e-05
5.69862e-05
2.43829e-05
5.41546e-05
2.68065e-05
5.11246e-05
2.88738e-05
4.79734e-05
3.06479e-05
4.47361e-05
3.21812e-05
4.14351e-05
3.3516e-05
3.8076e-05
3.46801e-05
3.46704e-05
3.56694e-05
3.118e-05
3.64784e-05
2.7582e-05
3.70982e-05
2.39069e-05
3.75094e-05
2.0131e-05
3.77027e-05
1.62603e-05
3.76526e-05
1.2332e-05
3.73487e-05
8.40118e-06
3.67894e-05
4.46645e-06
3.59644e-05
5.49788e-07
3.49545e-05
-3.28331e-06
-7.00509e-06
4.2015e-06
5.99511e-05
8.37197e-06
5.9554e-05
1.21964e-05
5.78953e-05
1.56402e-05
5.6092e-05
1.86807e-05
5.39458e-05
2.13341e-05
5.15012e-05
2.36296e-05
4.8829e-05
2.56099e-05
4.59931e-05
2.73137e-05
4.30323e-05
2.87843e-05
3.99645e-05
3.00443e-05
3.6816e-05
3.11262e-05
3.35885e-05
3.20323e-05
3.02739e-05
3.27573e-05
2.68571e-05
3.32972e-05
2.3367e-05
3.3638e-05
1.97902e-05
3.376e-05
1.61383e-05
3.36616e-05
1.24304e-05
3.33545e-05
8.70829e-06
3.28388e-05
4.98219e-06
3.21043e-05
1.28425e-06
3.11933e-05
-2.37227e-06
-5.91282e-06
3.5778e-06
5.63733e-05
7.14005e-06
5.59918e-05
1.04557e-05
5.45797e-05
1.34921e-05
5.30557e-05
1.62226e-05
5.12152e-05
1.86427e-05
4.90811e-05
2.07651e-05
4.67067e-05
2.26149e-05
4.41433e-05
2.42135e-05
4.14338e-05
2.55882e-05
3.85897e-05
2.67644e-05
3.56398e-05
2.77592e-05
3.25937e-05
2.85788e-05
2.94543e-05
2.92179e-05
2.6218e-05
2.96802e-05
2.29048e-05
2.99566e-05
1.95137e-05
3.00475e-05
1.60474e-05
2.99397e-05
1.25382e-05
2.96275e-05
9.02048e-06
2.91225e-05
5.48726e-06
2.84384e-05
1.96836e-06
2.7596e-05
-1.52987e-06
-4.92685e-06
3.05947e-06
5.33139e-05
6.11702e-06
5.29342e-05
8.99862e-06
5.16981e-05
1.16624e-05
5.0392e-05
1.4086e-05
4.87916e-05
1.62599e-05
4.69071e-05
1.81832e-05
4.47834e-05
1.98635e-05
4.2463e-05
2.13225e-05
3.99748e-05
2.25718e-05
3.73404e-05
2.36306e-05
3.4581e-05
2.45081e-05
3.17163e-05
2.52204e-05
2.8742e-05
2.57717e-05
2.56667e-05
2.61655e-05
2.2511e-05
2.63953e-05
1.92839e-05
2.64501e-05
1.59926e-05
2.63277e-05
1.26606e-05
2.60452e-05
9.30297e-06
2.55887e-05
5.94373e-06
2.49531e-05
2.60402e-06
2.41732e-05
-7.49968e-07
-4.01202e-06
2.62089e-06
5.0693e-05
5.23934e-06
5.03157e-05
7.7193e-06
4.92181e-05
1.00384e-05
4.80728e-05
1.21728e-05
4.66573e-05
1.41071e-05
4.49728e-05
1.58346e-05
4.30559e-05
1.7358e-05
4.09396e-05
1.86917e-05
3.86411e-05
1.98363e-05
3.61959e-05
2.08029e-05
3.36143e-05
2.16032e-05
3.09161e-05
2.22358e-05
2.81093e-05
2.2698e-05
2.52045e-05
2.29931e-05
2.22159e-05
2.31226e-05
1.91544e-05
2.30867e-05
1.60285e-05
2.29067e-05
1.28407e-05
2.25837e-05
9.6259e-06
2.21304e-05
6.39704e-06
2.15608e-05
3.17366e-06
2.08544e-05
-4.35285e-08
-3.1775e-06
2.23011e-06
4.84629e-05
4.48611e-06
4.80597e-05
6.64321e-06
4.7061e-05
8.66344e-06
4.60526e-05
1.05311e-05
4.47896e-05
1.2233e-05
4.32709e-05
1.37613e-05
4.15275e-05
1.51124e-05
3.95885e-05
1.62834e-05
3.74701e-05
1.7282e-05
3.51972e-05
1.81135e-05
3.27829e-05
1.87852e-05
3.02444e-05
1.93094e-05
2.7585e-05
1.96938e-05
2.48201e-05
1.99362e-05
2.19736e-05
2.00397e-05
1.90509e-05
2.00008e-05
1.60673e-05
1.9799e-05
1.30425e-05
1.94359e-05
9.989e-06
1.8938e-05
6.89489e-06
1.83266e-05
3.78511e-06
1.7618e-05
6.65052e-07
-2.41217e-06
1.91635e-06
4.65465e-05
3.80671e-06
4.61694e-05
5.6039e-06
4.52638e-05
7.29258e-06
4.43639e-05
8.86519e-06
4.3217e-05
1.03126e-05
4.18234e-05
1.16337e-05
4.02065e-05
1.2828e-05
3.83942e-05
1.38884e-05
3.64097e-05
1.48053e-05
3.42803e-05
1.55706e-05
3.20175e-05
1.61826e-05
2.96324e-05
1.66407e-05
2.7127e-05
1.69513e-05
2.45095e-05
1.71091e-05
2.18158e-05
1.71261e-05
1.90338e-05
1.70142e-05
1.61793e-05
1.67785e-05
1.32782e-05
1.64324e-05
1.03351e-05
1.5959e-05
7.36827e-06
1.53499e-05
4.39421e-06
1.46255e-05
1.38944e-06
-1.61258e-06
1.62868e-06
4.49178e-05
3.24439e-06
4.45537e-05
4.81058e-06
4.36976e-05
6.2983e-06
4.28762e-05
7.69072e-06
4.18246e-05
8.97223e-06
4.05419e-05
1.0138e-05
3.90407e-05
1.11825e-05
3.73497e-05
1.21023e-05
3.549e-05
1.28934e-05
3.34892e-05
1.35464e-05
3.13645e-05
1.40611e-05
2.91176e-05
1.4435e-05
2.67531e-05
1.46583e-05
2.42862e-05
1.47416e-05
2.17326e-05
1.46823e-05
1.90932e-05
1.44849e-05
1.63766e-05
1.41565e-05
1.36066e-05
1.37107e-05
1.07809e-05
1.31636e-05
7.9153e-06
1.25305e-05
5.02737e-06
1.17907e-05
2.12918e-06
-8.00415e-07
1.35909e-06
4.35588e-05
2.6159e-06
4.32969e-05
3.75523e-06
4.25583e-05
4.8265e-06
4.18049e-05
5.83495e-06
4.08162e-05
6.75899e-06
3.96179e-05
7.59309e-06
3.82066e-05
8.33289e-06
3.66099e-05
8.97544e-06
3.48474e-05
9.52764e-06
3.2937e-05
9.99113e-06
3.0901e-05
1.03654e-05
2.87433e-05
1.06455e-05
2.6473e-05
1.08315e-05
2.41002e-05
1.09293e-05
2.16348e-05
1.09335e-05
1.90889e-05
1.08391e-05
1.6471e-05
1.06462e-05
1.37995e-05
1.03503e-05
1.10768e-05
9.94388e-06
8.32169e-06
9.42507e-06
5.54617e-06
8.80265e-06
2.7516e-06
-2.00541e-08
1.15858e-06
4.24002e-05
2.12658e-06
4.23289e-05
3.01233e-06
4.16725e-05
3.84484e-06
4.09724e-05
4.61547e-06
4.00455e-05
5.31847e-06
3.89149e-05
5.94872e-06
3.75764e-05
6.50116e-06
3.60575e-05
6.97637e-06
3.43722e-05
7.37868e-06
3.25347e-05
7.71333e-06
3.05664e-05
7.97435e-06
2.84823e-05
8.15796e-06
2.62894e-05
8.26685e-06
2.39913e-05
8.29856e-06
2.16031e-05
8.24833e-06
1.91391e-05
8.11395e-06
1.66054e-05
7.88889e-06
1.40246e-05
7.56934e-06
1.13963e-05
7.15257e-06
8.73845e-06
6.62359e-06
6.07513e-06
5.95063e-06
3.42456e-06
7.41558e-07
5.39932e-07
8.06633e-07
1.0236e-06
1.25924e-06
1.47906e-06
1.67881e-06
1.84147e-06
1.96672e-06
2.05517e-06
2.10885e-06
2.1318e-06
2.12483e-06
2.08687e-06
2.01845e-06
1.92062e-06
1.79592e-06
1.64387e-06
1.47337e-06
1.28325e-06
1.08113e-06
8.78407e-07
6.99527e-07
)
;

boundaryField
{
    leftWall
    {
        type            calculated;
        value           uniform 0;
    }
    rightWall
    {
        type            calculated;
        value           nonuniform 0();
    }
    lowerWall
    {
        type            calculated;
        value           nonuniform 0();
    }
    atmosphere
    {
        type            calculated;
        value           nonuniform List<scalar> 
23
(
4.18602e-05
4.20622e-05
4.14556e-05
4.07368e-05
3.98257e-05
3.87151e-05
3.74137e-05
3.59322e-05
3.42838e-05
3.2481e-05
3.05434e-05
2.84892e-05
2.63274e-05
2.40597e-05
2.17009e-05
1.92638e-05
1.67574e-05
1.41951e-05
1.15864e-05
8.94056e-06
6.27785e-06
3.60343e-06
8.77225e-07
)
;
    }
    defaultFaces
    {
        type            empty;
        value           nonuniform 0();
    }
    procBoundary2to0
    {
        type            processor;
        value           nonuniform List<scalar> 
24
(
-6.74195e-05
-5.27985e-05
-3.24891e-05
-6.56066e-06
3.20036e-05
6.16864e-05
9.3643e-05
-0.000497031
-0.000231091
-0.000150114
-7.78485e-05
-5.39741e-05
-4.27899e-05
-4.36801e-05
-4.92579e-05
-6.10975e-05
-7.83039e-05
-9.00634e-05
-8.94049e-05
-8.20525e-05
-7.20918e-05
-6.64139e-05
-0.00011602
-5.83409e-05
)
;
    }
    procBoundary2to3
    {
        type            processor;
        value           nonuniform List<scalar> 
25
(
0.00013848
0.000116389
0.000104829
9.51319e-05
8.58677e-05
7.78724e-05
7.11324e-05
6.53032e-05
5.99865e-05
5.49084e-05
5.02077e-05
4.57552e-05
4.15486e-05
3.75492e-05
3.37401e-05
3.0101e-05
2.661e-05
2.32583e-05
2.00198e-05
1.68527e-05
1.38259e-05
1.09786e-05
8.02229e-06
5.189e-06
5.63857e-07
)
;
    }
}


// ************************************************************************* //
