/*--------------------------------*- C++ -*----------------------------------*\
| =========                 |                                                 |
| \\      /  F ield         | OpenFOAM: The Open Source CFD Toolbox           |
|  \\    /   O peration     | Version:  2.4.0                                 |
|   \\  /    A nd           | Web:      www.OpenFOAM.org                      |
|    \\/     M anipulation  |                                                 |
\*---------------------------------------------------------------------------*/
FoamFile
{
    version     2.0;
    format      ascii;
    class       surfaceScalarField;
    location    "1";
    object      phi.water;
}
// * * * * * * * * * * * * * * * * * * * * * * * * * * * * * * * * * * * * * //

dimensions      [0 3 -1 0 0 0 0];

internalField   nonuniform List<scalar> 
1070
(
0.00013362
4.99689e-05
0.000147206
3.89693e-05
0.000154075
2.35123e-05
0.000161302
2.71229e-06
0.000154238
-2.68556e-05
0.000152733
-5.62706e-05
-7.83375e-05
6.72513e-05
0.000429878
5.30137e-05
0.0002454
5.3893e-05
0.000149176
4.36651e-05
8.80464e-05
4.24802e-05
5.5238e-05
4.23915e-05
4.27478e-05
4.41053e-05
4.17993e-05
4.76769e-05
4.56846e-05
5.54831e-05
5.32771e-05
6.65388e-05
6.72221e-05
7.58912e-05
8.06833e-05
8.23309e-05
8.2938e-05
8.88408e-05
7.55205e-05
9.57585e-05
6.51477e-05
0.000105565
5.66115e-05
0.000113817
5.0079e-05
0.000123238
4.03889e-05
0.000134119
2.76541e-05
0.000140819
1.64405e-05
0.000144655
-1.47065e-06
0.000141451
-2.60105e-05
0.000131469
-4.68871e-05
-6.30665e-05
7.51319e-05
0.000354748
7.26068e-05
0.000247888
6.5065e-05
0.000156721
5.84602e-05
9.45429e-05
5.57433e-05
5.81181e-05
5.3708e-05
4.47643e-05
5.28333e-05
4.26129e-05
5.3287e-05
4.52535e-05
5.59047e-05
5.06627e-05
6.42931e-05
5.8839e-05
7.51676e-05
6.98139e-05
8.46792e-05
7.3432e-05
9.21669e-05
6.80324e-05
9.79552e-05
5.93587e-05
0.000103622
5.09504e-05
0.000108878
4.48249e-05
0.000114683
3.45482e-05
0.000119919
2.2367e-05
0.000123993
1.23621e-05
0.000127083
-4.57963e-06
0.00012377
-2.26848e-05
0.000115873
-3.89788e-05
-5.20072e-05
6.13667e-05
0.000293394
7.4051e-05
0.000235187
7.41792e-05
0.000156552
7.184e-05
9.67156e-05
6.78411e-05
6.22598e-05
6.35398e-05
4.90125e-05
6.00816e-05
4.60555e-05
5.79887e-05
4.7336e-05
5.78876e-05
5.07638e-05
6.19351e-05
5.47955e-05
7.07157e-05
6.10383e-05
8.08804e-05
6.32747e-05
8.87387e-05
6.01777e-05
9.42478e-05
5.38574e-05
9.82369e-05
4.69673e-05
0.000102801
4.02648e-05
0.000107176
3.01734e-05
0.000110036
1.95074e-05
0.000113415
8.98551e-06
0.000114433
-5.59538e-06
0.000110664
-1.8914e-05
0.00010386
-3.21744e-05
-4.32643e-05
5.13827e-05
0.000241699
7.51318e-05
0.000211153
8.2177e-05
0.000149216
8.11062e-05
9.77463e-05
7.58596e-05
6.75752e-05
6.9677e-05
5.51179e-05
6.45021e-05
5.12577e-05
6.11084e-05
5.07156e-05
6.00368e-05
5.18366e-05
6.17761e-05
5.30578e-05
6.7554e-05
5.52599e-05
7.52239e-05
5.56023e-05
8.19592e-05
5.3441e-05
8.7258e-05
4.85592e-05
9.13425e-05
4.28853e-05
9.57502e-05
3.58574e-05
9.93297e-05
2.65952e-05
0.000101632
1.72061e-05
0.000103412
7.20653e-06
0.000102731
-4.91331e-06
9.91809e-05
-1.53627e-05
9.34506e-05
-2.64425e-05
-3.56704e-05
4.43318e-05
0.000196688
7.26473e-05
0.000182498
8.31332e-05
0.000138603
8.28535e-05
9.80081e-05
7.74696e-05
7.28683e-05
7.07803e-05
6.19145e-05
6.53893e-05
5.66551e-05
6.19402e-05
5.41626e-05
6.07707e-05
5.30065e-05
6.16864e-05
5.21423e-05
6.5101e-05
5.18442e-05
7.00702e-05
5.063e-05
7.53239e-05
4.81843e-05
8.00205e-05
4.38608e-05
8.41205e-05
3.87847e-05
8.79958e-05
3.19823e-05
9.07615e-05
2.38302e-05
9.25639e-05
1.54043e-05
9.33188e-05
6.4528e-06
9.18453e-05
-3.43914e-06
8.88926e-05
-1.24093e-05
8.41695e-05
-2.17195e-05
-2.9364e-05
3.61161e-05
0.000161225
6.22741e-05
0.000156704
7.5176e-05
0.0001258
7.68698e-05
9.6235e-05
7.24474e-05
7.74827e-05
6.7181e-05
6.72411e-05
6.31159e-05
6.07191e-05
6.06349e-05
5.66433e-05
5.9789e-05
5.3852e-05
6.03173e-05
5.16138e-05
6.24794e-05
4.96816e-05
6.57985e-05
4.73102e-05
6.97022e-05
4.42802e-05
7.35873e-05
3.99754e-05
7.72567e-05
3.51156e-05
8.04222e-05
2.88174e-05
8.24813e-05
2.17721e-05
8.36992e-05
1.41874e-05
8.37608e-05
6.39173e-06
8.23043e-05
-1.98222e-06
7.99585e-05
-1.00635e-05
7.61286e-05
-1.78886e-05
-2.4361e-05
2.67434e-05
0.000134855
4.91835e-05
0.000134496
6.13859e-05
0.000113517
6.48171e-05
9.31236e-05
6.34598e-05
7.8963e-05
6.10959e-05
6.96079e-05
5.89976e-05
6.28169e-05
5.77043e-05
5.79362e-05
5.74308e-05
5.41252e-05
5.81126e-05
5.09316e-05
5.97708e-05
4.80231e-05
6.2149e-05
4.49318e-05
6.5036e-05
4.13932e-05
6.796e-05
3.70517e-05
7.0807e-05
3.22689e-05
7.3143e-05
2.64823e-05
7.47757e-05
2.01401e-05
7.56834e-05
1.32802e-05
7.55943e-05
6.48113e-06
7.44471e-05
-8.34888e-07
7.24356e-05
-8.05184e-06
6.92118e-05
-1.46652e-05
-2.04463e-05
1.91434e-05
0.000115738
3.72217e-05
0.000116321
4.87036e-05
0.000102251
5.33224e-05
8.86181e-05
5.44191e-05
7.78709e-05
5.43055e-05
6.97209e-05
5.39096e-05
6.32124e-05
5.37616e-05
5.80839e-05
5.40954e-05
5.3791e-05
5.5019e-05
5.00077e-05
5.64842e-05
4.65576e-05
5.84172e-05
4.29986e-05
6.06921e-05
3.91183e-05
6.29462e-05
3.47977e-05
6.51508e-05
3.00651e-05
6.69242e-05
2.47093e-05
6.81042e-05
1.89608e-05
6.8571e-05
1.28137e-05
6.83729e-05
6.67942e-06
6.73445e-05
1.93464e-07
6.54866e-05
-6.19423e-06
6.29668e-05
-1.21449e-05
-1.74615e-05
1.40332e-05
0.000101653
2.84858e-05
0.000101815
3.82798e-05
9.24579e-05
4.35843e-05
8.33119e-05
4.62985e-05
7.5156e-05
4.77501e-05
6.82687e-05
4.86229e-05
6.23391e-05
4.93785e-05
5.73278e-05
5.02662e-05
5.29029e-05
5.14229e-05
4.88506e-05
5.28659e-05
4.51143e-05
5.45381e-05
4.13262e-05
5.63313e-05
3.73251e-05
5.80918e-05
3.30375e-05
5.97206e-05
2.84365e-05
6.10043e-05
2.34264e-05
6.18587e-05
1.8107e-05
6.21973e-05
1.24754e-05
6.19921e-05
6.88459e-06
6.10833e-05
1.10213e-06
5.9562e-05
-4.67304e-06
5.73915e-05
-9.97492e-06
-1.49745e-05
1.08395e-05
9.07707e-05
2.2102e-05
9.0523e-05
3.03467e-05
8.42079e-05
3.58107e-05
7.7847e-05
3.93525e-05
7.16135e-05
4.17371e-05
6.58836e-05
4.34422e-05
6.06336e-05
4.48382e-05
5.59314e-05
4.61507e-05
5.15901e-05
4.74829e-05
4.7518e-05
4.893e-05
4.36669e-05
5.0441e-05
3.9815e-05
5.19737e-05
3.57924e-05
5.34223e-05
3.1589e-05
5.47248e-05
2.71346e-05
5.57377e-05
2.24138e-05
5.63593e-05
1.74858e-05
5.64998e-05
1.23351e-05
5.61984e-05
7.18589e-06
5.53603e-05
1.94006e-06
5.40037e-05
-3.31685e-06
5.22612e-05
-8.23216e-06
-1.29182e-05
8.66836e-06
8.20969e-05
1.75227e-05
8.16669e-05
2.45206e-05
7.72092e-05
2.9762e-05
7.26049e-05
3.36051e-05
6.77698e-05
3.64653e-05
6.30228e-05
3.86534e-05
5.8445e-05
4.04496e-05
5.41347e-05
4.20253e-05
5.00141e-05
4.3486e-05
4.6057e-05
4.49215e-05
4.22311e-05
4.63283e-05
3.8408e-05
4.76594e-05
3.44612e-05
4.88797e-05
3.0369e-05
4.99122e-05
2.61023e-05
5.06767e-05
2.16498e-05
5.11194e-05
1.70434e-05
5.1186e-05
1.22685e-05
5.08974e-05
7.47433e-06
5.01915e-05
2.64575e-06
4.90545e-05
-2.18002e-06
4.75439e-05
-6.72197e-06
-1.11268e-05
7.09282e-06
7.50032e-05
1.42351e-05
7.45238e-05
2.01951e-05
7.12486e-05
2.50248e-05
6.77746e-05
2.88437e-05
6.39503e-05
3.18665e-05
5.99995e-05
3.42849e-05
5.60263e-05
3.62949e-05
5.21243e-05
3.80178e-05
4.82909e-05
3.95525e-05
4.45219e-05
4.09809e-05
4.08024e-05
4.23063e-05
3.70824e-05
4.35052e-05
3.32624e-05
4.4561e-05
2.93132e-05
4.54108e-05
2.5253e-05
4.60181e-05
2.10427e-05
4.63505e-05
1.67113e-05
4.63656e-05
1.22535e-05
4.60484e-05
7.79138e-06
4.53852e-05
3.30865e-06
4.43782e-05
-1.17336e-06
4.30921e-05
-5.43564e-06
-9.58136e-06
5.89544e-06
6.91072e-05
1.17745e-05
6.86441e-05
1.68895e-05
6.6133e-05
2.12449e-05
6.34187e-05
2.48667e-05
6.0328e-05
2.78612e-05
5.70046e-05
3.03418e-05
5.35453e-05
3.24278e-05
5.0038e-05
3.42105e-05
4.65079e-05
3.57657e-05
4.29664e-05
3.71586e-05
3.94092e-05
3.84075e-05
3.58333e-05
3.95011e-05
3.21687e-05
4.04234e-05
2.83911e-05
4.11491e-05
2.45273e-05
4.16489e-05
2.05434e-05
4.19049e-05
1.64554e-05
4.18743e-05
1.22842e-05
4.15653e-05
8.10013e-06
4.09632e-05
3.9105e-06
4.0061e-05
-2.71276e-07
3.8914e-05
-4.2891e-06
-8.21478e-06
4.95769e-06
6.41488e-05
9.88049e-06
6.37207e-05
1.42969e-05
6.17161e-05
1.81828e-05
5.95323e-05
2.15275e-05
5.69828e-05
2.43802e-05
5.41515e-05
2.68035e-05
5.11216e-05
2.88705e-05
4.79707e-05
3.06443e-05
4.47338e-05
3.21773e-05
4.14332e-05
3.35118e-05
3.80745e-05
3.46757e-05
3.46693e-05
3.56649e-05
3.11795e-05
3.64741e-05
2.7582e-05
3.70943e-05
2.39075e-05
3.75058e-05
2.0132e-05
3.76996e-05
1.62619e-05
3.76497e-05
1.2334e-05
3.73459e-05
8.40369e-06
3.67868e-05
4.46941e-06
3.5962e-05
5.53135e-07
3.49526e-05
-3.27949e-06
-7.00103e-06
4.20109e-06
5.99474e-05
8.37111e-06
5.95503e-05
1.21951e-05
5.78917e-05
1.56385e-05
5.60885e-05
1.86786e-05
5.39424e-05
2.13317e-05
5.14981e-05
2.36269e-05
4.88261e-05
2.56069e-05
4.59905e-05
2.73104e-05
4.303e-05
2.87808e-05
3.99626e-05
3.00406e-05
3.68145e-05
3.11223e-05
3.35875e-05
3.20284e-05
3.02733e-05
3.27536e-05
2.6857e-05
3.32937e-05
2.33674e-05
3.3635e-05
1.97912e-05
3.37573e-05
1.61397e-05
3.36592e-05
1.24321e-05
3.33522e-05
8.71047e-06
3.28366e-05
4.98476e-06
3.21024e-05
1.28721e-06
3.11916e-05
-2.36903e-06
-5.90918e-06
3.57738e-06
5.63695e-05
7.13926e-06
5.5988e-05
1.04545e-05
5.4576e-05
1.34905e-05
5.30522e-05
1.62208e-05
5.12118e-05
1.86406e-05
4.90779e-05
2.07627e-05
4.67038e-05
2.26123e-05
4.41407e-05
2.42106e-05
4.14315e-05
2.55851e-05
3.85878e-05
2.67611e-05
3.56383e-05
2.77558e-05
3.25926e-05
2.85755e-05
2.94537e-05
2.92147e-05
2.62178e-05
2.96773e-05
2.29051e-05
2.9954e-05
1.95144e-05
3.00453e-05
1.60486e-05
2.99377e-05
1.25397e-05
2.96257e-05
9.02237e-06
2.91207e-05
5.48948e-06
2.84368e-05
1.97091e-06
2.75948e-05
-1.52693e-06
-4.92371e-06
3.05914e-06
5.33102e-05
6.11634e-06
5.29305e-05
8.99761e-06
5.16944e-05
1.1661e-05
5.03884e-05
1.40844e-05
4.87882e-05
1.62581e-05
4.6904e-05
1.81811e-05
4.47805e-05
1.98612e-05
4.24604e-05
2.13199e-05
3.99726e-05
2.25691e-05
3.73385e-05
2.36278e-05
3.45794e-05
2.45051e-05
3.17151e-05
2.52175e-05
2.87413e-05
2.5769e-05
2.56665e-05
2.61629e-05
2.25111e-05
2.63932e-05
1.92846e-05
2.64482e-05
1.59936e-05
2.6326e-05
1.26619e-05
2.60436e-05
9.30458e-06
2.55873e-05
5.94565e-06
2.49518e-05
2.60625e-06
2.41721e-05
-7.47529e-07
-4.00926e-06
2.62056e-06
5.06892e-05
5.23874e-06
5.0312e-05
7.71842e-06
4.92145e-05
1.00373e-05
4.80693e-05
1.21714e-05
4.66539e-05
1.41055e-05
4.49697e-05
1.58328e-05
4.3053e-05
1.7356e-05
4.0937e-05
1.86895e-05
3.86389e-05
1.9834e-05
3.61939e-05
2.08005e-05
3.36128e-05
2.16006e-05
3.09149e-05
2.22333e-05
2.81086e-05
2.26956e-05
2.52042e-05
2.2991e-05
2.22161e-05
2.31207e-05
1.91548e-05
2.30852e-05
1.60293e-05
2.29053e-05
1.28418e-05
2.25825e-05
9.62727e-06
2.21293e-05
6.39868e-06
2.15598e-05
3.17555e-06
2.08537e-05
-4.13328e-08
-3.17517e-06
2.22988e-06
4.84592e-05
4.48562e-06
4.80561e-05
6.64247e-06
4.70574e-05
8.66248e-06
4.60491e-05
1.05299e-05
4.47863e-05
1.22316e-05
4.32678e-05
1.37598e-05
4.15247e-05
1.51107e-05
3.9586e-05
1.62815e-05
3.74679e-05
1.72801e-05
3.51953e-05
1.81114e-05
3.27813e-05
1.87831e-05
3.02432e-05
1.93074e-05
2.75843e-05
1.9692e-05
2.48198e-05
1.99344e-05
2.19736e-05
2.00383e-05
1.90513e-05
1.99996e-05
1.6068e-05
1.97979e-05
1.30434e-05
1.94349e-05
9.99016e-06
1.89372e-05
6.89629e-06
1.83259e-05
3.78675e-06
1.76174e-05
6.66855e-07
-2.4101e-06
1.91612e-06
4.65428e-05
3.80629e-06
4.61657e-05
5.60329e-06
4.52602e-05
7.2918e-06
4.43605e-05
8.86424e-06
4.32138e-05
1.03115e-05
4.18204e-05
1.16324e-05
4.02037e-05
1.28266e-05
3.83917e-05
1.38869e-05
3.64075e-05
1.48037e-05
3.42784e-05
1.5569e-05
3.2016e-05
1.6181e-05
2.96312e-05
1.66391e-05
2.71262e-05
1.69497e-05
2.45091e-05
1.71077e-05
2.18158e-05
1.71249e-05
1.9034e-05
1.70132e-05
1.61798e-05
1.67777e-05
1.3279e-05
1.64317e-05
1.03361e-05
1.59584e-05
7.36946e-06
1.53493e-05
4.39559e-06
1.46252e-05
1.39107e-06
-1.61084e-06
1.62854e-06
4.49142e-05
3.24407e-06
4.455e-05
4.81011e-06
4.36941e-05
6.29769e-06
4.28728e-05
7.68998e-06
4.18214e-05
8.97137e-06
4.05389e-05
1.01371e-05
3.90379e-05
1.11815e-05
3.73472e-05
1.21011e-05
3.54878e-05
1.28922e-05
3.34873e-05
1.35451e-05
3.1363e-05
1.40598e-05
2.91164e-05
1.44337e-05
2.67523e-05
1.46572e-05
2.42858e-05
1.47405e-05
2.17324e-05
1.46814e-05
1.90934e-05
1.44842e-05
1.6377e-05
1.4156e-05
1.36073e-05
1.37102e-05
1.07818e-05
1.31632e-05
7.91636e-06
1.25302e-05
5.0286e-06
1.17906e-05
2.13056e-06
-7.98898e-07
1.35897e-06
4.35551e-05
2.61567e-06
4.32933e-05
3.7549e-06
4.25548e-05
4.82607e-06
4.18015e-05
5.83442e-06
4.08129e-05
6.75838e-06
3.96149e-05
7.59241e-06
3.82039e-05
8.33214e-06
3.66074e-05
8.97463e-06
3.48452e-05
9.52678e-06
3.29351e-05
9.99023e-06
3.08995e-05
1.03645e-05
2.87421e-05
1.06446e-05
2.64722e-05
1.08306e-05
2.40997e-05
1.09285e-05
2.16347e-05
1.09329e-05
1.90891e-05
1.08387e-05
1.64715e-05
1.06458e-05
1.38002e-05
1.035e-05
1.10776e-05
9.94365e-06
8.32267e-06
9.42492e-06
5.54731e-06
8.80263e-06
2.75282e-06
-1.87222e-08
1.1585e-06
4.23967e-05
2.12644e-06
4.23254e-05
3.01213e-06
4.16692e-05
3.84458e-06
4.09692e-05
4.61515e-06
4.00424e-05
5.3181e-06
3.8912e-05
5.94831e-06
3.75737e-05
6.50071e-06
3.60551e-05
6.97588e-06
3.43701e-05
7.37816e-06
3.25329e-05
7.71278e-06
3.05649e-05
7.97379e-06
2.84812e-05
8.15739e-06
2.62887e-05
8.26633e-06
2.39909e-05
8.29806e-06
2.1603e-05
8.24796e-06
1.91394e-05
8.11369e-06
1.66059e-05
7.88872e-06
1.40253e-05
7.5692e-06
1.13971e-05
7.1525e-06
8.73938e-06
6.62353e-06
6.07611e-06
5.95072e-06
3.4256e-06
7.42548e-07
5.39905e-07
8.06583e-07
1.02353e-06
1.25915e-06
1.47895e-06
1.67868e-06
1.84133e-06
1.96656e-06
2.055e-06
2.10867e-06
2.13161e-06
2.12463e-06
2.08668e-06
2.01826e-06
1.92045e-06
1.79579e-06
1.64378e-06
1.47331e-06
1.28321e-06
1.0811e-06
8.78406e-07
6.99574e-07
)
;

boundaryField
{
    leftWall
    {
        type            fixedValue;
        value           uniform 0;
    }
    rightWall
    {
        type            fixedValue;
        value           nonuniform 0();
    }
    lowerWall
    {
        type            fixedValue;
        value           nonuniform 0();
    }
    atmosphere
    {
        type            calculated;
        value           nonuniform List<scalar> 
23
(
4.18568e-05
4.20588e-05
4.14523e-05
4.07336e-05
3.98227e-05
3.87123e-05
3.74112e-05
3.59299e-05
3.42818e-05
3.24793e-05
3.05421e-05
2.84882e-05
2.63267e-05
2.40594e-05
2.17009e-05
1.92641e-05
1.6758e-05
1.41958e-05
1.15872e-05
8.94143e-06
6.27877e-06
3.60434e-06
8.78039e-07
)
;
    }
    defaultFaces
    {
        type            empty;
        value           nonuniform 0();
    }
    procBoundary2to0
    {
        type            processor;
        value           nonuniform List<scalar> 
24
(
-6.7286e-05
-5.26681e-05
-3.25293e-05
-8.67472e-06
2.22654e-05
4.06733e-05
7.60773e-05
-0.000492106
-0.000231116
-0.000150062
-7.78618e-05
-5.3883e-05
-4.26581e-05
-4.35708e-05
-4.92202e-05
-6.10724e-05
-7.82774e-05
-9.00367e-05
-8.93788e-05
-8.20348e-05
-7.20908e-05
-6.64765e-05
-0.000115971
-5.84153e-05
)
;
    }
    procBoundary2to3
    {
        type            processor;
        value           nonuniform List<scalar> 
25
(
0.000138549
0.000116369
0.000104812
9.51186e-05
8.58559e-05
7.78633e-05
7.11243e-05
6.5297e-05
5.99809e-05
5.49042e-05
5.02039e-05
4.57523e-05
4.15458e-05
3.75472e-05
3.37382e-05
3.00997e-05
2.66088e-05
2.32575e-05
2.00191e-05
1.68523e-05
1.38256e-05
1.09786e-05
8.02231e-06
5.18912e-06
5.63969e-07
)
;
    }
}


// ************************************************************************* //
