/*--------------------------------*- C++ -*----------------------------------*\
| =========                 |                                                 |
| \\      /  F ield         | OpenFOAM: The Open Source CFD Toolbox           |
|  \\    /   O peration     | Version:  2.4.0                                 |
|   \\  /    A nd           | Web:      www.OpenFOAM.org                      |
|    \\/     M anipulation  |                                                 |
\*---------------------------------------------------------------------------*/
FoamFile
{
    version     2.0;
    format      ascii;
    class       surfaceScalarField;
    location    "1";
    object      phi.mercury;
}
// * * * * * * * * * * * * * * * * * * * * * * * * * * * * * * * * * * * * * //

dimensions      [0 3 -1 0 0 0 0];

internalField   nonuniform List<scalar> 
1070
(
0.000133623
4.98036e-05
0.000147864
3.85537e-05
0.000157203
2.30896e-05
0.000161431
2.34372e-06
0.000158716
-2.92163e-05
0.000153933
-5.68583e-05
-7.81596e-05
6.7237e-05
0.000429885
5.29742e-05
0.000245363
5.38787e-05
0.000149173
4.37198e-05
8.79905e-05
4.24019e-05
5.52732e-05
4.23429e-05
4.28303e-05
4.41403e-05
4.18641e-05
4.76814e-05
4.56987e-05
5.5478e-05
5.32837e-05
6.6536e-05
6.72299e-05
7.58909e-05
8.06938e-05
8.23328e-05
8.29497e-05
8.88406e-05
7.55333e-05
9.57671e-05
6.51559e-05
0.000105553
5.66196e-05
0.000113809
5.00802e-05
0.000123247
4.03583e-05
0.000134173
2.76101e-05
0.000140829
1.64213e-05
0.000144669
-1.4982e-06
0.000141442
-2.60003e-05
0.00013146
-4.6878e-05
-6.30672e-05
7.51155e-05
0.000354768
7.26137e-05
0.000247873
6.50773e-05
0.000156708
5.85416e-05
9.45282e-05
5.56656e-05
5.81505e-05
5.36617e-05
4.48348e-05
5.28528e-05
4.26731e-05
5.32863e-05
4.52648e-05
5.59018e-05
5.06675e-05
6.42883e-05
5.88426e-05
7.51649e-05
6.98165e-05
8.46776e-05
7.34364e-05
9.21702e-05
6.80403e-05
9.79601e-05
5.93659e-05
0.000103625
5.09551e-05
0.000108879
4.48271e-05
0.000114693
3.45452e-05
0.000119936
2.23678e-05
0.000124
1.23593e-05
0.000127084
-4.58035e-06
0.00012377
-2.26844e-05
0.000115873
-3.89786e-05
-5.20064e-05
6.13567e-05
0.000293408
7.40575e-05
0.000235176
7.41701e-05
0.000156595
7.19465e-05
9.67529e-05
6.77985e-05
6.22992e-05
6.35176e-05
4.9116e-05
6.00657e-05
4.6125e-05
5.79865e-05
4.73437e-05
5.78867e-05
5.07668e-05
6.19316e-05
5.47972e-05
7.07115e-05
6.1036e-05
8.08764e-05
6.3271e-05
8.87418e-05
6.01746e-05
9.42521e-05
5.3856e-05
9.82394e-05
4.69681e-05
0.000102804
4.02634e-05
0.000107179
3.01725e-05
0.000110041
1.95071e-05
0.000113416
8.98503e-06
0.000114433
-5.5953e-06
0.000110664
-1.89138e-05
0.000103861
-3.21741e-05
-4.32638e-05
5.13771e-05
0.000242027
7.50782e-05
0.000211474
8.21914e-05
0.000149483
8.1154e-05
9.77906e-05
7.5819e-05
6.76344e-05
6.96534e-05
5.52817e-05
6.44821e-05
5.12963e-05
6.11078e-05
5.07177e-05
6.00367e-05
5.18375e-05
6.1775e-05
5.30584e-05
6.75515e-05
5.52589e-05
7.52227e-05
5.55994e-05
8.19602e-05
5.3437e-05
8.72592e-05
4.85571e-05
9.13438e-05
4.28844e-05
9.57515e-05
3.58565e-05
9.93307e-05
2.65946e-05
0.000101633
1.72061e-05
0.000103412
7.20665e-06
0.000102731
-4.91323e-06
9.91809e-05
-1.53626e-05
9.34507e-05
-2.64424e-05
-3.56701e-05
4.42746e-05
0.000197749
7.25314e-05
0.000183216
8.31827e-05
0.000138831
8.28877e-05
9.80852e-05
7.74622e-05
7.30596e-05
7.07494e-05
6.19943e-05
6.53855e-05
5.66599e-05
6.19402e-05
5.41627e-05
6.07707e-05
5.30066e-05
6.16862e-05
5.21424e-05
6.51006e-05
5.18441e-05
7.00701e-05
5.06296e-05
7.53233e-05
4.81837e-05
8.00203e-05
4.38604e-05
8.41208e-05
3.87844e-05
8.79963e-05
3.19822e-05
9.07617e-05
2.38303e-05
9.25642e-05
1.54045e-05
9.33187e-05
6.45287e-06
9.18453e-05
-3.4391e-06
8.88926e-05
-1.24092e-05
8.41695e-05
-2.17194e-05
-2.93639e-05
3.61136e-05
0.000161633
6.22633e-05
0.000157064
7.52324e-05
0.000125861
7.69377e-05
9.63793e-05
7.24288e-05
7.7568e-05
6.71755e-05
6.72472e-05
6.31159e-05
6.07192e-05
6.06349e-05
5.66434e-05
5.9789e-05
5.38521e-05
6.03173e-05
5.16138e-05
6.24794e-05
4.96816e-05
6.57985e-05
4.73103e-05
6.97019e-05
4.42803e-05
7.35871e-05
3.99754e-05
7.72568e-05
3.51156e-05
8.04223e-05
2.88174e-05
8.24814e-05
2.17721e-05
8.36992e-05
1.41874e-05
8.37608e-05
6.39177e-06
8.23043e-05
-1.9822e-06
7.99585e-05
-1.00635e-05
7.61286e-05
-1.78886e-05
-2.4361e-05
2.67789e-05
0.000134852
4.93326e-05
0.000134509
6.16314e-05
0.000113561
6.4855e-05
9.31548e-05
6.34571e-05
7.89652e-05
6.10958e-05
6.96079e-05
5.89976e-05
6.2817e-05
5.77043e-05
5.79363e-05
5.74308e-05
5.41252e-05
5.81126e-05
5.09316e-05
5.97708e-05
4.80231e-05
6.2149e-05
4.49318e-05
6.5036e-05
4.13932e-05
6.796e-05
3.70517e-05
7.0807e-05
3.2269e-05
7.3143e-05
2.64823e-05
7.47757e-05
2.01401e-05
7.56834e-05
1.32802e-05
7.55943e-05
6.48114e-06
7.44471e-05
-8.34883e-07
7.24356e-05
-8.05183e-06
6.92118e-05
-1.46652e-05
-2.04462e-05
1.91621e-05
0.000115688
3.74363e-05
0.000116233
4.87849e-05
0.000102211
5.33255e-05
8.86133e-05
5.44191e-05
7.78709e-05
5.43055e-05
6.97209e-05
5.39096e-05
6.32124e-05
5.37616e-05
5.80839e-05
5.40954e-05
5.3791e-05
5.5019e-05
5.00077e-05
5.64842e-05
4.65576e-05
5.84172e-05
4.29986e-05
6.06921e-05
3.91184e-05
6.29462e-05
3.47977e-05
6.51508e-05
3.00651e-05
6.69242e-05
2.47093e-05
6.81042e-05
1.89608e-05
6.8571e-05
1.28137e-05
6.83729e-05
6.67943e-06
6.73445e-05
1.93466e-07
6.54866e-05
-6.19423e-06
6.29668e-05
-1.21449e-05
-1.74615e-05
1.40756e-05
0.000101612
2.85258e-05
0.000101782
3.82837e-05
9.24525e-05
4.35844e-05
8.33118e-05
4.62985e-05
7.5156e-05
4.77501e-05
6.82687e-05
4.86229e-05
6.23391e-05
4.93785e-05
5.73278e-05
5.02662e-05
5.29029e-05
5.14229e-05
4.88506e-05
5.28659e-05
4.51143e-05
5.45381e-05
4.13262e-05
5.63313e-05
3.73251e-05
5.80918e-05
3.30375e-05
5.97206e-05
2.84365e-05
6.10043e-05
2.34264e-05
6.18587e-05
1.8107e-05
6.21973e-05
1.24754e-05
6.19921e-05
6.88459e-06
6.10833e-05
1.10213e-06
5.9562e-05
-4.67304e-06
5.73915e-05
-9.97492e-06
-1.49745e-05
1.08445e-05
9.0766e-05
2.21031e-05
9.05219e-05
3.03467e-05
8.42079e-05
3.58107e-05
7.7847e-05
3.93525e-05
7.16135e-05
4.17371e-05
6.58836e-05
4.34422e-05
6.06336e-05
4.48382e-05
5.59314e-05
4.61507e-05
5.15901e-05
4.74829e-05
4.7518e-05
4.893e-05
4.36669e-05
5.0441e-05
3.9815e-05
5.19737e-05
3.57924e-05
5.34223e-05
3.1589e-05
5.47248e-05
2.71346e-05
5.57377e-05
2.24138e-05
5.63593e-05
1.74858e-05
5.64998e-05
1.23351e-05
5.61984e-05
7.18589e-06
5.53603e-05
1.94006e-06
5.40037e-05
-3.31685e-06
5.22612e-05
-8.23216e-06
-1.29182e-05
8.66843e-06
8.20969e-05
1.75227e-05
8.16669e-05
2.45206e-05
7.72092e-05
2.9762e-05
7.26049e-05
3.36051e-05
6.77698e-05
3.64653e-05
6.30228e-05
3.86534e-05
5.8445e-05
4.04496e-05
5.41347e-05
4.20253e-05
5.00141e-05
4.3486e-05
4.6057e-05
4.49215e-05
4.22311e-05
4.63283e-05
3.8408e-05
4.76594e-05
3.44612e-05
4.88797e-05
3.0369e-05
4.99122e-05
2.61023e-05
5.06767e-05
2.16498e-05
5.11194e-05
1.70434e-05
5.1186e-05
1.22685e-05
5.08974e-05
7.47433e-06
5.01915e-05
2.64575e-06
4.90545e-05
-2.18002e-06
4.75439e-05
-6.72197e-06
-1.11268e-05
7.09283e-06
7.50032e-05
1.42352e-05
7.45238e-05
2.01951e-05
7.12486e-05
2.50248e-05
6.77746e-05
2.88437e-05
6.39503e-05
3.18665e-05
5.99995e-05
3.42849e-05
5.60263e-05
3.62949e-05
5.21243e-05
3.80178e-05
4.82909e-05
3.95525e-05
4.45219e-05
4.09809e-05
4.08024e-05
4.23063e-05
3.70824e-05
4.35052e-05
3.32624e-05
4.4561e-05
2.93132e-05
4.54108e-05
2.5253e-05
4.60181e-05
2.10427e-05
4.63505e-05
1.67113e-05
4.63656e-05
1.22535e-05
4.60484e-05
7.79138e-06
4.53852e-05
3.30865e-06
4.43782e-05
-1.17336e-06
4.30921e-05
-5.43564e-06
-9.58136e-06
5.89545e-06
6.91072e-05
1.17745e-05
6.86441e-05
1.68895e-05
6.6133e-05
2.12449e-05
6.34187e-05
2.48667e-05
6.0328e-05
2.78612e-05
5.70046e-05
3.03418e-05
5.35453e-05
3.24278e-05
5.0038e-05
3.42105e-05
4.65079e-05
3.57657e-05
4.29664e-05
3.71586e-05
3.94092e-05
3.84075e-05
3.58333e-05
3.95011e-05
3.21687e-05
4.04234e-05
2.83911e-05
4.11491e-05
2.45273e-05
4.16489e-05
2.05434e-05
4.19049e-05
1.64554e-05
4.18743e-05
1.22842e-05
4.15653e-05
8.10013e-06
4.09632e-05
3.9105e-06
4.0061e-05
-2.71276e-07
3.8914e-05
-4.2891e-06
-8.21478e-06
4.95769e-06
6.41488e-05
9.8805e-06
6.37207e-05
1.42969e-05
6.17161e-05
1.81828e-05
5.95323e-05
2.15275e-05
5.69828e-05
2.43802e-05
5.41515e-05
2.68035e-05
5.11216e-05
2.88705e-05
4.79707e-05
3.06443e-05
4.47338e-05
3.21773e-05
4.14332e-05
3.35118e-05
3.80745e-05
3.46757e-05
3.46693e-05
3.56649e-05
3.11795e-05
3.64741e-05
2.7582e-05
3.70943e-05
2.39075e-05
3.75058e-05
2.0132e-05
3.76996e-05
1.62619e-05
3.76497e-05
1.2334e-05
3.73459e-05
8.40369e-06
3.67868e-05
4.46941e-06
3.5962e-05
5.53135e-07
3.49526e-05
-3.27949e-06
-7.00103e-06
4.20109e-06
5.99474e-05
8.37111e-06
5.95503e-05
1.21951e-05
5.78917e-05
1.56385e-05
5.60885e-05
1.86786e-05
5.39424e-05
2.13317e-05
5.14981e-05
2.36269e-05
4.88261e-05
2.56069e-05
4.59905e-05
2.73104e-05
4.303e-05
2.87808e-05
3.99626e-05
3.00406e-05
3.68145e-05
3.11223e-05
3.35875e-05
3.20284e-05
3.02733e-05
3.27536e-05
2.6857e-05
3.32937e-05
2.33674e-05
3.3635e-05
1.97912e-05
3.37573e-05
1.61397e-05
3.36592e-05
1.24321e-05
3.33522e-05
8.71047e-06
3.28366e-05
4.98476e-06
3.21024e-05
1.28721e-06
3.11916e-05
-2.36903e-06
-5.90918e-06
3.57738e-06
5.63695e-05
7.13926e-06
5.5988e-05
1.04545e-05
5.4576e-05
1.34905e-05
5.30522e-05
1.62208e-05
5.12118e-05
1.86406e-05
4.90779e-05
2.07627e-05
4.67038e-05
2.26123e-05
4.41407e-05
2.42106e-05
4.14315e-05
2.55851e-05
3.85878e-05
2.67611e-05
3.56383e-05
2.77558e-05
3.25926e-05
2.85755e-05
2.94537e-05
2.92147e-05
2.62178e-05
2.96773e-05
2.29051e-05
2.9954e-05
1.95144e-05
3.00453e-05
1.60486e-05
2.99377e-05
1.25397e-05
2.96257e-05
9.02237e-06
2.91207e-05
5.48948e-06
2.84368e-05
1.97091e-06
2.75948e-05
-1.52693e-06
-4.92371e-06
3.05914e-06
5.33102e-05
6.11634e-06
5.29305e-05
8.99761e-06
5.16944e-05
1.1661e-05
5.03884e-05
1.40844e-05
4.87882e-05
1.62581e-05
4.6904e-05
1.81811e-05
4.47805e-05
1.98612e-05
4.24604e-05
2.13199e-05
3.99726e-05
2.25691e-05
3.73385e-05
2.36278e-05
3.45794e-05
2.45051e-05
3.17151e-05
2.52175e-05
2.87413e-05
2.5769e-05
2.56665e-05
2.61629e-05
2.25111e-05
2.63932e-05
1.92846e-05
2.64482e-05
1.59936e-05
2.6326e-05
1.26619e-05
2.60436e-05
9.30458e-06
2.55873e-05
5.94565e-06
2.49518e-05
2.60625e-06
2.41721e-05
-7.47529e-07
-4.00926e-06
2.62056e-06
5.06892e-05
5.23874e-06
5.0312e-05
7.71842e-06
4.92145e-05
1.00373e-05
4.80693e-05
1.21714e-05
4.66539e-05
1.41055e-05
4.49697e-05
1.58328e-05
4.3053e-05
1.7356e-05
4.0937e-05
1.86895e-05
3.86389e-05
1.9834e-05
3.61939e-05
2.08005e-05
3.36128e-05
2.16006e-05
3.09149e-05
2.22333e-05
2.81086e-05
2.26956e-05
2.52042e-05
2.2991e-05
2.22161e-05
2.31207e-05
1.91548e-05
2.30852e-05
1.60293e-05
2.29053e-05
1.28418e-05
2.25825e-05
9.62727e-06
2.21293e-05
6.39868e-06
2.15598e-05
3.17555e-06
2.08537e-05
-4.13328e-08
-3.17517e-06
2.22988e-06
4.84592e-05
4.48562e-06
4.80561e-05
6.64247e-06
4.70574e-05
8.66248e-06
4.60491e-05
1.05299e-05
4.47863e-05
1.22316e-05
4.32678e-05
1.37598e-05
4.15247e-05
1.51107e-05
3.9586e-05
1.62815e-05
3.74679e-05
1.72801e-05
3.51953e-05
1.81114e-05
3.27813e-05
1.87831e-05
3.02432e-05
1.93074e-05
2.75843e-05
1.9692e-05
2.48198e-05
1.99344e-05
2.19736e-05
2.00383e-05
1.90513e-05
1.99996e-05
1.6068e-05
1.97979e-05
1.30434e-05
1.94349e-05
9.99016e-06
1.89372e-05
6.89629e-06
1.83259e-05
3.78675e-06
1.76174e-05
6.66855e-07
-2.4101e-06
1.91612e-06
4.65428e-05
3.80629e-06
4.61657e-05
5.60329e-06
4.52602e-05
7.2918e-06
4.43605e-05
8.86424e-06
4.32138e-05
1.03115e-05
4.18204e-05
1.16324e-05
4.02037e-05
1.28266e-05
3.83917e-05
1.38869e-05
3.64075e-05
1.48037e-05
3.42784e-05
1.5569e-05
3.2016e-05
1.6181e-05
2.96312e-05
1.66391e-05
2.71262e-05
1.69497e-05
2.45091e-05
1.71077e-05
2.18158e-05
1.71249e-05
1.9034e-05
1.70132e-05
1.61798e-05
1.67777e-05
1.3279e-05
1.64317e-05
1.03361e-05
1.59584e-05
7.36946e-06
1.53493e-05
4.39559e-06
1.46252e-05
1.39107e-06
-1.61084e-06
1.62854e-06
4.49142e-05
3.24407e-06
4.455e-05
4.81011e-06
4.36941e-05
6.29769e-06
4.28728e-05
7.68998e-06
4.18214e-05
8.97137e-06
4.05389e-05
1.01371e-05
3.90379e-05
1.11815e-05
3.73472e-05
1.21011e-05
3.54878e-05
1.28922e-05
3.34873e-05
1.35451e-05
3.1363e-05
1.40598e-05
2.91164e-05
1.44337e-05
2.67523e-05
1.46572e-05
2.42858e-05
1.47405e-05
2.17324e-05
1.46814e-05
1.90934e-05
1.44842e-05
1.6377e-05
1.4156e-05
1.36073e-05
1.37102e-05
1.07818e-05
1.31632e-05
7.91636e-06
1.25302e-05
5.0286e-06
1.17906e-05
2.13056e-06
-7.98898e-07
1.35897e-06
4.35551e-05
2.61567e-06
4.32933e-05
3.7549e-06
4.25548e-05
4.82607e-06
4.18015e-05
5.83442e-06
4.08129e-05
6.75838e-06
3.96149e-05
7.59241e-06
3.82039e-05
8.33214e-06
3.66074e-05
8.97463e-06
3.48452e-05
9.52678e-06
3.29351e-05
9.99023e-06
3.08995e-05
1.03645e-05
2.87421e-05
1.06446e-05
2.64722e-05
1.08306e-05
2.40997e-05
1.09285e-05
2.16347e-05
1.09329e-05
1.90891e-05
1.08387e-05
1.64715e-05
1.06458e-05
1.38002e-05
1.035e-05
1.10776e-05
9.94365e-06
8.32267e-06
9.42492e-06
5.54731e-06
8.80263e-06
2.75282e-06
-1.87222e-08
1.1585e-06
4.23967e-05
2.12644e-06
4.23254e-05
3.01213e-06
4.16692e-05
3.84458e-06
4.09692e-05
4.61515e-06
4.00424e-05
5.3181e-06
3.8912e-05
5.94831e-06
3.75737e-05
6.50071e-06
3.60551e-05
6.97588e-06
3.43701e-05
7.37816e-06
3.25329e-05
7.71278e-06
3.05649e-05
7.97379e-06
2.84812e-05
8.15739e-06
2.62887e-05
8.26633e-06
2.39909e-05
8.29806e-06
2.1603e-05
8.24796e-06
1.91394e-05
8.11369e-06
1.66059e-05
7.88872e-06
1.40253e-05
7.5692e-06
1.13971e-05
7.1525e-06
8.73938e-06
6.62353e-06
6.07611e-06
5.95072e-06
3.4256e-06
7.42548e-07
5.39905e-07
8.06583e-07
1.02353e-06
1.25915e-06
1.47895e-06
1.67868e-06
1.84133e-06
1.96656e-06
2.055e-06
2.10867e-06
2.13161e-06
2.12463e-06
2.08668e-06
2.01826e-06
1.92045e-06
1.79579e-06
1.64378e-06
1.47331e-06
1.28321e-06
1.0811e-06
8.78406e-07
6.99574e-07
)
;

boundaryField
{
    leftWall
    {
        type            fixedValue;
        value           uniform 0;
    }
    rightWall
    {
        type            fixedValue;
        value           nonuniform 0();
    }
    lowerWall
    {
        type            fixedValue;
        value           nonuniform 0();
    }
    atmosphere
    {
        type            calculated;
        value           nonuniform List<scalar> 
23
(
4.18568e-05
4.20588e-05
4.14523e-05
4.07336e-05
3.98227e-05
3.87123e-05
3.74112e-05
3.59299e-05
3.42818e-05
3.24793e-05
3.05421e-05
2.84882e-05
2.63267e-05
2.40594e-05
2.17009e-05
1.92641e-05
1.6758e-05
1.41958e-05
1.15872e-05
8.94143e-06
6.27877e-06
3.60434e-06
8.78039e-07
)
;
    }
    defaultFaces
    {
        type            empty;
        value           nonuniform 0();
    }
    procBoundary2to0
    {
        type            processor;
        value           nonuniform List<scalar> 
24
(
-6.74754e-05
-5.28443e-05
-3.25342e-05
-6.62557e-06
3.18121e-05
6.15148e-05
9.36148e-05
-0.000491922
-0.000231073
-0.000150084
-7.78254e-05
-5.39526e-05
-4.27704e-05
-4.36619e-05
-4.92411e-05
-6.10821e-05
-7.82897e-05
-9.00503e-05
-8.93929e-05
-8.20418e-05
-7.20824e-05
-6.64067e-05
-0.000115999
-5.83345e-05
)
;
    }
    procBoundary2to3
    {
        type            processor;
        value           nonuniform List<scalar> 
25
(
0.000138461
0.000116371
0.000104812
9.51187e-05
8.5856e-05
7.78633e-05
7.11243e-05
6.5297e-05
5.99809e-05
5.49042e-05
5.02039e-05
4.57523e-05
4.15458e-05
3.75472e-05
3.37382e-05
3.00997e-05
2.66088e-05
2.32575e-05
2.00191e-05
1.68523e-05
1.38256e-05
1.09786e-05
8.02231e-06
5.18912e-06
5.63969e-07
)
;
    }
}


// ************************************************************************* //
