/*--------------------------------*- C++ -*----------------------------------*\
| =========                 |                                                 |
| \\      /  F ield         | OpenFOAM: The Open Source CFD Toolbox           |
|  \\    /   O peration     | Version:  2.4.0                                 |
|   \\  /    A nd           | Web:      www.OpenFOAM.org                      |
|    \\/     M anipulation  |                                                 |
\*---------------------------------------------------------------------------*/
FoamFile
{
    version     2.0;
    format      ascii;
    class       volVectorField;
    location    "1";
    object      U;
}
// * * * * * * * * * * * * * * * * * * * * * * * * * * * * * * * * * * * * * //

dimensions      [0 1 -1 0 0 0 0];

internalField   nonuniform List<vector> 
559
(
(0.653762 0.300083 0)
(0.757282 0.249422 0)
(0.830177 0.153449 0)
(0.870344 0.0198371 0)
(0.834526 -0.170762 0)
(0.854662 -0.341471 0)
(0.787444 -0.487767 0)
(-0.00984921 2.54938 0)
(0.520812 1.30194 0)
(0.223779 0.805256 0)
(0.275689 0.448268 0)
(0.231965 0.295631 0)
(0.228079 0.231111 0)
(0.231917 0.22905 0)
(0.244988 0.253635 0)
(0.270309 0.303596 0)
(0.330231 0.398314 0)
(0.384393 0.467509 0)
(0.430179 0.471215 0)
(0.453721 0.433068 0)
(0.498842 0.375326 0)
(0.526631 0.330329 0)
(0.598737 0.289084 0)
(0.623281 0.229574 0)
(0.682127 0.161564 0)
(0.751116 0.0908976 0)
(0.761989 0.00181682 0)
(0.76758 -0.156223 0)
(0.748181 -0.290182 0)
(0.66037 -0.391199 0)
(0.187218 2.09897 0)
(0.500049 1.3263 0)
(0.339007 0.831126 0)
(0.339051 0.498785 0)
(0.314089 0.30699 0)
(0.294949 0.235268 0)
(0.285726 0.226053 0)
(0.284694 0.242801 0)
(0.290036 0.277038 0)
(0.314972 0.334531 0)
(0.375386 0.410526 0)
(0.435118 0.431708 0)
(0.472374 0.392503 0)
(0.513663 0.339057 0)
(0.535394 0.289269 0)
(0.573191 0.254629 0)
(0.593649 0.195791 0)
(0.62504 0.12227 0)
(0.654758 0.0728178 0)
(0.67381 -0.0201164 0)
(0.675426 -0.138382 0)
(0.651951 -0.235445 0)
(0.588901 -0.313877 0)
(0.186435 1.73622 0)
(0.404196 1.3193 0)
(0.382959 0.857256 0)
(0.408155 0.522345 0)
(0.383388 0.325872 0)
(0.353892 0.252824 0)
(0.332854 0.239048 0)
(0.315805 0.249444 0)
(0.308696 0.273155 0)
(0.316306 0.30398 0)
(0.352441 0.350232 0)
(0.408249 0.367298 0)
(0.457848 0.347008 0)
(0.49374 0.308781 0)
(0.515217 0.26655 0)
(0.536152 0.231228 0)
(0.563694 0.173643 0)
(0.577866 0.112199 0)
(0.598934 0.0540557 0)
(0.613708 -0.031192 0)
(0.60561 -0.114915 0)
(0.578603 -0.195587 0)
(0.532561 -0.261801 0)
(0.180449 1.43183 0)
(0.344743 1.21507 0)
(0.425807 0.835198 0)
(0.456279 0.527186 0)
(0.427103 0.352551 0)
(0.391726 0.282276 0)
(0.360186 0.263178 0)
(0.334994 0.265154 0)
(0.322901 0.27767 0)
(0.324838 0.290423 0)
(0.341763 0.309956 0)
(0.383348 0.317303 0)
(0.424454 0.30639 0)
(0.454564 0.277161 0)
(0.479327 0.244232 0)
(0.498692 0.205898 0)
(0.524937 0.153099 0)
(0.536078 0.0978704 0)
(0.551607 0.0397208 0)
(0.55382 -0.0310045 0)
(0.54268 -0.0941004 0)
(0.518119 -0.159747 0)
(0.481841 -0.216451 0)
(0.178234 1.16824 0)
(0.305593 1.05656 0)
(0.430894 0.775505 0)
(0.461303 0.528797 0)
(0.43464 0.379996 0)
(0.397107 0.316903 0)
(0.364778 0.29231 0)
(0.339742 0.284535 0)
(0.327403 0.283889 0)
(0.327662 0.283787 0)
(0.336919 0.287628 0)
(0.362319 0.28514 0)
(0.390924 0.272702 0)
(0.416587 0.248572 0)
(0.440663 0.220072 0)
(0.460094 0.181746 0)
(0.481192 0.133365 0)
(0.489507 0.0846282 0)
(0.501272 0.0340163 0)
(0.49601 -0.0238429 0)
(0.486248 -0.0761701 0)
(0.465069 -0.131441 0)
(0.434811 -0.176146 0)
(0.151359 0.950396 0)
(0.253386 0.902351 0)
(0.378852 0.709041 0)
(0.42567 0.524048 0)
(0.401377 0.405593 0)
(0.373122 0.350103 0)
(0.349102 0.318577 0)
(0.330389 0.300603 0)
(0.32259 0.289467 0)
(0.321382 0.28072 0)
(0.327874 0.273756 0)
(0.343685 0.263134 0)
(0.363481 0.248437 0)
(0.383857 0.225493 0)
(0.40503 0.19837 0)
(0.422493 0.162349 0)
(0.438328 0.121331 0)
(0.444262 0.0779535 0)
(0.451743 0.0322644 0)
(0.444002 -0.0144711 0)
(0.436879 -0.0606521 0)
(0.418874 -0.107632 0)
(0.396098 -0.145982 0)
(0.099668 0.784774 0)
(0.199849 0.775691 0)
(0.307562 0.639202 0)
(0.347307 0.508269 0)
(0.344692 0.423269 0)
(0.334107 0.370936 0)
(0.321872 0.334981 0)
(0.31233 0.310597 0)
(0.308348 0.292505 0)
(0.309511 0.277585 0)
(0.315589 0.264036 0)
(0.326691 0.24871 0)
(0.341016 0.230518 0)
(0.356419 0.206525 0)
(0.372617 0.180518 0)
(0.385858 0.147565 0)
(0.397512 0.111571 0)
(0.402922 0.0724207 0)
(0.407406 0.0339688 0)
(0.401586 -0.00774167 0)
(0.395903 -0.0500875 0)
(0.379455 -0.0879427 0)
(0.361495 -0.120406 0)
(0.0643966 0.666126 0)
(0.148599 0.669773 0)
(0.240006 0.576603 0)
(0.27797 0.488822 0)
(0.289683 0.423791 0)
(0.292008 0.376992 0)
(0.290177 0.341092 0)
(0.288539 0.313963 0)
(0.289062 0.291862 0)
(0.292434 0.272911 0)
(0.29888 0.255387 0)
(0.307791 0.237284 0)
(0.31952 0.216843 0)
(0.331509 0.19352 0)
(0.34369 0.167261 0)
(0.354473 0.137278 0)
(0.3627 0.104513 0)
(0.366451 0.0692112 0)
(0.368322 0.0343391 0)
(0.363675 -0.00172651 0)
(0.357315 -0.0381586 0)
(0.344398 -0.0726436 0)
(0.329906 -0.102702 0)
(0.0448387 0.580842 0)
(0.111248 0.583082 0)
(0.185765 0.521877 0)
(0.221854 0.463005 0)
(0.241817 0.413097 0)
(0.252731 0.372828 0)
(0.258582 0.339315 0)
(0.262876 0.311859 0)
(0.267179 0.288225 0)
(0.27262 0.266793 0)
(0.279649 0.247276 0)
(0.288006 0.227175 0)
(0.297452 0.20584 0)
(0.3069 0.182478 0)
(0.316263 0.157205 0)
(0.323883 0.129003 0)
(0.329974 0.0989709 0)
(0.332601 0.0673234 0)
(0.333709 0.0356757 0)
(0.330293 0.00295252 0)
(0.324431 -0.0296714 0)
(0.31355 -0.0595242 0)
(0.301418 -0.0875869 0)
(0.0342371 0.516019 0)
(0.0855951 0.515315 0)
(0.145108 0.474647 0)
(0.178809 0.434099 0)
(0.20228 0.395929 0)
(0.217944 0.362141 0)
(0.22869 0.332079 0)
(0.236873 0.305886 0)
(0.244092 0.282181 0)
(0.251151 0.260209 0)
(0.258573 0.239663 0)
(0.266647 0.218929 0)
(0.274745 0.197108 0)
(0.282801 0.174025 0)
(0.29023 0.149481 0)
(0.296372 0.123128 0)
(0.301237 0.0954886 0)
(0.302722 0.0663587 0)
(0.302816 0.0375355 0)
(0.299284 0.0081233 0)
(0.293892 -0.0213358 0)
(0.28503 -0.0492767 0)
(0.275211 -0.0755008 0)
(0.0275391 0.464417 0)
(0.067765 0.462231 0)
(0.115687 0.434026 0)
(0.146446 0.40513 0)
(0.170529 0.375673 0)
(0.188343 0.347597 0)
(0.201771 0.321174 0)
(0.212298 0.296878 0)
(0.221366 0.27399 0)
(0.229411 0.252298 0)
(0.237168 0.231465 0)
(0.244906 0.210661 0)
(0.252181 0.189026 0)
(0.259087 0.166566 0)
(0.265213 0.142928 0)
(0.269966 0.118185 0)
(0.27342 0.0923779 0)
(0.274449 0.0655969 0)
(0.274181 0.0386836 0)
(0.271317 0.0117607 0)
(0.266765 -0.0148407 0)
(0.259141 -0.0403021 0)
(0.250659 -0.0649965 0)
(0.0222251 0.422566 0)
(0.0553552 0.419979 0)
(0.0942094 0.399657 0)
(0.121848 0.378272 0)
(0.14493 0.355166 0)
(0.163191 0.331848 0)
(0.177709 0.308853 0)
(0.189467 0.286702 0)
(0.199502 0.26523 0)
(0.208163 0.244353 0)
(0.216111 0.223949 0)
(0.223538 0.203558 0)
(0.23028 0.18255 0)
(0.236413 0.160746 0)
(0.241586 0.138211 0)
(0.245368 0.114754 0)
(0.248082 0.0906672 0)
(0.24883 0.0658242 0)
(0.248234 0.0409177 0)
(0.245412 0.0158564 0)
(0.241221 -0.00896297 0)
(0.234678 -0.0328545 0)
(0.227475 -0.0560135 0)
(0.0182378 0.387859 0)
(0.0459929 0.385205 0)
(0.0781149 0.369866 0)
(0.102673 0.353378 0)
(0.124015 0.334872 0)
(0.141723 0.315329 0)
(0.156355 0.29534 0)
(0.168559 0.275381 0)
(0.178919 0.255546 0)
(0.187835 0.235824 0)
(0.195707 0.216181 0)
(0.202845 0.196479 0)
(0.20914 0.176285 0)
(0.214581 0.155417 0)
(0.219018 0.134014 0)
(0.222258 0.111838 0)
(0.224379 0.0890653 0)
(0.224901 0.0657344 0)
(0.224115 0.0423686 0)
(0.221563 0.0190535 0)
(0.217735 -0.00389163 0)
(0.211933 -0.0262604 0)
(0.205531 -0.0481304 0)
(0.0151497 0.358864 0)
(0.0387205 0.35645 0)
(0.0657015 0.344481 0)
(0.0874031 0.331389 0)
(0.106764 0.31626 0)
(0.123379 0.299723 0)
(0.137496 0.282238 0)
(0.149523 0.264264 0)
(0.159808 0.245982 0)
(0.168678 0.227515 0)
(0.17633 0.208823 0)
(0.183077 0.189956 0)
(0.188855 0.170606 0)
(0.193675 0.150629 0)
(0.19753 0.130231 0)
(0.200302 0.109316 0)
(0.201935 0.0878673 0)
(0.202348 0.0660819 0)
(0.201435 0.0442334 0)
(0.199056 0.0223586 0)
(0.195469 0.000722465 0)
(0.190349 -0.0204579 0)
(0.184676 -0.0411768 0)
(0.0127136 0.334273 0)
(0.0328704 0.332014 0)
(0.0557779 0.322186 0)
(0.0748713 0.311492 0)
(0.0922421 0.298897 0)
(0.10752 0.28471 0)
(0.120785 0.269379 0)
(0.132242 0.253278 0)
(0.142107 0.236585 0)
(0.150636 0.219428 0)
(0.157929 0.201865 0)
(0.16422 0.183938 0)
(0.169567 0.165553 0)
(0.173943 0.146653 0)
(0.177356 0.12736 0)
(0.179739 0.107493 0)
(0.180996 0.0870778 0)
(0.181067 0.0663984 0)
(0.179962 0.045777 0)
(0.177752 0.0251994 0)
(0.174483 0.00481663 0)
(0.169958 -0.0152283 0)
(0.164784 -0.0349183 0)
(0.0106968 0.313394 0)
(0.0280886 0.31133 0)
(0.0476371 0.303172 0)
(0.0643923 0.294257 0)
(0.0798532 0.283541 0)
(0.093684 0.271216 0)
(0.105871 0.257606 0)
(0.116516 0.243023 0)
(0.125754 0.227675 0)
(0.133734 0.21171 0)
(0.140572 0.195228 0)
(0.146395 0.178292 0)
(0.151285 0.160924 0)
(0.155197 0.142979 0)
(0.158159 0.124605 0)
(0.160155 0.105827 0)
(0.16114 0.0866985 0)
(0.161136 0.0672525 0)
(0.16 0.0476126 0)
(0.157786 0.0279555 0)
(0.154633 0.00854986 0)
(0.150508 -0.0105458 0)
(0.145709 -0.0293133 0)
(0.00905771 0.295604 0)
(0.0240666 0.293494 0)
(0.0408985 0.286317 0)
(0.0555499 0.278677 0)
(0.0691961 0.269411 0)
(0.0815478 0.258592 0)
(0.0925301 0.246468 0)
(0.102214 0.233294 0)
(0.110621 0.219321 0)
(0.117878 0.204605 0)
(0.124088 0.189204 0)
(0.12929 0.173206 0)
(0.133523 0.156628 0)
(0.136916 0.139554 0)
(0.139485 0.122104 0)
(0.141167 0.104283 0)
(0.141951 0.086021 0)
(0.141756 0.0676173 0)
(0.140667 0.0492795 0)
(0.138743 0.0308096 0)
(0.135799 0.0122724 0)
(0.131991 -0.00611365 0)
(0.127485 -0.0241732 0)
(0.00767909 0.280273 0)
(0.0206971 0.278387 0)
(0.0350007 0.27222 0)
(0.0477445 0.265666 0)
(0.0596821 0.257565 0)
(0.0706185 0.247946 0)
(0.0804503 0.237072 0)
(0.0891645 0.225112 0)
(0.0968431 0.212144 0)
(0.103487 0.198378 0)
(0.109152 0.183927 0)
(0.113888 0.168899 0)
(0.117754 0.153314 0)
(0.120717 0.137166 0)
(0.122744 0.120526 0)
(0.123884 0.103436 0)
(0.124107 0.0860526 0)
(0.123544 0.068433 0)
(0.122228 0.0505658 0)
(0.120082 0.0328376 0)
(0.117395 0.0153871 0)
(0.114028 -0.00202642 0)
(0.109865 -0.0194009 0)
(0.00641799 0.267286 0)
(0.0176711 0.265005 0)
(0.0300664 0.259216 0)
(0.0411643 0.253332 0)
(0.051579 0.246088 0)
(0.061182 0.237489 0)
(0.0698546 0.227674 0)
(0.0776036 0.216785 0)
(0.0843479 0.204967 0)
(0.0901771 0.192325 0)
(0.0950964 0.178926 0)
(0.0991058 0.164822 0)
(0.102334 0.150094 0)
(0.104765 0.134834 0)
(0.106445 0.119117 0)
(0.10737 0.10305 0)
(0.107604 0.0866565 0)
(0.106984 0.0698571 0)
(0.105395 0.0529104 0)
(0.103155 0.0357516 0)
(0.100103 0.0184424 0)
(0.0965896 0.00150799 0)
(0.0926705 -0.0151191 0)
(0.00552644 0.256227 0)
(0.0151668 0.254293 0)
(0.0253942 0.249404 0)
(0.03468 0.244394 0)
(0.0434242 0.237947 0)
(0.0515203 0.230078 0)
(0.058963 0.220976 0)
(0.0657067 0.21079 0)
(0.0717819 0.199645 0)
(0.0770969 0.187673 0)
(0.0816202 0.174956 0)
(0.0853402 0.161582 0)
(0.0882127 0.147571 0)
(0.0902574 0.132999 0)
(0.0915368 0.117957 0)
(0.0920076 0.102481 0)
(0.0917318 0.0866103 0)
(0.0907551 0.0705941 0)
(0.0892417 0.054481 0)
(0.0870951 0.038211 0)
(0.0841969 0.0219428 0)
(0.0806227 0.00536397 0)
(0.076448 -0.0111661 0)
(0.00470116 0.246561 0)
(0.0129037 0.244236 0)
(0.0216696 0.239177 0)
(0.0298993 0.234393 0)
(0.0376109 0.228416 0)
(0.044788 0.221219 0)
(0.0513655 0.212898 0)
(0.0572954 0.203584 0)
(0.0625798 0.193386 0)
(0.0671735 0.182426 0)
(0.0710647 0.170794 0)
(0.0742172 0.158477 0)
(0.0766016 0.145499 0)
(0.0782064 0.13192 0)
(0.0790474 0.117848 0)
(0.0790996 0.103282 0)
(0.0783971 0.0883306 0)
(0.0770076 0.0730407 0)
(0.0749095 0.0573729 0)
(0.0721828 0.0415406 0)
(0.0690349 0.0255949 0)
(0.0655062 0.00971257 0)
(0.0613116 -0.00611054 0)
(0.00394451 0.238556 0)
(0.0107522 0.236996 0)
(0.0171578 0.232964 0)
(0.0231072 0.228877 0)
(0.0286435 0.223452 0)
(0.0338796 0.216746 0)
(0.0385843 0.208826 0)
(0.0428159 0.199866 0)
(0.0465138 0.190024 0)
(0.0497284 0.179381 0)
(0.0524539 0.168036 0)
(0.0547023 0.156061 0)
(0.0564716 0.143503 0)
(0.0577175 0.130437 0)
(0.05848 0.116867 0)
(0.0587752 0.102877 0)
(0.0585361 0.0884702 0)
(0.0577727 0.0737161 0)
(0.0564572 0.0586913 0)
(0.0545975 0.0435259 0)
(0.0521397 0.0282064 0)
(0.0491308 0.0127103 0)
(0.045262 -0.00283041 0)
(0.00361414 0.231699 0)
(0.00886966 0.230011 0)
(0.0138466 0.226 0)
(0.0185452 0.222049 0)
(0.0227186 0.216909 0)
(0.0267475 0.21074 0)
(0.0303035 0.203455 0)
(0.0334872 0.195211 0)
(0.0362363 0.186084 0)
(0.0385928 0.176138 0)
(0.0405648 0.165493 0)
(0.0421668 0.15425 0)
(0.0433799 0.14242 0)
(0.0441616 0.129986 0)
(0.0445429 0.117048 0)
(0.0445084 0.103659 0)
(0.0440076 0.089905 0)
(0.0430562 0.0758735 0)
(0.0416078 0.0615596 0)
(0.0396423 0.0470228 0)
(0.0371171 0.0323957 0)
(0.0339444 0.0177411 0)
(0.0301667 0.00266483 0)
(0.00195004 0.225839 0)
(0.00384482 0.226929 0)
(0.00476769 0.223657 0)
(0.00621205 0.219779 0)
(0.00732425 0.214862 0)
(0.00853865 0.208867 0)
(0.00948638 0.201842 0)
(0.0102649 0.193845 0)
(0.0108396 0.184949 0)
(0.01121 0.175219 0)
(0.0114116 0.164763 0)
(0.0114596 0.153677 0)
(0.011345 0.142011 0)
(0.011057 0.129773 0)
(0.0106174 0.117044 0)
(0.0100133 0.103894 0)
(0.00925707 0.0903697 0)
(0.00839916 0.0765445 0)
(0.00743247 0.0624705 0)
(0.00636243 0.0481976 0)
(0.00527257 0.0338369 0)
(0.0042181 0.0194191 0)
(0.00343653 0.00473561 0)
)
;

boundaryField
{
    leftWall
    {
        type            calculated;
        value           uniform (0 0 0);
    }
    rightWall
    {
        type            calculated;
        value           nonuniform 0();
    }
    lowerWall
    {
        type            calculated;
        value           nonuniform 0();
    }
    atmosphere
    {
        type            calculated;
        value           nonuniform List<vector> 
23
(
(0.00195004 0.225836 0)
(0.00384482 0.226926 0)
(0.00476769 0.223653 0)
(0.00621205 0.219775 0)
(0.00732425 0.21486 0)
(0.00853865 0.208868 0)
(0.00948638 0.201847 0)
(0.0102649 0.193855 0)
(0.0108396 0.184961 0)
(0.01121 0.175235 0)
(0.0114116 0.164782 0)
(0.0114596 0.1537 0)
(0.011345 0.142036 0)
(0.011057 0.129802 0)
(0.0106174 0.117076 0)
(0.0100133 0.103928 0)
(0.00925707 0.0904064 0)
(0.00839916 0.0765825 0)
(0.00743247 0.0625088 0)
(0.00636243 0.0482343 0)
(0.00527257 0.033869 0)
(0.0042181 0.0194405 0)
(0.00343653 0.00473263 0)
)
;
    }
    defaultFaces
    {
        type            empty;
    }
    procBoundary2to0
    {
        type            processor;
        value           nonuniform List<vector> 
24
(
(0.662788 0.431587 0)
(0.786216 0.33508 0)
(0.833268 0.211904 0)
(0.891267 0.0575331 0)
(0.895117 -0.175385 0)
(0.927489 -0.338874 0)
(0.911791 -0.526254 0)
(-0.528133 2.91381 0)
(0.465847 1.32565 0)
(-0.0612747 0.833722 0)
(0.20571 0.40026 0)
(0.134269 0.300942 0)
(0.159422 0.233287 0)
(0.173423 0.245312 0)
(0.198962 0.282499 0)
(0.250338 0.360544 0)
(0.317157 0.453533 0)
(0.345346 0.511334 0)
(0.368844 0.502921 0)
(0.386346 0.465871 0)
(0.43042 0.413275 0)
(0.483827 0.39203 0)
(0.586686 0.342623 0)
(0.586686 0.342623 0)
)
;
    }
    procBoundary2to3
    {
        type            processor;
        value           nonuniform List<vector> 
25
(
(0.709882 -0.544215 0)
(0.599799 -0.425365 0)
(0.545234 -0.352079 0)
(0.496869 -0.298931 0)
(0.448537 -0.243531 0)
(0.408602 -0.201625 0)
(0.373856 -0.169712 0)
(0.344486 -0.143354 0)
(0.317484 -0.123602 0)
(0.291079 -0.107317 0)
(0.266428 -0.093825 0)
(0.242996 -0.0822099 0)
(0.220701 -0.072235 0)
(0.199498 -0.0634969 0)
(0.179271 -0.0557925 0)
(0.159929 -0.0489158 0)
(0.141361 -0.042733 0)
(0.123523 -0.0371231 0)
(0.106276 -0.0319483 0)
(0.0894138 -0.0272194 0)
(0.0731936 -0.0230623 0)
(0.0578758 -0.0179384 0)
(0.0421466 -0.0144032 0)
(0.0269107 -0.00844431 0)
(0.0028367 -0.00700158 0)
)
;
    }
}


// ************************************************************************* //
