/*--------------------------------*- C++ -*----------------------------------*\
| =========                 |                                                 |
| \\      /  F ield         | OpenFOAM: The Open Source CFD Toolbox           |
|  \\    /   O peration     | Version:  2.4.0                                 |
|   \\  /    A nd           | Web:      www.OpenFOAM.org                      |
|    \\/     M anipulation  |                                                 |
\*---------------------------------------------------------------------------*/
FoamFile
{
    version     2.0;
    format      ascii;
    class       volVectorField;
    location    "1";
    object      U.oil;
}
// * * * * * * * * * * * * * * * * * * * * * * * * * * * * * * * * * * * * * //

dimensions      [0 1 -1 0 0 0 0];

internalField   nonuniform List<vector> 
559
(
(0.634987 0.300725 0)
(0.746963 0.254811 0)
(0.765745 0.181197 0)
(0.725761 0.034644 0)
(0.777447 -0.126406 0)
(0.852227 -0.305853 0)
(0.796732 -0.489212 0)
(-0.228761 2.66463 0)
(0.496379 1.33373 0)
(0.228555 0.807011 0)
(0.2765 0.44832 0)
(0.233479 0.294769 0)
(0.228763 0.230518 0)
(0.232089 0.228755 0)
(0.245026 0.253413 0)
(0.270313 0.303335 0)
(0.3302 0.398048 0)
(0.384307 0.467228 0)
(0.430078 0.470924 0)
(0.453533 0.432686 0)
(0.498541 0.374466 0)
(0.525541 0.327869 0)
(0.594743 0.284402 0)
(0.626911 0.230139 0)
(0.68017 0.160167 0)
(0.749109 0.0899918 0)
(0.759302 0.000246147 0)
(0.767554 -0.156326 0)
(0.752182 -0.292648 0)
(0.653801 -0.38812 0)
(0.186308 2.09926 0)
(0.499235 1.3297 0)
(0.339864 0.832033 0)
(0.339955 0.498952 0)
(0.315191 0.306544 0)
(0.295364 0.234874 0)
(0.285793 0.225867 0)
(0.284704 0.24267 0)
(0.290025 0.276882 0)
(0.314937 0.33435 0)
(0.375314 0.410329 0)
(0.435022 0.431533 0)
(0.472236 0.392267 0)
(0.51344 0.338678 0)
(0.535051 0.288669 0)
(0.572897 0.25397 0)
(0.59338 0.195051 0)
(0.624705 0.121473 0)
(0.654587 0.0714612 0)
(0.673667 -0.0220752 0)
(0.675319 -0.139998 0)
(0.651692 -0.236238 0)
(0.588916 -0.314239 0)
(0.186269 1.73618 0)
(0.403784 1.31958 0)
(0.382036 0.856573 0)
(0.408165 0.522582 0)
(0.383801 0.325908 0)
(0.354067 0.252617 0)
(0.332882 0.238946 0)
(0.315801 0.249364 0)
(0.308675 0.273065 0)
(0.316269 0.303877 0)
(0.352388 0.350121 0)
(0.408176 0.367187 0)
(0.457738 0.346832 0)
(0.493608 0.308573 0)
(0.515085 0.266263 0)
(0.536016 0.230963 0)
(0.56355 0.173365 0)
(0.577759 0.111897 0)
(0.598857 0.0536039 0)
(0.613678 -0.0320547 0)
(0.605614 -0.11579 0)
(0.578767 -0.196184 0)
(0.532771 -0.262074 0)
(0.18014 1.4309 0)
(0.343044 1.21504 0)
(0.425575 0.837043 0)
(0.455448 0.526544 0)
(0.427156 0.3525 0)
(0.39177 0.282163 0)
(0.360189 0.263116 0)
(0.334983 0.265103 0)
(0.322877 0.277617 0)
(0.324803 0.290366 0)
(0.341715 0.309896 0)
(0.38329 0.317241 0)
(0.424385 0.3063 0)
(0.454489 0.277058 0)
(0.479243 0.244123 0)
(0.498605 0.205784 0)
(0.524853 0.153007 0)
(0.535998 0.0977736 0)
(0.551541 0.0393351 0)
(0.553796 -0.0318783 0)
(0.542758 -0.0949779 0)
(0.518236 -0.160253 0)
(0.48192 -0.216772 0)
(0.177632 1.16485 0)
(0.303686 1.05512 0)
(0.43024 0.776537 0)
(0.460291 0.527793 0)
(0.434602 0.379895 0)
(0.39711 0.316832 0)
(0.364772 0.292273 0)
(0.339727 0.284499 0)
(0.327378 0.283852 0)
(0.327627 0.28375 0)
(0.336875 0.287592 0)
(0.362265 0.285105 0)
(0.390863 0.272667 0)
(0.416522 0.248533 0)
(0.440593 0.220028 0)
(0.460022 0.181708 0)
(0.481122 0.133335 0)
(0.489447 0.0845651 0)
(0.502023 0.033635 0)
(0.49493 -0.0245593 0)
(0.486508 -0.0769253 0)
(0.465037 -0.131835 0)
(0.434776 -0.176309 0)
(0.150648 0.945861 0)
(0.252302 0.900318 0)
(0.377083 0.706247 0)
(0.425511 0.523809 0)
(0.401362 0.405505 0)
(0.373116 0.350073 0)
(0.349091 0.318552 0)
(0.330371 0.300576 0)
(0.322564 0.289438 0)
(0.321348 0.280691 0)
(0.327832 0.273729 0)
(0.343636 0.26311 0)
(0.363426 0.248417 0)
(0.383797 0.225475 0)
(0.404968 0.198353 0)
(0.422431 0.162333 0)
(0.438268 0.121303 0)
(0.444198 0.0778456 0)
(0.451684 0.0319476 0)
(0.443982 -0.0149225 0)
(0.436846 -0.0610091 0)
(0.418848 -0.107792 0)
(0.396071 -0.146043 0)
(0.100028 0.786034 0)
(0.199639 0.77484 0)
(0.30742 0.63888 0)
(0.347285 0.508159 0)
(0.344684 0.423241 0)
(0.334096 0.370919 0)
(0.321857 0.334961 0)
(0.312309 0.310575 0)
(0.308322 0.292481 0)
(0.309479 0.277561 0)
(0.31555 0.264014 0)
(0.326646 0.248691 0)
(0.340966 0.230503 0)
(0.356365 0.206514 0)
(0.372562 0.180511 0)
(0.385803 0.147557 0)
(0.397457 0.111532 0)
(0.402871 0.0723228 0)
(0.40736 0.0337848 0)
(0.401545 -0.00793713 0)
(0.395869 -0.0502531 0)
(0.379427 -0.0880462 0)
(0.36147 -0.120455 0)
(0.0644081 0.665899 0)
(0.148576 0.669447 0)
(0.239997 0.576499 0)
(0.277962 0.488794 0)
(0.289673 0.423776 0)
(0.291994 0.376976 0)
(0.29016 0.341074 0)
(0.288517 0.313944 0)
(0.289036 0.291842 0)
(0.292402 0.272892 0)
(0.298844 0.25537 0)
(0.307749 0.23727 0)
(0.319475 0.216832 0)
(0.331461 0.193514 0)
(0.343642 0.167259 0)
(0.354426 0.137273 0)
(0.362655 0.104485 0)
(0.366408 0.069162 0)
(0.368283 0.0342555 0)
(0.363639 -0.00183317 0)
(0.357284 -0.0382469 0)
(0.344372 -0.0727014 0)
(0.329882 -0.102726 0)
(0.0448357 0.580737 0)
(0.111243 0.583035 0)
(0.185758 0.521855 0)
(0.221844 0.46299 0)
(0.241804 0.413082 0)
(0.252716 0.372812 0)
(0.258564 0.339298 0)
(0.262854 0.311842 0)
(0.267153 0.288208 0)
(0.27259 0.266777 0)
(0.279615 0.247262 0)
(0.287968 0.227163 0)
(0.297411 0.205832 0)
(0.306857 0.182474 0)
(0.316221 0.157205 0)
(0.323842 0.129003 0)
(0.329935 0.0989664 0)
(0.332565 0.0673129 0)
(0.333675 0.0356438 0)
(0.330262 0.00289921 0)
(0.324403 -0.0297097 0)
(0.313525 -0.0595431 0)
(0.301396 -0.0875831 0)
(0.0342356 0.51599 0)
(0.0855905 0.515298 0)
(0.1451 0.474631 0)
(0.178798 0.434083 0)
(0.202266 0.395913 0)
(0.217928 0.362125 0)
(0.228672 0.332063 0)
(0.236851 0.30587 0)
(0.244067 0.282166 0)
(0.251123 0.260195 0)
(0.258542 0.239651 0)
(0.266612 0.21892 0)
(0.274707 0.197102 0)
(0.282763 0.174024 0)
(0.290192 0.149484 0)
(0.296337 0.123133 0)
(0.301204 0.0954963 0)
(0.302691 0.0663689 0)
(0.302787 0.0375398 0)
(0.299257 0.00811776 0)
(0.293866 -0.0213344 0)
(0.285008 -0.049265 0)
(0.275191 -0.0754779 0)
(0.0275377 0.464398 0)
(0.0677606 0.462213 0)
(0.115679 0.434008 0)
(0.146436 0.405113 0)
(0.170516 0.375656 0)
(0.188327 0.34758 0)
(0.201753 0.321158 0)
(0.212277 0.296862 0)
(0.221342 0.273976 0)
(0.229384 0.252285 0)
(0.237138 0.231454 0)
(0.244874 0.210653 0)
(0.252147 0.189022 0)
(0.259053 0.166565 0)
(0.265179 0.142932 0)
(0.269935 0.118192 0)
(0.273391 0.0923893 0)
(0.274423 0.065612 0)
(0.274156 0.038701 0)
(0.271294 0.0117782 0)
(0.266743 -0.01482 0)
(0.259121 -0.0402767 0)
(0.250642 -0.0649662 0)
(0.0222236 0.422547 0)
(0.0553507 0.41996 0)
(0.0942021 0.399639 0)
(0.121838 0.378254 0)
(0.144918 0.355149 0)
(0.163176 0.331831 0)
(0.177691 0.308837 0)
(0.189447 0.286687 0)
(0.19948 0.265216 0)
(0.208138 0.244341 0)
(0.216084 0.22394 0)
(0.223509 0.203551 0)
(0.23025 0.182546 0)
(0.236383 0.160746 0)
(0.241557 0.138215 0)
(0.245341 0.114761 0)
(0.248057 0.0906785 0)
(0.248808 0.065839 0)
(0.248213 0.0409358 0)
(0.245392 0.0158777 0)
(0.241202 -0.0089387 0)
(0.234661 -0.0328272 0)
(0.22746 -0.0559834 0)
(0.0182364 0.387839 0)
(0.0459889 0.385186 0)
(0.0781081 0.369847 0)
(0.102664 0.35336 0)
(0.124004 0.334854 0)
(0.141709 0.315312 0)
(0.156338 0.295324 0)
(0.16854 0.275367 0)
(0.178898 0.255533 0)
(0.187812 0.235813 0)
(0.195683 0.216172 0)
(0.202819 0.196473 0)
(0.209113 0.176281 0)
(0.214554 0.155417 0)
(0.218993 0.134018 0)
(0.222234 0.111845 0)
(0.224358 0.0890755 0)
(0.224882 0.0657477 0)
(0.224097 0.042385 0)
(0.221546 0.0190727 0)
(0.21772 -0.00386957 0)
(0.21192 -0.0262358 0)
(0.205519 -0.0481034 0)
(0.0151484 0.358844 0)
(0.0387165 0.35643 0)
(0.0656951 0.344461 0)
(0.0873944 0.33137 0)
(0.106753 0.316242 0)
(0.123366 0.299706 0)
(0.137481 0.282222 0)
(0.149506 0.26425 0)
(0.15979 0.245969 0)
(0.168658 0.227504 0)
(0.176308 0.208815 0)
(0.183054 0.18995 0)
(0.188831 0.170603 0)
(0.193651 0.150628 0)
(0.197508 0.130234 0)
(0.200282 0.109322 0)
(0.201917 0.0878764 0)
(0.202332 0.0660938 0)
(0.20142 0.0442478 0)
(0.199042 0.0223756 0)
(0.195456 0.000741865 0)
(0.190338 -0.0204363 0)
(0.184666 -0.0411532 0)
(0.0127125 0.334253 0)
(0.032867 0.331994 0)
(0.0557722 0.322166 0)
(0.0748633 0.311472 0)
(0.0922321 0.298879 0)
(0.107508 0.284693 0)
(0.120772 0.269363 0)
(0.132226 0.253264 0)
(0.14209 0.236572 0)
(0.150618 0.219418 0)
(0.157909 0.201857 0)
(0.164199 0.183933 0)
(0.169546 0.16555 0)
(0.173923 0.146652 0)
(0.177337 0.127362 0)
(0.179722 0.107498 0)
(0.180981 0.0870857 0)
(0.181053 0.0664087 0)
(0.179949 0.0457896 0)
(0.17774 0.0252143 0)
(0.174472 0.00483361 0)
(0.169948 -0.0152092 0)
(0.164776 -0.0348975 0)
(0.0106957 0.313373 0)
(0.0280854 0.31131 0)
(0.0476319 0.303152 0)
(0.0643851 0.294238 0)
(0.0798443 0.283522 0)
(0.0936734 0.271199 0)
(0.105859 0.25759 0)
(0.116503 0.243009 0)
(0.125739 0.227662 0)
(0.133718 0.2117 0)
(0.140555 0.195219 0)
(0.146378 0.178286 0)
(0.151267 0.160921 0)
(0.15518 0.142979 0)
(0.158142 0.124607 0)
(0.16014 0.105832 0)
(0.161127 0.0867052 0)
(0.161124 0.0672613 0)
(0.159989 0.0476236 0)
(0.157776 0.0279685 0)
(0.154624 0.00856473 0)
(0.1505 -0.0105291 0)
(0.145702 -0.029295 0)
(0.00905683 0.295584 0)
(0.0240639 0.293474 0)
(0.0408939 0.286297 0)
(0.0555436 0.278658 0)
(0.0691882 0.269392 0)
(0.0815384 0.258575 0)
(0.0925194 0.246453 0)
(0.102202 0.23328 0)
(0.110608 0.219309 0)
(0.117864 0.204594 0)
(0.124073 0.189196 0)
(0.129274 0.1732 0)
(0.133508 0.156625 0)
(0.136901 0.139553 0)
(0.139471 0.122105 0)
(0.141154 0.104286 0)
(0.14194 0.0860266 0)
(0.141747 0.0676249 0)
(0.140658 0.0492889 0)
(0.138736 0.0308208 0)
(0.135792 0.0122853 0)
(0.131985 -0.00609914 0)
(0.12748 -0.0241573 0)
(0.00767822 0.280252 0)
(0.0206946 0.278367 0)
(0.0349967 0.272201 0)
(0.047739 0.265647 0)
(0.0596753 0.257547 0)
(0.0706104 0.247929 0)
(0.0804411 0.237057 0)
(0.0891542 0.225098 0)
(0.0968319 0.212131 0)
(0.103475 0.198367 0)
(0.109139 0.183918 0)
(0.113874 0.168892 0)
(0.117741 0.15331 0)
(0.120704 0.137164 0)
(0.122732 0.120527 0)
(0.123874 0.103439 0)
(0.124098 0.0860573 0)
(0.123536 0.0684394 0)
(0.122221 0.0505738 0)
(0.120076 0.0328472 0)
(0.117389 0.0153982 0)
(0.114023 -0.00201394 0)
(0.109861 -0.0193871 0)
(0.00641736 0.267265 0)
(0.0176692 0.264985 0)
(0.0300631 0.259196 0)
(0.0411598 0.253313 0)
(0.0515733 0.24607 0)
(0.0611752 0.237472 0)
(0.0698468 0.227658 0)
(0.0775949 0.216772 0)
(0.0843385 0.204955 0)
(0.090167 0.192314 0)
(0.0950857 0.178918 0)
(0.0990948 0.164816 0)
(0.102323 0.15009 0)
(0.104754 0.134832 0)
(0.106435 0.119117 0)
(0.107362 0.103052 0)
(0.107597 0.0866603 0)
(0.106978 0.0698625 0)
(0.105389 0.0529172 0)
(0.10315 0.0357598 0)
(0.100099 0.0184519 0)
(0.0965862 0.00151875 0)
(0.0926681 -0.0151072 0)
(0.00552582 0.256207 0)
(0.015165 0.254273 0)
(0.0253915 0.249384 0)
(0.0346763 0.244376 0)
(0.0434196 0.237929 0)
(0.0515148 0.230062 0)
(0.0589567 0.220961 0)
(0.0656997 0.210777 0)
(0.0717743 0.199633 0)
(0.0770887 0.187663 0)
(0.0816116 0.174948 0)
(0.0853312 0.161576 0)
(0.0882037 0.147566 0)
(0.0902488 0.132997 0)
(0.091529 0.117957 0)
(0.0920008 0.102483 0)
(0.0917261 0.0866134 0)
(0.0907505 0.0705985 0)
(0.0892377 0.0544868 0)
(0.0870916 0.038218 0)
(0.0841938 0.021951 0)
(0.0806204 0.00537323 0)
(0.0764464 -0.0111558 0)
(0.00470078 0.246541 0)
(0.0129025 0.244216 0)
(0.0216675 0.239158 0)
(0.0298964 0.234375 0)
(0.0376073 0.228399 0)
(0.0447837 0.221203 0)
(0.0513606 0.212883 0)
(0.05729 0.20357 0)
(0.0625739 0.193374 0)
(0.0671672 0.182416 0)
(0.071058 0.170786 0)
(0.0742103 0.158471 0)
(0.0765946 0.145495 0)
(0.0781998 0.131917 0)
(0.0790413 0.117848 0)
(0.0790942 0.103283 0)
(0.0783929 0.0883331 0)
(0.0770043 0.0730445 0)
(0.0749067 0.0573778 0)
(0.0721804 0.0415467 0)
(0.069033 0.0256019 0)
(0.065505 0.00972068 0)
(0.0613111 -0.00610174 0)
(0.00394418 0.238536 0)
(0.0107513 0.236976 0)
(0.0171563 0.232945 0)
(0.0231051 0.228859 0)
(0.0286409 0.223435 0)
(0.0338765 0.21673 0)
(0.0385808 0.208811 0)
(0.042812 0.199852 0)
(0.0465096 0.190012 0)
(0.0497239 0.179371 0)
(0.0524492 0.168027 0)
(0.0546974 0.156054 0)
(0.0564666 0.143498 0)
(0.0577126 0.130434 0)
(0.0584755 0.116866 0)
(0.0587714 0.102878 0)
(0.0585331 0.0884725 0)
(0.0577705 0.0737196 0)
(0.0564556 0.0586959 0)
(0.0545962 0.0435314 0)
(0.0521386 0.0282127 0)
(0.0491304 0.0127173 0)
(0.045262 -0.00282271 0)
(0.00361393 0.23168 0)
(0.00886906 0.229992 0)
(0.0138457 0.225981 0)
(0.0185439 0.222032 0)
(0.022717 0.216892 0)
(0.0267457 0.210724 0)
(0.0303014 0.203441 0)
(0.0334849 0.195198 0)
(0.0362338 0.186073 0)
(0.0385901 0.176128 0)
(0.0405619 0.165485 0)
(0.0421639 0.154244 0)
(0.0433768 0.142416 0)
(0.0441587 0.129984 0)
(0.0445402 0.117047 0)
(0.0445061 0.10366 0)
(0.0440059 0.0899077 0)
(0.043055 0.0758772 0)
(0.041607 0.0615641 0)
(0.0396417 0.047028 0)
(0.0371167 0.0324014 0)
(0.0339445 0.0177472 0)
(0.0301673 0.0026711 0)
(0.00194997 0.22582 0)
(0.00384461 0.22691 0)
(0.00476736 0.223639 0)
(0.00621161 0.219762 0)
(0.0073237 0.214845 0)
(0.008538 0.208851 0)
(0.00948564 0.201828 0)
(0.0102641 0.193833 0)
(0.0108387 0.184937 0)
(0.011209 0.17521 0)
(0.0114106 0.164755 0)
(0.0114586 0.153671 0)
(0.011344 0.142007 0)
(0.011056 0.129771 0)
(0.0106165 0.117044 0)
(0.0100125 0.103895 0)
(0.00925651 0.0903727 0)
(0.00839878 0.0765484 0)
(0.00743221 0.0624749 0)
(0.00636225 0.0482024 0)
(0.0052725 0.033842 0)
(0.00421823 0.0194243 0)
(0.00343695 0.00474048 0)
)
;

boundaryField
{
    leftWall
    {
        type            fixedValue;
        value           uniform (0 0 0);
    }
    rightWall
    {
        type            fixedValue;
        value           nonuniform 0();
    }
    lowerWall
    {
        type            fixedValue;
        value           nonuniform 0();
    }
    atmosphere
    {
        type            fluxCorrectedVelocity;
        value           nonuniform List<vector> 
23
(
(0.00194997 0.225836 0)
(0.00384461 0.226926 0)
(0.00476736 0.223653 0)
(0.00621161 0.219775 0)
(0.0073237 0.21486 0)
(0.008538 0.208868 0)
(0.00948564 0.201847 0)
(0.0102641 0.193855 0)
(0.0108387 0.184961 0)
(0.011209 0.175235 0)
(0.0114106 0.164782 0)
(0.0114586 0.1537 0)
(0.011344 0.142036 0)
(0.011056 0.129802 0)
(0.0106165 0.117076 0)
(0.0100125 0.103928 0)
(0.00925651 0.0904065 0)
(0.00839878 0.0765825 0)
(0.00743221 0.0625088 0)
(0.00636225 0.0482344 0)
(0.0052725 0.0338691 0)
(0.00421823 0.0194406 0)
(0.00343695 0.00473264 0)
)
;
    }
    defaultFaces
    {
        type            empty;
    }
    procBoundary2to0
    {
        type            processor;
        value           nonuniform List<vector> 
24
(
(0.530515 0.399087 0)
(0.712032 0.331691 0)
(0.61685 0.236401 0)
(0.588209 0.0842024 0)
(0.624771 -0.0432514 0)
(0.801904 -0.18799 0)
(0.917164 -0.415104 0)
(-3.31013 3.84231 0)
(0.336824 1.42183 0)
(-0.0517709 0.834906 0)
(0.205574 0.400435 0)
(0.136112 0.299592 0)
(0.160061 0.232537 0)
(0.173626 0.244863 0)
(0.199046 0.282098 0)
(0.25035 0.360131 0)
(0.317047 0.453054 0)
(0.345206 0.510868 0)
(0.368434 0.501509 0)
(0.385283 0.464763 0)
(0.428525 0.410599 0)
(0.468079 0.377417 0)
(0.545037 0.330523 0)
(0.545037 0.330523 0)
)
;
    }
    procBoundary2to3
    {
        type            processor;
        value           nonuniform List<vector> 
25
(
(0.708622 -0.543386 0)
(0.600291 -0.425815 0)
(0.545296 -0.352214 0)
(0.496989 -0.299026 0)
(0.448551 -0.243625 0)
(0.408571 -0.201677 0)
(0.37383 -0.169734 0)
(0.344464 -0.143374 0)
(0.317462 -0.123606 0)
(0.291061 -0.107301 0)
(0.26641 -0.0937964 0)
(0.242982 -0.0821765 0)
(0.220688 -0.0722029 0)
(0.199489 -0.0634682 0)
(0.179262 -0.0557676 0)
(0.159923 -0.0488939 0)
(0.141356 -0.0427137 0)
(0.123519 -0.0371061 0)
(0.106273 -0.0319337 0)
(0.0894123 -0.0272067 0)
(0.0731923 -0.0230513 0)
(0.0578759 -0.017929 0)
(0.0421468 -0.0143953 0)
(0.0269116 -0.00843786 0)
(0.00283713 -0.00699719 0)
)
;
    }
}


// ************************************************************************* //
