/*--------------------------------*- C++ -*----------------------------------*\
| =========                 |                                                 |
| \\      /  F ield         | OpenFOAM: The Open Source CFD Toolbox           |
|  \\    /   O peration     | Version:  2.4.0                                 |
|   \\  /    A nd           | Web:      www.OpenFOAM.org                      |
|    \\/     M anipulation  |                                                 |
\*---------------------------------------------------------------------------*/
FoamFile
{
    version     2.0;
    format      ascii;
    class       volVectorField;
    location    "1";
    object      U.water;
}
// * * * * * * * * * * * * * * * * * * * * * * * * * * * * * * * * * * * * * //

dimensions      [0 1 -1 0 0 0 0];

internalField   nonuniform List<vector> 
559
(
(0.652907 0.29967 0)
(0.756145 0.24955 0)
(0.828843 0.154709 0)
(0.868783 0.0214313 0)
(0.834706 -0.168793 0)
(0.854453 -0.341603 0)
(0.787583 -0.488845 0)
(-0.00995782 2.54992 0)
(0.520992 1.30208 0)
(0.224061 0.805089 0)
(0.275859 0.448237 0)
(0.232595 0.295239 0)
(0.22869 0.230553 0)
(0.232185 0.228621 0)
(0.245011 0.253466 0)
(0.27029 0.303468 0)
(0.330186 0.398183 0)
(0.384322 0.467377 0)
(0.430085 0.471087 0)
(0.453603 0.432926 0)
(0.498713 0.375159 0)
(0.526482 0.33016 0)
(0.598554 0.288858 0)
(0.623239 0.229445 0)
(0.681907 0.161303 0)
(0.750956 0.0904357 0)
(0.761885 0.000886911 0)
(0.767475 -0.157068 0)
(0.748128 -0.290582 0)
(0.66022 -0.391207 0)
(0.187354 2.09912 0)
(0.500171 1.32643 0)
(0.339151 0.83111 0)
(0.339243 0.49885 0)
(0.314594 0.306756 0)
(0.295442 0.234804 0)
(0.285924 0.225686 0)
(0.28471 0.242667 0)
(0.290017 0.276936 0)
(0.314932 0.334421 0)
(0.375325 0.410411 0)
(0.435037 0.431594 0)
(0.472274 0.392387 0)
(0.513548 0.33895 0)
(0.535272 0.289184 0)
(0.573065 0.254552 0)
(0.59352 0.195686 0)
(0.62492 0.122195 0)
(0.654656 0.0727699 0)
(0.673717 -0.0201387 0)
(0.675338 -0.138368 0)
(0.651868 -0.235401 0)
(0.588818 -0.313818 0)
(0.186485 1.73625 0)
(0.404198 1.31941 0)
(0.383 0.857324 0)
(0.408197 0.522231 0)
(0.383624 0.325586 0)
(0.354125 0.252438 0)
(0.332969 0.238823 0)
(0.315808 0.249357 0)
(0.308675 0.27308 0)
(0.316269 0.303898 0)
(0.352388 0.350144 0)
(0.408179 0.367208 0)
(0.457761 0.346914 0)
(0.493644 0.308699 0)
(0.515117 0.266486 0)
(0.536051 0.231176 0)
(0.563595 0.173601 0)
(0.577775 0.112178 0)
(0.598848 0.0540617 0)
(0.613627 -0.0311634 0)
(0.605534 -0.114873 0)
(0.578531 -0.195534 0)
(0.532491 -0.261738 0)
(0.180435 1.4318 0)
(0.344711 1.21513 0)
(0.425632 0.835015 0)
(0.456257 0.527116 0)
(0.427117 0.352305 0)
(0.391796 0.28204 0)
(0.360212 0.263045 0)
(0.334985 0.265099 0)
(0.322877 0.277618 0)
(0.324803 0.290366 0)
(0.341715 0.309895 0)
(0.383288 0.31724 0)
(0.424383 0.306327 0)
(0.454487 0.277107 0)
(0.479246 0.24419 0)
(0.49861 0.205869 0)
(0.524856 0.153085 0)
(0.536 0.0978723 0)
(0.551533 0.0397405 0)
(0.553749 -0.0309699 0)
(0.542613 -0.0940552 0)
(0.518057 -0.159693 0)
(0.481781 -0.216386 0)
(0.178156 1.16775 0)
(0.305393 1.05633 0)
(0.430451 0.775141 0)
(0.460957 0.52858 0)
(0.434499 0.379781 0)
(0.397101 0.316748 0)
(0.364777 0.292245 0)
(0.339727 0.284499 0)
(0.327378 0.283851 0)
(0.327627 0.283748 0)
(0.336875 0.287588 0)
(0.362265 0.285101 0)
(0.390863 0.272667 0)
(0.416521 0.248542 0)
(0.440593 0.22005 0)
(0.460023 0.181734 0)
(0.481123 0.133365 0)
(0.48944 0.0846409 0)
(0.501208 0.0340418 0)
(0.495949 -0.0238068 0)
(0.486191 -0.0761248 0)
(0.465016 -0.131387 0)
(0.434761 -0.176083 0)
(0.151345 0.950183 0)
(0.253018 0.901838 0)
(0.378659 0.709172 0)
(0.425219 0.523586 0)
(0.401326 0.405436 0)
(0.373121 0.350026 0)
(0.349091 0.318548 0)
(0.330371 0.300576 0)
(0.322564 0.289438 0)
(0.321348 0.280691 0)
(0.327832 0.273728 0)
(0.343636 0.263109 0)
(0.363426 0.248416 0)
(0.383797 0.225477 0)
(0.404968 0.19836 0)
(0.422431 0.162347 0)
(0.438268 0.121339 0)
(0.444205 0.0779713 0)
(0.451689 0.0322916 0)
(0.44395 -0.0144351 0)
(0.43683 -0.0606083 0)
(0.418829 -0.107581 0)
(0.396056 -0.145923 0)
(0.0995553 0.783744 0)
(0.199453 0.774472 0)
(0.307138 0.638537 0)
(0.34721 0.508013 0)
(0.344686 0.423182 0)
(0.334097 0.370912 0)
(0.321857 0.334961 0)
(0.312309 0.310575 0)
(0.308322 0.292481 0)
(0.309479 0.277562 0)
(0.31555 0.264014 0)
(0.326646 0.248691 0)
(0.340966 0.230503 0)
(0.356365 0.206515 0)
(0.372562 0.180514 0)
(0.385804 0.147569 0)
(0.397461 0.111583 0)
(0.402873 0.0724404 0)
(0.40736 0.033996 0)
(0.401542 -0.00770709 0)
(0.395861 -0.0500462 0)
(0.379417 -0.0878948 0)
(0.36146 -0.120352 0)
(0.0643711 0.665439 0)
(0.148538 0.669332 0)
(0.239956 0.576325 0)
(0.277965 0.488728 0)
(0.289673 0.423768 0)
(0.291994 0.376976 0)
(0.29016 0.341074 0)
(0.288517 0.313944 0)
(0.289036 0.291842 0)
(0.292402 0.272892 0)
(0.298844 0.25537 0)
(0.307749 0.23727 0)
(0.319475 0.216832 0)
(0.331461 0.193514 0)
(0.343642 0.167262 0)
(0.354426 0.137284 0)
(0.362656 0.104527 0)
(0.36641 0.0692309 0)
(0.368282 0.0343654 0)
(0.363637 -0.00169403 0)
(0.35728 -0.0381202 0)
(0.344366 -0.0725996 0)
(0.329876 -0.102652 0)
(0.0448363 0.58059 0)
(0.111249 0.582923 0)
(0.185762 0.521802 0)
(0.221845 0.462981 0)
(0.241804 0.413082 0)
(0.252716 0.372812 0)
(0.258564 0.339298 0)
(0.262854 0.311842 0)
(0.267153 0.288208 0)
(0.27259 0.266777 0)
(0.279615 0.247262 0)
(0.287968 0.227163 0)
(0.297411 0.205832 0)
(0.306857 0.182475 0)
(0.316221 0.157207 0)
(0.323842 0.12901 0)
(0.329935 0.0989844 0)
(0.332565 0.0673425 0)
(0.333675 0.0357004 0)
(0.330261 0.00298251 0)
(0.324401 -0.0296363 0)
(0.313523 -0.0594844 0)
(0.301394 -0.0875426 0)
(0.0342359 0.515954 0)
(0.085591 0.515277 0)
(0.1451 0.474626 0)
(0.178798 0.434083 0)
(0.202266 0.395913 0)
(0.217928 0.362125 0)
(0.228672 0.332063 0)
(0.236851 0.30587 0)
(0.244067 0.282166 0)
(0.251123 0.260195 0)
(0.258542 0.239651 0)
(0.266612 0.21892 0)
(0.274707 0.197102 0)
(0.282763 0.174024 0)
(0.290192 0.149484 0)
(0.296337 0.123136 0)
(0.301204 0.0955017 0)
(0.302691 0.0663767 0)
(0.302787 0.0375583 0)
(0.299256 0.00815064 0)
(0.293866 -0.0213042 0)
(0.285007 -0.0492412 0)
(0.27519 -0.0754615 0)
(0.0275377 0.464395 0)
(0.0677606 0.462212 0)
(0.115679 0.434008 0)
(0.146436 0.405113 0)
(0.170516 0.375656 0)
(0.188327 0.34758 0)
(0.201753 0.321158 0)
(0.212277 0.296862 0)
(0.221342 0.273976 0)
(0.229384 0.252285 0)
(0.237138 0.231454 0)
(0.244874 0.210653 0)
(0.252147 0.189022 0)
(0.259053 0.166565 0)
(0.265179 0.142932 0)
(0.269935 0.118193 0)
(0.273391 0.0923903 0)
(0.274423 0.0656136 0)
(0.274156 0.0387042 0)
(0.271294 0.0117853 0)
(0.266743 -0.0148125 0)
(0.259121 -0.0402704 0)
(0.250642 -0.0649617 0)
(0.0222236 0.422547 0)
(0.0553507 0.41996 0)
(0.0942021 0.399639 0)
(0.121838 0.378254 0)
(0.144918 0.355149 0)
(0.163176 0.331831 0)
(0.177691 0.308837 0)
(0.189447 0.286687 0)
(0.19948 0.265216 0)
(0.208138 0.244341 0)
(0.216084 0.22394 0)
(0.223509 0.203551 0)
(0.23025 0.182546 0)
(0.236383 0.160746 0)
(0.241557 0.138215 0)
(0.245341 0.114762 0)
(0.248057 0.0906787 0)
(0.248808 0.0658393 0)
(0.248213 0.0409363 0)
(0.245392 0.0158783 0)
(0.241202 -0.00893784 0)
(0.234661 -0.0328264 0)
(0.22746 -0.0559827 0)
(0.0182364 0.387839 0)
(0.0459889 0.385186 0)
(0.0781081 0.369847 0)
(0.102664 0.35336 0)
(0.124004 0.334854 0)
(0.141709 0.315312 0)
(0.156338 0.295324 0)
(0.16854 0.275367 0)
(0.178898 0.255533 0)
(0.187812 0.235813 0)
(0.195683 0.216172 0)
(0.202819 0.196473 0)
(0.209113 0.176281 0)
(0.214554 0.155417 0)
(0.218993 0.134018 0)
(0.222234 0.111845 0)
(0.224358 0.0890756 0)
(0.224882 0.0657479 0)
(0.224097 0.0423851 0)
(0.221546 0.0190729 0)
(0.21772 -0.00386944 0)
(0.21192 -0.0262357 0)
(0.205519 -0.0481033 0)
(0.0151484 0.358844 0)
(0.0387165 0.35643 0)
(0.0656951 0.344461 0)
(0.0873944 0.33137 0)
(0.106753 0.316242 0)
(0.123366 0.299706 0)
(0.137481 0.282222 0)
(0.149506 0.26425 0)
(0.15979 0.245969 0)
(0.168658 0.227504 0)
(0.176308 0.208815 0)
(0.183054 0.18995 0)
(0.188831 0.170603 0)
(0.193651 0.150629 0)
(0.197508 0.130234 0)
(0.200282 0.109322 0)
(0.201917 0.0878764 0)
(0.202332 0.0660938 0)
(0.20142 0.0442479 0)
(0.199042 0.0223756 0)
(0.195456 0.000741915 0)
(0.190338 -0.0204363 0)
(0.184666 -0.0411532 0)
(0.0127125 0.334253 0)
(0.032867 0.331994 0)
(0.0557722 0.322166 0)
(0.0748633 0.311472 0)
(0.0922321 0.298879 0)
(0.107508 0.284693 0)
(0.120772 0.269363 0)
(0.132226 0.253264 0)
(0.14209 0.236572 0)
(0.150618 0.219418 0)
(0.157909 0.201857 0)
(0.164199 0.183933 0)
(0.169546 0.16555 0)
(0.173923 0.146652 0)
(0.177337 0.127362 0)
(0.179722 0.107498 0)
(0.180981 0.0870857 0)
(0.181053 0.0664088 0)
(0.179949 0.0457897 0)
(0.17774 0.0252143 0)
(0.174472 0.00483363 0)
(0.169948 -0.0152092 0)
(0.164776 -0.0348975 0)
(0.0106957 0.313373 0)
(0.0280854 0.31131 0)
(0.0476319 0.303152 0)
(0.0643851 0.294238 0)
(0.0798443 0.283522 0)
(0.0936734 0.271199 0)
(0.105859 0.25759 0)
(0.116503 0.243009 0)
(0.125739 0.227662 0)
(0.133718 0.2117 0)
(0.140555 0.195219 0)
(0.146378 0.178286 0)
(0.151267 0.160921 0)
(0.15518 0.142979 0)
(0.158142 0.124607 0)
(0.16014 0.105832 0)
(0.161127 0.0867052 0)
(0.161124 0.0672614 0)
(0.159989 0.0476236 0)
(0.157776 0.0279685 0)
(0.154624 0.00856473 0)
(0.1505 -0.0105291 0)
(0.145702 -0.029295 0)
(0.00905683 0.295584 0)
(0.0240639 0.293474 0)
(0.0408939 0.286297 0)
(0.0555436 0.278658 0)
(0.0691882 0.269392 0)
(0.0815384 0.258575 0)
(0.0925194 0.246453 0)
(0.102202 0.23328 0)
(0.110608 0.219309 0)
(0.117864 0.204594 0)
(0.124073 0.189196 0)
(0.129274 0.1732 0)
(0.133508 0.156625 0)
(0.136901 0.139553 0)
(0.139471 0.122105 0)
(0.141154 0.104286 0)
(0.14194 0.0860266 0)
(0.141747 0.0676249 0)
(0.140658 0.0492889 0)
(0.138736 0.0308208 0)
(0.135792 0.0122853 0)
(0.131985 -0.00609914 0)
(0.12748 -0.0241573 0)
(0.00767822 0.280252 0)
(0.0206946 0.278367 0)
(0.0349967 0.272201 0)
(0.047739 0.265647 0)
(0.0596753 0.257547 0)
(0.0706104 0.247929 0)
(0.0804411 0.237057 0)
(0.0891542 0.225098 0)
(0.0968319 0.212131 0)
(0.103475 0.198367 0)
(0.109139 0.183918 0)
(0.113874 0.168892 0)
(0.117741 0.15331 0)
(0.120704 0.137164 0)
(0.122732 0.120527 0)
(0.123874 0.103439 0)
(0.124098 0.0860573 0)
(0.123536 0.0684394 0)
(0.122221 0.0505738 0)
(0.120076 0.0328472 0)
(0.117389 0.0153982 0)
(0.114023 -0.00201394 0)
(0.109861 -0.0193871 0)
(0.00641736 0.267265 0)
(0.0176692 0.264985 0)
(0.0300631 0.259196 0)
(0.0411598 0.253313 0)
(0.0515733 0.24607 0)
(0.0611752 0.237472 0)
(0.0698468 0.227658 0)
(0.0775949 0.216772 0)
(0.0843385 0.204955 0)
(0.090167 0.192314 0)
(0.0950857 0.178918 0)
(0.0990948 0.164816 0)
(0.102323 0.15009 0)
(0.104754 0.134832 0)
(0.106435 0.119117 0)
(0.107362 0.103052 0)
(0.107597 0.0866603 0)
(0.106978 0.0698625 0)
(0.105389 0.0529172 0)
(0.10315 0.0357598 0)
(0.100099 0.0184519 0)
(0.0965862 0.00151875 0)
(0.0926681 -0.0151072 0)
(0.00552582 0.256207 0)
(0.015165 0.254273 0)
(0.0253915 0.249384 0)
(0.0346763 0.244376 0)
(0.0434196 0.237929 0)
(0.0515148 0.230062 0)
(0.0589567 0.220961 0)
(0.0656997 0.210777 0)
(0.0717743 0.199633 0)
(0.0770887 0.187663 0)
(0.0816116 0.174948 0)
(0.0853312 0.161576 0)
(0.0882037 0.147566 0)
(0.0902488 0.132997 0)
(0.091529 0.117957 0)
(0.0920008 0.102483 0)
(0.0917261 0.0866134 0)
(0.0907505 0.0705985 0)
(0.0892377 0.0544868 0)
(0.0870916 0.038218 0)
(0.0841938 0.021951 0)
(0.0806204 0.00537323 0)
(0.0764464 -0.0111558 0)
(0.00470078 0.246541 0)
(0.0129025 0.244216 0)
(0.0216675 0.239158 0)
(0.0298964 0.234375 0)
(0.0376073 0.228399 0)
(0.0447837 0.221203 0)
(0.0513606 0.212883 0)
(0.05729 0.20357 0)
(0.0625739 0.193374 0)
(0.0671672 0.182416 0)
(0.071058 0.170786 0)
(0.0742103 0.158471 0)
(0.0765946 0.145495 0)
(0.0781998 0.131917 0)
(0.0790413 0.117848 0)
(0.0790942 0.103283 0)
(0.0783929 0.0883331 0)
(0.0770043 0.0730445 0)
(0.0749067 0.0573778 0)
(0.0721804 0.0415467 0)
(0.069033 0.0256019 0)
(0.065505 0.00972068 0)
(0.0613111 -0.00610174 0)
(0.00394418 0.238536 0)
(0.0107513 0.236976 0)
(0.0171563 0.232945 0)
(0.0231051 0.228859 0)
(0.0286409 0.223435 0)
(0.0338765 0.21673 0)
(0.0385808 0.208811 0)
(0.042812 0.199852 0)
(0.0465096 0.190012 0)
(0.0497239 0.179371 0)
(0.0524492 0.168027 0)
(0.0546974 0.156054 0)
(0.0564666 0.143498 0)
(0.0577126 0.130434 0)
(0.0584755 0.116866 0)
(0.0587714 0.102878 0)
(0.0585331 0.0884725 0)
(0.0577705 0.0737196 0)
(0.0564556 0.0586959 0)
(0.0545962 0.0435314 0)
(0.0521386 0.0282127 0)
(0.0491304 0.0127173 0)
(0.045262 -0.00282271 0)
(0.00361393 0.23168 0)
(0.00886906 0.229992 0)
(0.0138457 0.225981 0)
(0.0185439 0.222032 0)
(0.022717 0.216892 0)
(0.0267457 0.210724 0)
(0.0303014 0.203441 0)
(0.0334849 0.195198 0)
(0.0362338 0.186073 0)
(0.0385901 0.176128 0)
(0.0405619 0.165485 0)
(0.0421639 0.154244 0)
(0.0433768 0.142416 0)
(0.0441587 0.129984 0)
(0.0445402 0.117047 0)
(0.0445061 0.10366 0)
(0.0440059 0.0899077 0)
(0.043055 0.0758772 0)
(0.041607 0.0615641 0)
(0.0396417 0.047028 0)
(0.0371167 0.0324014 0)
(0.0339445 0.0177472 0)
(0.0301673 0.0026711 0)
(0.00194997 0.22582 0)
(0.00384461 0.22691 0)
(0.00476736 0.223639 0)
(0.00621161 0.219762 0)
(0.0073237 0.214845 0)
(0.008538 0.208851 0)
(0.00948564 0.201828 0)
(0.0102641 0.193833 0)
(0.0108387 0.184937 0)
(0.011209 0.17521 0)
(0.0114106 0.164755 0)
(0.0114586 0.153671 0)
(0.011344 0.142007 0)
(0.011056 0.129771 0)
(0.0106165 0.117044 0)
(0.0100125 0.103895 0)
(0.00925651 0.0903727 0)
(0.00839878 0.0765484 0)
(0.00743221 0.0624749 0)
(0.00636225 0.0482024 0)
(0.0052725 0.033842 0)
(0.00421823 0.0194243 0)
(0.00343695 0.00474048 0)
)
;

boundaryField
{
    leftWall
    {
        type            fixedValue;
        value           uniform (0 0 0);
    }
    rightWall
    {
        type            fixedValue;
        value           nonuniform 0();
    }
    lowerWall
    {
        type            fixedValue;
        value           nonuniform 0();
    }
    atmosphere
    {
        type            fluxCorrectedVelocity;
        value           nonuniform List<vector> 
23
(
(0.00194997 0.225836 0)
(0.00384461 0.226926 0)
(0.00476736 0.223653 0)
(0.00621161 0.219775 0)
(0.0073237 0.21486 0)
(0.008538 0.208868 0)
(0.00948564 0.201847 0)
(0.0102641 0.193855 0)
(0.0108387 0.184961 0)
(0.011209 0.175235 0)
(0.0114106 0.164782 0)
(0.0114586 0.1537 0)
(0.011344 0.142036 0)
(0.011056 0.129802 0)
(0.0106165 0.117076 0)
(0.0100125 0.103928 0)
(0.00925651 0.0904065 0)
(0.00839878 0.0765825 0)
(0.00743221 0.0625088 0)
(0.00636225 0.0482344 0)
(0.0052725 0.0338691 0)
(0.00421823 0.0194406 0)
(0.00343695 0.00473264 0)
)
;
    }
    defaultFaces
    {
        type            empty;
    }
    procBoundary2to0
    {
        type            processor;
        value           nonuniform List<vector> 
24
(
(0.658724 0.431877 0)
(0.781429 0.339525 0)
(0.824076 0.225877 0)
(0.877142 0.0823908 0)
(0.885279 -0.142442 0)
(0.934964 -0.313488 0)
(0.919891 -0.516303 0)
(-0.682163 2.96478 0)
(0.466106 1.32554 0)
(-0.0609025 0.833455 0)
(0.205779 0.400107 0)
(0.134994 0.30042 0)
(0.15983 0.232794 0)
(0.173598 0.244935 0)
(0.198975 0.28232 0)
(0.250312 0.360396 0)
(0.317103 0.453388 0)
(0.345266 0.51119 0)
(0.368742 0.502773 0)
(0.386114 0.465612 0)
(0.430095 0.412756 0)
(0.48346 0.391345 0)
(0.586237 0.341939 0)
(0.586237 0.341939 0)
)
;
    }
    procBoundary2to3
    {
        type            processor;
        value           nonuniform List<vector> 
25
(
(0.709735 -0.544464 0)
(0.59972 -0.425318 0)
(0.545158 -0.35201 0)
(0.496808 -0.298859 0)
(0.448481 -0.243459 0)
(0.408558 -0.201556 0)
(0.373817 -0.169648 0)
(0.344455 -0.143295 0)
(0.317457 -0.123549 0)
(0.291059 -0.107269 0)
(0.266409 -0.0937832 0)
(0.242982 -0.082173 0)
(0.220688 -0.0722023 0)
(0.199489 -0.0634681 0)
(0.179262 -0.0557676 0)
(0.159923 -0.0488939 0)
(0.141356 -0.0427137 0)
(0.123519 -0.0371061 0)
(0.106273 -0.0319337 0)
(0.0894123 -0.0272067 0)
(0.0731923 -0.0230513 0)
(0.0578759 -0.017929 0)
(0.0421468 -0.0143953 0)
(0.0269116 -0.00843786 0)
(0.00283713 -0.00699719 0)
)
;
    }
}


// ************************************************************************* //
