/*--------------------------------*- C++ -*----------------------------------*\
| =========                 |                                                 |
| \\      /  F ield         | OpenFOAM: The Open Source CFD Toolbox           |
|  \\    /   O peration     | Version:  2.4.0                                 |
|   \\  /    A nd           | Web:      www.OpenFOAM.org                      |
|    \\/     M anipulation  |                                                 |
\*---------------------------------------------------------------------------*/
FoamFile
{
    version     2.0;
    format      ascii;
    class       volScalarField;
    location    "0.2";
    object      alpha.oil;
}
// * * * * * * * * * * * * * * * * * * * * * * * * * * * * * * * * * * * * * //

dimensions      [0 0 0 0 0 0 0];

internalField   nonuniform List<scalar> 
559
(
5.98281e-07
7.52884e-07
9.80182e-07
3.41139e-07
1.95834e-07
1.21092e-07
1.19259e-07
4.84046e-17
3.60064e-15
1.12565e-13
1.70619e-12
1.03384e-11
4.04709e-11
6.52942e-11
4.11078e-11
4.08241e-11
4.58915e-11
2.26894e-10
7.41744e-10
6.59002e-09
4.5257e-08
9.94768e-08
3.60763e-07
5.38703e-07
8.7282e-07
7.61657e-07
4.56674e-07
2.68862e-07
1.27781e-07
6.24411e-08
2.2847e-17
1.45474e-15
3.72897e-14
4.61022e-13
2.6242e-12
4.9697e-12
7.04849e-12
4.93373e-12
6.38257e-12
2.69079e-11
1.31598e-10
5.31124e-10
4.76614e-09
2.01497e-08
9.71283e-08
1.61831e-07
4.53642e-07
8.55995e-07
7.88963e-07
6.28892e-07
3.89771e-07
1.6713e-07
4.71866e-08
5.19267e-25
9.38945e-23
8.09109e-21
4.3052e-19
1.56213e-17
4.05948e-16
7.79202e-15
1.13275e-13
1.27695e-12
1.13172e-11
8.45086e-11
5.00634e-10
2.30403e-09
8.50531e-09
2.49546e-08
1.06546e-07
1.90064e-07
3.0531e-07
4.26716e-07
4.67847e-07
3.43423e-07
1.68724e-07
4.52574e-08
1.39957e-25
2.05117e-23
1.42003e-21
6.11948e-20
1.83576e-18
4.09357e-17
7.10587e-16
9.92853e-15
1.14031e-13
1.08445e-12
8.45175e-12
5.27889e-11
2.6051e-10
1.04762e-09
4.80802e-09
1.39435e-08
5.27478e-08
1.19795e-07
1.43886e-07
1.5115e-07
1.27343e-07
7.48771e-08
2.437e-08
5.8803e-27
7.02144e-25
3.96203e-23
1.40318e-21
3.48909e-20
6.45977e-19
9.21694e-18
1.03565e-16
9.3242e-16
6.89295e-15
4.46082e-14
2.95443e-13
2.32809e-12
1.95058e-11
1.36979e-10
7.85372e-10
2.57327e-09
1.20198e-08
1.94429e-08
2.94671e-08
2.57712e-08
1.62004e-08
5.4705e-09
9.23781e-28
1.10414e-25
6.23106e-24
2.20854e-22
5.51203e-21
1.0294e-19
1.4933e-18
1.72586e-17
1.61936e-16
1.25212e-15
8.11132e-15
4.58862e-14
2.54774e-13
1.65737e-12
1.2384e-11
8.16692e-11
4.10492e-10
1.18115e-09
3.76014e-09
4.58977e-09
4.15572e-09
1.73386e-09
2.52999e-10
6.02933e-29
7.95577e-27
4.97524e-25
1.96209e-23
5.47252e-22
1.14745e-20
1.87779e-19
2.45984e-18
2.62555e-17
2.31291e-16
1.69895e-15
1.05027e-14
5.51034e-14
2.47994e-13
9.68229e-13
3.25145e-12
8.43069e-12
3.36419e-11
1.53267e-10
2.60112e-10
2.95036e-10
2.61023e-10
1.2383e-10
2.77707e-30
4.09695e-28
2.86373e-26
1.26401e-24
3.95221e-23
9.30769e-22
1.71463e-20
2.53429e-19
3.05886e-18
3.05115e-17
2.53612e-16
1.76854e-15
1.04069e-14
5.19252e-14
2.20369e-13
7.93829e-13
2.39444e-12
5.72241e-12
1.18626e-11
2.25161e-11
3.01086e-11
2.81714e-11
1.5481e-11
1.9714e-32
3.12171e-30
2.35164e-28
1.1224e-26
3.80904e-25
9.77046e-24
1.96632e-22
3.18248e-21
4.21519e-20
4.6301e-19
4.26407e-18
3.32048e-17
2.19801e-16
1.23972e-15
5.96039e-15
2.44161e-14
8.4959e-14
2.49623e-13
6.12596e-13
1.22993e-12
1.94266e-12
2.24676e-12
1.62425e-12
8.67892e-35
1.49338e-32
1.22246e-30
6.35266e-29
2.35299e-27
6.60882e-26
1.46227e-24
2.61468e-23
3.847e-22
4.71892e-21
4.87358e-20
4.26944e-19
3.19092e-18
2.04336e-17
1.12358e-16
5.30345e-16
2.14296e-15
7.36591e-15
2.13005e-14
5.08685e-14
9.71727e-14
1.39858e-13
1.33048e-13
2.60172e-37
4.89929e-35
4.40116e-33
2.51599e-31
1.02797e-29
3.19437e-28
7.84455e-27
1.56206e-25
2.5688e-24
3.53662e-23
4.11895e-22
4.09002e-21
3.48212e-20
2.55128e-19
1.6122e-18
8.79097e-18
4.12856e-17
1.66189e-16
5.6813e-16
1.62268e-15
3.76284e-15
6.72568e-15
8.32487e-15
5.42462e-40
1.1309e-37
1.12557e-35
7.14259e-34
3.24687e-32
1.12553e-30
3.09264e-29
6.91346e-28
1.28091e-26
1.99424e-25
2.63639e-24
2.98319e-23
2.90681e-22
2.44957e-21
1.7898e-20
1.13459e-19
6.23085e-19
2.95143e-18
1.19578e-17
4.08375e-17
1.14655e-16
2.53134e-16
4.02898e-16
8.0673e-43
1.87588e-40
2.08603e-38
1.48183e-36
7.55699e-35
2.94622e-33
9.13025e-32
2.30909e-30
4.85652e-29
8.61416e-28
1.30233e-26
1.69189e-25
1.90025e-24
1.85321e-23
1.57358e-22
1.16443e-21
7.50054e-21
4.18966e-20
2.01429e-19
8.22806e-19
2.79406e-18
7.59715e-18
1.54352e-17
8.5021e-46
2.22967e-43
2.79969e-41
2.24959e-39
1.30029e-37
5.75877e-36
2.0324e-34
5.86969e-33
1.41384e-31
2.88074e-30
5.0186e-29
7.53711e-28
9.81898e-27
1.11457e-25
1.10549e-24
9.59161e-24
7.2738e-23
4.80573e-22
2.74836e-21
1.3454e-20
5.53412e-20
1.85443e-19
4.79693e-19
6.30534e-49
1.88604e-46
2.70473e-44
2.48611e-42
1.64673e-40
8.37388e-39
3.40052e-37
1.1326e-35
3.1538e-34
7.44709e-33
1.50741e-31
2.63736e-30
4.01353e-29
5.33701e-28
6.22004e-27
6.36252e-26
5.71015e-25
4.48494e-24
3.06641e-23
1.80804e-22
9.0533e-22
3.75451e-21
1.23797e-20
3.20937e-52
1.10976e-49
1.8415e-47
1.96106e-45
1.50697e-43
8.90361e-42
4.20776e-40
1.63384e-38
5.31379e-37
1.46844e-35
3.4859e-34
7.16865e-33
1.28537e-31
2.01916e-30
2.78805e-29
3.39e-28
3.63035e-27
3.41813e-26
2.81768e-25
2.01815e-24
1.24036e-23
6.41344e-23
2.70719e-22
1.06839e-55
4.33816e-53
8.45512e-51
1.05852e-48
9.57163e-47
6.66195e-45
3.71355e-43
1.7032e-41
6.55323e-40
2.14612e-38
6.04897e-37
1.48006e-35
3.16483e-34
5.94422e-33
9.84217e-32
1.43981e-30
1.86237e-29
2.12787e-28
2.14082e-27
1.88526e-26
1.43885e-25
9.37389e-25
5.1028e-24
2.13395e-59
1.0391e-56
2.42522e-54
3.63705e-52
3.94195e-50
3.29125e-48
2.2031e-46
1.21482e-44
5.62721e-43
2.22205e-41
7.56484e-40
2.24013e-38
5.81012e-37
1.32699e-35
2.67952e-34
4.79629e-33
7.62041e-32
1.0744e-30
1.34134e-29
1.47612e-28
1.42104e-27
1.18328e-26
8.40007e-26
2.21789e-63
1.33625e-60
3.83707e-58
7.07429e-56
9.42756e-54
9.68473e-52
7.98385e-50
5.42729e-48
3.10281e-46
1.51415e-44
6.37994e-43
2.34224e-41
7.54652e-40
2.14607e-38
5.41027e-37
1.2129e-35
2.42245e-34
4.31219e-33
6.8332e-32
9.60766e-31
1.19185e-29
1.29399e-28
1.21822e-27
9.44075e-68
7.38842e-65
2.71177e-62
6.36767e-60
1.08042e-57
1.41445e-55
1.48842e-53
1.2938e-51
9.47494e-50
5.93208e-48
3.21097e-46
1.51619e-44
6.29125e-43
2.30775e-41
7.51945e-40
2.18423e-38
5.66985e-37
1.31674e-35
2.73501e-34
5.07053e-33
8.35735e-32
1.21789e-30
1.56045e-29
1.08717e-72
1.19275e-69
5.85403e-67
1.81895e-64
4.078e-62
7.06869e-60
9.90223e-58
1.15673e-55
1.14886e-53
9.82723e-52
7.3053e-50
4.75055e-48
2.71635e-46
1.37171e-44
6.14238e-43
2.44892e-41
8.72663e-40
2.78664e-38
7.98098e-37
2.04881e-35
4.70448e-34
9.62991e-33
1.7511e-31
2.30806e-78
3.93388e-75
2.75185e-72
1.1968e-69
3.74474e-67
9.07633e-65
1.77339e-62
2.87076e-60
3.94351e-58
4.68973e-56
4.90613e-54
4.56927e-52
3.8183e-50
2.87518e-48
1.95364e-46
1.196e-44
6.57276e-43
3.23066e-41
1.41648e-39
5.53283e-38
1.92871e-36
6.01971e-35
1.68114e-33
7.73491e-84
1.83632e-80
1.68657e-77
9.33261e-75
3.64182e-72
1.08632e-69
2.61065e-67
5.23398e-65
8.97465e-63
1.34187e-60
1.77818e-58
2.1189e-56
2.30145e-54
2.30639e-52
2.15535e-50
1.89528e-48
1.57881e-46
1.24951e-44
9.36836e-43
6.58186e-41
4.23916e-39
2.43647e-37
1.23003e-35
2.46853e-88
6.4145e-85
6.18562e-82
3.62349e-79
1.51697e-76
4.91802e-74
1.29662e-71
2.87551e-69
5.50059e-67
9.25879e-65
1.39448e-62
1.90717e-60
2.40107e-58
2.81962e-56
3.12844e-54
3.32243e-52
3.42386e-50
3.47538e-48
3.53423e-46
3.67208e-44
3.98456e-42
4.61013e-40
5.71219e-38
)
;

boundaryField
{
    leftWall
    {
        type            zeroGradient;
    }
    rightWall
    {
        type            zeroGradient;
    }
    lowerWall
    {
        type            zeroGradient;
    }
    atmosphere
    {
        type            inletOutlet;
        inletValue      uniform 0;
        value           uniform 0;
    }
    defaultFaces
    {
        type            empty;
    }
    procBoundary2to0
    {
        type            processor;
        value           nonuniform List<scalar> 
24
(
5.29689e-07
6.16614e-07
1.07035e-06
6.39518e-07
3.2462e-07
3.37441e-07
1.31866e-07
2.1328e-16
1.2264e-14
3.81589e-13
7.43615e-12
8.71763e-11
5.64508e-10
1.30606e-09
1.40396e-09
7.72422e-10
2.51952e-10
3.99146e-10
2.04063e-09
9.80647e-09
5.1281e-08
1.7711e-07
2.33883e-07
2.33883e-07
)
;
    }
    procBoundary2to3
    {
        type            processor;
        value           nonuniform List<scalar> 
25
(
2.8724e-08
2.71244e-08
1.04528e-08
3.1985e-09
9.59964e-10
2.46617e-10
4.21619e-11
9.26362e-12
2.08012e-12
3.93422e-13
5.39873e-14
5.25273e-15
3.7345e-16
2.02311e-17
8.67471e-19
3.04125e-20
8.95516e-22
2.26555e-23
5.01833e-25
9.88784e-27
1.75496e-28
2.83005e-30
4.16969e-32
5.50924e-34
6.55922e-36
)
;
    }
}


// ************************************************************************* //
