/*--------------------------------*- C++ -*----------------------------------*\
| =========                 |                                                 |
| \\      /  F ield         | OpenFOAM: The Open Source CFD Toolbox           |
|  \\    /   O peration     | Version:  2.4.0                                 |
|   \\  /    A nd           | Web:      www.OpenFOAM.org                      |
|    \\/     M anipulation  |                                                 |
\*---------------------------------------------------------------------------*/
FoamFile
{
    version     2.0;
    format      ascii;
    class       volScalarField;
    location    "0.2";
    object      p;
}
// * * * * * * * * * * * * * * * * * * * * * * * * * * * * * * * * * * * * * //

dimensions      [1 -1 -2 0 0 0 0];

internalField   nonuniform List<scalar> 
559
(
3.14495
3.09383
3.04542
3.01006
2.97783
2.95959
2.9411
3.24648
3.24453
3.23897
3.23118
3.22095
3.20756
3.19092
3.17549
3.16228
3.14776
3.12506
3.09732
3.07338
3.05908
3.04853
3.0312
3.00003
2.96119
2.92926
2.90533
2.8845
2.86309
2.83905
3.093
3.0923
3.08933
3.08431
3.07692
3.06694
3.05478
3.042
3.02897
3.01401
2.99501
2.97279
2.95258
2.93614
2.92213
2.90679
2.88653
2.86176
2.83487
2.80486
2.77954
2.75702
2.7316
2.95059
2.9493
2.94633
2.94162
2.9351
2.9267
2.91661
2.90549
2.89351
2.87975
2.86373
2.84729
2.83209
2.8177
2.80376
2.78863
2.77113
2.75089
2.72598
2.69726
2.67047
2.64499
2.61898
2.80811
2.80681
2.80414
2.80001
2.79441
2.78734
2.77892
2.7694
2.75878
2.74681
2.7338
2.72071
2.70737
2.69382
2.67959
2.6644
2.64778
2.62876
2.60655
2.58188
2.55458
2.5307
2.50658
2.6666
2.66542
2.66305
2.65944
2.65456
2.64846
2.64121
2.63292
2.62357
2.61321
2.60214
2.59052
2.57833
2.56553
2.55187
2.53729
2.52106
2.50258
2.48283
2.46102
2.43819
2.41513
2.39169
2.52596
2.5249
2.52277
2.51957
2.5153
2.50997
2.50363
2.4963
2.48801
2.47885
2.46901
2.45849
2.44725
2.43538
2.42302
2.40979
2.39504
2.37831
2.35926
2.33911
2.31881
2.29792
2.27692
2.386
2.38505
2.38315
2.3803
2.3765
2.37178
2.36616
2.35967
2.35236
2.34431
2.33559
2.32616
2.31608
2.30525
2.2935
2.28055
2.26634
2.2511
2.2346
2.21678
2.19773
2.17819
2.15812
2.24663
2.24578
2.2441
2.24157
2.23822
2.23405
2.22907
2.22332
2.21682
2.20963
2.20175
2.19317
2.18384
2.17374
2.16286
2.15109
2.13819
2.12405
2.10875
2.09255
2.07568
2.05794
2.03959
2.10764
2.10689
2.10539
2.10315
2.10019
2.09649
2.09208
2.08698
2.0812
2.07475
2.06764
2.05985
2.05137
2.04217
2.03217
2.02126
2.00942
1.99664
1.98288
1.96815
1.95264
1.93647
1.91989
1.96904
1.96837
1.96704
1.96505
1.96241
1.95912
1.9552
1.95065
1.94548
1.93971
1.93332
1.92629
1.91859
1.91018
1.90101
1.89106
1.88026
1.86858
1.85607
1.84284
1.82894
1.81436
1.79931
1.83082
1.83023
1.82906
1.82731
1.82499
1.82209
1.81862
1.81459
1.80999
1.80483
1.79908
1.79273
1.78576
1.77814
1.76984
1.76081
1.75104
1.7405
1.72922
1.71726
1.70469
1.69156
1.67799
1.69285
1.69233
1.6913
1.68976
1.68772
1.68516
1.6821
1.67854
1.67446
1.66987
1.66475
1.65908
1.65283
1.64599
1.63851
1.63038
1.62158
1.61211
1.60199
1.59127
1.58001
1.56823
1.55605
1.55518
1.55473
1.55384
1.5525
1.55072
1.54849
1.54582
1.5427
1.53911
1.53506
1.53052
1.52548
1.51993
1.51382
1.50716
1.4999
1.49205
1.4836
1.47457
1.46501
1.45495
1.44444
1.43356
1.41772
1.41734
1.41657
1.41542
1.41388
1.41196
1.40965
1.40694
1.40382
1.40029
1.39632
1.39191
1.38702
1.38165
1.37576
1.36935
1.36241
1.35494
1.34695
1.33848
1.32957
1.32025
1.31059
1.28048
1.28015
1.27951
1.27853
1.27723
1.2756
1.27363
1.27132
1.26865
1.26561
1.2622
1.25838
1.25414
1.24947
1.24435
1.23876
1.2327
1.22617
1.21917
1.21174
1.20391
1.19572
1.18721
1.14341
1.14314
1.14261
1.1418
1.14072
1.13937
1.13773
1.1358
1.13356
1.13101
1.12812
1.12489
1.12129
1.11731
1.11292
1.10813
1.10292
1.09728
1.09124
1.0848
1.07801
1.07088
1.06346
1.0065
1.00628
1.00585
1.00521
1.00434
1.00325
1.00193
1.00037
0.998549
0.996465
0.994099
0.991436
0.988456
0.985143
0.981481
0.977455
0.973061
0.968296
0.963165
0.957682
0.951871
0.945757
0.939377
0.869703
0.869536
0.869214
0.868723
0.868064
0.867231
0.866214
0.865006
0.863595
0.861966
0.860106
0.857998
0.855623
0.852965
0.850004
0.84673
0.843132
0.839206
0.834956
0.830389
0.825523
0.82038
0.814991
0.733009
0.732888
0.732666
0.732323
0.731861
0.731273
0.730551
0.729687
0.72867
0.727486
0.72612
0.724555
0.722774
0.720757
0.718485
0.715942
0.713119
0.710009
0.706612
0.702929
0.698974
0.694763
0.690323
0.596381
0.596296
0.596169
0.595965
0.595693
0.595342
0.594905
0.594377
0.593746
0.592997
0.592115
0.591086
0.58989
0.588505
0.586908
0.585082
0.583013
0.580696
0.578128
0.575304
0.572229
0.568915
0.565391
0.459772
0.459703
0.459667
0.459601
0.459517
0.459402
0.459256
0.459066
0.458818
0.458494
0.458083
0.457577
0.456956
0.456191
0.45526
0.454135
0.452802
0.451261
0.449504
0.447516
0.445289
0.442845
0.440216
0.323247
0.323178
0.323231
0.323298
0.323398
0.323525
0.323665
0.323795
0.323905
0.323978
0.324004
0.323971
0.323856
0.323646
0.323337
0.322921
0.322373
0.321648
0.320715
0.319559
0.318149
0.31648
0.314615
0.186951
0.186945
0.187076
0.187258
0.187513
0.187827
0.188188
0.188594
0.189031
0.189489
0.189949
0.190378
0.190761
0.191099
0.191374
0.191574
0.191684
0.191688
0.191568
0.191307
0.190893
0.190269
0.189274
0.0505442
0.0505946
0.0508063
0.0510948
0.0515014
0.0520169
0.0526321
0.0533338
0.0541101
0.0549481
0.0558316
0.0567483
0.0576822
0.0586059
0.0594915
0.0603136
0.0610467
0.0616646
0.0621443
0.0624721
0.0626519
0.0627145
0.0627494
)
;

boundaryField
{
    leftWall
    {
        type            fixedFluxPressure;
        gradient        uniform 0;
        value           nonuniform List<scalar> 
24
(
3.24648
3.093
2.95059
2.80811
2.6666
2.52596
2.386
2.24663
2.10764
1.96904
1.83082
1.69285
1.55518
1.41772
1.28048
1.14341
1.0065
0.869703
0.733009
0.596381
0.459772
0.323247
0.186951
0.0505442
)
;
    }
    rightWall
    {
        type            fixedFluxPressure;
        gradient        nonuniform 0();
        value           nonuniform 0();
    }
    lowerWall
    {
        type            fixedFluxPressure;
        gradient        nonuniform 0();
        value           nonuniform 0();
    }
    atmosphere
    {
        type            totalPressure;
        U               U.air;
        phi             phi.air;
        rho             rho;
        psi             none;
        gamma           1;
        p0              uniform 0;
        value           nonuniform List<scalar> 
23
(
-0.0183078
-0.0186328
-0.0183543
-0.0179325
-0.0173596
-0.016647
-0.0158062
-0.0148491
-0.0137902
-0.0126457
-0.0114335
-0.0101732
-0.00888455
-0.00759039
-0.00631587
-0.00508745
-0.00393223
-0.00287733
-0.0019497
-0.00117651
-0.000584309
-0.000199936
0
)
;
    }
    defaultFaces
    {
        type            empty;
    }
    procBoundary2to0
    {
        type            processor;
        value           nonuniform List<scalar> 
24
(
2.98685
3.0072
3.03702
3.06886
3.11034
3.0774
3.04982
3.47586
3.46565
3.4543
3.43948
3.41986
3.39182
3.35476
3.3264
3.30718
3.28801
3.25272
3.21132
3.186
3.18665
3.18795
3.17435
3.17435
)
;
    }
    procBoundary2to3
    {
        type            processor;
        value           nonuniform List<scalar> 
25
(
2.9233
2.8179
2.71004
2.59966
2.48859
2.37537
2.2606
2.14367
2.02609
1.90751
1.78805
1.66781
1.54688
1.42536
1.3033
1.18078
1.05784
0.934525
0.810875
0.686914
0.562659
0.438128
0.313247
0.188385
0.0626207
)
;
    }
}


// ************************************************************************* //
