/*--------------------------------*- C++ -*----------------------------------*\
| =========                 |                                                 |
| \\      /  F ield         | OpenFOAM: The Open Source CFD Toolbox           |
|  \\    /   O peration     | Version:  2.4.0                                 |
|   \\  /    A nd           | Web:      www.OpenFOAM.org                      |
|    \\/     M anipulation  |                                                 |
\*---------------------------------------------------------------------------*/
FoamFile
{
    version     2.0;
    format      ascii;
    class       surfaceScalarField;
    location    "0.2";
    object      phi;
}
// * * * * * * * * * * * * * * * * * * * * * * * * * * * * * * * * * * * * * //

dimensions      [0 3 -1 0 0 0 0];

internalField   nonuniform List<scalar> 
1070
(
-8.34296e-05
-7.82844e-05
-9.77813e-05
-6.3172e-05
-0.000111599
-3.29363e-05
-0.000117416
-7.42338e-06
-0.000114296
3.3092e-06
-0.000108927
8.52575e-06
1.47378e-05
-1.31786e-06
-7.41872e-05
-2.87057e-06
-7.64187e-05
-4.85561e-06
-7.71136e-05
-7.37059e-06
-7.80883e-05
-1.05554e-05
-7.92822e-05
-1.45857e-05
-8.06173e-05
-1.96389e-05
-8.1861e-05
-2.5793e-05
-8.28291e-05
-3.26665e-05
-8.32103e-05
-3.97667e-05
-8.34398e-05
-4.86311e-05
-8.53513e-05
-5.81542e-05
-8.5184e-05
-6.58105e-05
-8.13309e-05
-7.10428e-05
-7.67571e-05
-7.7025e-05
-7.39526e-05
-8.67292e-05
-7.13694e-05
-9.95326e-05
-6.5481e-05
-0.000111454
-5.12502e-05
-0.000117209
-2.71818e-05
-0.000115291
-9.34162e-06
-0.000109327
-2.65417e-06
-0.000103006
2.20469e-06
9.26901e-06
-2.04371e-06
-7.21435e-05
-4.26332e-06
-7.41991e-05
-6.79411e-06
-7.45828e-05
-9.69327e-06
-7.51892e-05
-1.31364e-05
-7.5839e-05
-1.72673e-05
-7.64864e-05
-2.20913e-05
-7.7037e-05
-2.75843e-05
-7.73361e-05
-3.34536e-05
-7.7341e-05
-3.94522e-05
-7.74412e-05
-4.71177e-05
-7.76858e-05
-5.57612e-05
-7.65405e-05
-6.35763e-05
-7.35158e-05
-7.07042e-05
-6.96292e-05
-7.94097e-05
-6.52471e-05
-9.04901e-05
-6.0289e-05
-0.000102295
-5.36759e-05
-0.000109734
-4.38111e-05
-0.000108198
-2.87179e-05
-0.00010263
-1.49098e-05
-9.77268e-05
-7.55726e-06
-9.297e-05
-2.55208e-06
4.29894e-06
-2.36309e-06
-6.97804e-05
-4.87187e-06
-7.16903e-05
-7.62706e-06
-7.18276e-05
-1.06853e-05
-7.21309e-05
-1.41063e-05
-7.24181e-05
-1.79288e-05
-7.26639e-05
-2.21538e-05
-7.2812e-05
-2.67407e-05
-7.27492e-05
-3.16455e-05
-7.24363e-05
-3.70842e-05
-7.20024e-05
-4.36471e-05
-7.11229e-05
-5.08459e-05
-6.93417e-05
-5.76485e-05
-6.67132e-05
-6.42589e-05
-6.30188e-05
-7.10136e-05
-5.84925e-05
-7.84879e-05
-5.28147e-05
-8.61447e-05
-4.60191e-05
-9.18325e-05
-3.81233e-05
-9.18604e-05
-2.869e-05
-8.88802e-05
-1.789e-05
-8.63611e-05
-1.00763e-05
-8.35778e-05
-5.33539e-06
1.42354e-06
-2.71483e-06
-6.70656e-05
-5.51943e-06
-6.88857e-05
-8.45827e-06
-6.88888e-05
-1.16102e-05
-6.89789e-05
-1.49981e-05
-6.90302e-05
-1.86412e-05
-6.90208e-05
-2.25592e-05
-6.88939e-05
-2.67263e-05
-6.8582e-05
-3.10781e-05
-6.80845e-05
-3.57482e-05
-6.73322e-05
-4.098e-05
-6.58911e-05
-4.69015e-05
-6.34202e-05
-5.31178e-05
-6.04969e-05
-5.9131e-05
-5.70056e-05
-6.46305e-05
-5.29929e-05
-6.95284e-05
-4.79168e-05
-7.39911e-05
-4.15564e-05
-7.76578e-05
-3.44566e-05
-7.99104e-05
-2.64374e-05
-7.96426e-05
-1.81577e-05
-7.82369e-05
-1.1482e-05
-7.767e-05
-5.90227e-06
3.04583e-07
-2.74519e-06
-6.43204e-05
-5.59603e-06
-6.60348e-05
-8.52991e-06
-6.59549e-05
-1.15939e-05
-6.5915e-05
-1.48118e-05
-6.58123e-05
-1.82148e-05
-6.56177e-05
-2.18345e-05
-6.52743e-05
-2.569e-05
-6.47265e-05
-2.98533e-05
-6.39212e-05
-3.44582e-05
-6.27273e-05
-3.94858e-05
-6.08635e-05
-4.45972e-05
-5.83089e-05
-4.96424e-05
-5.54516e-05
-5.4601e-05
-5.20471e-05
-5.9712e-05
-4.78819e-05
-6.44134e-05
-4.32154e-05
-6.78392e-05
-3.81306e-05
-6.99881e-05
-3.23077e-05
-7.13393e-05
-2.50862e-05
-7.20363e-05
-1.74608e-05
-7.21044e-05
-1.14138e-05
-7.20728e-05
-5.93382e-06
3.79374e-08
-2.6714e-06
-6.16489e-05
-5.44558e-06
-6.32606e-05
-8.30124e-06
-6.30992e-05
-1.1289e-05
-6.29272e-05
-1.44507e-05
-6.26506e-05
-1.78273e-05
-6.22411e-05
-2.14454e-05
-6.16562e-05
-2.531e-05
-6.08619e-05
-2.94226e-05
-5.98085e-05
-3.37651e-05
-5.83848e-05
-3.81269e-05
-5.65016e-05
-4.22342e-05
-5.42016e-05
-4.62607e-05
-5.14251e-05
-5.01266e-05
-4.81812e-05
-5.36543e-05
-4.43542e-05
-5.71554e-05
-3.97142e-05
-6.08094e-05
-3.44767e-05
-6.43547e-05
-2.87623e-05
-6.65051e-05
-2.29358e-05
-6.66464e-05
-1.73195e-05
-6.62484e-05
-1.18118e-05
-6.61957e-05
-5.98652e-06
3.65145e-10
-2.63652e-06
-5.90124e-05
-5.36197e-06
-6.05352e-05
-8.14764e-06
-6.03135e-05
-1.1028e-05
-6.00469e-05
-1.40268e-05
-5.96517e-05
-1.71656e-05
-5.91023e-05
-2.04573e-05
-5.83645e-05
-2.39138e-05
-5.74054e-05
-2.75395e-05
-5.61828e-05
-3.12974e-05
-5.46269e-05
-3.51238e-05
-5.26753e-05
-3.90112e-05
-5.03142e-05
-4.2921e-05
-4.75153e-05
-4.68669e-05
-4.42353e-05
-5.07017e-05
-4.05194e-05
-5.39948e-05
-3.64211e-05
-5.64137e-05
-3.20577e-05
-5.78744e-05
-2.73017e-05
-5.88032e-05
-2.2007e-05
-5.96928e-05
-1.64298e-05
-6.05786e-05
-1.09259e-05
-6.08861e-05
-5.67896e-06
-5.54376e-07
-2.5739e-06
-5.64385e-05
-5.23364e-06
-5.78754e-05
-7.93772e-06
-5.76094e-05
-1.07132e-05
-5.72714e-05
-1.35735e-05
-5.67915e-05
-1.65266e-05
-5.61492e-05
-1.9574e-05
-5.53171e-05
-2.27201e-05
-5.42593e-05
-2.59787e-05
-5.29242e-05
-2.93433e-05
-5.12623e-05
-3.27548e-05
-4.92638e-05
-3.61321e-05
-4.69368e-05
-3.93799e-05
-4.42674e-05
-4.23948e-05
-4.12205e-05
-4.51716e-05
-3.77426e-05
-4.77193e-05
-3.38734e-05
-5.01675e-05
-2.96095e-05
-5.24816e-05
-2.49876e-05
-5.42898e-05
-2.01988e-05
-5.52681e-05
-1.54515e-05
-5.55059e-05
-1.06881e-05
-5.54189e-05
-5.76596e-06
-8.13937e-07
-2.45914e-06
-5.39794e-05
-4.98555e-06
-5.5349e-05
-7.54748e-06
-5.50475e-05
-1.01649e-05
-5.46539e-05
-1.28552e-05
-5.41012e-05
-1.56308e-05
-5.33735e-05
-1.84991e-05
-5.24488e-05
-2.14565e-05
-5.13018e-05
-2.4476e-05
-4.99047e-05
-2.75075e-05
-4.82309e-05
-3.05134e-05
-4.62579e-05
-3.34892e-05
-4.3961e-05
-3.64322e-05
-4.13244e-05
-3.92951e-05
-3.83575e-05
-4.19624e-05
-3.50754e-05
-4.43585e-05
-3.14772e-05
-4.63734e-05
-2.75946e-05
-4.79121e-05
-2.34489e-05
-4.902e-05
-1.90908e-05
-4.98867e-05
-1.45849e-05
-5.05129e-05
-1.00618e-05
-5.06868e-05
-5.59201e-06
-1.09891e-06
-2.33464e-06
-5.16447e-05
-4.7361e-06
-5.29475e-05
-7.16067e-06
-5.26229e-05
-9.62611e-06
-5.21885e-05
-1.21397e-05
-5.15876e-05
-1.47059e-05
-5.08073e-05
-1.7325e-05
-4.98298e-05
-1.99932e-05
-4.86336e-05
-2.27011e-05
-4.71968e-05
-2.54302e-05
-4.55018e-05
-2.81509e-05
-4.35371e-05
-3.08176e-05
-4.12944e-05
-3.33778e-05
-3.87642e-05
-3.57992e-05
-3.59361e-05
-3.80603e-05
-3.28143e-05
-4.01166e-05
-2.94209e-05
-4.19386e-05
-2.57726e-05
-4.34799e-05
-2.19076e-05
-4.46878e-05
-1.78829e-05
-4.55148e-05
-1.37578e-05
-4.59836e-05
-9.59299e-06
-4.61487e-05
-5.42684e-06
-1.23849e-06
-2.19974e-06
-4.9445e-05
-4.453e-06
-5.06943e-05
-6.72318e-06
-5.03528e-05
-9.02278e-06
-4.98889e-05
-1.13574e-05
-4.92529e-05
-1.37298e-05
-4.84349e-05
-1.61383e-05
-4.74213e-05
-1.85749e-05
-4.6197e-05
-2.10242e-05
-4.47474e-05
-2.34661e-05
-4.30599e-05
-2.58799e-05
-4.11233e-05
-2.82451e-05
-3.89291e-05
-3.0535e-05
-3.64743e-05
-3.27083e-05
-3.37628e-05
-3.47206e-05
-3.08021e-05
-3.6538e-05
-2.76034e-05
-3.81213e-05
-2.41893e-05
-3.94391e-05
-2.05897e-05
-4.04799e-05
-1.68421e-05
-4.12477e-05
-1.299e-05
-4.17436e-05
-9.09706e-06
-4.19612e-05
-5.20924e-06
-1.30599e-06
-2.04667e-06
-4.73983e-05
-4.14355e-06
-4.85974e-05
-6.2503e-06
-4.8246e-05
-8.37744e-06
-4.77617e-05
-1.0528e-05
-4.71023e-05
-1.27026e-05
-4.62603e-05
-1.48982e-05
-4.52257e-05
-1.71074e-05
-4.39877e-05
-1.93185e-05
-4.25364e-05
-2.15152e-05
-4.08631e-05
-2.36774e-05
-3.89611e-05
-2.57804e-05
-3.68261e-05
-2.77978e-05
-3.44569e-05
-2.97045e-05
-3.18561e-05
-3.14738e-05
-2.90328e-05
-3.30758e-05
-2.60014e-05
-3.44832e-05
-2.2782e-05
-3.56713e-05
-1.94016e-05
-3.66218e-05
-1.58916e-05
-3.73251e-05
-1.22867e-05
-3.77883e-05
-8.63383e-06
-3.80212e-05
-4.97638e-06
-1.31051e-06
-1.89099e-06
-4.55073e-05
-3.82436e-06
-4.6664e-05
-5.76333e-06
-4.6307e-05
-7.71574e-06
-4.58093e-05
-9.68265e-06
-4.51354e-05
-1.16631e-05
-4.42799e-05
-1.36531e-05
-4.32357e-05
-1.56453e-05
-4.19955e-05
-1.76291e-05
-4.05526e-05
-1.95912e-05
-3.89011e-05
-2.15152e-05
-3.7037e-05
-2.33826e-05
-3.49587e-05
-2.5172e-05
-3.26675e-05
-2.68594e-05
-3.01687e-05
-2.8421e-05
-2.74712e-05
-2.98339e-05
-2.45886e-05
-3.10766e-05
-2.15393e-05
-3.21314e-05
-1.83468e-05
-3.29853e-05
-1.50376e-05
-3.36317e-05
-1.16404e-05
-3.40725e-05
-8.19303e-06
-3.43134e-05
-4.73544e-06
-1.27336e-06
-1.7275e-06
-4.37798e-05
-3.49263e-06
-4.48989e-05
-5.25987e-06
-4.45398e-05
-7.03546e-06
-4.40337e-05
-8.81934e-06
-4.33515e-05
-1.06096e-05
-4.24896e-05
-1.24021e-05
-4.14432e-05
-1.419e-05
-4.02076e-05
-1.5964e-05
-3.87786e-05
-1.77121e-05
-3.71529e-05
-1.94203e-05
-3.53288e-05
-2.10723e-05
-3.33066e-05
-2.26506e-05
-3.10893e-05
-2.41366e-05
-2.86826e-05
-2.55116e-05
-2.60962e-05
-2.67571e-05
-2.33431e-05
-2.78561e-05
-2.04403e-05
-2.87945e-05
-1.74084e-05
-2.95616e-05
-1.42705e-05
-3.01509e-05
-1.1051e-05
-3.05635e-05
-7.78045e-06
-3.08044e-05
-4.49458e-06
-1.20665e-06
-1.56152e-06
-4.22183e-05
-3.15544e-06
-4.33049e-05
-4.74927e-06
-4.2946e-05
-6.34796e-06
-4.2435e-05
-7.95049e-06
-4.1749e-05
-9.55446e-06
-4.08856e-05
-1.11556e-05
-3.98421e-05
-1.27477e-05
-3.86155e-05
-1.43226e-05
-3.72038e-05
-1.587e-05
-3.56055e-05
-1.7378e-05
-3.38208e-05
-1.88332e-05
-3.18514e-05
-2.02211e-05
-2.97015e-05
-2.15262e-05
-2.73775e-05
-2.27333e-05
-2.48891e-05
-2.38277e-05
-2.22487e-05
-2.47962e-05
-1.94718e-05
-2.56277e-05
-1.65769e-05
-2.63138e-05
-1.35844e-05
-2.68489e-05
-1.05159e-05
-2.72328e-05
-7.3966e-06
-2.74692e-05
-4.25821e-06
-1.11878e-06
-1.39266e-06
-4.08256e-05
-2.81385e-06
-4.18837e-05
-4.23346e-06
-4.15263e-05
-5.65584e-06
-4.10126e-05
-7.07938e-06
-4.03254e-05
-8.50139e-06
-3.94636e-05
-9.91779e-06
-3.84257e-05
-1.13229e-05
-3.72105e-05
-1.27093e-05
-3.58173e-05
-1.40684e-05
-3.42464e-05
-1.539e-05
-3.24992e-05
-1.66628e-05
-3.05785e-05
-1.7875e-05
-2.84893e-05
-1.90141e-05
-2.62384e-05
-2.00679e-05
-2.38353e-05
-2.10247e-05
-2.12919e-05
-2.1874e-05
-1.86225e-05
-2.26072e-05
-1.58438e-05
-2.32174e-05
-1.29742e-05
-2.37003e-05
-1.00329e-05
-2.4055e-05
-7.04197e-06
-2.42842e-05
-4.02902e-06
-1.01525e-06
-1.2216e-06
-3.9604e-05
-2.46946e-06
-4.06359e-05
-3.71489e-06
-4.02809e-05
-4.9622e-06
-3.97653e-05
-6.20927e-06
-3.90783e-05
-7.45333e-06
-3.82195e-05
-8.69059e-06
-3.71884e-05
-9.91588e-06
-3.59852e-05
-1.11228e-05
-3.46104e-05
-1.23038e-05
-3.30654e-05
-1.34503e-05
-3.13526e-05
-1.45531e-05
-2.94758e-05
-1.56022e-05
-2.74401e-05
-1.65878e-05
-2.52528e-05
-1.75e-05
-2.29231e-05
-1.83297e-05
-2.04623e-05
-1.90686e-05
-1.78836e-05
-1.97099e-05
-1.52025e-05
-2.02486e-05
-1.24355e-05
-2.06812e-05
-9.60034e-06
-2.10068e-05
-6.71641e-06
-2.12275e-05
-3.80829e-06
-8.9897e-07
-1.04724e-06
-3.85568e-05
-2.12205e-06
-3.9561e-05
-3.19406e-06
-3.92089e-05
-4.2677e-06
-3.86917e-05
-5.34064e-06
-3.80054e-05
-6.41024e-06
-3.71499e-05
-7.47332e-06
-3.61253e-05
-8.52523e-06
-3.49333e-05
-9.56033e-06
-3.35753e-05
-1.05721e-05
-3.20536e-05
-1.15534e-05
-3.03714e-05
-1.24963e-05
-2.85329e-05
-1.33927e-05
-2.65437e-05
-1.42349e-05
-2.44107e-05
-1.5015e-05
-2.2143e-05
-1.57259e-05
-1.97513e-05
-1.63613e-05
-1.72482e-05
-1.6916e-05
-1.46478e-05
-1.73864e-05
-1.19652e-05
-1.77701e-05
-9.21659e-06
-1.80668e-05
-6.41971e-06
-1.82785e-05
-3.59665e-06
-7.71338e-07
-8.67989e-07
-3.76888e-05
-1.77136e-06
-3.86577e-05
-2.67117e-06
-3.83091e-05
-3.57205e-06
-3.77908e-05
-4.47184e-06
-3.71056e-05
-5.36841e-06
-3.62534e-05
-6.26025e-06
-3.52335e-05
-7.14323e-06
-3.40503e-05
-8.01255e-06
-3.2706e-05
-8.86273e-06
-3.12034e-05
-9.68747e-06
-2.95466e-05
-1.04799e-05
-2.77405e-05
-1.12332e-05
-2.57904e-05
-1.19409e-05
-2.3703e-05
-1.25972e-05
-2.14867e-05
-1.31968e-05
-1.91518e-05
-1.37347e-05
-1.67104e-05
-1.42069e-05
-1.41756e-05
-1.46112e-05
-1.15609e-05
-1.49468e-05
-8.88096e-06
-1.52145e-05
-6.15203e-06
-1.5417e-05
-3.39418e-06
-6.32561e-07
-6.8357e-07
-3.70052e-05
-1.42115e-06
-3.79201e-05
-2.15305e-06
-3.75772e-05
-2.88228e-06
-3.70616e-05
-3.60738e-06
-3.63805e-05
-4.32707e-06
-3.55337e-05
-5.04239e-06
-3.45181e-05
-5.75135e-06
-3.33413e-05
-6.45265e-06
-3.20047e-05
-7.14334e-06
-3.05128e-05
-7.81815e-06
-2.88718e-05
-8.47009e-06
-2.70885e-05
-9.09206e-06
-2.51684e-05
-9.67777e-06
-2.31173e-05
-1.02217e-05
-2.09428e-05
-1.07198e-05
-1.86538e-05
-1.1168e-05
-1.62622e-05
-1.15629e-05
-1.37808e-05
-1.19036e-05
-1.12202e-05
-1.21914e-05
-8.59318e-06
-1.24293e-05
-5.91417e-06
-1.26221e-05
-3.20136e-06
-4.81092e-07
-5.00917e-07
-3.65043e-05
-1.09522e-06
-3.73258e-05
-1.67651e-06
-3.69959e-05
-2.24474e-06
-3.64933e-05
-2.79912e-06
-3.58261e-05
-3.33341e-06
-3.49994e-05
-3.84162e-06
-3.40099e-05
-4.33774e-06
-3.28452e-05
-4.83073e-06
-3.15117e-05
-5.32665e-06
-3.00168e-05
-5.82887e-06
-2.83696e-05
-6.3361e-06
-2.65813e-05
-6.84282e-06
-2.46617e-05
-7.33892e-06
-2.26212e-05
-7.80868e-06
-2.0473e-05
-8.23556e-06
-1.82269e-05
-8.6141e-06
-1.58837e-05
-8.94721e-06
-1.34477e-05
-9.23537e-06
-1.0932e-05
-9.48011e-06
-8.34845e-06
-9.68914e-06
-5.70517e-06
-9.87485e-06
-3.01566e-06
-3.21958e-07
-3.60608e-07
-3.61437e-05
-8.62345e-07
-3.68241e-05
-1.34524e-06
-3.6513e-05
-1.80616e-06
-3.60324e-05
-2.24616e-06
-3.53861e-05
-2.6776e-06
-3.4568e-05
-3.09717e-06
-3.35904e-05
-3.48698e-06
-3.24554e-05
-3.83632e-06
-3.11624e-05
-4.14148e-06
-2.97117e-05
-4.40669e-06
-2.81044e-05
-4.64446e-06
-2.63436e-05
-4.86866e-06
-2.44375e-05
-5.09224e-06
-2.23977e-05
-5.33208e-06
-2.02332e-05
-5.60158e-06
-1.79574e-05
-5.89726e-06
-1.5588e-05
-6.20337e-06
-1.31416e-05
-6.49952e-06
-1.06359e-05
-6.75271e-06
-8.09526e-06
-6.94528e-06
-5.5126e-06
-7.11787e-06
-2.84307e-06
-8.7559e-08
-3.28823e-07
-3.58149e-05
-8.23779e-07
-3.63291e-05
-1.31461e-06
-3.60222e-05
-1.7879e-06
-3.55591e-05
-2.239e-06
-3.4935e-05
-2.6553e-06
-3.41517e-05
-3.03561e-06
-3.32101e-05
-3.37864e-06
-3.21123e-05
-3.68069e-06
-3.08603e-05
-3.93592e-06
-2.94565e-05
-4.13659e-06
-2.79037e-05
-4.27508e-06
-2.62051e-05
-4.34993e-06
-2.43627e-05
-4.36417e-06
-2.23834e-05
-4.32342e-06
-2.0274e-05
-4.239e-06
-1.80418e-05
-4.13148e-06
-1.56955e-05
-4.02926e-06
-1.32438e-05
-3.96846e-06
-1.06967e-05
-3.9964e-06
-8.06731e-06
-4.13678e-06
-5.37219e-06
-4.34509e-06
-2.63475e-06
9.26036e-08
-3.46126e-07
-8.97687e-07
-1.42528e-06
-1.92052e-06
-2.38395e-06
-2.81281e-06
-3.20256e-06
-3.54889e-06
-3.84691e-06
-4.09135e-06
-4.27666e-06
-4.39708e-06
-4.44682e-06
-4.42329e-06
-4.32516e-06
-4.15253e-06
-3.90759e-06
-3.59556e-06
-3.22681e-06
-2.821e-06
-2.41534e-06
-2.086e-06
)
;

boundaryField
{
    leftWall
    {
        type            calculated;
        value           uniform 0;
    }
    rightWall
    {
        type            calculated;
        value           nonuniform 0();
    }
    lowerWall
    {
        type            calculated;
        value           nonuniform 0();
    }
    atmosphere
    {
        type            calculated;
        value           nonuniform List<scalar> 
23
(
-3.54687e-05
-3.57775e-05
-3.54946e-05
-3.50639e-05
-3.44716e-05
-3.37228e-05
-3.28203e-05
-3.1766e-05
-3.05623e-05
-2.9212e-05
-2.77184e-05
-2.60846e-05
-2.43129e-05
-2.2407e-05
-2.03721e-05
-1.82145e-05
-1.59405e-05
-1.35559e-05
-1.10654e-05
-8.4731e-06
-5.77784e-06
-2.96407e-06
2.33237e-09
)
;
    }
    defaultFaces
    {
        type            empty;
        value           nonuniform 0();
    }
    procBoundary2to0
    {
        type            processor;
        value           nonuniform List<scalar> 
24
(
8.71967e-05
7.75235e-05
4.67545e-05
1.32401e-05
-6.42944e-06
-1.38952e-05
-2.0301e-05
7.55051e-05
7.79714e-05
7.90987e-05
8.06033e-05
8.2467e-05
8.46476e-05
8.69142e-05
8.89832e-05
9.00838e-05
9.054e-05
9.42157e-05
9.47071e-05
8.89872e-05
8.19894e-05
7.99348e-05
7.45173e-05
8.10736e-05
)
;
    }
    procBoundary2to3
    {
        type            processor;
        value           nonuniform List<scalar> 
25
(
-0.000103363
-9.75376e-05
-8.79999e-05
-8.07023e-05
-7.6551e-05
-7.18061e-05
-6.61581e-05
-6.03313e-05
-5.51593e-05
-5.04018e-05
-4.60091e-05
-4.18936e-05
-3.80166e-05
-3.43505e-05
-3.0871e-05
-2.7557e-05
-2.43876e-05
-2.13438e-05
-1.84061e-05
-1.55557e-05
-1.27736e-05
-1.0034e-05
-7.35227e-06
-4.5252e-06
-1.99572e-06
)
;
    }
}


// ************************************************************************* //
