/*--------------------------------*- C++ -*----------------------------------*\
| =========                 |                                                 |
| \\      /  F ield         | OpenFOAM: The Open Source CFD Toolbox           |
|  \\    /   O peration     | Version:  2.4.0                                 |
|   \\  /    A nd           | Web:      www.OpenFOAM.org                      |
|    \\/     M anipulation  |                                                 |
\*---------------------------------------------------------------------------*/
FoamFile
{
    version     2.0;
    format      ascii;
    class       surfaceScalarField;
    location    "0.2";
    object      phi.mercury;
}
// * * * * * * * * * * * * * * * * * * * * * * * * * * * * * * * * * * * * * //

dimensions      [0 3 -1 0 0 0 0];

internalField   nonuniform List<scalar> 
1070
(
-8.34285e-05
-7.82829e-05
-9.77797e-05
-6.31707e-05
-0.000111597
-3.29352e-05
-0.000117414
-7.42267e-06
-0.000114294
3.30964e-06
-0.000108925
8.52593e-06
1.47379e-05
-1.31823e-06
-7.41883e-05
-2.87119e-06
-7.64196e-05
-4.85623e-06
-7.71143e-05
-7.371e-06
-7.80888e-05
-1.05556e-05
-7.92824e-05
-1.45857e-05
-8.06175e-05
-1.96389e-05
-8.18613e-05
-2.57931e-05
-8.28294e-05
-3.26666e-05
-8.32105e-05
-3.9767e-05
-8.34398e-05
-4.86314e-05
-8.53512e-05
-5.81546e-05
-8.51836e-05
-6.58109e-05
-8.13302e-05
-7.10433e-05
-7.6756e-05
-7.70249e-05
-7.39511e-05
-8.67289e-05
-7.13678e-05
-9.95317e-05
-6.54793e-05
-0.000111453
-5.12487e-05
-0.000117207
-2.71805e-05
-0.000115289
-9.34064e-06
-0.000109326
-2.65348e-06
-0.000103005
2.20515e-06
9.26926e-06
-2.04393e-06
-7.21439e-05
-4.26365e-06
-7.41993e-05
-6.79445e-06
-7.45829e-05
-9.69352e-06
-7.51891e-05
-1.31365e-05
-7.58389e-05
-1.72673e-05
-7.64862e-05
-2.20913e-05
-7.70368e-05
-2.75843e-05
-7.73359e-05
-3.34536e-05
-7.73408e-05
-3.94522e-05
-7.74408e-05
-4.71177e-05
-7.76853e-05
-5.57613e-05
-7.65398e-05
-6.35764e-05
-7.35148e-05
-7.07042e-05
-6.96279e-05
-7.94096e-05
-6.52457e-05
-9.04896e-05
-6.02873e-05
-0.000102294
-5.36742e-05
-0.000109733
-4.38095e-05
-0.000108197
-2.87165e-05
-0.000102628
-1.49087e-05
-9.77251e-05
-7.55638e-06
-9.29684e-05
-2.55145e-06
4.29935e-06
-2.36323e-06
-6.97803e-05
-4.87209e-06
-7.16901e-05
-7.62729e-06
-7.18274e-05
-1.06855e-05
-7.21305e-05
-1.41064e-05
-7.24177e-05
-1.79288e-05
-7.26635e-05
-2.21537e-05
-7.28115e-05
-2.67406e-05
-7.27487e-05
-3.16454e-05
-7.24357e-05
-3.70841e-05
-7.20018e-05
-4.3647e-05
-7.11221e-05
-5.08458e-05
-6.93408e-05
-5.76483e-05
-6.67121e-05
-6.42587e-05
-6.30176e-05
-7.10132e-05
-5.8491e-05
-7.84874e-05
-5.28132e-05
-8.61441e-05
-4.60176e-05
-9.18316e-05
-3.81218e-05
-9.18593e-05
-2.86886e-05
-8.88789e-05
-1.78888e-05
-8.63597e-05
-1.00754e-05
-8.35763e-05
-5.33465e-06
1.42406e-06
-2.71491e-06
-6.70652e-05
-5.51956e-06
-6.88852e-05
-8.45842e-06
-6.88883e-05
-1.16103e-05
-6.89784e-05
-1.49982e-05
-6.90296e-05
-1.86412e-05
-6.90202e-05
-2.25591e-05
-6.88933e-05
-2.67262e-05
-6.85813e-05
-3.10779e-05
-6.80838e-05
-3.5748e-05
-6.73315e-05
-4.09797e-05
-6.58902e-05
-4.69012e-05
-6.34193e-05
-5.31174e-05
-6.04958e-05
-5.91306e-05
-5.70044e-05
-6.46301e-05
-5.29917e-05
-6.9528e-05
-4.79154e-05
-7.39906e-05
-4.1555e-05
-7.76572e-05
-3.44553e-05
-7.99096e-05
-2.64362e-05
-7.96416e-05
-1.81566e-05
-7.82358e-05
-1.14811e-05
-7.76688e-05
-5.9015e-06
3.05166e-07
-2.74524e-06
-6.43198e-05
-5.59611e-06
-6.60342e-05
-8.53001e-06
-6.59543e-05
-1.1594e-05
-6.59143e-05
-1.48119e-05
-6.58116e-05
-1.82148e-05
-6.5617e-05
-2.18344e-05
-6.52736e-05
-2.56898e-05
-6.47257e-05
-2.9853e-05
-6.39203e-05
-3.44579e-05
-6.27265e-05
-3.94854e-05
-6.08626e-05
-4.45967e-05
-5.83079e-05
-4.9642e-05
-5.54506e-05
-5.46005e-05
-5.2046e-05
-5.97115e-05
-4.78807e-05
-6.4413e-05
-4.32142e-05
-6.78388e-05
-3.81294e-05
-6.99877e-05
-3.23066e-05
-7.13388e-05
-2.50851e-05
-7.20356e-05
-1.74598e-05
-7.21036e-05
-1.14129e-05
-7.20719e-05
-5.93308e-06
3.85284e-08
-2.67143e-06
-6.16483e-05
-5.44563e-06
-6.32599e-05
-8.3013e-06
-6.30985e-05
-1.1289e-05
-6.29265e-05
-1.44507e-05
-6.26498e-05
-1.78273e-05
-6.22403e-05
-2.14453e-05
-6.16554e-05
-2.53098e-05
-6.0861e-05
-2.94223e-05
-5.98077e-05
-3.37647e-05
-5.83839e-05
-3.81265e-05
-5.65007e-05
-4.22337e-05
-5.42006e-05
-4.62601e-05
-5.14241e-05
-5.0126e-05
-4.81802e-05
-5.36537e-05
-4.43532e-05
-5.71549e-05
-3.97132e-05
-6.08089e-05
-3.44756e-05
-6.43543e-05
-2.87613e-05
-6.65047e-05
-2.29348e-05
-6.66459e-05
-1.73186e-05
-6.62478e-05
-1.1811e-05
-6.6195e-05
-5.98584e-06
9.3826e-10
-2.63655e-06
-5.90117e-05
-5.36201e-06
-6.05344e-05
-8.14768e-06
-6.03128e-05
-1.1028e-05
-6.00461e-05
-1.40268e-05
-5.96509e-05
-1.71656e-05
-5.91015e-05
-2.04572e-05
-5.83636e-05
-2.39136e-05
-5.74045e-05
-2.75392e-05
-5.61819e-05
-3.1297e-05
-5.4626e-05
-3.51233e-05
-5.26744e-05
-3.90107e-05
-5.03132e-05
-4.29204e-05
-4.75144e-05
-4.68664e-05
-4.42344e-05
-5.07011e-05
-4.05185e-05
-5.39943e-05
-3.64202e-05
-5.64133e-05
-3.20568e-05
-5.7874e-05
-2.73008e-05
-5.88028e-05
-2.20062e-05
-5.96924e-05
-1.6429e-05
-6.05781e-05
-1.09252e-05
-6.08856e-05
-5.67833e-06
-5.53844e-07
-2.57391e-06
-5.64377e-05
-5.23366e-06
-5.78746e-05
-7.93775e-06
-5.76087e-05
-1.07133e-05
-5.72706e-05
-1.35735e-05
-5.67906e-05
-1.65265e-05
-5.61483e-05
-1.95739e-05
-5.53162e-05
-2.27199e-05
-5.42584e-05
-2.59784e-05
-5.29233e-05
-2.93429e-05
-5.12614e-05
-3.27543e-05
-4.92629e-05
-3.61316e-05
-4.6936e-05
-3.93794e-05
-4.42666e-05
-4.23942e-05
-4.12196e-05
-4.5171e-05
-3.77418e-05
-4.77188e-05
-3.38726e-05
-5.01671e-05
-2.96087e-05
-5.24812e-05
-2.49868e-05
-5.42895e-05
-2.01981e-05
-5.52677e-05
-1.54508e-05
-5.55056e-05
-1.06874e-05
-5.54185e-05
-5.76541e-06
-8.13456e-07
-2.45915e-06
-5.39786e-05
-4.98557e-06
-5.53482e-05
-7.54749e-06
-5.50467e-05
-1.01649e-05
-5.46531e-05
-1.28552e-05
-5.41003e-05
-1.56308e-05
-5.33727e-05
-1.84989e-05
-5.2448e-05
-2.14563e-05
-5.13009e-05
-2.44757e-05
-4.99038e-05
-2.75071e-05
-4.823e-05
-3.05129e-05
-4.62571e-05
-3.34886e-05
-4.39602e-05
-3.64316e-05
-4.13236e-05
-3.92946e-05
-3.83568e-05
-4.19618e-05
-3.50747e-05
-4.4358e-05
-3.14765e-05
-4.6373e-05
-2.7594e-05
-4.79118e-05
-2.34482e-05
-4.90197e-05
-1.90902e-05
-4.98864e-05
-1.45843e-05
-5.05126e-05
-1.00613e-05
-5.06865e-05
-5.59152e-06
-1.09848e-06
-2.33464e-06
-5.1644e-05
-4.73611e-06
-5.29468e-05
-7.16067e-06
-5.26222e-05
-9.62609e-06
-5.21877e-05
-1.21397e-05
-5.15868e-05
-1.47058e-05
-5.08065e-05
-1.73248e-05
-4.98289e-05
-1.9993e-05
-4.86328e-05
-2.27008e-05
-4.71959e-05
-2.54298e-05
-4.5501e-05
-2.81505e-05
-4.35363e-05
-3.08171e-05
-4.12936e-05
-3.33773e-05
-3.87635e-05
-3.57987e-05
-3.59354e-05
-3.80598e-05
-3.28137e-05
-4.01161e-05
-2.94203e-05
-4.19382e-05
-2.5772e-05
-4.34795e-05
-2.1907e-05
-4.46874e-05
-1.78824e-05
-4.55145e-05
-1.37573e-05
-4.59833e-05
-9.59252e-06
-4.61484e-05
-5.42641e-06
-1.23811e-06
-2.19974e-06
-4.94442e-05
-4.453e-06
-5.06935e-05
-6.72317e-06
-5.0352e-05
-9.02275e-06
-4.98881e-05
-1.13574e-05
-4.92521e-05
-1.37297e-05
-4.84342e-05
-1.61381e-05
-4.74205e-05
-1.85747e-05
-4.61962e-05
-2.10239e-05
-4.47467e-05
-2.34657e-05
-4.30591e-05
-2.58795e-05
-4.11226e-05
-2.82447e-05
-3.89284e-05
-3.05345e-05
-3.64736e-05
-3.27078e-05
-3.37622e-05
-3.47201e-05
-3.08015e-05
-3.65376e-05
-2.76029e-05
-3.81209e-05
-2.41888e-05
-3.94388e-05
-2.05893e-05
-4.04796e-05
-1.68417e-05
-4.12474e-05
-1.29895e-05
-4.17434e-05
-9.09666e-06
-4.19609e-05
-5.20887e-06
-1.30565e-06
-2.04667e-06
-4.73976e-05
-4.14355e-06
-4.85966e-05
-6.25029e-06
-4.82453e-05
-8.3774e-06
-4.7761e-05
-1.0528e-05
-4.71015e-05
-1.27025e-05
-4.62596e-05
-1.4898e-05
-4.5225e-05
-1.71072e-05
-4.3987e-05
-1.93182e-05
-4.25357e-05
-2.15149e-05
-4.08624e-05
-2.36771e-05
-3.89604e-05
-2.578e-05
-3.68254e-05
-2.77974e-05
-3.44563e-05
-2.9704e-05
-3.18556e-05
-3.14734e-05
-2.90323e-05
-3.30754e-05
-2.60009e-05
-3.44828e-05
-2.27815e-05
-3.5671e-05
-1.94012e-05
-3.66216e-05
-1.58912e-05
-3.73248e-05
-1.22863e-05
-3.77881e-05
-8.63348e-06
-3.80209e-05
-4.97605e-06
-1.31021e-06
-1.89099e-06
-4.55066e-05
-3.82434e-06
-4.66633e-05
-5.76331e-06
-4.63063e-05
-7.7157e-06
-4.58086e-05
-9.68258e-06
-4.51347e-05
-1.1663e-05
-4.42792e-05
-1.36529e-05
-4.3235e-05
-1.56451e-05
-4.19948e-05
-1.76289e-05
-4.05519e-05
-1.95909e-05
-3.89004e-05
-2.15149e-05
-3.70364e-05
-2.33822e-05
-3.49581e-05
-2.51716e-05
-3.26669e-05
-2.6859e-05
-3.01682e-05
-2.84206e-05
-2.74707e-05
-2.98335e-05
-2.45881e-05
-3.10762e-05
-2.15389e-05
-3.21311e-05
-1.83464e-05
-3.29851e-05
-1.50372e-05
-3.36315e-05
-1.16401e-05
-3.40723e-05
-8.19272e-06
-3.43132e-05
-4.73516e-06
-1.27309e-06
-1.72749e-06
-4.37791e-05
-3.49262e-06
-4.48982e-05
-5.25984e-06
-4.45391e-05
-7.03542e-06
-4.4033e-05
-8.81927e-06
-4.33508e-05
-1.06095e-05
-4.24889e-05
-1.2402e-05
-4.14425e-05
-1.41898e-05
-4.0207e-05
-1.59637e-05
-3.8778e-05
-1.77118e-05
-3.71523e-05
-1.942e-05
-3.53282e-05
-2.1072e-05
-3.33061e-05
-2.26502e-05
-3.10887e-05
-2.41362e-05
-2.86821e-05
-2.55112e-05
-2.60958e-05
-2.67567e-05
-2.33427e-05
-2.78558e-05
-2.04399e-05
-2.87942e-05
-1.74081e-05
-2.95613e-05
-1.42702e-05
-3.01507e-05
-1.10507e-05
-3.05633e-05
-7.78018e-06
-3.08041e-05
-4.49432e-06
-1.20642e-06
-1.56151e-06
-4.22176e-05
-3.15543e-06
-4.33043e-05
-4.74924e-06
-4.29453e-05
-6.34791e-06
-4.24344e-05
-7.95042e-06
-4.17483e-05
-9.55437e-06
-4.0885e-05
-1.11555e-05
-3.98414e-05
-1.27476e-05
-3.86149e-05
-1.43224e-05
-3.72032e-05
-1.58697e-05
-3.56049e-05
-1.73777e-05
-3.38202e-05
-1.88329e-05
-3.18509e-05
-2.02207e-05
-2.97009e-05
-2.15258e-05
-2.73771e-05
-2.27329e-05
-2.48887e-05
-2.38274e-05
-2.22483e-05
-2.47959e-05
-1.94715e-05
-2.56275e-05
-1.65766e-05
-2.63136e-05
-1.35841e-05
-2.68487e-05
-1.05156e-05
-2.72326e-05
-7.39636e-06
-2.7469e-05
-4.25798e-06
-1.11857e-06
-1.39265e-06
-4.0825e-05
-2.81384e-06
-4.18831e-05
-4.23343e-06
-4.15257e-05
-5.6558e-06
-4.1012e-05
-7.07932e-06
-4.03248e-05
-8.50131e-06
-3.9463e-05
-9.91767e-06
-3.8425e-05
-1.13227e-05
-3.72098e-05
-1.27091e-05
-3.58167e-05
-1.40682e-05
-3.42459e-05
-1.53897e-05
-3.24986e-05
-1.66626e-05
-3.0578e-05
-1.78747e-05
-2.84888e-05
-1.90138e-05
-2.6238e-05
-2.00676e-05
-2.38349e-05
-2.10244e-05
-2.12915e-05
-2.18738e-05
-1.86222e-05
-2.26069e-05
-1.58435e-05
-2.32172e-05
-1.29739e-05
-2.37001e-05
-1.00327e-05
-2.40548e-05
-7.04174e-06
-2.4284e-05
-4.02881e-06
-1.01506e-06
-1.22159e-06
-3.96034e-05
-2.46945e-06
-4.06352e-05
-3.71486e-06
-4.02803e-05
-4.96215e-06
-3.97647e-05
-6.20921e-06
-3.90777e-05
-7.45325e-06
-3.82189e-05
-8.69049e-06
-3.71878e-05
-9.91574e-06
-3.59846e-05
-1.11226e-05
-3.46098e-05
-1.23036e-05
-3.30649e-05
-1.34501e-05
-3.13521e-05
-1.45528e-05
-2.94753e-05
-1.5602e-05
-2.74397e-05
-1.65875e-05
-2.52524e-05
-1.74998e-05
-2.29227e-05
-1.83294e-05
-2.04619e-05
-1.90684e-05
-1.78833e-05
-1.97097e-05
-1.52022e-05
-2.02484e-05
-1.24353e-05
-2.06811e-05
-9.60011e-06
-2.10066e-05
-6.7162e-06
-2.12274e-05
-3.8081e-06
-8.98795e-07
-1.04723e-06
-3.85562e-05
-2.12204e-06
-3.95604e-05
-3.19403e-06
-3.92083e-05
-4.26766e-06
-3.86911e-05
-5.34058e-06
-3.80048e-05
-6.41017e-06
-3.71494e-05
-7.47323e-06
-3.61247e-05
-8.52512e-06
-3.49327e-05
-9.56019e-06
-3.35748e-05
-1.0572e-05
-3.20531e-05
-1.15532e-05
-3.03709e-05
-1.24961e-05
-2.85324e-05
-1.33925e-05
-2.65432e-05
-1.42346e-05
-2.44103e-05
-1.50147e-05
-2.21427e-05
-1.57257e-05
-1.9751e-05
-1.63611e-05
-1.7248e-05
-1.69158e-05
-1.46475e-05
-1.73862e-05
-1.19649e-05
-1.777e-05
-9.21638e-06
-1.80667e-05
-6.41952e-06
-1.82783e-05
-3.59647e-06
-7.71184e-07
-8.67982e-07
-3.76882e-05
-1.77134e-06
-3.86571e-05
-2.67115e-06
-3.83085e-05
-3.57202e-06
-3.77902e-05
-4.47179e-06
-3.7105e-05
-5.36834e-06
-3.62528e-05
-6.26017e-06
-3.52329e-05
-7.14313e-06
-3.40497e-05
-8.01243e-06
-3.27055e-05
-8.86259e-06
-3.12029e-05
-9.68731e-06
-2.95462e-05
-1.04797e-05
-2.774e-05
-1.1233e-05
-2.579e-05
-1.19407e-05
-2.37026e-05
-1.25971e-05
-2.14863e-05
-1.31966e-05
-1.91515e-05
-1.37345e-05
-1.67101e-05
-1.42067e-05
-1.41754e-05
-1.4611e-05
-1.15607e-05
-1.49467e-05
-8.88075e-06
-1.52144e-05
-6.15185e-06
-1.54168e-05
-3.39403e-06
-6.32409e-07
-6.83565e-07
-3.70046e-05
-1.42113e-06
-3.79195e-05
-2.15303e-06
-3.75766e-05
-2.88225e-06
-3.7061e-05
-3.60735e-06
-3.63799e-05
-4.32702e-06
-3.55331e-05
-5.04233e-06
-3.45176e-05
-5.75127e-06
-3.33408e-05
-6.45256e-06
-3.20042e-05
-7.14322e-06
-3.05123e-05
-7.81802e-06
-2.88714e-05
-8.46995e-06
-2.70881e-05
-9.09191e-06
-2.5168e-05
-9.67762e-06
-2.31169e-05
-1.02216e-05
-2.09424e-05
-1.07196e-05
-1.86534e-05
-1.11679e-05
-1.62619e-05
-1.15627e-05
-1.37806e-05
-1.19035e-05
-1.122e-05
-1.21913e-05
-8.59298e-06
-1.24292e-05
-5.914e-06
-1.2622e-05
-3.20119e-06
-4.80956e-07
-5.00912e-07
-3.65037e-05
-1.09521e-06
-3.73252e-05
-1.67649e-06
-3.69953e-05
-2.24472e-06
-3.64928e-05
-2.79909e-06
-3.58256e-05
-3.33337e-06
-3.49988e-05
-3.84156e-06
-3.40094e-05
-4.33768e-06
-3.28447e-05
-4.83066e-06
-3.15112e-05
-5.32657e-06
-3.00163e-05
-5.82877e-06
-2.83692e-05
-6.33599e-06
-2.65809e-05
-6.84271e-06
-2.46613e-05
-7.3388e-06
-2.26208e-05
-7.80855e-06
-2.04727e-05
-8.23545e-06
-1.82266e-05
-8.61398e-06
-1.58834e-05
-8.94711e-06
-1.34475e-05
-9.23528e-06
-1.09318e-05
-9.48003e-06
-8.34825e-06
-9.68906e-06
-5.70499e-06
-9.87477e-06
-3.0155e-06
-3.21824e-07
-3.60605e-07
-3.61431e-05
-8.62337e-07
-3.68235e-05
-1.34523e-06
-3.65124e-05
-1.80614e-06
-3.60319e-05
-2.24614e-06
-3.53856e-05
-2.67757e-06
-3.45674e-05
-3.09713e-06
-3.35898e-05
-3.48694e-06
-3.24548e-05
-3.83626e-06
-3.11619e-05
-4.14142e-06
-2.97112e-05
-4.40662e-06
-2.8104e-05
-4.64438e-06
-2.63431e-05
-4.86858e-06
-2.44371e-05
-5.09215e-06
-2.23973e-05
-5.33199e-06
-2.02329e-05
-5.60149e-06
-1.79571e-05
-5.89718e-06
-1.55878e-05
-6.20329e-06
-1.31414e-05
-6.49946e-06
-1.06357e-05
-6.75265e-06
-8.09508e-06
-6.94522e-06
-5.51244e-06
-7.1178e-06
-2.84293e-06
-8.74266e-08
-3.2882e-07
-3.58143e-05
-8.23774e-07
-3.63285e-05
-1.3146e-06
-3.60216e-05
-1.78789e-06
-3.55586e-05
-2.23898e-06
-3.49345e-05
-2.65528e-06
-3.41511e-05
-3.03559e-06
-3.32095e-05
-3.37861e-06
-3.21118e-05
-3.68066e-06
-3.08598e-05
-3.93588e-06
-2.9456e-05
-4.13654e-06
-2.79033e-05
-4.27503e-06
-2.62046e-05
-4.34988e-06
-2.43623e-05
-4.36411e-06
-2.23831e-05
-4.32336e-06
-2.02736e-05
-4.23894e-06
-1.80415e-05
-4.13143e-06
-1.56953e-05
-4.02922e-06
-1.32436e-05
-3.96842e-06
-1.06965e-05
-3.99636e-06
-8.06715e-06
-4.13674e-06
-5.37206e-06
-4.34504e-06
-2.63463e-06
9.26878e-08
-3.46125e-07
-8.97685e-07
-1.42527e-06
-1.92051e-06
-2.38395e-06
-2.81281e-06
-3.20255e-06
-3.54888e-06
-3.8469e-06
-4.09133e-06
-4.27664e-06
-4.39706e-06
-4.4468e-06
-4.42327e-06
-4.32514e-06
-4.15251e-06
-3.90757e-06
-3.59554e-06
-3.22679e-06
-2.82099e-06
-2.41533e-06
-2.08599e-06
)
;

boundaryField
{
    leftWall
    {
        type            fixedValue;
        value           uniform 0;
    }
    rightWall
    {
        type            fixedValue;
        value           nonuniform 0();
    }
    lowerWall
    {
        type            fixedValue;
        value           nonuniform 0();
    }
    atmosphere
    {
        type            calculated;
        value           nonuniform List<scalar> 
23
(
-3.54682e-05
-3.5777e-05
-3.5494e-05
-3.50633e-05
-3.4471e-05
-3.37223e-05
-3.28198e-05
-3.17655e-05
-3.05618e-05
-2.92115e-05
-2.7718e-05
-2.60842e-05
-2.43125e-05
-2.24066e-05
-2.03718e-05
-1.82142e-05
-1.59402e-05
-1.35557e-05
-1.10652e-05
-8.47295e-06
-5.77772e-06
-2.96397e-06
2.39071e-09
)
;
    }
    defaultFaces
    {
        type            empty;
        value           nonuniform 0();
    }
    procBoundary2to0
    {
        type            processor;
        value           nonuniform List<scalar> 
24
(
8.71969e-05
7.75233e-05
4.67545e-05
1.32401e-05
-6.42938e-06
-1.38952e-05
-2.03009e-05
7.55077e-05
7.79739e-05
7.91009e-05
8.06053e-05
8.24689e-05
8.46495e-05
8.69161e-05
8.89851e-05
9.00856e-05
9.05416e-05
9.42169e-05
9.4708e-05
8.89875e-05
8.19893e-05
7.99345e-05
7.45174e-05
8.10727e-05
)
;
    }
    procBoundary2to3
    {
        type            processor;
        value           nonuniform List<scalar> 
25
(
-0.000103362
-9.7536e-05
-8.79984e-05
-8.0701e-05
-7.65499e-05
-7.18052e-05
-6.61574e-05
-6.03308e-05
-5.51589e-05
-5.04015e-05
-4.60088e-05
-4.18934e-05
-3.80164e-05
-3.43503e-05
-3.08708e-05
-2.75568e-05
-2.43875e-05
-2.13436e-05
-1.8406e-05
-1.55556e-05
-1.27735e-05
-1.00339e-05
-7.3522e-06
-4.52516e-06
-1.99569e-06
)
;
    }
}


// ************************************************************************* //
