/*--------------------------------*- C++ -*----------------------------------*\
| =========                 |                                                 |
| \\      /  F ield         | OpenFOAM: The Open Source CFD Toolbox           |
|  \\    /   O peration     | Version:  2.4.0                                 |
|   \\  /    A nd           | Web:      www.OpenFOAM.org                      |
|    \\/     M anipulation  |                                                 |
\*---------------------------------------------------------------------------*/
FoamFile
{
    version     2.0;
    format      ascii;
    class       volVectorField;
    location    "0.2";
    object      U.air;
}
// * * * * * * * * * * * * * * * * * * * * * * * * * * * * * * * * * * * * * //

dimensions      [0 1 -1 0 0 0 0];

internalField   nonuniform List<vector> 
559
(
(-0.413548 -0.472428 0)
(-0.490556 -0.402871 0)
(-0.574865 -0.226902 0)
(-0.621859 -0.0492242 0)
(-0.626877 0.0361586 0)
(-0.605195 0.0705524 0)
(-0.565733 0.0970126 0)
(-0.00340557 -0.437621 0)
(-0.0111249 -0.44865 0)
(-0.0201013 -0.450395 0)
(-0.0321613 -0.452981 0)
(-0.0470366 -0.457239 0)
(-0.0661826 -0.463174 0)
(-0.090366 -0.46941 0)
(-0.120892 -0.474318 0)
(-0.154875 -0.475059 0)
(-0.19004 -0.473229 0)
(-0.239011 -0.477088 0)
(-0.291328 -0.483559 0)
(-0.338636 -0.473842 0)
(-0.364126 -0.451968 0)
(-0.391576 -0.444118 0)
(-0.430765 -0.439087 0)
(-0.495146 -0.408896 0)
(-0.577862 -0.314534 0)
(-0.627823 -0.154111 0)
(-0.632674 -0.0401256 0)
(-0.607795 0.00434518 0)
(-0.568828 0.0284994 0)
(-0.53392 0.0681644 0)
(-0.00529111 -0.38676 0)
(-0.0167572 -0.399443 0)
(-0.0292225 -0.403553 0)
(-0.0435886 -0.40913 0)
(-0.0604432 -0.415207 0)
(-0.0805644 -0.421239 0)
(-0.104759 -0.426561 0)
(-0.132414 -0.43026 0)
(-0.161848 -0.431633 0)
(-0.193826 -0.433084 0)
(-0.232516 -0.438983 0)
(-0.279938 -0.43983 0)
(-0.321539 -0.421076 0)
(-0.356656 -0.397684 0)
(-0.397461 -0.375292 0)
(-0.45073 -0.351226 0)
(-0.517214 -0.313185 0)
(-0.57718 -0.246413 0)
(-0.597064 -0.139405 0)
(-0.572937 -0.0612163 0)
(-0.541033 -0.0326876 0)
(-0.509228 -0.00538481 0)
(-0.48109 0.0332449 0)
(-0.00611359 -0.382525 0)
(-0.0192585 -0.393555 0)
(-0.0332375 -0.39563 0)
(-0.0487269 -0.399132 0)
(-0.0660901 -0.402748 0)
(-0.0854812 -0.406022 0)
(-0.107095 -0.408554 0)
(-0.13051 -0.409891 0)
(-0.155093 -0.409762 0)
(-0.183168 -0.409411 0)
(-0.217984 -0.406606 0)
(-0.255095 -0.395226 0)
(-0.289833 -0.381178 0)
(-0.325584 -0.359934 0)
(-0.360718 -0.330744 0)
(-0.399 -0.297109 0)
(-0.438989 -0.259889 0)
(-0.478101 -0.220986 0)
(-0.504206 -0.171098 0)
(-0.492163 -0.098006 0)
(-0.472082 -0.0465437 0)
(-0.458424 -0.0235954 0)
(-0.438978 0.0109848 0)
(-0.00701611 -0.366426 0)
(-0.0220303 -0.376649 0)
(-0.037305 -0.376892 0)
(-0.0535858 -0.377686 0)
(-0.0711002 -0.378448 0)
(-0.0899827 -0.379014 0)
(-0.110227 -0.378918 0)
(-0.131694 -0.377558 0)
(-0.154544 -0.37485 0)
(-0.17975 -0.370716 0)
(-0.206896 -0.363924 0)
(-0.234714 -0.354565 0)
(-0.267184 -0.338158 0)
(-0.300202 -0.31648 0)
(-0.332115 -0.296298 0)
(-0.360186 -0.269808 0)
(-0.38269 -0.235961 0)
(-0.406324 -0.192636 0)
(-0.424956 -0.140852 0)
(-0.433608 -0.0963354 0)
(-0.43166 -0.0661397 0)
(-0.415599 -0.0354784 0)
(-0.414071 0.00516882 0)
(-0.00716838 -0.355734 0)
(-0.0223331 -0.365358 0)
(-0.0378244 -0.365322 0)
(-0.053892 -0.36574 0)
(-0.070734 -0.365908 0)
(-0.08849 -0.365585 0)
(-0.107297 -0.364499 0)
(-0.127236 -0.362366 0)
(-0.148916 -0.359025 0)
(-0.172872 -0.353757 0)
(-0.198533 -0.344378 0)
(-0.225414 -0.329453 0)
(-0.25208 -0.314006 0)
(-0.278602 -0.296819 0)
(-0.305801 -0.273673 0)
(-0.332777 -0.246672 0)
(-0.355791 -0.216327 0)
(-0.372673 -0.186593 0)
(-0.380387 -0.150398 0)
(-0.387334 -0.104232 0)
(-0.387804 -0.0587974 0)
(-0.38999 -0.0276125 0)
(-0.388415 -0.00213695 0)
(-0.00700015 -0.337783 0)
(-0.021753 -0.346624 0)
(-0.0368229 -0.345874 0)
(-0.0524764 -0.345079 0)
(-0.0689393 -0.343844 0)
(-0.0864727 -0.341994 0)
(-0.105217 -0.339291 0)
(-0.125371 -0.335445 0)
(-0.146998 -0.330059 0)
(-0.169859 -0.322792 0)
(-0.193139 -0.313638 0)
(-0.215436 -0.302652 0)
(-0.236954 -0.288112 0)
(-0.258837 -0.26937 0)
(-0.278297 -0.246942 0)
(-0.295978 -0.22184 0)
(-0.315295 -0.19315 0)
(-0.336227 -0.156241 0)
(-0.355945 -0.117086 0)
(-0.360467 -0.0867998 0)
(-0.356886 -0.0665803 0)
(-0.355725 -0.0369513 0)
(-0.357183 0.00261599 0)
(-0.00693824 -0.327264 0)
(-0.0214678 -0.335876 0)
(-0.0362137 -0.334988 0)
(-0.0514165 -0.334059 0)
(-0.0671953 -0.332495 0)
(-0.0836609 -0.330131 0)
(-0.100925 -0.326736 0)
(-0.119074 -0.322133 0)
(-0.138172 -0.316158 0)
(-0.157973 -0.308275 0)
(-0.178061 -0.297703 0)
(-0.198594 -0.284099 0)
(-0.219584 -0.267769 0)
(-0.24032 -0.249555 0)
(-0.261702 -0.229776 0)
(-0.281363 -0.206533 0)
(-0.297781 -0.182255 0)
(-0.308014 -0.158454 0)
(-0.31299 -0.132065 0)
(-0.317375 -0.0974013 0)
(-0.323144 -0.0599096 0)
(-0.328757 -0.0289867 0)
(-0.326682 -0.00268004 0)
(-0.00674171 -0.309503 0)
(-0.0209745 -0.317321 0)
(-0.0353205 -0.315895 0)
(-0.0500322 -0.31408 0)
(-0.0651619 -0.311531 0)
(-0.0807754 -0.308138 0)
(-0.0968986 -0.30377 0)
(-0.113544 -0.298232 0)
(-0.130703 -0.291251 0)
(-0.148378 -0.28262 0)
(-0.166513 -0.272339 0)
(-0.184774 -0.260515 0)
(-0.202597 -0.246853 0)
(-0.219584 -0.230214 0)
(-0.234872 -0.210155 0)
(-0.249101 -0.188413 0)
(-0.262345 -0.164065 0)
(-0.275677 -0.136588 0)
(-0.287593 -0.107966 0)
(-0.295015 -0.0827889 0)
(-0.297249 -0.0593983 0)
(-0.298187 -0.0326232 0)
(-0.298243 -0.0034338 0)
(-0.00649199 -0.2991 0)
(-0.0199906 -0.306792 0)
(-0.0336216 -0.305343 0)
(-0.0475145 -0.303503 0)
(-0.0617535 -0.300868 0)
(-0.0764196 -0.297326 0)
(-0.0915696 -0.292719 0)
(-0.107219 -0.286872 0)
(-0.123278 -0.279577 0)
(-0.139506 -0.270585 0)
(-0.155657 -0.25968 0)
(-0.171641 -0.246678 0)
(-0.187504 -0.231642 0)
(-0.203091 -0.215143 0)
(-0.218065 -0.197266 0)
(-0.231754 -0.177328 0)
(-0.243813 -0.155923 0)
(-0.253337 -0.133172 0)
(-0.260281 -0.108871 0)
(-0.265391 -0.08258 0)
(-0.269491 -0.0559556 0)
(-0.272369 -0.0306271 0)
(-0.272492 -0.0055868 0)
(-0.00613485 -0.284054 0)
(-0.0190011 -0.291183 0)
(-0.0319159 -0.289458 0)
(-0.0450414 -0.287165 0)
(-0.0584047 -0.283985 0)
(-0.0720398 -0.279848 0)
(-0.0859578 -0.274661 0)
(-0.100141 -0.268311 0)
(-0.114544 -0.260684 0)
(-0.129106 -0.25169 0)
(-0.143726 -0.241266 0)
(-0.158204 -0.229358 0)
(-0.172241 -0.215806 0)
(-0.185606 -0.200302 0)
(-0.19817 -0.182873 0)
(-0.209793 -0.163931 0)
(-0.220223 -0.143451 0)
(-0.229351 -0.121679 0)
(-0.23687 -0.0991188 0)
(-0.242263 -0.0764327 0)
(-0.245466 -0.0535666 0)
(-0.247606 -0.0302323 0)
(-0.248327 -0.0065173 0)
(-0.00580204 -0.273095 0)
(-0.0178743 -0.280023 0)
(-0.0299864 -0.27825 0)
(-0.0422485 -0.275864 0)
(-0.0546834 -0.272575 0)
(-0.067314 -0.268315 0)
(-0.080142 -0.26299 0)
(-0.0931391 -0.256496 0)
(-0.106242 -0.24872 0)
(-0.119356 -0.239564 0)
(-0.132372 -0.228953 0)
(-0.145185 -0.216835 0)
(-0.157682 -0.203235 0)
(-0.169679 -0.188258 0)
(-0.180934 -0.171926 0)
(-0.191237 -0.154209 0)
(-0.200396 -0.135257 0)
(-0.208216 -0.115206 0)
(-0.214596 -0.0942354 0)
(-0.219419 -0.0725669 0)
(-0.222661 -0.0507032 0)
(-0.224865 -0.028965 0)
(-0.225839 -0.0070785 0)
(-0.0053925 -0.261033 0)
(-0.0166341 -0.267617 0)
(-0.0278871 -0.265744 0)
(-0.0392474 -0.26318 0)
(-0.0507245 -0.259678 0)
(-0.0623286 -0.255195 0)
(-0.0740513 -0.24967 0)
(-0.0858638 -0.243037 0)
(-0.0977158 -0.235234 0)
(-0.109536 -0.226209 0)
(-0.121229 -0.215913 0)
(-0.132675 -0.204313 0)
(-0.143732 -0.191373 0)
(-0.154267 -0.177075 0)
(-0.164144 -0.161472 0)
(-0.17321 -0.144676 0)
(-0.181306 -0.126795 0)
(-0.188305 -0.107997 0)
(-0.194097 -0.0884764 0)
(-0.198528 -0.0684384 0)
(-0.201523 -0.0481213 0)
(-0.203563 -0.0277402 0)
(-0.204697 -0.00722713 0)
(-0.00498826 -0.250698 0)
(-0.0153573 -0.257061 0)
(-0.0257228 -0.255156 0)
(-0.0361628 -0.252516 0)
(-0.046677 -0.248931 0)
(-0.0572654 -0.244364 0)
(-0.0679142 -0.238768 0)
(-0.0785931 -0.232092 0)
(-0.089255 -0.224288 0)
(-0.0998368 -0.215315 0)
(-0.11026 -0.205145 0)
(-0.120432 -0.193764 0)
(-0.130247 -0.181181 0)
(-0.139584 -0.167431 0)
(-0.148312 -0.152558 0)
(-0.156308 -0.136627 0)
(-0.16345 -0.119743 0)
(-0.169639 -0.102035 0)
(-0.174801 -0.0836554 0)
(-0.178837 -0.0647719 0)
(-0.181656 -0.0456167 0)
(-0.183576 -0.0264082 0)
(-0.184774 -0.00710925 0)
(-0.00455789 -0.240829 0)
(-0.0140257 -0.246964 0)
(-0.0234798 -0.245035 0)
(-0.0329831 -0.242329 0)
(-0.0425305 -0.238674 0)
(-0.0521165 -0.234046 0)
(-0.0617246 -0.228413 0)
(-0.0713256 -0.221742 0)
(-0.080877 -0.214005 0)
(-0.0903227 -0.205177 0)
(-0.0995938 -0.195243 0)
(-0.108609 -0.184199 0)
(-0.117278 -0.172053 0)
(-0.125506 -0.158834 0)
(-0.133191 -0.144593 0)
(-0.140234 -0.129406 0)
(-0.14654 -0.113368 0)
(-0.152026 -0.0965979 0)
(-0.156634 -0.0792276 0)
(-0.160292 -0.0613961 0)
(-0.162912 -0.0432798 0)
(-0.164704 -0.025076 0)
(-0.165907 -0.00680574 0)
(-0.00412251 -0.231997 0)
(-0.012672 -0.237947 0)
(-0.0212025 -0.236013 0)
(-0.0297646 -0.233273 0)
(-0.03835 -0.229586 0)
(-0.0469489 -0.224937 0)
(-0.0555436 -0.219304 0)
(-0.0641063 -0.212667 0)
(-0.0725986 -0.205008 0)
(-0.0809718 -0.196316 0)
(-0.0891672 -0.186585 0)
(-0.0971173 -0.175823 0)
(-0.104747 -0.164049 0)
(-0.111977 -0.151297 0)
(-0.118725 -0.137619 0)
(-0.124911 -0.123083 0)
(-0.130459 -0.107776 0)
(-0.135305 -0.0918034 0)
(-0.139403 -0.0752806 0)
(-0.142701 -0.0583299 0)
(-0.145122 -0.0410978 0)
(-0.146794 -0.0237595 0)
(-0.147972 -0.00636985 0)
(-0.00367839 -0.22401 0)
(-0.0112982 -0.229796 0)
(-0.0188995 -0.227865 0)
(-0.0265199 -0.225103 0)
(-0.0341516 -0.221402 0)
(-0.0417818 -0.216752 0)
(-0.0493924 -0.211141 0)
(-0.0569576 -0.204559 0)
(-0.0644429 -0.196998 0)
(-0.0718056 -0.188454 0)
(-0.0789956 -0.178933 0)
(-0.0859561 -0.168447 0)
(-0.0926249 -0.157019 0)
(-0.0989373 -0.144688 0)
(-0.104827 -0.131502 0)
(-0.110231 -0.11753 0)
(-0.115088 -0.10285 0)
(-0.119348 -0.0875576 0)
(-0.122974 -0.0717567 0)
(-0.125929 -0.0555556 0)
(-0.128151 -0.0390785 0)
(-0.12971 -0.0224803 0)
(-0.130843 -0.00583986 0)
(-0.0032285 -0.216958 0)
(-0.00990877 -0.222597 0)
(-0.0165824 -0.220676 0)
(-0.0232642 -0.217902 0)
(-0.0299526 -0.214197 0)
(-0.0366315 -0.209558 0)
(-0.043284 -0.20398 0)
(-0.0498863 -0.197459 0)
(-0.0564076 -0.189996 0)
(-0.0628108 -0.181595 0)
(-0.0690534 -0.172267 0)
(-0.0750875 -0.162028 0)
(-0.0808622 -0.150907 0)
(-0.0863245 -0.138943 0)
(-0.0914217 -0.126184 0)
(-0.0961032 -0.112694 0)
(-0.100322 -0.098547 0)
(-0.104038 -0.083829 0)
(-0.107221 -0.0686344 0)
(-0.109848 -0.0530616 0)
(-0.111872 -0.0372198 0)
(-0.113324 -0.0212456 0)
(-0.114409 -0.00523487 0)
(-0.00276994 -0.210833 0)
(-0.00849771 -0.216332 0)
(-0.0142536 -0.214424 0)
(-0.0200007 -0.211638 0)
(-0.0257559 -0.207934 0)
(-0.0314992 -0.20331 0)
(-0.0372159 -0.197766 0)
(-0.0428858 -0.191307 0)
(-0.048481 -0.183939 0)
(-0.0539695 -0.175671 0)
(-0.0593146 -0.166517 0)
(-0.0644761 -0.1565 0)
(-0.0694117 -0.145648 0)
(-0.0740789 -0.134 0)
(-0.078436 -0.121605 0)
(-0.0824432 -0.108522 0)
(-0.0860645 -0.0948224 0)
(-0.0892688 -0.0805836 0)
(-0.0920338 -0.065892 0)
(-0.094344 -0.0508382 0)
(-0.0961698 -0.0355205 0)
(-0.0975205 -0.0200618 0)
(-0.0985616 -0.00456819 0)
(-0.00229526 -0.205644 0)
(-0.00705954 -0.210983 0)
(-0.0119142 -0.20909 0)
(-0.0167302 -0.206295 0)
(-0.0215567 -0.202596 0)
(-0.0263708 -0.19799 0)
(-0.0311628 -0.192481 0)
(-0.0359194 -0.186081 0)
(-0.0406164 -0.178799 0)
(-0.0452265 -0.170648 0)
(-0.0497183 -0.161647 0)
(-0.0540564 -0.151821 0)
(-0.0582041 -0.1412 0)
(-0.0621262 -0.12982 0)
(-0.0657902 -0.117727 0)
(-0.0691658 -0.104981 0)
(-0.0722253 -0.0916476 0)
(-0.0749449 -0.0778001 0)
(-0.0773089 -0.0635159 0)
(-0.07931 -0.0488788 0)
(-0.0809355 -0.033979 0)
(-0.0821882 -0.0189281 0)
(-0.0831932 -0.00384109 0)
(-0.00179481 -0.20142 0)
(-0.0056019 -0.206531 0)
(-0.00959683 -0.204664 0)
(-0.0134934 -0.201874 0)
(-0.0173874 -0.19819 0)
(-0.021263 -0.193613 0)
(-0.0251008 -0.188144 0)
(-0.0289119 -0.181795 0)
(-0.0326888 -0.174576 0)
(-0.0364192 -0.166506 0)
(-0.0400813 -0.157615 0)
(-0.0436416 -0.147933 0)
(-0.0470622 -0.137493 0)
(-0.0503067 -0.126329 0)
(-0.0533426 -0.114486 0)
(-0.0561435 -0.102018 0)
(-0.0586888 -0.0889878 0)
(-0.0609591 -0.0754609 0)
(-0.0629427 -0.0615013 0)
(-0.0646418 -0.0471857 0)
(-0.0660609 -0.0325992 0)
(-0.067214 -0.0178474 0)
(-0.0681971 -0.00305984 0)
(-0.00127078 -0.198396 0)
(-0.00420324 -0.203174 0)
(-0.00746689 -0.201354 0)
(-0.0105165 -0.198586 0)
(-0.013518 -0.194922 0)
(-0.01647 -0.190381 0)
(-0.019226 -0.184869 0)
(-0.0219028 -0.178467 0)
(-0.0245429 -0.171208 0)
(-0.0271824 -0.163122 0)
(-0.0298485 -0.154244 0)
(-0.0325505 -0.144609 0)
(-0.0352757 -0.134259 0)
(-0.0379796 -0.123242 0)
(-0.0405936 -0.111611 0)
(-0.0430238 -0.0994047 0)
(-0.04517 -0.086655 0)
(-0.0470864 -0.0734205 0)
(-0.0487661 -0.0597589 0)
(-0.0502065 -0.0457276 0)
(-0.0514273 -0.0313829 0)
(-0.0524868 -0.0167908 0)
(-0.0534494 -0.00210323 0)
(-0.000820814 -0.196329 0)
(-0.00316458 -0.200533 0)
(-0.0059758 -0.198786 0)
(-0.00846031 -0.19609 0)
(-0.010878 -0.192491 0)
(-0.0131577 -0.187988 0)
(-0.0154882 -0.182677 0)
(-0.0176763 -0.176444 0)
(-0.0196644 -0.169291 0)
(-0.0214193 -0.161245 0)
(-0.0229355 -0.152358 0)
(-0.0242576 -0.142702 0)
(-0.025481 -0.132328 0)
(-0.0266528 -0.121262 0)
(-0.0278612 -0.109564 0)
(-0.0292047 -0.097308 0)
(-0.0307488 -0.0845656 0)
(-0.0323872 -0.0714057 0)
(-0.0340442 -0.0579225 0)
(-0.0355811 -0.0441909 0)
(-0.0367847 -0.0302484 0)
(-0.0377271 -0.0160788 0)
(-0.0388569 -0.00158086 0)
(-0.000650452 -0.193087 0)
(-0.00295607 -0.195838 0)
(-0.00581012 -0.19422 0)
(-0.00832173 -0.191775 0)
(-0.010827 -0.188475 0)
(-0.0131634 -0.184301 0)
(-0.0152951 -0.17926 0)
(-0.017235 -0.1734 0)
(-0.0189686 -0.166726 0)
(-0.0204699 -0.159233 0)
(-0.0217061 -0.150903 0)
(-0.0226313 -0.14172 0)
(-0.0231915 -0.13172 0)
(-0.0234204 -0.120972 0)
(-0.0233359 -0.10951 0)
(-0.022976 -0.0973743 0)
(-0.0224291 -0.08462 0)
(-0.0218219 -0.0713004 0)
(-0.0213236 -0.0574643 0)
(-0.0211602 -0.0431707 0)
(-0.0216091 -0.0285272 0)
(-0.0226258 -0.0137473 0)
(-0.023983 0.000805477 0)
(-0.000661439 -0.191375 0)
(-0.00316395 -0.193054 0)
(-0.00632809 -0.191526 0)
(-0.00898666 -0.1892 0)
(-0.0115625 -0.186002 0)
(-0.0139571 -0.181959 0)
(-0.0161555 -0.177087 0)
(-0.0181326 -0.171396 0)
(-0.019864 -0.164898 0)
(-0.0213221 -0.15761 0)
(-0.0224779 -0.149548 0)
(-0.0233007 -0.140731 0)
(-0.0237591 -0.13117 0)
(-0.0238309 -0.120884 0)
(-0.0235041 -0.109904 0)
(-0.0227763 -0.0982601 0)
(-0.0216539 -0.0859882 0)
(-0.0201554 -0.0731192 0)
(-0.0183213 -0.0596785 0)
(-0.0162315 -0.0456881 0)
(-0.0140356 -0.0311435 0)
(-0.0120072 -0.0159638 0)
(-0.0106002 2.88423e-05 0)
)
;

boundaryField
{
    leftWall
    {
        type            fixedValue;
        value           uniform (0 0 0);
    }
    rightWall
    {
        type            fixedValue;
        value           nonuniform 0();
    }
    lowerWall
    {
        type            fixedValue;
        value           nonuniform 0();
    }
    atmosphere
    {
        type            fluxCorrectedVelocity;
        value           nonuniform List<vector> 
23
(
(-0.000661439 -0.191354 0)
(-0.00316395 -0.19302 0)
(-0.00632809 -0.191494 0)
(-0.00898666 -0.18917 0)
(-0.0115625 -0.185975 0)
(-0.0139571 -0.181935 0)
(-0.0161555 -0.177066 0)
(-0.0181326 -0.171378 0)
(-0.019864 -0.164884 0)
(-0.0213221 -0.157599 0)
(-0.0224779 -0.149541 0)
(-0.0233007 -0.140727 0)
(-0.0237591 -0.131168 0)
(-0.0238309 -0.120886 0)
(-0.0235041 -0.109908 0)
(-0.0227763 -0.0982672 0)
(-0.0216539 -0.0859989 0)
(-0.0201554 -0.073134 0)
(-0.0183213 -0.059698 0)
(-0.0162315 -0.0457124 0)
(-0.0140356 -0.0311715 0)
(-0.0120072 -0.0159912 0)
(-0.0106002 1.25832e-05 0)
)
;
    }
    defaultFaces
    {
        type            empty;
    }
    procBoundary2to0
    {
        type            processor;
        value           nonuniform List<vector> 
24
(
(-0.224571 -0.336429 0)
(-0.202794 -0.328156 0)
(-0.254011 -0.217551 0)
(-0.42328 -0.077658 0)
(-0.579561 0.0215932 0)
(-0.593449 0.0691007 0)
(-0.572127 0.119629 0)
(-0.00569315 -0.445013 0)
(-0.0166975 -0.459349 0)
(-0.0267125 -0.467956 0)
(-0.0395156 -0.478365 0)
(-0.0524752 -0.48966 0)
(-0.0676596 -0.50041 0)
(-0.08671 -0.510834 0)
(-0.113527 -0.520136 0)
(-0.14557 -0.52205 0)
(-0.168582 -0.518816 0)
(-0.211538 -0.533976 0)
(-0.278147 -0.523766 0)
(-0.336948 -0.485621 0)
(-0.356715 -0.445044 0)
(-0.365864 -0.445505 0)
(-0.379927 -0.468297 0)
(-0.379927 -0.468297 0)
)
;
    }
    procBoundary2to3
    {
        type            processor;
        value           nonuniform List<vector> 
25
(
(-0.545408 0.127519 0)
(-0.516259 0.0954537 0)
(-0.470258 0.0461797 0)
(-0.43334 0.0430215 0)
(-0.412016 0.0397905 0)
(-0.385143 0.0338768 0)
(-0.355387 0.0249725 0)
(-0.323294 0.0206047 0)
(-0.295651 0.0160133 0)
(-0.270099 0.0129528 0)
(-0.246656 0.010605 0)
(-0.224658 0.00898541 0)
(-0.203929 0.00785989 0)
(-0.184316 0.00712475 0)
(-0.165693 0.00668186 0)
(-0.14795 0.0064675 0)
(-0.130975 0.00643829 0)
(-0.114669 0.00656706 0)
(-0.0989281 0.00683905 0)
(-0.0836549 0.00725041 0)
(-0.0687475 0.00780698 0)
(-0.0540838 0.00856109 0)
(-0.0397038 0.00928556 0)
(-0.0246698 0.0111567 0)
(-0.0106412 0.0114063 0)
)
;
    }
}


// ************************************************************************* //
