/*--------------------------------*- C++ -*----------------------------------*\
| =========                 |                                                 |
| \\      /  F ield         | OpenFOAM: The Open Source CFD Toolbox           |
|  \\    /   O peration     | Version:  2.4.0                                 |
|   \\  /    A nd           | Web:      www.OpenFOAM.org                      |
|    \\/     M anipulation  |                                                 |
\*---------------------------------------------------------------------------*/
FoamFile
{
    version     2.0;
    format      ascii;
    class       volVectorField;
    location    "0.2";
    object      U.water;
}
// * * * * * * * * * * * * * * * * * * * * * * * * * * * * * * * * * * * * * //

dimensions      [0 1 -1 0 0 0 0];

internalField   nonuniform List<vector> 
559
(
(-0.413545 -0.472423 0)
(-0.490549 -0.402867 0)
(-0.574855 -0.226899 0)
(-0.621848 -0.0492219 0)
(-0.626866 0.0361596 0)
(-0.605184 0.070553 0)
(-0.565723 0.0970127 0)
(-0.00340645 -0.437648 0)
(-0.0111275 -0.448666 0)
(-0.0201046 -0.450406 0)
(-0.032164 -0.45299 0)
(-0.0470381 -0.457247 0)
(-0.0661829 -0.463182 0)
(-0.0903658 -0.469419 0)
(-0.120892 -0.474327 0)
(-0.154875 -0.475066 0)
(-0.190041 -0.473235 0)
(-0.239013 -0.477094 0)
(-0.291331 -0.483565 0)
(-0.338639 -0.473847 0)
(-0.364129 -0.451971 0)
(-0.391577 -0.444115 0)
(-0.430764 -0.439081 0)
(-0.495142 -0.408887 0)
(-0.577856 -0.314527 0)
(-0.627815 -0.154105 0)
(-0.632665 -0.0401212 0)
(-0.607786 0.00434818 0)
(-0.568818 0.0285011 0)
(-0.533912 0.0681653 0)
(-0.00529168 -0.386764 0)
(-0.0167586 -0.399446 0)
(-0.0292243 -0.403554 0)
(-0.0435901 -0.409131 0)
(-0.0604441 -0.415207 0)
(-0.0805647 -0.421239 0)
(-0.104759 -0.426562 0)
(-0.132414 -0.43026 0)
(-0.161848 -0.431633 0)
(-0.193827 -0.433083 0)
(-0.232516 -0.438981 0)
(-0.279938 -0.439828 0)
(-0.321539 -0.421071 0)
(-0.356656 -0.397679 0)
(-0.397461 -0.375284 0)
(-0.450728 -0.351217 0)
(-0.517211 -0.313176 0)
(-0.577175 -0.246405 0)
(-0.597058 -0.139398 0)
(-0.57293 -0.0612107 0)
(-0.541025 -0.0326834 0)
(-0.50922 -0.00538188 0)
(-0.481082 0.0332467 0)
(-0.00611396 -0.382525 0)
(-0.0192595 -0.393555 0)
(-0.0332387 -0.395629 0)
(-0.048728 -0.399131 0)
(-0.0660909 -0.402746 0)
(-0.0854816 -0.40602 0)
(-0.107095 -0.408552 0)
(-0.13051 -0.409889 0)
(-0.155092 -0.40976 0)
(-0.183168 -0.409408 0)
(-0.217984 -0.406603 0)
(-0.255094 -0.395221 0)
(-0.289832 -0.381173 0)
(-0.325583 -0.359927 0)
(-0.360717 -0.330736 0)
(-0.398998 -0.297101 0)
(-0.438986 -0.259881 0)
(-0.478097 -0.220977 0)
(-0.504201 -0.171091 0)
(-0.492157 -0.0979999 0)
(-0.472076 -0.0465388 0)
(-0.458417 -0.0235917 0)
(-0.438972 0.0109873 0)
(-0.0070163 -0.366424 0)
(-0.0220308 -0.376647 0)
(-0.0373057 -0.37689 0)
(-0.0535865 -0.377683 0)
(-0.0711007 -0.378445 0)
(-0.0899829 -0.379011 0)
(-0.110227 -0.378915 0)
(-0.131693 -0.377554 0)
(-0.154543 -0.374847 0)
(-0.179749 -0.370712 0)
(-0.206895 -0.363919 0)
(-0.234712 -0.35456 0)
(-0.267182 -0.338153 0)
(-0.3002 -0.316473 0)
(-0.332113 -0.296291 0)
(-0.360183 -0.2698 0)
(-0.382688 -0.235953 0)
(-0.406321 -0.192629 0)
(-0.424951 -0.140844 0)
(-0.433604 -0.0963292 0)
(-0.431655 -0.0661345 0)
(-0.415594 -0.0354743 0)
(-0.414065 0.0051718 0)
(-0.0071685 -0.355731 0)
(-0.0223334 -0.365355 0)
(-0.0378249 -0.365319 0)
(-0.0538924 -0.365736 0)
(-0.0707344 -0.365904 0)
(-0.0884901 -0.365581 0)
(-0.107297 -0.364495 0)
(-0.127236 -0.362362 0)
(-0.148915 -0.359021 0)
(-0.17287 -0.353753 0)
(-0.198531 -0.344373 0)
(-0.225412 -0.329448 0)
(-0.252078 -0.314 0)
(-0.2786 -0.296813 0)
(-0.305798 -0.273666 0)
(-0.332774 -0.246665 0)
(-0.355788 -0.21632 0)
(-0.37267 -0.186586 0)
(-0.380383 -0.150392 0)
(-0.38733 -0.104226 0)
(-0.387799 -0.0587925 0)
(-0.389986 -0.0276084 0)
(-0.38841 -0.00213378 0)
(-0.00700023 -0.33778 0)
(-0.0217532 -0.34662 0)
(-0.0368232 -0.34587 0)
(-0.0524767 -0.345075 0)
(-0.0689395 -0.34384 0)
(-0.0864727 -0.34199 0)
(-0.105216 -0.339287 0)
(-0.12537 -0.33544 0)
(-0.146996 -0.330054 0)
(-0.169857 -0.322787 0)
(-0.193137 -0.313633 0)
(-0.215433 -0.302647 0)
(-0.236951 -0.288106 0)
(-0.258834 -0.269364 0)
(-0.278294 -0.246936 0)
(-0.295975 -0.221834 0)
(-0.315292 -0.193144 0)
(-0.336224 -0.156234 0)
(-0.355942 -0.11708 0)
(-0.360464 -0.0867945 0)
(-0.356883 -0.0665757 0)
(-0.355721 -0.0369474 0)
(-0.357179 0.00261912 0)
(-0.0069383 -0.32726 0)
(-0.021468 -0.335871 0)
(-0.0362138 -0.334983 0)
(-0.0514167 -0.334055 0)
(-0.0671953 -0.332491 0)
(-0.0836607 -0.330127 0)
(-0.100924 -0.326731 0)
(-0.119073 -0.322129 0)
(-0.13817 -0.316154 0)
(-0.157971 -0.30827 0)
(-0.178059 -0.297698 0)
(-0.198592 -0.284094 0)
(-0.219581 -0.267764 0)
(-0.240317 -0.24955 0)
(-0.261699 -0.229771 0)
(-0.28136 -0.206528 0)
(-0.297778 -0.182249 0)
(-0.308011 -0.158448 0)
(-0.312987 -0.13206 0)
(-0.317372 -0.0973966 0)
(-0.323141 -0.0599054 0)
(-0.328754 -0.0289831 0)
(-0.326679 -0.00267706 0)
(-0.00674174 -0.309499 0)
(-0.0209746 -0.317317 0)
(-0.0353206 -0.31589 0)
(-0.0500323 -0.314075 0)
(-0.0651619 -0.311527 0)
(-0.0807751 -0.308133 0)
(-0.096898 -0.303765 0)
(-0.113543 -0.298228 0)
(-0.130701 -0.291246 0)
(-0.148376 -0.282615 0)
(-0.16651 -0.272334 0)
(-0.184771 -0.26051 0)
(-0.202594 -0.246848 0)
(-0.219581 -0.230209 0)
(-0.234869 -0.210151 0)
(-0.249098 -0.188408 0)
(-0.262342 -0.16406 0)
(-0.275675 -0.136583 0)
(-0.287591 -0.107962 0)
(-0.295012 -0.0827848 0)
(-0.297246 -0.0593947 0)
(-0.298185 -0.03262 0)
(-0.29824 -0.00343106 0)
(-0.00649202 -0.299096 0)
(-0.0199906 -0.306788 0)
(-0.0336217 -0.305338 0)
(-0.0475145 -0.303499 0)
(-0.0617533 -0.300863 0)
(-0.0764192 -0.297322 0)
(-0.091569 -0.292714 0)
(-0.107218 -0.286868 0)
(-0.123276 -0.279573 0)
(-0.139504 -0.270581 0)
(-0.155655 -0.259675 0)
(-0.171638 -0.246674 0)
(-0.187501 -0.231638 0)
(-0.203087 -0.215139 0)
(-0.218062 -0.197262 0)
(-0.231751 -0.177324 0)
(-0.24381 -0.155919 0)
(-0.253335 -0.133168 0)
(-0.260279 -0.108867 0)
(-0.265389 -0.0825765 0)
(-0.269489 -0.0559524 0)
(-0.272367 -0.0306242 0)
(-0.27249 -0.00558433 0)
(-0.00613486 -0.284049 0)
(-0.0190011 -0.291179 0)
(-0.0319158 -0.289454 0)
(-0.0450413 -0.287161 0)
(-0.0584044 -0.28398 0)
(-0.0720393 -0.279843 0)
(-0.0859571 -0.274657 0)
(-0.10014 -0.268306 0)
(-0.114543 -0.26068 0)
(-0.129105 -0.251686 0)
(-0.143724 -0.241262 0)
(-0.158202 -0.229354 0)
(-0.172238 -0.215802 0)
(-0.185603 -0.200298 0)
(-0.198167 -0.182869 0)
(-0.20979 -0.163927 0)
(-0.22022 -0.143447 0)
(-0.229349 -0.121675 0)
(-0.236868 -0.0991156 0)
(-0.242261 -0.0764297 0)
(-0.245464 -0.0535638 0)
(-0.247605 -0.0302297 0)
(-0.248325 -0.0065151 0)
(-0.00580205 -0.273091 0)
(-0.0178743 -0.280018 0)
(-0.0299863 -0.278246 0)
(-0.0422484 -0.27586 0)
(-0.0546831 -0.272571 0)
(-0.0673135 -0.268311 0)
(-0.0801412 -0.262986 0)
(-0.093138 -0.256491 0)
(-0.10624 -0.248716 0)
(-0.119354 -0.23956 0)
(-0.13237 -0.228949 0)
(-0.145183 -0.216831 0)
(-0.157679 -0.203231 0)
(-0.169676 -0.188254 0)
(-0.180931 -0.171923 0)
(-0.191234 -0.154206 0)
(-0.200394 -0.135254 0)
(-0.208214 -0.115204 0)
(-0.214594 -0.0942327 0)
(-0.219418 -0.0725643 0)
(-0.222659 -0.0507008 0)
(-0.224863 -0.0289628 0)
(-0.225837 -0.00707654 0)
(-0.00539249 -0.261029 0)
(-0.0166341 -0.267613 0)
(-0.027887 -0.26574 0)
(-0.0392473 -0.263176 0)
(-0.0507242 -0.259674 0)
(-0.0623281 -0.255191 0)
(-0.0740506 -0.249666 0)
(-0.0858628 -0.243033 0)
(-0.0977145 -0.23523 0)
(-0.109534 -0.226205 0)
(-0.121227 -0.215909 0)
(-0.132673 -0.204309 0)
(-0.14373 -0.19137 0)
(-0.154264 -0.177072 0)
(-0.164142 -0.161469 0)
(-0.173207 -0.144673 0)
(-0.181304 -0.126792 0)
(-0.188303 -0.107995 0)
(-0.194095 -0.088474 0)
(-0.198527 -0.0684362 0)
(-0.201522 -0.0481192 0)
(-0.203562 -0.0277383 0)
(-0.204696 -0.0072254 0)
(-0.00498825 -0.250694 0)
(-0.0153572 -0.257057 0)
(-0.0257227 -0.255152 0)
(-0.0361626 -0.252512 0)
(-0.0466767 -0.248927 0)
(-0.0572649 -0.24436 0)
(-0.0679135 -0.238764 0)
(-0.0785921 -0.232088 0)
(-0.0892538 -0.224284 0)
(-0.0998353 -0.215311 0)
(-0.110258 -0.205141 0)
(-0.12043 -0.19376 0)
(-0.130245 -0.181178 0)
(-0.139581 -0.167428 0)
(-0.14831 -0.152556 0)
(-0.156306 -0.136625 0)
(-0.163448 -0.119741 0)
(-0.169637 -0.102033 0)
(-0.174799 -0.0836533 0)
(-0.178836 -0.06477 0)
(-0.181655 -0.0456149 0)
(-0.183575 -0.0264066 0)
(-0.184773 -0.00710773 0)
(-0.00455788 -0.240826 0)
(-0.0140256 -0.246961 0)
(-0.0234797 -0.245031 0)
(-0.0329829 -0.242325 0)
(-0.0425302 -0.23867 0)
(-0.052116 -0.234042 0)
(-0.0617239 -0.228409 0)
(-0.0713247 -0.221738 0)
(-0.0808759 -0.214001 0)
(-0.0903214 -0.205174 0)
(-0.0995922 -0.19524 0)
(-0.108607 -0.184196 0)
(-0.117277 -0.17205 0)
(-0.125504 -0.158831 0)
(-0.133189 -0.144591 0)
(-0.140232 -0.129404 0)
(-0.146538 -0.113366 0)
(-0.152024 -0.096596 0)
(-0.156633 -0.0792258 0)
(-0.160291 -0.0613945 0)
(-0.162911 -0.0432782 0)
(-0.164703 -0.0250745 0)
(-0.165906 -0.0068044 0)
(-0.00412249 -0.231993 0)
(-0.012672 -0.237944 0)
(-0.0212024 -0.236009 0)
(-0.0297644 -0.233269 0)
(-0.0383497 -0.229582 0)
(-0.0469485 -0.224933 0)
(-0.055543 -0.2193 0)
(-0.0641055 -0.212663 0)
(-0.0725976 -0.205005 0)
(-0.0809706 -0.196313 0)
(-0.0891658 -0.186582 0)
(-0.0971157 -0.17582 0)
(-0.104746 -0.164046 0)
(-0.111975 -0.151294 0)
(-0.118723 -0.137617 0)
(-0.124909 -0.123081 0)
(-0.130457 -0.107774 0)
(-0.135303 -0.0918017 0)
(-0.139401 -0.075279 0)
(-0.1427 -0.0583284 0)
(-0.145121 -0.0410964 0)
(-0.146793 -0.0237581 0)
(-0.147971 -0.00636865 0)
(-0.00367836 -0.224007 0)
(-0.0112981 -0.229792 0)
(-0.0188993 -0.227862 0)
(-0.0265197 -0.2251 0)
(-0.0341513 -0.221398 0)
(-0.0417813 -0.216748 0)
(-0.0493918 -0.211137 0)
(-0.0569569 -0.204555 0)
(-0.064442 -0.196994 0)
(-0.0718045 -0.188451 0)
(-0.0789944 -0.17893 0)
(-0.0859546 -0.168444 0)
(-0.0926233 -0.157017 0)
(-0.0989357 -0.144685 0)
(-0.104826 -0.1315 0)
(-0.110229 -0.117528 0)
(-0.115087 -0.102848 0)
(-0.119347 -0.087556 0)
(-0.122973 -0.0717552 0)
(-0.125928 -0.0555542 0)
(-0.12815 -0.0390772 0)
(-0.129709 -0.0224791 0)
(-0.130842 -0.00583878 0)
(-0.00322848 -0.216954 0)
(-0.00990871 -0.222594 0)
(-0.0165823 -0.220673 0)
(-0.023264 -0.217898 0)
(-0.0299523 -0.214194 0)
(-0.0366311 -0.209555 0)
(-0.0432835 -0.203976 0)
(-0.0498856 -0.197456 0)
(-0.0564068 -0.189993 0)
(-0.0628099 -0.181592 0)
(-0.0690523 -0.172264 0)
(-0.0750863 -0.162025 0)
(-0.0808609 -0.150905 0)
(-0.0863231 -0.13894 0)
(-0.0914203 -0.126182 0)
(-0.0961018 -0.112692 0)
(-0.100321 -0.0985454 0)
(-0.104036 -0.0838275 0)
(-0.10722 -0.068633 0)
(-0.109847 -0.0530604 0)
(-0.111871 -0.0372186 0)
(-0.113323 -0.0212446 0)
(-0.114408 -0.00523389 0)
(-0.00276992 -0.21083 0)
(-0.00849765 -0.216329 0)
(-0.0142535 -0.214421 0)
(-0.0200006 -0.211634 0)
(-0.0257557 -0.20793 0)
(-0.0314988 -0.203307 0)
(-0.0372155 -0.197763 0)
(-0.0428852 -0.191304 0)
(-0.0484804 -0.183936 0)
(-0.0539687 -0.175668 0)
(-0.0593137 -0.166514 0)
(-0.0644751 -0.156497 0)
(-0.0694106 -0.145646 0)
(-0.0740778 -0.133998 0)
(-0.0784348 -0.121603 0)
(-0.082442 -0.108521 0)
(-0.0860634 -0.0948208 0)
(-0.0892677 -0.0805822 0)
(-0.0920328 -0.0658907 0)
(-0.0943431 -0.050837 0)
(-0.096169 -0.0355195 0)
(-0.0975197 -0.0200608 0)
(-0.0985609 -0.00456731 0)
(-0.00229524 -0.20564 0)
(-0.00705948 -0.21098 0)
(-0.0119141 -0.209087 0)
(-0.0167301 -0.206292 0)
(-0.0215565 -0.202593 0)
(-0.0263705 -0.197987 0)
(-0.0311625 -0.192478 0)
(-0.0359189 -0.186078 0)
(-0.0406159 -0.178796 0)
(-0.0452258 -0.170645 0)
(-0.0497175 -0.161645 0)
(-0.0540555 -0.151819 0)
(-0.0582032 -0.141198 0)
(-0.0621253 -0.129817 0)
(-0.0657892 -0.117725 0)
(-0.0691648 -0.104979 0)
(-0.0722244 -0.091646 0)
(-0.074944 -0.0777987 0)
(-0.0773081 -0.0635146 0)
(-0.0793093 -0.0488776 0)
(-0.0809348 -0.033978 0)
(-0.0821876 -0.0189271 0)
(-0.0831926 -0.00384026 0)
(-0.00179479 -0.201417 0)
(-0.00560185 -0.206528 0)
(-0.00959674 -0.204661 0)
(-0.0134933 -0.20187 0)
(-0.0173872 -0.198187 0)
(-0.0212628 -0.19361 0)
(-0.0251005 -0.188141 0)
(-0.0289115 -0.181792 0)
(-0.0326883 -0.174573 0)
(-0.0364187 -0.166503 0)
(-0.0400806 -0.157612 0)
(-0.0436409 -0.147931 0)
(-0.0470614 -0.13749 0)
(-0.0503059 -0.126327 0)
(-0.0533418 -0.114484 0)
(-0.0561427 -0.102016 0)
(-0.058688 -0.0889862 0)
(-0.0609584 -0.0754595 0)
(-0.062942 -0.0615 0)
(-0.0646412 -0.0471846 0)
(-0.0660603 -0.0325982 0)
(-0.0672135 -0.0178465 0)
(-0.0681966 -0.00305906 0)
(-0.00127076 -0.198393 0)
(-0.0042032 -0.203171 0)
(-0.00746682 -0.201351 0)
(-0.0105164 -0.198582 0)
(-0.0135179 -0.194919 0)
(-0.0164698 -0.190378 0)
(-0.0192257 -0.184866 0)
(-0.0219025 -0.178465 0)
(-0.0245425 -0.171205 0)
(-0.027182 -0.163119 0)
(-0.029848 -0.154241 0)
(-0.03255 -0.144607 0)
(-0.0352751 -0.134257 0)
(-0.037979 -0.12324 0)
(-0.040593 -0.111609 0)
(-0.0430231 -0.099403 0)
(-0.0451693 -0.0866535 0)
(-0.0470858 -0.0734191 0)
(-0.0487656 -0.0597577 0)
(-0.050206 -0.0457265 0)
(-0.0514269 -0.0313819 0)
(-0.0524863 -0.0167899 0)
(-0.0534489 -0.0021025 0)
(-0.000820804 -0.196326 0)
(-0.00316455 -0.20053 0)
(-0.00597574 -0.198783 0)
(-0.00846023 -0.196087 0)
(-0.0108779 -0.192488 0)
(-0.0131575 -0.187985 0)
(-0.015488 -0.182674 0)
(-0.017676 -0.176441 0)
(-0.0196641 -0.169289 0)
(-0.021419 -0.161243 0)
(-0.0229351 -0.152355 0)
(-0.0242572 -0.1427 0)
(-0.0254806 -0.132326 0)
(-0.0266524 -0.12126 0)
(-0.0278607 -0.109563 0)
(-0.0292042 -0.0973063 0)
(-0.0307484 -0.0845641 0)
(-0.0323867 -0.0714044 0)
(-0.0340438 -0.0579213 0)
(-0.0355808 -0.0441898 0)
(-0.0367844 -0.0302475 0)
(-0.0377268 -0.0160779 0)
(-0.0388565 -0.00158014 0)
(-0.000650446 -0.193084 0)
(-0.00295605 -0.195835 0)
(-0.00581008 -0.194217 0)
(-0.00832168 -0.191772 0)
(-0.0108269 -0.188472 0)
(-0.0131633 -0.184298 0)
(-0.015295 -0.179258 0)
(-0.0172348 -0.173397 0)
(-0.0189685 -0.166724 0)
(-0.0204697 -0.159231 0)
(-0.0217059 -0.150901 0)
(-0.0226311 -0.141718 0)
(-0.0231912 -0.131718 0)
(-0.0234201 -0.12097 0)
(-0.0233356 -0.109508 0)
(-0.0229756 -0.0973727 0)
(-0.0224288 -0.0846185 0)
(-0.0218216 -0.0712991 0)
(-0.0213233 -0.0574632 0)
(-0.02116 -0.0431698 0)
(-0.0216089 -0.0285264 0)
(-0.0226256 -0.0137466 0)
(-0.0239827 0.000806062 0)
(-0.000661436 -0.191372 0)
(-0.00316394 -0.193051 0)
(-0.00632807 -0.191523 0)
(-0.00898663 -0.189197 0)
(-0.0115625 -0.185999 0)
(-0.0139571 -0.181956 0)
(-0.0161555 -0.177084 0)
(-0.0181326 -0.171393 0)
(-0.0198639 -0.164895 0)
(-0.021322 -0.157607 0)
(-0.0224778 -0.149546 0)
(-0.0233006 -0.140728 0)
(-0.023759 -0.131167 0)
(-0.0238308 -0.120882 0)
(-0.0235039 -0.109902 0)
(-0.0227762 -0.0982585 0)
(-0.0216537 -0.0859869 0)
(-0.0201553 -0.073118 0)
(-0.0183212 -0.0596775 0)
(-0.0162315 -0.0456873 0)
(-0.0140355 -0.0311428 0)
(-0.0120071 -0.0159633 0)
(-0.0106 2.92277e-05 0)
)
;

boundaryField
{
    leftWall
    {
        type            fixedValue;
        value           uniform (0 0 0);
    }
    rightWall
    {
        type            fixedValue;
        value           nonuniform 0();
    }
    lowerWall
    {
        type            fixedValue;
        value           nonuniform 0();
    }
    atmosphere
    {
        type            fluxCorrectedVelocity;
        value           nonuniform List<vector> 
23
(
(-0.000661436 -0.191354 0)
(-0.00316394 -0.19302 0)
(-0.00632807 -0.191494 0)
(-0.00898663 -0.18917 0)
(-0.0115625 -0.185975 0)
(-0.0139571 -0.181935 0)
(-0.0161555 -0.177066 0)
(-0.0181326 -0.171378 0)
(-0.0198639 -0.164884 0)
(-0.021322 -0.157599 0)
(-0.0224778 -0.149541 0)
(-0.0233006 -0.140727 0)
(-0.023759 -0.131168 0)
(-0.0238308 -0.120886 0)
(-0.0235039 -0.109908 0)
(-0.0227762 -0.0982672 0)
(-0.0216537 -0.0859989 0)
(-0.0201553 -0.073134 0)
(-0.0183212 -0.059698 0)
(-0.0162315 -0.0457124 0)
(-0.0140355 -0.0311715 0)
(-0.0120071 -0.0159912 0)
(-0.0106 1.25832e-05 0)
)
;
    }
    defaultFaces
    {
        type            empty;
    }
    procBoundary2to0
    {
        type            processor;
        value           nonuniform List<vector> 
24
(
(-0.224568 -0.336432 0)
(-0.202785 -0.328158 0)
(-0.254 -0.217553 0)
(-0.423267 -0.0776593 0)
(-0.579549 0.0215926 0)
(-0.593438 0.0691005 0)
(-0.572118 0.119629 0)
(-0.00569792 -0.445094 0)
(-0.0167035 -0.459391 0)
(-0.0267183 -0.467995 0)
(-0.0395203 -0.478406 0)
(-0.0524788 -0.489713 0)
(-0.0676635 -0.5005 0)
(-0.0867143 -0.510961 0)
(-0.11353 -0.520224 0)
(-0.145572 -0.52207 0)
(-0.168585 -0.518833 0)
(-0.211544 -0.533996 0)
(-0.278154 -0.523783 0)
(-0.336955 -0.485642 0)
(-0.356719 -0.445078 0)
(-0.365867 -0.445502 0)
(-0.379929 -0.468293 0)
(-0.379929 -0.468293 0)
)
;
    }
    procBoundary2to3
    {
        type            processor;
        value           nonuniform List<vector> 
25
(
(-0.5454 0.127519 0)
(-0.516252 0.0954539 0)
(-0.47025 0.0461808 0)
(-0.433334 0.0430234 0)
(-0.412011 0.0397929 0)
(-0.385139 0.0338794 0)
(-0.355383 0.0249751 0)
(-0.323291 0.0206073 0)
(-0.295649 0.0160157 0)
(-0.270097 0.012955 0)
(-0.246654 0.010607 0)
(-0.224656 0.00898716 0)
(-0.203928 0.00786146 0)
(-0.184315 0.00712615 0)
(-0.165693 0.00668311 0)
(-0.147949 0.00646862 0)
(-0.130975 0.00643931 0)
(-0.114669 0.00656798 0)
(-0.0989275 0.00683989 0)
(-0.0836544 0.00725118 0)
(-0.068747 0.0078077 0)
(-0.0540834 0.00856176 0)
(-0.0397034 0.0092862 0)
(-0.0246695 0.0111572 0)
(-0.010641 0.0114066 0)
)
;
    }
}


// ************************************************************************* //
